Membrane in water
40155
    1TCq1    O1    1   2.484   4.326  11.248 -0.2328 -0.0521 -0.1541
    1TCq1    C1    2   2.450   4.408  11.353  0.5208 -0.2827 -0.5248
    1TCq1    O2    3   2.516   4.498  11.402  0.5815 -0.1250  0.3480
    1TCq1    C2    4   2.352   4.346  11.439 -0.8781  0.0384 -0.2852
    1TCq1    C3    5   2.244   4.287  11.380  0.1535 -0.4013 -0.2061
    1TCq1    C4    6   2.169   4.199  11.453 -0.3136 -0.5811  0.3766
    1TCq1    C5    7   2.192   4.174  11.583  1.0391  0.0201  0.0035
    1TCq1    C6    8   2.289   4.257  11.648  0.4822 -0.2896 -0.4780
    1TCq1    C7    9   2.364   4.349  11.573  0.0967  0.3629 -0.2483
    1TCq1    C8   10   2.300   4.266  11.790 -0.1753 -0.0748  0.4126
    1TCq1    O4   11   2.354   4.365  11.840  0.0591 -0.3342 -0.0722
    1TCq1    C9   12   2.064   4.127  11.386 -0.3610  0.1437  0.3322
    1TCq1    O5   13   1.978   4.065  11.449  0.3607  0.0063  0.1983
    1TCq1    O6   14   2.047   4.149  11.265 -0.2148 -0.4001 -0.4087
    1TCq1    H1   15   2.438   4.241  11.263 -2.4823  0.8331 -1.9500
    1TCq1    H2   16   2.222   4.308  11.276 -0.3468  0.9090  0.1580
    1TCq1    H3   17   2.130   4.104  11.640  3.4319  0.8804  3.6811
    1TCq1    H4   18   2.436   4.413  11.623 -0.2509  2.5132 -2.4874
    2MPD2     C   19   2.194   4.098  12.268 -0.1289 -0.1358 -0.1137
    2MPD2    C1   20   2.232   4.220  12.220 -0.0036 -0.4480  0.5178
    2MPD2    C2   21   2.255   4.244  12.083  0.1364  0.0585 -0.0486
    2MPD2    C3   22   2.235   4.144  11.993 -0.3840 -0.8403 -1.0651
    2MPD2    C4   23   2.198   4.018  12.039  0.5554  0.2029  0.3109
    2MPD2    C5   24   2.177   4.002  12.177  0.3552  0.3113  0.2063
    2MPD2     H   25   2.282   4.343  12.049  0.1654  0.7129  1.8413
    2MPD2    H1   26   2.190   3.925  11.983 -0.0844  0.2386  0.3433
    2MPD2    H2   27   2.172   4.072  12.371  2.3986  1.7596  0.8968
    2MPD2    H3   28   2.147   3.907  12.219  1.1651  0.4041  0.9851
    2MPD2     N   29   2.252   4.158  11.852 -0.4989  0.4175  0.0774
    2MPD2    H5   30   2.238   4.069  11.805  1.5440 -0.4252  1.0271
    2MPD2    N1   31   2.206   4.338  12.301  0.1585 -0.1629 -0.0735
    2MPD2    H7   32   2.202   4.426  12.251 -1.4970 -0.2208 -0.0557
    3TCq1    O1   33   0.963   0.999  11.538  0.2440 -0.5358 -0.2494
    3TCq1    C1   34   0.851   1.060  11.562  0.4491  0.0501  0.1034
    3TCq1    O2   35   0.778   1.029  11.651  0.8253 -0.4833 -0.2142
    3TCq1    C2   36   0.849   1.180  11.482 -0.4924  0.4423  0.0340
    3TCq1    C3   37   0.933   1.182  11.375 -0.0635 -0.0390 -0.1273
    3TCq1    C4   38   0.992   1.300  11.343 -0.3126 -0.3225  0.1171
    3TCq1    C5   39   0.977   1.412  11.411 -0.4030  0.5090 -0.3485
    3TCq1    C6   40   0.894   1.400  11.523  0.2961 -0.9215  0.5696
    3TCq1    C7   41   0.826   1.286  11.554  0.4163  0.0252 -0.0041
    3TCq1    C8   42   0.882   1.507  11.624 -0.4228 -0.6044  0.1808
    3TCq1    O4   43   0.846   1.472  11.734 -0.1756 -0.3635 -0.4116
    3TCq1    C9   44   1.088   1.303  11.230  0.0060  0.5144 -0.0395
    3TCq1    O5   45   1.095   1.418  11.174  0.2048 -0.1484 -0.1986
    3TCq1    O6   46   1.150   1.198  11.207 -0.2529 -0.0526 -0.5827
    3TCq1    H1   47   1.009   1.040  11.462 -0.1258  1.1789  0.4657
    3TCq1    H2   48   0.935   1.111  11.293 -1.1954 -1.4662  1.0789
    3TCq1    H3   49   1.039   1.499  11.397 -0.4297  0.4586 -0.7770
    3TCq1    H4   50   0.765   1.284  11.644 -0.6076 -2.5398 -0.7452
    4MPD2     C   51   0.984   1.980  11.783 -1.4309 -0.0381  0.2405
    4MPD2    C1   52   0.987   1.978  11.649  0.7958 -0.3351  0.7420
    4MPD2    C2   53   0.969   1.853  11.590 -0.1107 -0.0968  0.0882
    4MPD2    C3   54   0.930   1.741  11.660 -0.7093  0.1096 -0.1350
    4MPD2    C4   55   0.922   1.745  11.802  0.0253  0.7957  0.4783
    4MPD2    C5   56   0.956   1.868  11.860 -0.3231 -0.0163 -0.4137
    4MPD2     H   57   0.971   1.853  11.482 -1.8156  0.9416  0.0554
    4MPD2    H1   58   0.903   1.657  11.862 -1.6250 -0.4688 -1.8794
    4MPD2    H2   59   1.008   2.070  11.837  0.3360 -0.6755  0.5135
    4MPD2    H3   60   0.955   1.886  11.967  1.7338  0.2223 -0.4205
    4MPD2     N   61   0.909   1.631  11.583  0.0420 -0.2869  1.2667
    4MPD2    H5   62   0.902   1.652  11.484 -1.4845  1.0495  1.6461
    4MPD2    N1   63   1.011   2.095  11.571 -0.9019  0.0460 -0.3296
    4MPD2    H7   64   1.025   2.074  11.473  2.3540  2.2546 -0.3575
    5TCq1    O1   65   2.022   3.834  11.567 -0.7243 -0.3540  0.6059
    5TCq1    C1   66   2.014   3.705  11.520  0.6336  0.0789  0.5631
    5TCq1    O2   67   2.052   3.605  11.572  0.1803 -0.1084 -0.1888
    5TCq1    C2   68   1.958   3.689  11.388 -0.0414  0.2087  0.2102
    5TCq1    C3   69   1.884   3.789  11.331  0.8231 -0.3669  0.2326
    5TCq1    C4   70   1.868   3.797  11.194  0.0893 -0.4991  0.1637
    5TCq1    C5   71   1.898   3.690  11.114  0.1999 -0.0521  0.2406
    5TCq1    C6   72   1.972   3.594  11.179  0.2832 -0.3944 -0.7053
    5TCq1    C7   73   2.007   3.587  11.307 -0.2261 -0.4957 -0.0953
    5TCq1    C8   74   2.016   3.484  11.096 -0.3107 -0.5888  0.4533
    5TCq1    O4   75   2.050   3.380  11.153 -0.1752  0.1874  0.2872
    5TCq1    C9   76   1.793   3.907  11.136 -0.4454  0.5803 -0.2969
    5TCq1    O5   77   1.764   3.904  11.015 -0.2174 -0.0177 -0.0531
    5TCq1    O6   78   1.749   3.997  11.216 -0.5304  0.0069  0.3420
    5TCq1    H1   79   1.997   3.902  11.501  0.4347  1.8308  2.3843
    5TCq1    H2   80   1.844   3.871  11.390  0.8254  0.4113 -0.8435
    5TCq1    H3   81   1.856   3.685  11.014  0.5653  2.0714 -0.0092
    5TCq1    H4   82   2.074   3.511  11.345  1.2301  0.0217 -1.6639
    6MPD2     C   83   2.070   3.489  10.728 -0.4109  0.0192  0.0991
    6MPD2    C1   84   2.060   3.428  10.852 -0.6579  0.9354  0.2509
    6MPD2    C2   85   2.090   3.292  10.871 -0.2470 -0.1148  0.6661
    6MPD2    C3   86   2.136   3.223  10.763  0.1214 -0.4962 -0.3282
    6MPD2    C4   87   2.151   3.286  10.639  0.1614 -0.2547 -0.6371
    6MPD2    C5   88   2.117   3.417  10.624  0.5877 -0.0425  0.2510
    6MPD2     H   89   2.088   3.240  10.966  1.9900 -2.9485 -0.8228
    6MPD2    H1   90   2.174   3.226  10.551  0.8239 -0.1374 -0.5391
    6MPD2    H2   91   2.064   3.597  10.714 -0.9970  0.0326  0.4812
    6MPD2    H3   92   2.143   3.475  10.536  1.7414 -0.3536  0.3831
    6MPD2     N   93   2.154   3.079  10.790  0.5066 -0.1730  0.3250
    6MPD2    H5   94   2.117   3.049  10.880 -0.0354 -1.5977 -0.3668
    6MPD2    N1   95   2.030   3.518  10.964  0.0144  0.8671 -0.8539
    6MPD2    H7   96   2.018   3.615  10.936  0.2966  0.5567 -2.0197
    7TCq1    O1   97   4.010   2.408  12.397 -0.9200  0.4481  0.3103
    7TCq1    C1   98   3.995   2.308  12.307  0.8347 -0.1121  0.1707
    7TCq1    O2   99   4.007   2.330  12.186  0.3616  0.3670  0.9204
    7TCq1    C2  100   3.924   2.206  12.380  0.3504  0.3361 -0.9385
    7TCq1    C3  101   3.812   2.162  12.318 -0.0156 -0.6071  0.0632
    7TCq1    C4  102   3.727   2.099  12.402 -0.3166  0.4718  0.6658
    7TCq1    C5  103   3.751   2.083  12.537 -0.5410  0.5257  0.0102
    7TCq1    C6  104   3.866   2.127  12.584  0.3225 -0.3247 -0.5242
    7TCq1    C7  105   3.953   2.201  12.515 -0.4397  0.1829  0.9290
    7TCq1    C8  106   3.894   2.080  12.714 -0.1047 -0.1821 -0.5294
    7TCq1    O4  107   3.843   1.976  12.750  0.2432  0.5128 -0.2993
    7TCq1    C9  108   3.609   2.051  12.354  0.2517 -0.0422  0.1204
    7TCq1    O5  109   3.563   2.107  12.252  0.2522 -0.2523 -0.6169
    7TCq1    O6  110   3.543   1.968  12.419 -0.0457 -0.3243 -0.0088
    7TCq1    H1  111   3.972   2.389  12.486 -1.8418 -0.4019 -0.2680
    7TCq1    H2  112   3.777   2.185  12.218 -1.3745 -1.6325  0.3083
    7TCq1    H3  113   3.683   2.022  12.596  0.8027 -0.1377  0.8549
    7TCq1    H4  114   4.047   2.237  12.557  0.7338 -0.3047 -1.2819
    8MPD2     C  115   4.240   2.045  13.093 -0.1140  0.1042 -0.6063
    8MPD2    C1  116   4.149   1.959  13.040  0.1720  0.1037 -0.6956
    8MPD2    C2  117   4.068   1.996  12.938  0.1510  0.6791 -0.5447
    8MPD2    C3  118   4.071   2.123  12.887  0.1806 -0.2061 -0.1440
    8MPD2    C4  119   4.146   2.217  12.958  0.3577  0.8115  0.6759
    8MPD2    C5  120   4.230   2.176  13.058  0.0800  0.4033 -0.5184
    8MPD2     H  121   4.024   1.927  12.866  0.6474 -0.7786  0.5416
    8MPD2    H1  122   4.146   2.323  12.935  1.3863  0.8610  0.9075
    8MPD2    H2  123   4.313   2.010  13.166 -2.7840  0.9401  2.4718
    8MPD2    H3  124   4.298   2.250  13.098 -1.0614  0.2359  1.7225
    8MPD2     N  125   3.989   2.163  12.778  0.3308  0.1152  0.5458
    8MPD2    H5  126   3.996   2.260  12.751 -1.6711  0.2152  0.3775
    8MPD2    N1  127   4.155   1.835  13.094  0.6602 -0.0306  0.1419
    8MPD2    H7  128   4.238   1.810  13.147  1.1854  0.7461 -0.3151
    9TCq1    O1  129   2.179   4.169  11.044  0.3085 -0.8993 -0.0003
    9TCq1    C1  130   2.195   4.284  10.979  0.5659 -0.3517 -0.5551
    9TCq1    O2  131   2.291   4.304  10.906 -0.0691 -0.0978 -0.0015
    9TCq1    C2  132   2.103   4.385  11.028  0.0354 -0.4657 -0.1445
    9TCq1    C3  133   1.966   4.352  11.053 -0.4109 -0.4438 -0.2826
    9TCq1    C4  134   1.869   4.446  11.057 -0.7107  0.5965  0.1930
    9TCq1    C5  135   1.900   4.578  11.041  0.3379 -0.6505 -0.2943
    9TCq1    C6  136   2.032   4.612  11.022 -0.0754 -0.3758 -0.1193
    9TCq1    C7  137   2.129   4.517  11.002 -0.0138  0.0571  0.0659
    9TCq1    C8  138   2.057   0.020  10.977  0.0516 -0.2020 -0.7965
    9TCq1    O4  139   2.143   0.036  10.891  0.1314 -0.2907 -0.1966
    9TCq1    C9  140   1.731   4.402  11.056  0.8878  0.5378 -0.1938
    9TCq1    O5  141   1.714   4.280  11.077 -0.0918 -0.0459 -0.7296
    9TCq1    O6  142   1.637   4.488  11.056  0.8071 -0.7102  0.1167
    9TCq1    H1  143   2.111   4.172  11.116 -1.3572  3.5333 -1.8038
    9TCq1    H2  144   1.943   4.247  11.046  0.7400 -0.5644 -2.4968
    9TCq1    H3  145   1.822   4.652  11.033  0.2808 -0.3855  2.5205
    9TCq1    H4  146   2.226   4.545  10.963 -0.9540 -1.2375 -3.2235
   10MPD2     C  147   2.135   0.308  10.982  0.1491  0.3691  0.1932
   10MPD2    C1  148   2.053   0.246  11.076 -0.9146  0.9447  0.2999
   10MPD2    C2  149   2.012   0.313  11.188 -0.4718 -0.4737  0.7064
   10MPD2    C3  150   2.061   0.437  11.226 -0.7377  0.3631  0.3900
   10MPD2    C4  151   2.138   0.499  11.134 -0.4325 -0.5844  0.4399
   10MPD2    C5  152   2.168   0.436  11.015  0.2986 -0.1672 -0.5780
   10MPD2     H  153   1.946   0.258  11.253 -0.8178  1.4948  1.9899
   10MPD2    H1  154   2.180   0.598  11.148  4.3601 -2.4060 -0.9679
   10MPD2    H2  155   2.183   0.262  10.896 -0.4733  0.9758 -0.4779
   10MPD2    H3  156   2.233   0.495  10.950 -0.1696  0.2178 -0.7018
   10MPD2     N  157   2.037   0.498  11.351 -0.0156  0.0028  0.0573
   10MPD2    H5  158   2.094   0.579  11.372  0.8592 -1.4265  3.2299
   10MPD2    N1  159   2.020   0.112  11.071 -0.2222 -0.0012 -0.0027
   10MPD2    H7  160   1.960   0.074  11.143  1.8082 -0.5982  1.4005
   11TCq1    O1  161   3.478   0.846  13.815 -0.1434  0.0818  0.5081
   11TCq1    C1  162   3.349   0.860  13.831 -0.4513 -0.0987  0.1123
   11TCq1    O2  163   3.269   0.871  13.741 -0.3061  0.4310  0.3321
   11TCq1    C2  164   3.300   0.852  13.966  0.1190  0.0722  0.3189
   11TCq1    C3  165   3.380   0.827  14.071 -0.6723  0.8175  0.3721
   11TCq1    C4  166   3.325   0.823  14.193 -0.3877  0.5513 -1.0262
   11TCq1    C5  167   3.194   0.855  14.210 -0.3911 -0.6859 -0.1445
   11TCq1    C6  168   3.109   0.870  14.107  0.6100  0.0912 -0.2857
   11TCq1    C7  169   3.161   0.873  13.981  0.2001 -0.0896 -0.2328
   11TCq1    C8  170   2.967   0.862  14.132 -0.1990  0.7518 -0.2036
   11TCq1    O4  171   2.924   0.875  14.249  0.9770 -0.1954 -0.9827
   11TCq1    C9  172   3.409   0.789  14.305  0.8795  0.1750  0.1541
   11TCq1    O5  173   3.520   0.845  14.321  0.0849  0.4078  0.2115
   11TCq1    O6  174   3.353   0.729  14.402  0.1027  0.1013 -0.3600
   11TCq1    H1  175   3.531   0.827  13.895  0.7299  0.6392  0.0592
   11TCq1    H2  176   3.486   0.809  14.057 -1.0028 -0.2310 -0.7497
   11TCq1    H3  177   3.147   0.848  14.308  1.7927  1.3065  1.0199
   11TCq1    H4  178   3.104   0.888  13.890 -1.7752  2.4876  1.4212
   12MPD2     C  179   2.667   0.854  14.118  0.6348 -0.1122 -0.2343
   12MPD2    C1  180   2.755   0.805  14.020 -0.4438 -0.3716  0.2939
   12MPD2    C2  181   2.714   0.712  13.928 -0.2348  0.1189 -0.3653
   12MPD2    C3  182   2.581   0.669  13.939 -0.4829 -0.4353 -0.1269
   12MPD2    C4  183   2.499   0.725  14.036 -0.4772 -0.2478 -0.3508
   12MPD2    C5  184   2.536   0.824  14.125 -0.2413  0.9035  0.4205
   12MPD2     H  185   2.782   0.686  13.847 -0.4318 -1.5528  0.0080
   12MPD2    H1  186   2.399   0.685  14.048 -1.7636  2.7148 -1.1666
   12MPD2    H2  187   2.708   0.927  14.187  0.7555  1.3621 -1.8561
   12MPD2    H3  188   2.472   0.854  14.207 -0.6381  1.7335 -0.1946
   12MPD2     N  189   2.533   0.560  13.866  0.0965 -0.2899 -0.3120
   12MPD2    H5  190   2.436   0.531  13.869  1.0505 -3.3764  0.6489
   12MPD2    N1  191   2.897   0.843  14.014 -0.1973 -0.0072 -0.5112
   12MPD2    H7  192   2.956   0.811  13.938  0.4641  0.8264 -0.3429
   13TCq1    O1  193   0.981   4.675  11.975 -0.1053 -0.4079 -0.0994
   13TCq1    C1  194   1.087   0.034  11.994  0.0193 -0.4262 -0.1155
   13TCq1    O2  195   1.118   0.108  12.087  0.6423  0.1535 -0.2943
   13TCq1    C2  196   1.131   0.074  11.861 -0.7973  0.1311 -0.3903
   13TCq1    C3  197   1.135   4.699  11.769  0.3427  0.2894  0.7340
   13TCq1    C4  198   1.184   0.013  11.649  0.2817  0.2429 -0.1801
   13TCq1    C5  199   1.209   0.142  11.613  0.4662 -0.0904  0.2753
   13TCq1    C6  200   1.180   0.241  11.702 -0.0750 -0.0605 -0.4248
   13TCq1    C7  201   1.141   0.209  11.824 -0.1538 -0.4642  0.1934
   13TCq1    C8  202   1.207   0.384  11.679  0.5161 -0.1630  0.4008
   13TCq1    O4  203   1.165   0.462  11.763  0.2625  0.3315 -0.2199
   13TCq1    C9  204   1.226   4.632  11.557 -0.1329  0.0269 -0.5213
   13TCq1    O5  205   1.280   4.678  11.453  0.1101 -0.4131  0.8873
   13TCq1    O6  206   1.202   4.515  11.592  0.5472 -0.1503 -0.3308
   13TCq1    H1  207   0.959   4.658  11.881 -1.7612  0.9804  0.0437
   13TCq1    H2  208   1.132   4.596  11.803 -0.2688  0.3099  0.7448
   13TCq1    H3  209   1.254   0.168  11.518 -1.1133 -0.6537 -0.6146
   13TCq1    H4  210   1.127   0.289  11.896  0.4413 -2.0730  2.1065
   14MPD2     C  211   1.386   0.533  11.398 -0.7254  0.5555  0.2006
   14MPD2    C1  212   1.322   0.539  11.519  0.3306 -0.2542  0.1070
   14MPD2    C2  213   1.302   0.660  11.587  0.8796 -0.2397  0.2180
   14MPD2    C3  214   1.337   0.782  11.525  0.9235 -0.2351  0.6815
   14MPD2    C4  215   1.412   0.778  11.405  0.3293  0.1533 -0.3354
   14MPD2    C5  216   1.432   0.653  11.346  0.0949  0.9828  0.6308
   14MPD2     H  217   1.260   0.666  11.687  1.3059  2.6527  0.2031
   14MPD2    H1  218   1.457   0.864  11.358 -0.8453  3.2546  4.2129
   14MPD2    H2  219   1.402   0.439  11.346  1.4682  0.5975  0.7958
   14MPD2    H3  220   1.493   0.650  11.257 -1.2962 -0.0502 -0.2911
   14MPD2     N  221   1.327   0.908  11.593 -0.1250  0.1310  0.0664
   14MPD2    H5  222   1.266   0.905  11.674 -0.6144  0.0253 -0.3051
   14MPD2    N1  223   1.268   0.412  11.557 -0.2568 -0.3775  0.4356
   14MPD2    H7  224   1.294   0.333  11.498  1.8532  2.0797 -1.9188
   15TCq1    O1  225   3.926   0.020   1.910  0.2195 -0.1372 -0.0260
   15TCq1    C1  226   3.992   4.629   1.908 -0.5741 -0.1947 -0.3578
   15TCq1    O2  227   4.080   4.593   1.983 -0.3644  0.2816 -0.4985
   15TCq1    C2  228   3.968   4.585   1.773 -0.0830  0.3095 -0.1675
   15TCq1    C3  229   3.844   4.605   1.720 -0.3651 -0.0699  0.2126
   15TCq1    C4  230   3.826   4.574   1.589 -0.0716  0.2288 -0.0099
   15TCq1    C5  231   3.929   4.528   1.508 -0.0299 -0.6907  0.6439
   15TCq1    C6  232   4.057   4.519   1.566  0.3396  0.4154  0.5663
   15TCq1    C7  233   4.073   4.536   1.699 -0.7912 -0.8181  0.1788
   15TCq1    C8  234   4.172   4.463   1.499 -0.5738 -0.1534  0.1015
   15TCq1    O4  235   4.251   4.413   1.576  0.0822 -0.2563 -0.2437
   15TCq1    C9  236   3.690   4.579   1.539  0.2321 -0.0729 -1.1893
   15TCq1    O5  237   3.610   4.637   1.617 -0.1311 -0.0167 -0.6724
   15TCq1    O6  238   3.672   4.544   1.423  0.7892  0.2187 -0.5579
   15TCq1    H1  239   3.894   0.058   1.825 -2.3692  0.8243  1.3649
   15TCq1    H2  240   3.764   4.634   1.788  0.9960  1.2870  1.2358
   15TCq1    H3  241   3.905   4.519   1.403  1.0222  0.9060  0.2751
   15TCq1    H4  242   4.170   4.523   1.745 -0.8889 -0.8788  0.3686
   16MPD2     C  243   4.202   4.404   1.147 -0.4163 -0.2761  0.4071
   16MPD2    C1  244   4.244   4.403   1.276  0.0889  0.4177  0.4048
   16MPD2    C2  245   4.364   4.349   1.303  0.2225 -0.6729  0.5096
   16MPD2    C3  246   4.446   4.294   1.204 -0.1135 -1.1939 -0.4564
   16MPD2    C4  247   4.406   4.309   1.074  0.1239 -0.1979 -0.2955
   16MPD2    C5  248   4.282   4.365   1.052  0.2135 -0.2239 -0.1026
   16MPD2     H  249   4.388   4.334   1.408 -0.2057 -0.1068  0.6893
   16MPD2    H1  250   4.463   4.276   0.988  0.2431 -0.5110 -0.0928
   16MPD2    H2  251   4.103   4.437   1.116 -0.8637 -0.7605  1.3380
   16MPD2    H3  252   4.253   4.366   0.947  1.7478 -0.6545 -0.5417
   16MPD2     N  253   4.561   4.234   1.248  0.6163  0.2511  0.3972
   16MPD2    H5  254   4.573   4.233   1.349  2.9594 -0.2360  0.1144
   16MPD2    N1  255   4.155   4.459   1.368  0.5197 -0.5325 -0.3374
   16MPD2    H7  256   4.069   4.499   1.330 -0.1720 -0.4861  1.2651
   17TCq1    O1  257   1.378   3.445  11.323  0.3497  0.4717 -0.5019
   17TCq1    C1  258   1.390   3.417  11.198  0.1457  1.0388  0.3783
   17TCq1    O2  259   1.408   3.313  11.138 -0.1164  0.1541  0.0654
   17TCq1    C2  260   1.426   3.543  11.137  0.0582  1.1716  0.7053
   17TCq1    C3  261   1.386   3.660  11.192  0.2335  0.2615 -0.2586
   17TCq1    C4  262   1.416   3.774  11.119  0.4094 -0.0677  0.3764
   17TCq1    C5  263   1.489   3.765  11.004 -0.2709 -0.4135  0.2494
   17TCq1    C6  264   1.539   3.647  10.963 -0.4313 -0.3372 -0.5608
   17TCq1    C7  265   1.513   3.537  11.033  0.2785 -0.3734  0.0553
   17TCq1    C8  266   1.608   3.628  10.838 -0.6841  0.2432 -0.0291
   17TCq1    O4  267   1.627   3.512  10.801 -0.6935  0.3338  0.4123
   17TCq1    C9  268   1.395   3.903  11.178  0.5482  0.8276  0.0550
   17TCq1    O5  269   1.369   3.902  11.300 -0.3259  0.0325 -0.4681
   17TCq1    O6  270   1.428   4.004  11.111 -0.0430  0.7168 -0.7821
   17TCq1    H1  271   1.388   3.534  11.362  1.4458  0.2012 -0.1749
   17TCq1    H2  272   1.321   3.660  11.279 -0.2187 -0.5937 -0.6013
   17TCq1    H3  273   1.520   3.859  10.959 -0.1585 -0.5971 -0.0617
   17TCq1    H4  274   1.536   3.444  10.982  1.2218 -0.5883  0.8705
   18MPD2     C  275   1.754   3.660  10.588 -0.0541  0.2456 -0.4362
   18MPD2    C1  276   1.770   3.743  10.693 -0.3713  0.1382  0.4661
   18MPD2    C2  277   1.868   3.842  10.695  0.3686  0.7490  0.8771
   18MPD2    C3  278   1.951   3.845  10.583  0.1960 -0.2245 -0.6668
   18MPD2    C4  279   1.936   3.757  10.483 -0.7919 -0.7452  0.0905
   18MPD2    C5  280   1.839   3.664  10.479 -0.4464  0.2281  0.0701
   18MPD2     H  281   1.880   3.908  10.780  1.8033  0.1617  1.1243
   18MPD2    H1  282   2.019   3.731  10.418  1.6725 -0.7470  3.2457
   18MPD2    H2  283   1.672   3.590  10.587 -0.0839  0.2571  1.1775
   18MPD2    H3  284   1.822   3.588  10.403 -0.5899  2.5505 -2.1934
   18MPD2     N  285   2.059   3.934  10.572 -0.0497  0.1494 -0.8424
   18MPD2    H5  286   2.122   3.928  10.493 -0.7088 -4.4033 -1.0210
   18MPD2    N1  287   1.691   3.735  10.806 -0.2558  0.3822 -0.7400
   18MPD2    H7  288   1.712   3.806  10.875  0.1202 -0.1901 -0.2579
   19TMC2    C1  289   3.652   0.190  13.725  0.9631 -0.1084  0.2215
   19TMC2    C2  290   3.594   0.232  13.604 -0.3943 -0.6064 -0.1377
   19TMC2    C3  291   3.494   0.151  13.549  0.0361  0.1618 -0.1715
   19TMC2    C4  292   3.602   0.080  13.799 -0.6009  0.0030  0.2255
   19TMC2    C5  293   3.505   0.008  13.740  0.2371  0.0266  0.2219
   19TMC2    C6  294   3.453   0.037  13.615 -0.9575 -0.3698 -0.1458
   19TMC2     C  295   3.754   0.283  13.776 -0.7532  0.8673  0.3638
   19TMC2     O  296   3.744   0.397  13.733 -0.2469 -0.2767 -0.0188
   19TMC2     H  297   3.635   0.315  13.548 -2.2169  1.2558  1.2827
   19TMC2    H1  298   3.650   0.049  13.892 -0.5402  1.6137  0.7394
   19TMC2    H2  299   3.392   4.689  13.563  0.8413 -1.3767 -0.8334
   19TMC2    C7  300   3.473   4.600  13.782  0.0038 -0.3260 -0.9400
   19TMC2    C8  301   3.493   0.127  13.405  0.0243  0.1876 -0.1699
   19TMC2    O1  302   3.384   4.544  13.721 -0.2697 -0.5272  0.0358
   19TMC2    O2  303   3.402   0.078  13.338  0.0583 -0.2439  0.2094
   19TMC2    O5  304   3.625   0.108  13.378 -0.1598  0.4018 -0.1017
   19TMC2    H5  305   3.693   0.114  13.449 -0.2837  1.2664 -0.0584
   20MPD2     C  306   3.963   0.443  13.907  0.0943 -0.1508  0.0349
   20MPD2    C1  307   3.932   0.314  13.944  0.0845  0.1833 -0.3222
   20MPD2    C2  308   3.989   0.258  14.061  0.3539 -0.0676  0.5216
   20MPD2    C3  309   4.066   0.338  14.137 -0.3542  0.3230  0.4104
   20MPD2    C4  310   4.102   0.463  14.093 -0.1826  0.1345  0.3930
   20MPD2    C5  311   4.053   0.524  13.980 -0.2415  0.1625  0.3308
   20MPD2     H  312   3.968   0.154  14.084 -0.1036 -0.4051 -1.3708
   20MPD2    H1  313   4.174   0.528  14.140  2.9098 -3.8937  1.1934
   20MPD2    H2  314   3.941   0.496  13.815 -2.1834  0.6020  1.0093
   20MPD2    H3  315   4.077   0.626  13.954 -0.0684  0.2405  0.7946
   20MPD2     N  316   4.102   0.316  14.274  0.2955  0.2838  0.2024
   20MPD2    H5  317   4.139   0.399  14.319  2.1783 -0.2695 -0.3096
   20MPD2    N1  318   3.828   0.238  13.878  0.8411  0.1712  0.4392
   20MPD2    H7  319   3.808   0.151  13.927  3.8126 -1.3700 -1.0995
   21MPD2     C  320   1.465   1.138  14.024 -0.3218  0.3515  0.4463
   21MPD2    C1  321   1.534   1.027  14.071 -0.0289 -0.5994 -0.0101
   21MPD2    C2  322   1.502   0.975  14.194 -0.1149 -0.3348  0.6655
   21MPD2    C3  323   1.401   1.022  14.267  0.1659 -0.2148  0.4775
   21MPD2    C4  324   1.338   1.140  14.227 -0.1734 -0.5285 -0.5595
   21MPD2    C5  325   1.375   1.189  14.109 -0.1017  0.0767  0.5028
   21MPD2     H  326   1.568   0.894  14.222  1.8222  0.5072 -1.4622
   21MPD2    H1  327   1.249   1.180  14.276  1.0102 -0.1582  1.2734
   21MPD2    H2  328   1.470   1.191  13.929  0.4841  2.0439  1.4142
   21MPD2    H3  329   1.317   1.270  14.065 -0.7756 -1.6721 -1.8129
   21MPD2     N  330   1.358   0.967  14.391 -0.1645  0.1580  0.2152
   21MPD2    H5  331   1.277   1.004  14.439  0.9746 -0.6329  2.7720
   21MPD2    N1  332   1.642   0.956  14.000 -0.0927 -0.3051 -0.4740
   21MPD2    H7  333   1.683   0.873  14.041  0.3246 -0.8035 -1.8940
   22TCq2    C1  334   1.408   0.847  14.446 -0.0348 -0.2072 -0.1645
   22TCq2    O2  335   1.485   0.768  14.396  0.0283 -0.0504  0.0364
   22TCq2    C2  336   1.358   0.822  14.582  0.1534 -0.1956  0.3877
   22TCq2    C3  337   1.423   0.716  14.644 -0.3131  0.8879  0.4575
   22TCq2    C4  338   1.436   0.709  14.781 -0.6815  0.1292  0.3257
   22TCq2    C5  339   1.376   0.803  14.855  0.1204  0.2606  0.2628
   22TCq2    C6  340   1.303   0.902  14.795 -0.2168  0.5129  0.6440
   22TCq2    C7  341   1.301   0.920  14.663  0.8382  0.5008  0.2295
   22TCq2    C8  342   1.262   1.009  14.886 -0.9541 -0.3604  0.0549
   22TCq2    O4  343   1.284   0.986  15.004 -0.9238 -0.0344  0.6919
   22TCq2    C9  344   1.510   0.600  14.834  0.2139  0.1269 -0.2687
   22TCq2    O5  345   1.554   0.613  14.954 -0.0273 -0.0879 -0.0897
   22TCq2    O6  346   1.502   0.496  14.767 -0.0220 -0.1249  0.3763
   22TCq2    H2  347   1.471   0.639  14.585 -1.1361  0.9441 -0.2965
   22TCq2    H3  348   1.380   0.780  14.961  1.9196  0.9860  0.3614
   22TCq2    H4  349   1.249   1.008  14.627  0.4672  0.1577 -0.0842
   23MPD2     C  350   3.157   2.106  14.769 -0.0672  0.2864 -0.0065
   23MPD2    C1  351   3.043   2.031  14.800 -0.0458 -0.3292 -1.2438
   23MPD2    C2  352   2.970   1.981  14.699  0.1090  0.0548  0.1369
   23MPD2    C3  353   3.006   2.000  14.563  0.0707  0.2897 -0.8710
   23MPD2    C4  354   3.128   2.068  14.539 -0.0618 -0.7213  0.1689
   23MPD2    C5  355   3.200   2.118  14.639 -0.5934 -0.0503  0.2188
   23MPD2     H  356   2.879   1.924  14.717 -0.6621  1.3502  0.3956
   23MPD2    H1  357   3.169   2.086  14.441 -2.3843 -0.8868 -0.8232
   23MPD2    H2  358   3.220   2.153  14.843 -0.3155  0.4490  0.1021
   23MPD2    H3  359   3.294   2.167  14.617 -0.6375 -0.3993 -0.7724
   23MPD2     N  360   2.914   1.959  14.456 -0.1007  0.2869 -1.0523
   23MPD2    H5  361   2.946   1.982  14.362 -0.1759 -1.4379 -1.4908
   23MPD2    N1  362   3.014   1.994  14.933 -0.7231  0.2745  0.0098
   23MPD2    H7  363   2.955   1.916  14.957  0.4446 -0.8652 -0.8241
   24TCq2    C1  364   2.799   1.891  14.468 -0.0495  0.3394  0.2298
   24TCq2    O2  365   2.722   1.870  14.561 -0.0794  0.2115  0.2098
   24TCq2    C2  366   2.741   1.860  14.340 -0.0910 -0.5259  0.1910
   24TCq2    C3  367   2.785   1.909  14.217 -0.1452  0.4128  0.1282
   24TCq2    C4  368   2.722   1.859  14.102  0.5216  0.4388 -0.0882
   24TCq2    C5  369   2.635   1.761  14.109 -0.2069  0.0797 -0.1560
   24TCq2    C6  370   2.595   1.714  14.228 -0.3935 -0.8804 -0.6520
   24TCq2    C7  371   2.652   1.759  14.341 -0.2361  0.1157  0.1780
   24TCq2    C8  372   2.499   1.606  14.238  0.0887  0.1109 -0.0190
   24TCq2    O4  373   2.522   1.525  14.329  0.7153  0.1558  0.6253
   24TCq2    C9  374   2.754   1.911  13.966  0.3023  0.2323 -0.3591
   24TCq2    O5  375   2.703   1.865  13.862 -0.1322 -0.6889  0.3383
   24TCq2    O6  376   2.820   2.019  13.981 -0.6899  0.1132  0.4135
   24TCq2    H2  377   2.862   1.984  14.206 -1.6106  2.2728  2.4157
   24TCq2    H3  378   2.593   1.719  14.018  1.7864 -2.3569  0.0447
   24TCq2    H4  379   2.648   1.695  14.429 -1.5828 -2.2875 -1.6410
   25TMC2    C1  380   0.883   4.688  11.310 -0.2269  0.2885  0.6097
   25TMC2    C2  381   0.913   0.092  11.293 -0.4874 -0.1982  0.0087
   25TMC2    C3  382   0.909   0.167  11.409  0.3742  0.5352  0.3463
   25TMC2    C4  383   0.854   4.623  11.431  0.3695 -0.0844 -0.2078
   25TMC2    C5  384   0.845   4.704  11.544  0.6362  0.2394  0.5821
   25TMC2    C6  385   0.868   0.110  11.531 -0.4506  0.0312  0.2923
   25TMC2     C  386   0.895   4.613  11.188  0.2626  0.1575 -0.3684
   25TMC2     O  387   0.917   4.679  11.084 -0.3329 -0.3592  0.3994
   25TMC2     H  388   0.898   0.143  11.198 -0.8609  1.8858  1.2069
   25TMC2    H1  389   0.829   4.518  11.444  1.4216 -0.4041 -0.7212
   25TMC2    H2  390   0.876   0.171  11.620  1.9917 -0.6142  0.5203
   25TMC2    C7  391   0.780   4.675  11.672  0.4242  0.2174 -0.0805
   25TMC2    C8  392   0.951   0.304  11.410  0.5395 -0.1355  0.0994
   25TMC2    O1  393   0.840   4.584  11.730  0.3968  0.6650  0.3851
   25TMC2    O2  394   0.952   0.381  11.508 -0.1163  0.1820 -0.9103
   25TMC2    O5  395   1.046   0.317  11.319 -0.3771  0.4273  0.5596
   25TMC2    H5  396   1.065   0.234  11.270 -1.7307 -0.3370  1.3482
   26MPD2     C  397   0.810   4.208  10.885  0.2554 -0.4220  1.0878
   26MPD2    C1  398   0.865   4.167  11.001  0.1912  0.3827  0.1978
   26MPD2    C2  399   0.880   4.252  11.108  0.9130  0.3188  0.1563
   26MPD2    C3  400   0.856   4.387  11.095 -0.0395  0.5679 -0.0510
   26MPD2    C4  401   0.814   4.431  10.973 -0.7889  0.0442  0.4680
   26MPD2    C5  402   0.788   4.342  10.870  0.2785 -0.1842 -0.1881
   26MPD2     H  403   0.918   4.224  11.206 -0.7110 -0.5905  0.5281
   26MPD2    H1  404   0.786   4.533  10.948 -0.1175  0.7079  2.4109
   26MPD2    H2  405   0.786   4.140  10.804 -0.5648 -1.3582  2.1086
   26MPD2    H3  406   0.742   4.386  10.783 -0.6669 -0.6052  0.1023
   26MPD2     N  407   0.882   4.477  11.204  0.0630  0.3258 -0.4874
   26MPD2    H5  408   0.915   4.444  11.295 -2.2404 -1.8188 -0.4387
   26MPD2    N1  409   0.899   4.026  11.010 -0.6656  0.0746  0.4588
   26MPD2    H7  410   0.892   3.974  10.923  0.3435  0.3929  0.1803
   27TMC2    C1  411   0.281   1.901  11.874  0.0234  0.0632  0.2644
   27TMC2    C2  412   0.279   1.910  11.743  0.1324 -0.1248  0.6628
   27TMC2    C3  413   0.287   2.033  11.683  0.0338 -0.3734 -0.1031
   27TMC2    C4  414   0.275   2.013  11.950 -0.3712  0.3923 -0.3560
   27TMC2    C5  415   0.279   2.137  11.884 -0.6967  0.2457  0.3246
   27TMC2    C6  416   0.286   2.154  11.747  0.7384  0.2107  0.6460
   27TMC2     C  417   0.244   1.770  11.934  0.4556  0.2026  0.9639
   27TMC2     O  418   0.238   1.669  11.864  0.5750 -0.1920 -0.1148
   27TMC2     H  419   0.292   1.817  11.690  0.8040 -0.1163  0.8007
   27TMC2    H1  420   0.291   2.008  12.057  1.1472  1.9729 -0.5040
   27TMC2    H2  421   0.279   2.251  11.699  2.4652 -0.3274 -0.7180
   27TMC2    C7  422   0.220   2.246  11.964 -0.6885  0.2375 -0.3111
   27TMC2    C8  423   0.260   2.028  11.542 -0.4844  0.4862  0.3417
   27TMC2    O1  424   0.200   2.222  12.082 -0.3912  1.1426  0.0038
   27TMC2    O2  425   0.192   1.938  11.495 -0.3254 -0.3532 -0.5773
   27TMC2    O5  426   0.287   2.140  11.489 -0.3404  0.4567 -0.2680
   27TMC2    H5  427   0.354   2.188  11.542 -0.0603 -2.0219  1.6318
   28MPD2     C  428   0.203   1.550  12.392  0.3795 -0.2173 -0.0607
   28MPD2    C1  429   0.134   1.674  12.398 -0.3940  0.8823  0.4044
   28MPD2    C2  430   0.126   1.749  12.279 -0.1331 -0.2037 -0.2160
   28MPD2    C3  431   0.197   1.709  12.167  0.4272 -0.3697  0.1690
   28MPD2    C4  432   0.265   1.590  12.163 -0.0292  0.2327  0.4323
   28MPD2    C5  433   0.261   1.513  12.279 -0.0624  0.3964 -0.0520
   28MPD2     H  434   0.081   1.848  12.272  1.8938  0.5719 -2.2472
   28MPD2    H1  435   0.312   1.558  12.071 -3.5310  0.7381 -1.5246
   28MPD2    H2  436   0.208   1.486  12.479 -0.3327 -1.2241 -0.7515
   28MPD2    H3  437   0.315   1.419  12.284 -2.1600 -0.6408  3.0757
   28MPD2     N  438   0.189   1.791  12.058 -0.5137 -0.0924  0.1174
   28MPD2    H5  439   0.164   1.887  12.079 -1.3481 -0.0513 -1.1086
   28MPD2    N1  440   0.062   1.708  12.513 -0.0903 -0.1182 -0.1942
   28MPD2    H7  441   0.077   1.650  12.595  0.7035  0.2531 -0.0721
   29MPD2     C  442   4.485   3.749  14.204  0.6292  0.8495 -0.6784
   29MPD2    C1  443   4.577   3.679  14.287  0.3119 -1.0109 -0.3119
   29MPD2    C2  444   4.659   3.743  14.373 -0.4956 -0.0715 -0.7862
   29MPD2    C3  445   4.645   3.880  14.395  0.0955  0.0705 -0.8006
   29MPD2    C4  446   4.554   3.946  14.319 -0.0172  0.0947 -0.0731
   29MPD2    C5  447   4.476   3.880  14.227 -0.4379 -0.2561 -0.2135
   29MPD2     H  448   0.013   3.683  14.415 -0.5182  0.9874  0.7332
   29MPD2    H1  449   4.536   4.052  14.336 -1.9981 -0.5559  1.8974
   29MPD2    H2  450   4.413   3.702  14.137  1.6105  1.0600 -1.8805
   29MPD2    H3  451   4.396   3.937  14.182 -0.4321  0.7891  1.1192
   29MPD2     N  452   0.001   3.946  14.482  0.1297  0.1125 -0.5331
   29MPD2    H5  453   4.702   4.044  14.474 -0.9186 -0.1478 -0.4797
   29MPD2    N1  454   4.586   3.538  14.273 -0.0495 -1.4847 -0.2211
   29MPD2    H7  455   4.650   3.497  14.340 -1.3260 -0.1523  1.8154
   30TCq2    C1  456   0.090   3.893  14.573 -0.2042  0.1511 -0.4354
   30TCq2    O2  457   0.102   3.777  14.615  0.0971 -0.4428 -0.1438
   30TCq2    C2  458   0.153   4.000  14.646  0.4873  0.2086  0.1676
   30TCq2    C3  459   0.153   3.990  14.781 -0.3507 -0.4504  0.2702
   30TCq2    C4  460   0.203   4.099  14.844 -0.6632  0.1373  0.7681
   30TCq2    C5  461   0.270   4.205  14.787  0.1255  0.1541  0.2238
   30TCq2    C6  462   0.270   4.210  14.647  0.3936 -0.4214  0.3242
   30TCq2    C7  463   0.204   4.106  14.579  0.3324  0.6909 -0.2637
   30TCq2    C8  464   0.304   4.331  14.577 -0.3324  0.6030 -0.4015
   30TCq2    O4  465   0.251   4.340  14.468  0.2882 -0.3312  0.2855
   30TCq2    C9  466   0.191   4.102  14.989 -0.1818 -0.0988 -0.4769
   30TCq2    O5  467   0.101   4.026  15.033 -0.0823  0.0721 -0.2256
   30TCq2    O6  468   0.242   4.194  15.057 -0.1010  0.4255 -0.2252
   30TCq2    H2  469   0.105   3.915  14.843 -2.7494  1.5867  0.8937
   30TCq2    H3  470   0.307   4.291  14.841  0.4819  0.2212 -0.1241
   30TCq2    H4  471   0.207   4.114  14.470  1.1507  1.9324 -0.1516
   31MPD2     C  472   2.602   2.758  15.381 -0.1026 -0.2991 -0.4248
   31MPD2    C1  473   2.500   2.844  15.422 -0.2382  0.5993 -0.8105
   31MPD2    C2  474   2.414   2.816  15.526  0.1767 -0.2072  0.0317
   31MPD2    C3  475   2.436   2.702  15.596 -0.6458 -0.2381 -0.0200
   31MPD2    C4  476   2.538   2.615  15.559  0.0511 -0.2785  0.3559
   31MPD2    C5  477   2.619   2.640  15.450 -0.1098  0.0616  0.0515
   31MPD2     H  478   2.332   2.883  15.543 -1.6967 -2.7466  1.0048
   31MPD2    H1  479   2.547   2.518  15.607  0.2492 -0.3281  0.2157
   31MPD2    H2  480   2.683   2.776  15.312  0.4957 -1.6742 -0.0903
   31MPD2    H3  481   2.700   2.581  15.411  1.1292  2.3908 -0.9104
   31MPD2     N  482   2.358   2.666  15.710  0.3087  0.3757  0.0163
   31MPD2    H5  483   2.385   2.576  15.749  0.1205  0.4481  0.3109
   31MPD2    N1  484   2.473   2.957  15.344  0.5466 -0.3917 -0.0973
   31MPD2    H7  485   2.385   3.004  15.364 -0.1430 -1.2504 -1.1418
   32TCq2    C1  486   2.237   2.714  15.749  0.2458 -1.0155 -0.1207
   32TCq2    O2  487   2.164   2.796  15.696 -0.3084  0.1219 -0.9186
   32TCq2    C2  488   2.170   2.642  15.860 -0.4440  0.4975 -0.5567
   32TCq2    C3  489   2.040   2.681  15.874  0.5691  0.2673  0.3989
   32TCq2    C4  490   1.987   2.665  15.998  0.0738 -0.2789 -0.3438
   32TCq2    C5  491   2.056   2.609  16.099  0.7311 -0.4019 -0.4597
   32TCq2    C6  492   2.184   2.560  16.075  0.3370 -0.4314  0.0090
   32TCq2    C7  493   2.250   2.590  15.960  0.2388  0.3260 -0.5461
   32TCq2    C8  494   2.270   2.545  16.193  0.4055  0.0548  0.6374
   32TCq2    O4  495   2.378   2.491  16.174 -0.3198  0.0342  0.1688
   32TCq2    C9  496   1.846   2.699  16.018  0.0399 -0.0137  1.0820
   32TCq2    O5  497   1.795   2.623  16.105  0.3018  0.3307 -0.2252
   32TCq2    O6  498   1.776   2.777  15.939  0.1302 -0.2358  0.1263
   32TCq2    H2  499   1.981   2.748  15.811  0.2630 -0.1752  0.2146
   32TCq2    H3  500   2.002   2.586  16.190 -0.7583  1.9604 -0.7539
   32TCq2    H4  501   2.356   2.570  15.951  0.4250  1.3045 -0.5314
   33MPD2     C  502   2.544   4.704  10.607 -0.0038 -0.0634  0.0986
   33MPD2    C1  503   2.412   4.673  10.582  0.3830 -0.3914 -0.4400
   33MPD2    C2  504   2.334   0.045  10.528  0.5032  0.2425 -0.5087
   33MPD2    C3  505   2.383   0.174  10.510 -0.7607  0.4967 -0.2252
   33MPD2    C4  506   2.512   0.207  10.534 -0.1099 -0.2203 -0.1692
   33MPD2    C5  507   2.597   0.109  10.578 -0.0870 -0.2467 -0.3866
   33MPD2     H  508   2.229   0.028  10.509 -0.2701  2.7575  1.4540
   33MPD2    H1  509   2.559   0.303  10.515  0.4811 -0.1499  1.5656
   33MPD2    H2  510   2.615   4.625  10.629  0.0246  0.1763  0.8832
   33MPD2    H3  511   2.703   0.121  10.592 -0.2438 -0.7881  1.2814
   33MPD2     N  512   2.285   0.265  10.465  0.3664  0.6654  0.3208
   33MPD2    H5  513   2.189   0.232  10.460  1.0853 -1.1264 -1.3912
   33MPD2    N1  514   2.371   4.540  10.612 -0.0986  0.2457 -0.5804
   33MPD2    H7  515   2.438   4.484  10.664 -0.4537 -0.2341 -0.6453
   34TCq2    C1  516   2.306   0.398  10.439 -0.2089  0.3206 -0.5401
   34TCq2    O2  517   2.408   0.460  10.432 -0.4199  0.5419  0.4712
   34TCq2    C2  518   2.190   0.481  10.408 -0.8223  0.3248 -0.4168
   34TCq2    C3  519   2.083   0.470  10.495  0.0777  0.7050 -0.2165
   34TCq2    C4  520   2.001   0.581  10.499 -0.1163  0.1570  0.4185
   34TCq2    C5  521   2.030   0.700  10.428  0.1497 -0.0636 -0.8022
   34TCq2    C6  522   2.137   0.698  10.341  0.0053 -0.2915  0.3722
   34TCq2    C7  523   2.223   0.590  10.336 -0.4365 -0.4924 -0.1009
   34TCq2    C8  524   2.193   0.822  10.296 -0.1822 -0.1125  0.2006
   34TCq2    O4  525   2.300   0.812  10.235 -0.2008  0.5202  0.9517
   34TCq2    C9  526   1.888   0.577  10.581  0.5913 -0.2372 -0.5239
   34TCq2    O5  527   1.850   0.461  10.620 -0.2347 -0.0251 -0.6575
   34TCq2    O6  528   1.820   0.678  10.586  1.0522 -0.4411  0.0357
   34TCq2    H2  529   2.069   0.392  10.569 -1.8883 -0.8245 -2.2275
   34TCq2    H3  530   1.959   0.781  10.441  0.3870 -0.3408  2.2669
   34TCq2    H4  531   2.310   0.591  10.271 -1.6738 -0.4317 -1.7689
   35MPD2     C  532   3.927   1.506  11.653 -0.0671 -0.3282 -0.0804
   35MPD2    C1  533   3.874   1.431  11.759  0.3336 -0.6514  0.8239
   35MPD2    C2  534   3.760   1.357  11.735  0.8533 -0.1988  0.3363
   35MPD2    C3  535   3.706   1.355  11.608 -0.0375 -0.0257 -0.8607
   35MPD2    C4  536   3.762   1.419  11.502 -0.0372 -0.3679  0.1148
   35MPD2    C5  537   3.867   1.506  11.526  0.2688  0.1022  0.0180
   35MPD2     H  538   3.702   1.321  11.819 -1.0555  1.6330 -0.1918
   35MPD2    H1  539   3.725   1.399  11.402  0.5321 -0.3485 -0.0999
   35MPD2    H2  540   4.007   1.575  11.677  0.2278 -1.0097  0.9126
   35MPD2    H3  541   3.923   1.543  11.441 -0.9878  0.9692 -0.4409
   35MPD2     N  542   3.585   1.287  11.589  0.2788 -0.2162  0.0079
   35MPD2    H5  543   3.548   1.244  11.673  1.1253 -1.7356 -0.3952
   35MPD2    N1  544   3.927   1.452  11.888 -0.0761  0.1559  0.5319
   35MPD2    H7  545   4.012   1.508  11.892  0.2416 -0.4201  1.9608
   36TCq2    C1  546   3.512   1.268  11.471  0.4927 -0.3768 -0.5586
   36TCq2    O2  547   3.526   1.330  11.363 -0.3757  0.3000 -0.6411
   36TCq2    C2  548   3.409   1.163  11.489 -0.2145  0.1697 -0.8608
   36TCq2    C3  549   3.297   1.162  11.409  0.4031  0.2715 -0.4899
   36TCq2    C4  550   3.211   1.056  11.422 -0.4662  0.2801  0.4262
   36TCq2    C5  551   3.224   0.967  11.524 -0.1422  0.5934 -0.0841
   36TCq2    C6  552   3.337   0.980  11.609 -0.0150 -0.0690 -0.1824
   36TCq2    C7  553   3.432   1.070  11.585 -0.0983 -0.7361 -0.1787
   36TCq2    C8  554   3.364   0.861  11.687 -0.4876 -0.2880 -0.5273
   36TCq2    O4  555   3.287   0.771  11.669 -0.1394 -0.3117  0.0761
   36TCq2    C9  556   3.089   1.048  11.350  0.0815 -0.2620  0.5648
   36TCq2    O5  557   3.020   0.943  11.343  0.2697 -0.5489 -0.0869
   36TCq2    O6  558   3.046   1.157  11.307  0.0025 -0.0734  0.3446
   36TCq2    H2  559   3.282   1.235  11.330  0.4807  1.9200  1.0095
   36TCq2    H3  560   3.148   0.893  11.542  0.2075  0.6506  1.6483
   36TCq2    H4  561   3.526   1.062  11.638 -0.1672  0.2007  0.0834
   37TMC2    C1  562   1.808   2.576  11.301 -0.2754  0.1283  0.2359
   37TMC2    C2  563   1.813   2.567  11.163 -0.5487 -0.2217 -0.1016
   37TMC2    C3  564   1.924   2.497  11.111 -0.3655  0.4006  0.3195
   37TMC2    C4  565   1.915   2.553  11.382 -0.5915  0.2430 -0.1179
   37TMC2    C5  566   2.024   2.496  11.321  0.3340  0.0517  0.8503
   37TMC2    C6  567   2.037   2.471  11.188  0.0042  0.8010  0.2475
   37TMC2     C  568   1.682   2.531  11.346 -0.1408 -0.6562  0.2666
   37TMC2     O  569   1.582   2.554  11.288 -0.1220  0.0989 -0.0443
   37TMC2     H  570   1.717   2.558  11.112  0.1232 -0.4391 -1.3378
   37TMC2    H1  571   1.904   2.573  11.488 -0.1726 -2.6683  0.4865
   37TMC2    H2  572   2.114   2.405  11.150 -1.9026 -1.6495  0.6575
   37TMC2    C7  573   2.106   2.424  11.414  0.1803 -0.3031  0.0451
   37TMC2    C8  574   1.922   2.445  10.974  0.1979 -0.3099  0.3935
   37TMC2    O1  575   2.046   2.396  11.519  0.5208  0.1780  0.6027
   37TMC2    O2  576   1.994   2.356  10.941  0.1749  0.1427 -0.4247
   37TMC2    O5  577   1.863   2.534  10.889 -0.1498 -0.1827 -0.0123
   37TMC2    H5  578   1.792   2.590  10.927  0.3499  1.0287 -0.8711
   38MPD2     C  579   1.439   2.217  11.670  0.1656 -0.4272 -0.2986
   38MPD2    C1  580   1.566   2.167  11.658  0.1619 -0.6370 -0.0805
   38MPD2    C2  581   1.656   2.238  11.571 -0.2891 -0.0470 -0.4142
   38MPD2    C3  582   1.616   2.351  11.505 -0.1524  0.0373 -0.5957
   38MPD2    C4  583   1.483   2.392  11.511  0.4741  0.5111 -0.6400
   38MPD2    C5  584   1.403   2.324  11.590 -0.1554  0.2930  0.5201
   38MPD2     H  585   1.757   2.201  11.553  0.1092 -0.1337  1.9357
   38MPD2    H1  586   1.437   2.472  11.454  0.2012  0.3398 -0.6609
   38MPD2    H2  587   1.359   2.172  11.727 -0.3495 -1.2372 -1.6738
   38MPD2    H3  588   1.301   2.363  11.592 -1.3947 -2.9859  0.9685
   38MPD2     N  589   1.710   2.425  11.430  0.1810 -0.0021 -0.0502
   38MPD2    H5  590   1.804   2.389  11.442  0.3501  0.6619  0.6147
   38MPD2    N1  591   1.611   2.041  11.704  0.0255  0.3181 -0.5132
   38MPD2    H7  592   1.699   2.010  11.662  0.8457  0.0678  1.3769
   39MPD2     C  593   0.176   3.746   1.613  0.4621 -0.1421 -0.4366
   39MPD2    C1  594   0.134   3.865   1.666 -0.2501  0.1892  0.1503
   39MPD2    C2  595   0.018   3.928   1.614 -0.3664 -0.0817 -0.6333
   39MPD2    C3  596   4.681   3.868   1.502  0.2430  0.2391 -0.2819
   39MPD2    C4  597   0.003   3.754   1.445  0.6458  0.3381  0.0754
   39MPD2    C5  598   0.113   3.690   1.506  0.3614 -0.2331  0.4930
   39MPD2     H  599   4.718   4.030   1.638 -3.1254 -0.5833 -1.5819
   39MPD2    H1  600   4.677   3.698   1.367 -0.8227  1.1583  0.4622
   39MPD2    H2  601   0.267   3.701   1.649 -0.2497 -0.6249  0.7446
   39MPD2    H3  602   0.148   3.596   1.465  0.4988  0.2449 -0.5024
   39MPD2     N  603   4.560   3.912   1.441  0.1276  0.0483  0.1427
   39MPD2    H5  604   4.534   3.858   1.359  1.1010  0.1626 -0.2393
   39MPD2    N1  605   0.216   3.916   1.772  0.0650  0.1932  0.5839
   39MPD2    H7  606   0.300   3.865   1.799  2.2774  2.3533 -2.1293
   40TCq2    C1  607   0.179   4.026   1.853 -0.3068  0.3694  0.5884
   40TCq2    O2  608   0.083   4.102   1.841 -0.0118 -0.4551  0.5212
   40TCq2    C2  609   0.269   4.049   1.963 -0.1838  0.5995 -0.4028
   40TCq2    C3  610   0.363   3.958   1.997 -0.3974 -0.1374  0.4498
   40TCq2    C4  611   0.477   3.995   2.068  0.2352  0.6287  0.1655
   40TCq2    C5  612   0.498   4.121   2.119  0.3611  0.1146  0.0658
   40TCq2    C6  613   0.397   4.204   2.085  0.1976 -0.3707 -0.4324
   40TCq2    C7  614   0.281   4.172   2.010 -0.1646  0.5843  0.3818
   40TCq2    C8  615   0.388   4.342   2.138 -0.0734  0.2144 -0.5820
   40TCq2    O4  616   0.283   4.402   2.160  0.6957 -0.2223  0.1898
   40TCq2    C9  617   0.566   3.888   2.104  0.5293  0.1734 -0.0191
   40TCq2    O5  618   0.617   3.893   2.219  0.0665 -0.7032 -0.3365
   40TCq2    O6  619   0.562   3.781   2.036 -0.2346 -0.0680 -0.0754
   40TCq2    H2  620   0.348   3.851   1.982 -1.2904 -0.3641  3.0217
   40TCq2    H3  621   0.585   4.140   2.180 -0.1221 -0.0855  0.8138
   40TCq2    H4  622   0.216   4.256   1.987 -1.4242 -0.3135  0.6421
   41TMC2    C1  623   3.290   1.254  13.598 -0.0718  0.3268 -0.6207
   41TMC2    C2  624   3.353   1.142  13.556  0.3888  0.1513  0.2894
   41TMC2    C3  625   3.365   1.122  13.423  0.2117 -0.1513  0.2569
   41TMC2    C4  626   3.229   1.342  13.513  0.0361 -0.1653  0.9424
   41TMC2    C5  627   3.249   1.325  13.377  0.0182 -0.3077 -0.1132
   41TMC2    C6  628   3.316   1.212  13.333  0.5606 -0.0726  0.2486
   41TMC2     C  629   3.201   1.242  13.718  0.8358 -0.0247 -0.6018
   41TMC2     O  630   3.085   1.255  13.688 -0.7565 -0.1578  0.5206
   41TMC2     H  631   3.400   1.081  13.633  1.8511 -0.6559 -1.2621
   41TMC2    H1  632   3.171   1.424  13.554 -0.9241 -1.3425  1.9571
   41TMC2    H2  633   3.330   1.195  13.227  2.7840  1.3848  0.3201
   41TMC2    C7  634   3.152   1.393  13.288  0.1587 -0.6726 -0.2389
   41TMC2    C8  635   3.433   1.007  13.386  0.0297  0.1874  0.3353
   41TMC2    O1  636   3.058   1.456  13.337  0.6470 -0.3010 -0.5344
   41TMC2    O2  637   3.500   0.942  13.461 -0.1093  0.2488  0.7665
   41TMC2    O5  638   3.401   0.961  13.263 -0.2106  0.5691  0.3946
   41TMC2    H5  639   3.317   0.998  13.227 -1.0195 -0.2822  1.4432
   42MPD2     C  640   3.041   1.198  13.981 -0.2781 -0.3544 -0.2403
   42MPD2    C1  641   3.179   1.193  13.969 -0.4237 -0.4647  0.0353
   42MPD2    C2  642   3.262   1.184  14.087  0.0043  0.1137  0.4566
   42MPD2    C3  643   3.203   1.173  14.211  0.2717 -0.2595  0.8189
   42MPD2    C4  644   3.066   1.179  14.220 -0.2068  0.8898  0.4097
   42MPD2    C5  645   2.989   1.199  14.107  0.1403  0.5598  0.1008
   42MPD2     H  646   3.366   1.200  14.062 -0.0008  0.1143  0.4359
   42MPD2    H1  647   3.021   1.176  14.318  0.2628 -0.7653  0.5787
   42MPD2    H2  648   2.976   1.212  13.895  1.4549 -1.8125 -1.7543
   42MPD2    H3  649   2.881   1.202  14.123  0.1554  3.4947 -0.3669
   42MPD2     N  650   3.272   1.159  14.342  0.1134 -0.3591  0.0611
   42MPD2    H5  651   3.217   1.153  14.427 -0.4060 -2.4086 -0.4147
   42MPD2    N1  652   3.255   1.212  13.842 -0.2719  0.6741  0.1884
   42MPD2    H7  653   3.356   1.203  13.839 -0.2745  0.6395  0.2014
   43MPD2     C  654   1.680   0.261   0.871 -0.2735 -0.1144 -0.0385
   43MPD2    C1  655   1.611   0.189   0.966  0.5761  0.1833  0.0555
   43MPD2    C2  656   1.529   0.259   1.063 -0.9705 -0.1551  0.1076
   43MPD2    C3  657   1.506   0.392   1.058  0.7710 -0.4700 -0.7887
   43MPD2    C4  658   1.573   0.462   0.952  0.7638 -0.0452  0.0711
   43MPD2    C5  659   1.656   0.400   0.856  0.0832 -0.3085  0.1846
   43MPD2     H  660   1.478   0.193   1.133 -0.4128 -2.1243 -1.3550
   43MPD2    H1  661   1.557   0.569   0.945  1.5539 -0.0168 -1.3824
   43MPD2    H2  662   1.744   0.216   0.796 -1.4951 -2.5021  0.3603
   43MPD2    H3  663   1.695   0.456   0.772 -2.5471  0.9415 -0.2119
   43MPD2     N  664   1.425   0.457   1.151 -0.6523  0.0259  0.0198
   43MPD2    H5  665   1.412   0.557   1.142  0.5043 -0.0395 -2.4486
   43MPD2    N1  666   1.608   0.046   0.968 -0.5885 -0.0134 -0.3713
   43MPD2    H7  667   1.538   4.724   1.023 -1.4164  0.6889 -0.8157
   44TCq2    C1  668   1.198   0.865   1.353 -0.0317  0.0733 -0.2195
   44TCq2    O2  669   1.242   0.902   1.248 -0.0932 -0.3098 -0.2670
   44TCq2    C2  670   1.254   0.732   1.405  0.0445 -0.2197  0.4159
   44TCq2    C3  671   1.199   0.687   1.524  0.0633 -0.3455 -0.4478
   44TCq2    C4  672   1.183   0.549   1.546  0.6723 -0.1358  0.4221
   44TCq2    C5  673   1.250   0.466   1.462 -0.0257  0.3571 -0.1620
   44TCq2    C6  674   1.312   0.514   1.349 -0.6428  0.5706 -0.3534
   44TCq2    C7  675   1.315   0.652   1.318  1.3183  0.4995  0.0508
   44TCq2    C8  676   1.387   0.410   1.277 -0.8481 -0.1005 -0.3849
   44TCq2    O4  677   1.419   0.307   1.338  0.4163  0.2210 -1.0314
   44TCq2    C9  678   1.109   0.508   1.660  0.2834  0.5502 -0.2090
   44TCq2    O5  679   1.075   0.602   1.739  0.0977  0.2762 -0.4580
   44TCq2    O6  680   1.086   0.386   1.669 -0.6885  0.3882  0.0563
   44TCq2    H2  681   1.166   0.761   1.596  1.9905 -0.4048  0.5215
   44TCq2    H3  682   1.250   0.358   1.473 -0.5522  0.4971  1.3102
   44TCq2    H4  683   1.372   0.684   1.231 -0.0081  0.5156 -0.8251
   45TMC2    C1  684   0.820   2.017   9.556 -0.5508  0.1189 -0.6748
   45TMC2    C2  685   0.797   1.989   9.419  0.2370 -0.1732 -0.4544
   45TMC2    C3  686   0.884   2.046   9.337  0.1402  0.6487 -0.0902
   45TMC2    C4  687   0.910   2.111   9.599 -0.1165 -0.4739  0.1854
   45TMC2    C5  688   0.997   2.162   9.505 -0.2275  0.7671 -0.0252
   45TMC2    C6  689   0.988   2.123   9.372  0.4341 -0.0401  0.8875
   45TMC2     C  690   0.723   1.965   9.653  1.0522  0.4147  0.1640
   45TMC2     O  691   0.766   1.943   9.766 -0.1276  0.0314 -0.2804
   45TMC2     H  692   0.747   1.900   9.382 -1.6742  0.9188 -0.4613
   45TMC2    H1  693   0.903   2.154   9.699 -0.5838 -0.0633 -0.0234
   45TMC2    H2  694   1.057   2.155   9.295  0.9533 -0.0169  1.3586
   45TMC2    C7  695   1.098   2.261   9.531  0.8546 -0.5521 -0.5667
   45TMC2    C8  696   0.876   1.995   9.196 -0.0840  0.1141  0.1559
   45TMC2    O1  697   1.175   2.285   9.434 -0.2658 -0.2767  0.2079
   45TMC2    O2  698   0.816   1.892   9.157 -0.2483  0.7509 -1.1222
   45TMC2    O5  699   0.860   2.110   9.125 -0.2753  0.1830 -0.3735
   45TMC2    H5  700   0.900   2.191   9.164  1.3318  0.7317 -3.1540
   46MPD2     C  701   0.489   1.823   9.792  0.2254  0.8963  0.5815
   46MPD2    C1  702   0.496   1.860   9.660  0.3991  0.3747 -0.3395
   46MPD2    C2  703   0.391   1.818   9.580 -0.1403  0.3358 -0.9486
   46MPD2    C3  704   0.292   1.735   9.620 -0.3638 -0.4325 -0.2974
   46MPD2    C4  705   0.293   1.689   9.747  0.6835 -0.6239 -0.3212
   46MPD2    C5  706   0.394   1.735   9.834  0.1371  0.2332 -0.2742
   46MPD2     H  707   0.401   1.847   9.476 -1.5096 -0.3664 -1.2767
   46MPD2    H1  708   0.226   1.607   9.772 -0.6043  0.1697 -1.1843
   46MPD2    H2  709   0.571   1.847   9.859  0.1242  1.9694  0.3326
   46MPD2    H3  710   0.407   1.676   9.925  2.6686  0.4397 -0.5155
   46MPD2     N  711   0.200   1.701   9.517 -0.4580  0.1833 -0.3070
   46MPD2    H5  712   0.204   1.752   9.429 -1.7697  2.0273  0.7014
   46MPD2    N1  713   0.603   1.930   9.596  0.2762 -0.3870 -0.1255
   46MPD2    H7  714   0.582   1.966   9.503 -1.0563  0.0264  0.3341
   47TMC2    C1  715   2.901   2.306   9.479  0.6047  0.0052 -0.2062
   47TMC2    C2  716   2.948   2.203   9.403 -0.7477 -0.0405  0.4517
   47TMC2    C3  717   2.878   2.163   9.296 -0.4130 -0.5410  0.8649
   47TMC2    C4  718   2.782   2.368   9.444  0.8739 -0.0846  0.1239
   47TMC2    C5  719   2.717   2.318   9.333  0.2039 -0.0358 -0.5232
   47TMC2    C6  720   2.758   2.215   9.251 -0.0899  0.3556 -0.3444
   47TMC2     C  721   2.955   2.341   9.608  0.5933  0.7251 -0.6876
   47TMC2     O  722   2.926   2.446   9.668  0.7957 -0.1780 -0.6974
   47TMC2     H  723   3.048   2.162   9.415 -1.8721 -3.3560 -1.5496
   47TMC2    H1  724   2.764   2.458   9.502 -0.5267  0.0826 -0.5849
   47TMC2    H2  725   2.703   2.172   9.168  0.4213  1.5423 -1.3015
   47TMC2    C7  726   2.604   2.406   9.284 -0.4537  0.1618 -0.1086
   47TMC2    C8  727   2.948   2.070   9.206  0.3143 -0.4659 -1.0699
   47TMC2    O1  728   2.548   2.469   9.371  0.1838 -0.6582  0.2322
   47TMC2    O2  729   2.929   2.057   9.084 -0.7055  0.0664 -0.2200
   47TMC2    O5  730   2.977   1.964   9.282 -0.2872 -0.0493 -0.5326
   47TMC2    H5  731   2.966   1.985   9.377  1.5881  0.2374 -0.3694
   48MPD2     C  732   3.142   2.349   9.845 -0.1543 -0.1043 -0.1862
   48MPD2    C1  733   3.122   2.242   9.767 -0.1763  0.9550 -0.8191
   48MPD2    C2  734   3.194   2.127   9.796 -0.0324 -0.0995 -0.4988
   48MPD2    C3  735   3.270   2.112   9.912 -0.0394 -0.6327 -0.3594
   48MPD2    C4  736   3.291   2.222   9.996 -0.5694  0.3609 -0.6529
   48MPD2    C5  737   3.231   2.339   9.955 -0.1743  0.6869 -0.0011
   48MPD2     H  738   3.190   2.045   9.725 -0.3695 -0.3385 -0.2048
   48MPD2    H1  739   3.353   2.225  10.085 -0.8168  1.0569 -0.5024
   48MPD2    H2  740   3.102   2.447   9.823  1.7076  0.9392  1.0485
   48MPD2    H3  741   3.246   2.427  10.017 -0.3230 -0.2960  1.4490
   48MPD2     N  742   3.334   1.991   9.934 -0.3020  0.2846 -1.4262
   48MPD2    H5  743   3.326   1.911   9.873 -0.8701 -0.6544 -0.1337
   48MPD2    N1  744   3.038   2.236   9.652  0.8708 -0.2162  0.4069
   48MPD2    H7  745   3.035   2.152   9.595 -1.3866 -0.4207  0.8570
   49MPD2     C  746   1.197   0.525   9.797  0.0002 -0.7530  0.9015
   49MPD2    C1  747   1.115   0.462   9.884  0.7710 -0.0422 -0.2862
   49MPD2    C2  748   1.113   0.494  10.018  0.0716 -0.7147 -0.0257
   49MPD2    C3  749   1.195   0.594  10.072  0.2949  0.0348  0.1840
   49MPD2    C4  750   1.278   0.659   9.981  0.7796  0.2750  0.3310
   49MPD2    C5  751   1.282   0.625   9.846  0.1665 -0.0450  0.2779
   49MPD2     H  752   1.048   0.436  10.083  0.0746 -0.4381  0.2230
   49MPD2    H1  753   1.337   0.744  10.016 -0.0857  0.5097  1.2306
   49MPD2    H2  754   1.210   0.486   9.697 -1.0166 -0.4434  0.6530
   49MPD2    H3  755   1.343   0.672   9.770 -1.0396  0.0832 -0.6221
   49MPD2     N  756   1.200   0.630  10.206  0.2258 -0.4314 -0.3985
   49MPD2    H5  757   1.280   0.682  10.240  0.4652  0.3876 -2.1837
   49MPD2    N1  758   1.032   0.354   9.839  0.0818 -0.4041  0.0237
   49MPD2    H7  759   0.974   0.314   9.912 -3.6906  0.9218 -2.1909
   50TCq2    C1  760   0.997   0.325   9.709 -0.7969  0.4348 -0.0466
   50TCq2    O2  761   1.021   0.391   9.609  0.1978 -0.5373  0.1275
   50TCq2    C2  762   0.900   0.213   9.707  0.4227  0.1013 -0.1364
   50TCq2    C3  763   0.817   0.205   9.604 -0.3709  0.1838  0.6032
   50TCq2    C4  764   0.745   0.090   9.589 -0.0935 -0.3221  0.5926
   50TCq2    C5  765   0.763   4.704   9.662  0.7075 -0.0750 -0.3543
   50TCq2    C6  766   0.869   4.714   9.758 -0.3882 -0.6144  0.7242
   50TCq2    C7  767   0.924   0.107   9.783 -0.1332  0.5625 -0.4634
   50TCq2    C8  768   0.871   4.609   9.856 -0.6777 -0.0644  1.3629
   50TCq2    O4  769   0.793   4.515   9.846  0.1634  0.0072 -0.5330
   50TCq2    C9  770   0.648   0.085   9.483  0.3255  0.2474  0.5591
   50TCq2    O5  771   0.569   0.180   9.465 -0.3699 -0.0267 -0.0536
   50TCq2    O6  772   0.648   4.711   9.407  0.3924  0.3472  0.6660
   50TCq2    H2  773   0.813   0.287   9.533 -0.0201 -1.8216 -1.7297
   50TCq2    H3  774   0.703   4.615   9.648 -0.5835  0.7083  0.2623
   50TCq2    H4  775   0.996   0.122   9.862 -1.1034 -0.7110  0.6421
   51MPD2     C  776   2.349   2.523   1.493 -0.1681 -0.4365 -0.1838
   51MPD2    C1  777   2.443   2.536   1.397 -0.0630 -0.3532  0.3386
   51MPD2    C2  778   2.573   2.549   1.433  0.0490 -0.4332  0.1744
   51MPD2    C3  779   2.610   2.575   1.558 -0.9799  0.0477  0.0167
   51MPD2    C4  780   2.514   2.572   1.655  0.1698  0.3057  0.0669
   51MPD2    C5  781   2.380   2.537   1.622  0.0831  0.0017 -0.6389
   51MPD2     H  782   2.644   2.540   1.351  0.4043  0.1438  0.4215
   51MPD2    H1  783   2.547   2.564   1.758 -0.2255  0.9289  0.2383
   51MPD2    H2  784   2.247   2.496   1.468 -0.5471  1.4495 -0.6923
   51MPD2    H3  785   2.319   2.498   1.702  0.3665 -1.5515 -1.1672
   51MPD2     N  786   2.740   2.593   1.599 -0.0229 -0.2699  0.1359
   51MPD2    H5  787   2.760   2.642   1.686  0.0476  0.2955 -0.1987
   51MPD2    N1  788   2.415   2.507   1.260  0.5549 -0.3490 -0.3081
   51MPD2    H7  789   2.491   2.526   1.196  3.4560  1.1024  3.5333
   52TCq2    C1  790   2.850   2.553   1.522  0.5436  0.1966  0.4676
   52TCq2    O2  791   2.853   2.477   1.429 -0.1698 -0.0394 -1.0989
   52TCq2    C2  792   2.972   2.583   1.592 -0.0568  0.1391  0.3773
   52TCq2    C3  793   3.067   2.491   1.575  0.0506  0.5601  0.3811
   52TCq2    C4  794   3.181   2.489   1.654  0.5220 -0.3161 -0.1496
   52TCq2    C5  795   3.198   2.587   1.748 -0.1245 -0.8770  0.6458
   52TCq2    C6  796   3.101   2.680   1.766  0.5508  0.2333  0.5804
   52TCq2    C7  797   2.982   2.670   1.697 -0.2015  0.2124 -0.1817
   52TCq2    C8  798   3.116   2.790   1.863 -0.2695 -0.0728  0.1441
   52TCq2    O4  799   3.065   2.899   1.835 -0.2194 -0.2871  0.6231
   52TCq2    C9  800   3.275   2.388   1.638  0.5450 -0.1498 -0.2166
   52TCq2    O5  801   3.388   2.393   1.696  0.5566 -0.4173  0.2634
   52TCq2    O6  802   3.238   2.289   1.571 -0.9071  0.4097 -0.2698
   52TCq2    H2  803   3.059   2.413   1.500 -0.2520  1.7687 -0.8499
   52TCq2    H3  804   3.288   2.594   1.808  0.2835 -0.1811 -0.0525
   52TCq2    H4  805   2.919   2.756   1.718  0.7064  2.1052 -5.0972
   53TMC2    C1  806   2.191   1.760  11.730  0.2765  0.3071 -0.2714
   53TMC2    C2  807   2.223   1.625  11.745 -0.1020 -0.5453 -0.1101
   53TMC2    C3  808   2.142   1.550  11.827 -0.9094 -0.5103  0.2858
   53TMC2    C4  809   2.085   1.817  11.793  0.0701 -0.3377 -0.2010
   53TMC2    C5  810   2.011   1.738  11.873  0.2571 -0.6780  1.1624
   53TMC2    C6  811   2.034   1.603  11.886 -0.3277  0.7998  0.7032
   53TMC2     C  812   2.279   1.829  11.642 -0.3659  0.1775 -0.5855
   53TMC2     O  813   2.390   1.781  11.626 -0.2134 -0.1115 -0.0659
   53TMC2     H  814   2.304   1.573  11.695 -0.7100 -1.5744 -0.0377
   53TMC2    H1  815   2.071   1.925  11.793 -1.4828 -0.5430 -0.3479
   53TMC2    H2  816   1.956   1.540  11.928 -0.9756  2.4566  1.9980
   53TMC2    C7  817   1.894   1.805  11.934  0.4087 -0.6686  0.0088
   53TMC2    C8  818   2.180   1.415  11.848  0.3065  0.4253  0.0806
   53TMC2    O1  819   1.863   1.916  11.893 -0.2637  0.1554 -0.2376
   53TMC2    O2  820   2.217   1.334  11.764  0.4004  0.1164 -0.1059
   53TMC2    O5  821   2.246   1.419  11.967 -0.4668  0.0790  0.0425
   53TMC2    H5  822   2.250   1.500  12.022  0.2146  0.9449 -1.2697
   54MPD2     C  823   2.430   2.039  11.497 -0.8909  0.3672 -0.0402
   54MPD2    C1  824   2.303   2.048  11.532  0.2904  0.2751 -0.3130
   54MPD2    C2  825   2.229   2.160  11.484 -0.4177  0.2611 -0.2446
   54MPD2    C3  826   2.285   2.257  11.404  0.3278  0.2463 -1.2567
   54MPD2    C4  827   2.415   2.231  11.356  1.0341  0.5550  0.3345
   54MPD2    C5  828   2.482   2.122  11.401 -0.3484  0.6464 -0.4045
   54MPD2     H  829   2.130   2.177  11.523  0.2658  1.6742  0.8704
   54MPD2    H1  830   2.464   2.304  11.292  2.2078 -0.7123 -0.2037
   54MPD2    H2  831   2.488   1.951  11.520  0.0844  1.7592  2.7012
   54MPD2    H3  832   2.588   2.111  11.380 -0.3424  0.3265 -0.2035
   54MPD2     N  833   2.218   2.371  11.357 -0.0818 -0.1428  0.2662
   54MPD2    H5  834   2.253   2.408  11.269 -0.1003  0.9699  0.7193
   54MPD2    N1  835   2.228   1.950  11.608  0.2114 -0.1212  0.4738
   54MPD2    H7  836   2.128   1.961  11.620  0.1942  1.1660 -0.8311
   55MPD2     C  837   3.040   3.835   0.790 -0.1382  0.2510  0.3076
   55MPD2    C1  838   2.941   3.836   0.889  0.1889 -0.3147  0.1004
   55MPD2    C2  839   2.839   3.929   0.881 -0.1752 -0.0079  0.0449
   55MPD2    C3  840   2.836   4.028   0.779  0.9966  0.3712  0.4694
   55MPD2    C4  841   2.932   4.025   0.681 -0.2169 -0.0234 -0.2420
   55MPD2    C5  842   3.024   3.925   0.683 -0.1918 -0.0465 -0.0358
   55MPD2     H  843   2.770   3.948   0.962 -1.1220  1.3220 -1.0800
   55MPD2    H1  844   2.927   4.091   0.595  2.2821  0.9973  0.3830
   55MPD2    H2  845   3.128   3.772   0.793 -0.9186 -0.9836 -2.2729
   55MPD2    H3  846   3.096   3.929   0.602  0.6642 -0.5776  0.7076
   55MPD2     N  847   2.741   4.135   0.792  0.0620 -0.6933 -0.1517
   55MPD2    H5  848   2.678   4.136   0.872 -0.8979  2.2940 -0.9735
   55MPD2    N1  849   2.940   3.730   0.983  0.2059  0.6685  0.1219
   55MPD2    H7  850   3.012   3.659   0.979 -0.1617  0.1353  2.5977
   56TCq2    C1  851   2.852   3.726   1.089 -0.0556 -0.2065 -0.4271
   56TCq2    O2  852   2.759   3.795   1.130  0.5410 -1.1024  0.2112
   56TCq2    C2  853   2.882   3.609   1.167 -0.3825 -1.0947 -0.5808
   56TCq2    C3  854   3.016   3.578   1.204 -0.5012  0.0847  0.3554
   56TCq2    C4  855   3.037   3.468   1.291 -0.2936 -0.0361 -0.3739
   56TCq2    C5  856   2.937   3.386   1.335  0.3998  0.2232 -0.2303
   56TCq2    C6  857   2.812   3.416   1.287 -0.4782  0.6564 -0.1441
   56TCq2    C7  858   2.777   3.533   1.221  0.3929  0.0040 -0.2703
   56TCq2    C8  859   2.703   3.326   1.317  0.6385  0.3580 -0.5414
   56TCq2    O4  860   2.730   3.211   1.338  0.2517  0.4506 -1.2158
   56TCq2    C9  861   3.173   3.439   1.327 -0.6627 -0.2973 -0.7357
   56TCq2    O5  862   3.267   3.512   1.282  0.4397 -0.9415 -0.3911
   56TCq2    O6  863   3.191   3.349   1.408 -0.0179 -0.2415 -0.4879
   56TCq2    H2  864   3.096   3.648   1.183 -0.2822 -0.1218  0.5131
   56TCq2    H3  865   2.963   3.284   1.362 -0.0234  0.3628  0.6894
   56TCq2    H4  866   2.677   3.565   1.194  0.2928 -1.4908 -1.7228
   57TMC2    C1  867   2.018   0.876  13.385 -0.3551  0.0725  0.4407
   57TMC2    C2  868   2.077   0.871  13.509 -0.1929 -0.0695 -0.6336
   57TMC2    C3  869   2.183   0.791  13.530  0.7128  0.2310 -0.1046
   57TMC2    C4  870   2.071   0.800  13.284  1.1462 -0.0407 -0.0253
   57TMC2    C5  871   2.183   0.726  13.306 -0.2122  0.5033 -0.4607
   57TMC2    C6  872   2.251   0.737  13.427  0.0497 -0.9081  0.3120
   57TMC2     C  873   1.871   0.894  13.397 -0.2661  0.6077 -0.2317
   57TMC2     O  874   1.833   0.962  13.487  0.0567  0.4370  0.7425
   57TMC2     H  875   2.034   0.927  13.591 -0.4454 -2.1635  0.6316
   57TMC2    H1  876   2.013   0.790  13.193 -0.3442 -0.9285  1.0036
   57TMC2    H2  877   2.346   0.687  13.442 -0.0398 -1.0087  0.5387
   57TMC2    C7  878   2.228   0.660  13.192  0.1041  0.2517  1.2517
   57TMC2    C8  879   2.242   0.799  13.661  0.7870 -0.3515  0.3084
   57TMC2    O1  880   2.204   0.716  13.086 -0.2995 -0.3144 -0.0398
   57TMC2    O2  881   2.208   0.899  13.731  0.0398  0.2878  0.7074
   57TMC2    O5  882   2.227   0.671  13.687  0.5637  0.0148 -0.1048
   57TMC2    H5  883   2.231   0.611  13.610 -1.6744  0.1578 -0.3479
   58MPD2     C  884   1.392   0.713  13.309  0.6966  0.0370  0.0100
   58MPD2    C1  885   1.441   0.822  13.381 -0.5650 -0.0494  0.0817
   58MPD2    C2  886   1.574   0.855  13.377  0.7031  0.6805  0.1298
   58MPD2    C3  887   1.666   0.770  13.324 -0.2895  0.6168 -0.0322
   58MPD2    C4  888   1.627   0.657  13.256  0.2754 -0.1340 -0.4974
   58MPD2    C5  889   1.489   0.631  13.246 -0.4898 -0.1728 -0.3447
   58MPD2     H  890   1.608   0.946  13.426  1.6704  0.2836  0.1943
   58MPD2    H1  891   1.698   0.598  13.198 -1.7081 -0.3869 -2.6395
   58MPD2    H2  892   1.289   0.681  13.300  0.3595  1.0802  0.1168
   58MPD2    H3  893   1.455   0.543  13.192  0.7626 -0.0080 -1.3976
   58MPD2     N  894   1.800   0.800  13.320  0.0033 -0.6141 -0.1187
   58MPD2    H5  895   1.859   0.740  13.263 -0.0308 -1.2205  0.4763
   58MPD2    N1  896   1.353   0.910  13.449  0.2429  0.3551 -0.7211
   58MPD2    H7  897   1.396   0.998  13.477  0.6781 -0.2511  0.5171
   59MPD2     C  898   4.615   1.958  13.157  0.4579  0.6313 -0.9667
   59MPD2    C1  899   4.674   1.861  13.236  0.1388 -0.1758  0.4607
   59MPD2    C2  900   0.053   1.890  13.321 -0.3548  0.5742  0.3842
   59MPD2    C3  901   0.106   2.018  13.319  0.1507  0.6471 -0.3318
   59MPD2    C4  902   0.049   2.110  13.236  0.1022 -0.1234  0.0584
   59MPD2    C5  903   4.663   2.086  13.162  0.2819  0.6172  0.4073
   59MPD2     H  904   0.093   1.811  13.383 -2.6436 -0.2931  0.7579
   59MPD2    H1  905   0.100   2.205  13.228  0.5021 -0.4211 -0.9653
   59MPD2    H2  906   4.531   1.935  13.093 -1.9566  1.8361  1.7562
   59MPD2    H3  907   4.620   2.167  13.106  1.1064  0.8986  0.1759
   59MPD2     N  908   0.229   2.049  13.377 -0.6248 -1.1662  0.3938
   59MPD2    H5  909   0.276   2.134  13.348 -1.5848 -0.1585  1.7268
   59MPD2    N1  910   4.638   1.727  13.226 -0.3690  0.2416 -0.6137
   59MPD2    H7  911   4.697   1.666  13.281 -1.1625  0.7077  0.7448
   60TCq2    C1  912   4.532   1.671  13.157  0.5260 -0.1386 -0.2395
   60TCq2    O2  913   4.445   1.713  13.084  0.2845 -0.1283  0.7685
   60TCq2    C2  914   4.549   1.530  13.148  0.5631  0.5619 -0.1329
   60TCq2    C3  915   4.642   1.465  13.229 -0.3219 -0.1756  0.1145
   60TCq2    C4  916   4.675   1.332  13.199  0.1008  0.0733  0.1321
   60TCq2    C5  917   4.607   1.258  13.109  0.3668  0.6418 -0.3992
   60TCq2    C6  918   4.509   1.320  13.037  0.4627 -0.4600  0.8270
   60TCq2    C7  919   4.480   1.453  13.049 -0.9175  0.4316  0.2974
   60TCq2    C8  920   4.419   1.229  12.968 -0.2300 -0.4202 -0.5602
   60TCq2    O4  921   4.430   1.106  12.987 -0.1429 -0.1532  0.1608
   60TCq2    C9  922   0.046   1.269  13.287 -0.4716 -0.1089  0.8539
   60TCq2    O5  923   0.066   1.151  13.268  1.3392  0.1931  0.0077
   60TCq2    O6  924   0.118   1.344  13.357 -0.4508  0.2687  0.4828
   60TCq2    H2  925   4.687   1.507  13.318 -1.2004  0.3084  0.3320
   60TCq2    H3  926   4.623   1.151  13.111 -0.5976  0.4827 -1.0101
   60TCq2    H4  927   4.402   1.500  12.991 -0.5228  1.7244  0.8099
   61MPD2     C  928   3.492   1.965  15.277 -0.2048  1.3368  0.1677
   61MPD2    C1  929   3.498   2.079  15.200  0.2731  0.7500 -0.5412
   61MPD2    C2  930   3.596   2.094  15.106 -0.6549 -0.0610  0.1870
   61MPD2    C3  931   3.689   1.993  15.088 -0.9310  0.0669 -0.8311
   61MPD2    C4  932   3.677   1.873  15.155 -0.6766  0.5186 -0.2037
   61MPD2    C5  933   3.579   1.856  15.248  0.1115 -0.0405 -0.6510
   61MPD2     H  934   3.595   2.176  15.035 -0.0684  0.3065  0.5945
   61MPD2    H1  935   3.738   1.784  15.141 -2.2913 -0.3189 -1.8379
   61MPD2    H2  936   3.428   1.947  15.363  2.0281  0.3558  1.6289
   61MPD2    H3  937   3.577   1.765  15.308 -0.1027  1.3242  1.4327
   61MPD2     N  938   3.799   1.997  14.996  0.1294  0.2165 -0.1117
   61MPD2    H5  939   3.849   1.910  14.985  1.0019  0.6328  0.5519
   61MPD2    N1  940   3.432   2.202  15.224 -0.0298  0.4502 -0.3076
   61MPD2    H7  941   3.466   2.280  15.169  0.2699  1.4618  1.3094
   62TCq2    C1  942   3.344   2.222  15.327 -0.1820 -0.0806  0.9889
   62TCq2    O2  943   3.296   2.135  15.405 -0.3236  0.3315  0.4834
   62TCq2    C2  944   3.293   2.359  15.341  0.3991  0.9090 -0.0161
   62TCq2    C3  945   3.159   2.370  15.359  0.1968  0.3034  0.0929
   62TCq2    C4  946   3.088   2.483  15.313  0.1591  0.1318 -0.5144
   62TCq2    C5  947   3.161   2.589  15.262  0.2816 -0.5770 -0.2130
   62TCq2    C6  948   3.293   2.574  15.245 -0.1852  0.1072 -0.0881
   62TCq2    C7  949   3.357   2.463  15.272  0.6448  0.1413 -0.3666
   62TCq2    C8  950   3.362   2.659  15.155 -0.2641  0.3476 -0.9643
   62TCq2    O4  951   3.470   2.700  15.193  0.0439 -0.4199  0.5534
   62TCq2    C9  952   2.949   2.505  15.340 -0.1671  0.1218 -0.3672
   62TCq2    O5  953   2.902   2.432  15.431 -0.0580  0.4901  0.2266
   62TCq2    O6  954   2.895   2.601  15.276 -0.4127 -0.0821 -0.1210
   62TCq2    H2  955   3.102   2.291  15.407  0.5362 -0.2721 -0.4474
   62TCq2    H3  956   3.118   2.685  15.236  2.5463  0.0429 -1.6871
   62TCq2    H4  957   3.462   2.463  15.246  0.3590 -0.2228 -1.5061
   63TMC2    C1  958   3.420   2.343  10.552  0.2198  0.0233  0.2979
   63TMC2    C2  959   3.532   2.387  10.625  0.5430  0.1712 -0.7374
   63TMC2    C3  960   3.595   2.497  10.584 -0.5859 -0.0646  0.5447
   63TMC2    C4  961   3.382   2.409  10.441 -0.1089  0.8408  0.0010
   63TMC2    C5  962   3.454   2.513  10.399 -0.0573  0.3370 -0.1987
   63TMC2    C6  963   3.561   2.560  10.468 -0.2188 -0.0903 -0.8312
   63TMC2     C  964   3.344   2.234  10.614  0.8495  1.2760  0.0295
   63TMC2     O  965   3.405   2.141  10.669 -0.4365  0.2205 -0.2903
   63TMC2     H  966   3.582   2.332  10.704  2.5515  0.6581 -1.6662
   63TMC2    H1  967   3.302   2.369  10.380  1.2478 -2.8958  0.6683
   63TMC2    H2  968   3.621   2.632  10.414  0.4375  0.7430  0.9978
   63TMC2    C7  969   3.389   2.599  10.304  0.0508 -0.4321 -0.8737
   63TMC2    C8  970   3.724   2.536  10.649  0.3494  0.2840 -0.2632
   63TMC2    O1  971   3.315   2.541  10.220 -0.2169 -0.5994 -0.2628
   63TMC2    O2  972   3.777   2.467  10.734  0.2419  0.2661 -0.0859
   63TMC2    O5  973   3.764   2.652  10.599  0.3211  0.2530 -0.2349
   63TMC2    H5  974   3.698   2.714  10.561 -0.5228  0.4538  1.5891
   64MPD2     C  975   2.914   1.956  10.681  0.2402  0.3322  0.4294
   64MPD2    C1  976   3.044   1.940  10.727 -0.2437  0.1223  0.3926
   64MPD2    C2  977   3.141   2.034  10.694  0.2035  0.3654 -0.0531
   64MPD2    C3  978   3.114   2.145  10.617  0.6503 -0.2842  0.2419
   64MPD2    C4  979   2.988   2.166  10.583  0.6919 -0.3138 -0.7196
   64MPD2    C5  980   2.894   2.076  10.616 -0.2690 -0.4015  0.0509
   64MPD2     H  981   3.239   1.999  10.726 -0.4024 -0.8979  0.4275
   64MPD2    H1  982   2.959   2.258  10.534  0.0743  0.4492  1.0803
   64MPD2    H2  983   2.826   1.899  10.710 -0.2662  0.3446 -1.0955
   64MPD2    H3  984   2.790   2.097  10.597 -0.0162 -0.9519 -1.9553
   64MPD2     N  985   3.215   2.235  10.576 -0.7230  0.9184 -0.1089
   64MPD2    H5  986   3.184   2.320  10.529  0.4869  1.8058  0.7101
   64MPD2    N1  987   3.083   1.833  10.813 -0.3494  0.2148 -0.3531
   64MPD2    H7  988   3.178   1.831  10.850 -0.6944 -0.2231  0.5128
   65MPD2     C  989   4.586   1.440  15.611  0.8604  0.2923  0.9229
   65MPD2    C1  990   4.520   1.514  15.514 -0.4809 -0.7171 -0.2835
   65MPD2    C2  991   4.443   1.444  15.420 -0.0719 -0.6194  1.1595
   65MPD2    C3  992   4.437   1.306  15.417  0.3719  0.1217 -0.4921
   65MPD2    C4  993   4.488   1.237  15.519  0.2822  0.1929 -0.6262
   65MPD2    C5  994   4.562   1.307  15.613 -0.2787 -0.3951 -0.7909
   65MPD2     H  995   4.388   1.499  15.345  2.2667  0.5033  0.2584
   65MPD2    H1  996   4.463   1.132  15.528  1.2526  0.2449  2.5877
   65MPD2    H2  997   4.640   1.486  15.693 -0.5321  2.0196  0.8814
   65MPD2    H3  998   4.609   1.248  15.691 -0.1675  0.4518 -0.2269
   65MPD2     N  999   4.353   1.225  15.343  0.5839 -0.1221 -0.1446
   65MPD2    H5 1000   4.350   1.127  15.368 -2.8280 -0.0244 -0.1825
   65MPD2    N1 1001   4.517   1.656  15.516  0.5070 -0.1427 -0.4971
   65MPD2    H7 1002   4.468   1.707  15.442 -1.9367 -1.8589 -0.0661
   66TCq2    C1 1003   4.577   1.733  15.611  0.3308  0.1077  0.3329
   66TCq2    O2 1004   4.645   1.699  15.710 -0.0061  0.5982  0.3683
   66TCq2    C2 1005   4.556   1.876  15.613 -0.4832  0.6808 -0.3656
   66TCq2    C3 1006   4.433   1.920  15.571 -0.1488  0.7773 -0.3652
   66TCq2    C4 1007   4.392   2.039  15.620  0.1066  0.3963 -0.7011
   66TCq2    C5 1008   4.462   2.109  15.706 -0.1934 -0.3820  0.2018
   66TCq2    C6 1009   4.574   2.052  15.762  0.5268 -0.2423  0.1386
   66TCq2    C7 1010   4.631   1.938  15.710 -0.5125 -0.0057 -1.0497
   66TCq2    C8 1011   4.616   2.071  15.901  0.2402  0.1291 -0.8583
   66TCq2    O4 1012   4.711   2.013  15.949 -0.0300  0.3716 -0.4015
   66TCq2    C9 1013   4.263   2.091  15.592 -0.3314  0.3318 -0.8077
   66TCq2    O5 1014   4.197   2.033  15.502  0.1116  0.0278  0.1375
   66TCq2    O6 1015   4.228   2.201  15.646 -0.3130 -0.2328  0.0849
   66TCq2    H2 1016   4.371   1.863  15.503 -1.8314  2.3164 -0.1253
   66TCq2    H3 1017   4.424   2.204  15.740  0.1534 -0.9740  2.2409
   66TCq2    H4 1018   4.724   1.900  15.750 -0.7923  0.9792  0.5608
   67MPD2     C 1019   0.027   1.007  13.952  0.3858  0.0189  0.0588
   67MPD2    C1 1020   4.666   1.100  13.999 -0.2753  0.2566 -0.8571
   67MPD2    C2 1021   4.530   1.093  13.965 -0.2757  0.5157 -0.6054
   67MPD2    C3 1022   4.487   0.996  13.873  0.5114 -0.4306 -0.2095
   67MPD2    C4 1023   4.586   0.914  13.821 -0.1083 -0.1966 -0.0556
   67MPD2    C5 1024   4.716   0.919  13.855 -0.6565  0.1682  0.5215
   67MPD2     H 1025   4.457   1.157  14.014  1.0277  0.6902  1.1438
   67MPD2    H1 1026   4.572   0.835  13.748  0.5218 -0.2706 -0.0995
   67MPD2    H2 1027   0.131   1.017  13.981  0.5359  0.8784 -0.7813
   67MPD2    H3 1028   0.056   0.848  13.807 -0.1179  0.3088  1.0579
   67MPD2     N 1029   4.351   0.980  13.827 -0.3944  0.2913 -0.3292
   67MPD2    H5 1030   4.334   0.918  13.749  0.6377 -0.6499  0.2032
   67MPD2    N1 1031   4.700   1.208  14.089  0.4699  0.2090 -0.2715
   67MPD2    H7 1032   4.633   1.281  14.108  1.5726  0.8756  1.1091
   68TCq2    C1 1033   0.090   1.219  14.166 -0.4551  0.3731 -0.1158
   68TCq2    O2 1034   0.188   1.157  14.181 -0.2689  0.1752  0.0763
   68TCq2    C2 1035   0.085   1.350  14.230  0.3307  0.7608  0.5041
   68TCq2    C3 1036   0.003   1.459  14.196  0.4369  0.6819  0.7090
   68TCq2    C4 1037   0.011   1.581  14.264  0.1863 -1.1228  0.7913
   68TCq2    C5 1038   0.102   1.597  14.363 -0.5183  0.5869  0.3225
   68TCq2    C6 1039   0.196   1.500  14.374 -0.1821  0.1288 -0.5676
   68TCq2    C7 1040   0.188   1.374  14.332 -0.4931  0.3897 -0.4517
   68TCq2    C8 1041   0.298   1.527  14.473 -0.1009  0.5216  0.8276
   68TCq2    O4 1042   0.349   1.636  14.471  0.8847  0.0158 -0.0767
   68TCq2    C9 1043   4.627   1.674  14.241  0.4098 -0.6112 -0.5099
   68TCq2    O5 1044   4.563   1.705  14.348 -0.5646 -0.0734  0.3131
   68TCq2    O6 1045   4.581   1.686  14.127  0.0932  0.1401  0.2612
   68TCq2    H2 1046   4.645   1.452  14.128 -0.2002  1.0661  1.4564
   68TCq2    H3 1047   0.104   1.692  14.416  0.4854  0.7355  0.0045
   68TCq2    H4 1048   0.279   1.314  14.330 -1.1965 -0.7460  1.7029
   69TMC2    C1 1049   1.035   2.728  12.161  0.0539 -0.6378  0.4351
   69TMC2    C2 1050   0.917   2.717  12.095 -0.0989  0.2205 -0.4402
   69TMC2    C3 1051   0.904   2.769  11.965 -0.4843  0.0932  0.3115
   69TMC2    C4 1052   1.143   2.809  12.108 -0.0267 -0.0014 -0.5177
   69TMC2    C5 1053   1.126   2.860  11.984  0.1805  0.1741  0.4006
   69TMC2    C6 1054   1.009   2.838  11.911 -0.0544  0.3184 -0.7025
   69TMC2     C 1055   1.071   2.635  12.265  0.8558 -0.5390  0.1726
   69TMC2     O 1056   0.981   2.576  12.318 -0.3735 -0.1998  0.0588
   69TMC2     H 1057   0.838   2.649  12.126  1.0756 -0.6046  0.7350
   69TMC2    H1 1058   1.226   2.844  12.168 -1.3813  0.9375  0.8104
   69TMC2    H2 1059   1.012   2.866  11.806  2.1522  0.6827 -0.5397
   69TMC2    C7 1060   1.239   2.935  11.931 -0.0433 -0.2206  0.6989
   69TMC2    C8 1061   0.797   2.747  11.877 -0.4539  0.2197 -0.5193
   69TMC2    O1 1062   1.339   2.934  12.003 -0.1482  0.5567  0.5011
   69TMC2    O2 1063   0.700   2.822  11.886  0.4692  0.5536 -0.6179
   69TMC2    O5 1064   0.855   2.705  11.763  0.0801  0.1458 -0.1993
   69TMC2    H5 1065   0.942   2.661  11.778  0.8969  1.5705 -0.7398
   70MPD2     C 1066   1.404   2.508  12.314 -0.8416 -0.3911  0.0327
   70MPD2    C1 1067   1.270   2.507  12.323  0.5068  0.1803 -0.0749
   70MPD2    C2 1068   1.205   2.394  12.377  0.1561 -0.8705  0.2717
   70MPD2    C3 1069   1.280   2.293  12.435  0.3068  0.1207 -0.3923
   70MPD2    C4 1070   1.420   2.293  12.421  0.4093  0.8755  0.7509
   70MPD2    C5 1071   1.479   2.405  12.361  0.3595 -0.2980 -0.1812
   70MPD2     H 1072   1.096   2.387  12.376  0.1508 -0.7228 -0.3626
   70MPD2    H1 1073   1.486   2.209  12.441  0.5324  0.8650  0.3079
   70MPD2    H2 1074   1.449   2.595  12.267 -1.3662  1.4720  3.0623
   70MPD2    H3 1075   1.586   2.421  12.350  0.7524 -2.6584  0.1363
   70MPD2     N 1076   1.221   2.179  12.503 -0.1084 -0.0735 -0.3921
   70MPD2    H5 1077   1.287   2.108  12.534  0.7232  1.4827  1.4324
   70MPD2    N1 1078   1.203   2.617  12.269 -0.1520  0.2954  0.1164
   70MPD2    H7 1079   1.260   2.677  12.211  0.0320 -2.1896 -2.2376
   71TMC2    C1 1080   0.285   3.192   2.174 -0.1773  0.0086 -0.2374
   71TMC2    C2 1081   0.361   3.164   2.286 -0.2071  0.3813  0.8981
   71TMC2    C3 1082   0.320   3.222   2.402 -0.2106 -0.1053 -0.2131
   71TMC2    C4 1083   0.175   3.280   2.171 -0.1425 -0.9749 -0.2997
   71TMC2    C5 1084   0.153   3.349   2.291 -0.1405 -0.2860 -0.0754
   71TMC2    C6 1085   0.221   3.316   2.405  0.1329 -0.3332  0.8669
   71TMC2     C 1086   0.347   3.163   2.045  0.1210 -0.1050 -0.0682
   71TMC2     O 1087   0.274   3.175   1.947  0.2842  0.4897 -0.0538
   71TMC2     H 1088   0.432   3.083   2.288  0.8977  1.3431  0.6560
   71TMC2    H1 1089   0.113   3.295   2.084 -2.0725  0.3385  1.2918
   71TMC2    H2 1090   0.194   3.372   2.494 -2.2102 -2.9277  1.7871
   71TMC2    C7 1091   0.034   3.425   2.304 -0.2781 -0.2041 -1.3463
   71TMC2    C8 1092   0.409   3.204   2.523 -0.0777  0.6561  0.6108
   71TMC2    O1 1093   0.014   3.477   2.414  0.2378 -0.2844  0.4964
   71TMC2    O2 1094   0.508   3.138   2.503 -0.0205 -0.4245  0.5094
   71TMC2    O5 1095   0.332   3.174   2.627  0.1504  0.4834 -0.1816
   71TMC2    H5 1096   0.241   3.209   2.632  0.7103  2.0272 -0.7340
   72MPD2     C 1097   0.738   2.994   1.759 -0.2677 -0.1127  0.1607
   72MPD2    C1 1098   0.617   3.040   1.717  0.8134  0.3189 -0.0079
   72MPD2    C2 1099   0.527   3.081   1.812 -0.2009 -0.1716  0.1518
   72MPD2    C3 1100   0.565   3.081   1.945 -0.5230  0.0140  0.1581
   72MPD2    C4 1101   0.694   3.056   1.978  0.2231 -0.0210  1.0064
   72MPD2    C5 1102   0.778   3.011   1.883  0.2429  0.0977  0.1161
   72MPD2     H 1103   0.432   3.125   1.786  0.0290 -0.0579 -0.5008
   72MPD2    H1 1104   0.733   3.060   2.080 -1.0771  1.7672  1.4272
   72MPD2    H2 1105   0.802   2.935   1.695 -1.2233  0.1568 -1.0487
   72MPD2    H3 1106   0.878   2.982   1.913  0.1824 -0.7171 -0.4725
   72MPD2     N 1107   0.478   3.130   2.050  0.4576 -0.2405 -0.1371
   72MPD2    H5 1108   0.524   3.136   2.140  1.2474  0.2524 -0.5640
   72MPD2    N1 1109   0.585   3.047   1.578  0.2137  0.0792 -0.5181
   72MPD2    H7 1110   0.489   3.075   1.562 -0.2933 -0.4504  1.4819
   73TMC2    C1 1111   3.560   3.664  13.392  0.2340  0.1910  0.7124
   73TMC2    C2 1112   3.502   3.573  13.472 -0.0422  0.1960  0.2056
   73TMC2    C3 1113   3.570   3.451  13.499  0.0250 -0.1152 -0.2269
   73TMC2    C4 1114   3.692   3.640  13.358  0.5739  0.0699 -0.3329
   73TMC2    C5 1115   3.767   3.542  13.421  0.5211 -0.1320  0.0186
   73TMC2    C6 1116   3.706   3.439  13.493  0.1288  0.2030  0.3718
   73TMC2     C 1117   3.538   3.809  13.406  0.1831  0.2410  0.5931
   73TMC2     O 1118   3.631   3.880  13.377  0.3830 -0.3713  0.1673
   73TMC2     H 1119   3.398   3.582  13.501 -0.3000  0.9473 -0.9191
   73TMC2    H1 1120   3.746   3.706  13.291 -0.4581  0.6490 -0.6009
   73TMC2    H2 1121   3.750   3.354  13.543  3.1319  1.7754  0.3839
   73TMC2    C7 1122   3.889   3.583  13.489  0.2403  0.0157 -0.3910
   73TMC2    C8 1123   3.492   3.329  13.507 -0.0131  0.2199 -0.1685
   73TMC2    O1 1124   3.957   3.492  13.539  0.7745 -0.1360 -0.3311
   73TMC2    O2 1125   3.371   3.327  13.528  0.3444 -0.8810  0.0926
   73TMC2    O5 1126   3.561   3.245  13.421  0.2045 -0.0236 -0.4582
   73TMC2    H5 1127   3.645   3.287  13.392 -1.8703  4.5761  0.3162
   74MPD2     C 1128   3.314   4.217  13.613  0.1766 -0.2677 -0.3846
   74MPD2    C1 1129   3.442   4.200  13.568  0.1045  0.0925  0.3508
   74MPD2    C2 1130   3.487   4.074  13.522 -0.2223  0.2836 -0.2112
   74MPD2    C3 1131   3.393   3.970  13.515  0.2216  0.3012 -0.2769
   74MPD2    C4 1132   3.267   3.990  13.568 -0.6679  0.1311  0.6798
   74MPD2    C5 1133   3.233   4.111  13.618 -0.1994  0.3223  0.1292
   74MPD2     H 1134   3.592   4.060  13.498  0.1047  1.4184  0.5442
   74MPD2    H1 1135   3.194   3.910  13.569 -0.9954  0.3692 -2.0603
   74MPD2    H2 1136   3.277   4.309  13.658  2.1291  0.9700 -1.3215
   74MPD2    H3 1137   3.135   4.118  13.665  1.0208  0.2431  2.6937
   74MPD2     N 1138   3.425   3.839  13.473  0.1240 -0.2289 -0.0747
   74MPD2    H5 1139   3.354   3.767  13.485  0.4245 -0.5083  0.0290
   74MPD2    N1 1140   3.522   4.314  13.592  0.1755 -0.4424 -0.2294
   74MPD2    H7 1141   3.484   4.397  13.637 -0.9130 -1.0861  0.0228
   75TCq2    C1 1142   4.245   1.007  13.914  0.3322 -0.0610 -0.0440
   75TCq2    O2 1143   4.250   1.052  14.026 -0.4875 -0.4563  0.5085
   75TCq2    C2 1144   4.120   0.974  13.846 -0.9017 -0.3361 -0.7909
   75TCq2    C3 1145   4.030   0.927  13.938  0.6823  0.1385 -0.4067
   75TCq2    C4 1146   3.898   0.943  13.912  0.4307  0.1514  0.1881
   75TCq2    C5 1147   3.861   0.993  13.788 -0.0882  0.1999  0.0095
   75TCq2    C6 1148   3.953   1.031  13.690 -0.1563  0.2687 -1.1753
   75TCq2    C7 1149   4.084   1.030  13.724  1.2027  0.5056  0.5312
   75TCq2    C8 1150   3.910   1.092  13.570 -0.8354 -0.3011  0.3363
   75TCq2    O4 1151   3.990   1.101  13.475  0.4552  0.0144  0.4239
   75TCq2    C9 1152   3.788   0.925  14.005  0.3835  0.2441  0.4401
   75TCq2    O5 1153   3.821   0.874  14.115  0.3852 -0.3496 -0.7023
   75TCq2    O6 1154   3.672   0.978  13.984 -0.4214  0.2945  0.1200
   75TCq2    H2 1155   4.065   0.899  14.036  0.9682  1.8007 -0.0332
   75TCq2    H3 1156   3.754   0.999  13.769 -0.4545  0.4783  2.1891
   75TCq2    H4 1157   4.156   1.052  13.646 -0.5249  1.0714 -0.9009
   76MPD2     C 1158   1.926   2.519  12.193 -0.6562 -0.5297  0.2829
   76MPD2    C1 1159   2.016   2.529  12.086  0.2093 -0.1036  0.2797
   76MPD2    C2 1160   2.068   2.413  12.036 -0.4189 -0.1204 -0.1821
   76MPD2    C3 1161   2.050   2.292  12.098 -0.6280 -0.1295  1.0097
   76MPD2    C4 1162   1.960   2.286  12.204  0.6900 -0.0685  0.1542
   76MPD2    C5 1163   1.906   2.398  12.248  0.1080 -0.1205 -0.2062
   76MPD2     H 1164   2.148   2.431  11.964  0.0766 -1.1062  0.1278
   76MPD2    H1 1165   1.945   2.193  12.258  1.0443 -0.2150  0.0039
   76MPD2    H2 1166   1.880   2.611  12.228  1.7930  1.0024 -0.4807
   76MPD2    H3 1167   1.839   2.401  12.333  1.1988 -2.8699  0.7283
   76MPD2     N 1168   2.121   2.178  12.073 -0.1248  0.0424  0.5333
   76MPD2    H5 1169   2.102   2.095  12.129  0.1945 -1.6436 -1.8573
   76MPD2    N1 1170   2.058   2.651  12.026 -0.0119 -0.6778  0.5709
   76MPD2    H7 1171   2.104   2.630  11.938 -0.6362  1.0266 -0.1649
   77TCq2    C1 1172   2.226   2.171  11.980 -0.2897 -0.8639  0.2421
   77TCq2    O2 1173   2.255   2.247  11.889 -0.3082 -0.6635  0.6655
   77TCq2    C2 1174   2.297   2.045  12.004 -0.0924  0.3760 -0.4935
   77TCq2    C3 1175   2.247   1.941  12.079  0.1095 -0.4727  0.1525
   77TCq2    C4 1176   2.313   1.829  12.092 -0.2971 -0.0460 -0.2532
   77TCq2    C5 1177   2.437   1.816  12.029  0.8355 -0.6893 -0.5969
   77TCq2    C6 1178   2.487   1.923  11.953  0.2552  0.8247 -0.2446
   77TCq2    C7 1179   2.416   2.032  11.936  0.0898 -0.6390 -0.5834
   77TCq2    C8 1180   2.629   1.931  11.912 -0.1433  0.4716 -0.2445
   77TCq2    O4 1181   2.661   2.031  11.845  0.0023  0.4002  0.4413
   77TCq2    C9 1182   2.262   1.719  12.165  0.1400 -0.0101 -0.1201
   77TCq2    O5 1183   2.290   1.603  12.129  0.5102 -0.0459  0.3171
   77TCq2    O6 1184   2.165   1.743  12.243 -0.4022 -0.4439 -0.4296
   77TCq2    H2 1185   2.152   1.934  12.130  0.3130  0.9377  0.7183
   77TCq2    H3 1186   2.485   1.719  12.034 -0.0361 -1.1503 -1.1663
   77TCq2    H4 1187   2.451   2.122  11.886 -0.9000  0.3192  0.4653
   78MPD1     C 1188   3.873   3.039   1.790  0.6291  0.1510  0.0863
   78MPD1    C1 1189   3.829   3.126   1.888 -0.0793  0.1824 -0.1438
   78MPD1    C2 1190   3.915   3.170   1.980  0.1365 -0.4717  0.5046
   78MPD1    C3 1191   4.052   3.165   1.965  0.6411  0.4670  0.6756
   78MPD1    C4 1192   4.097   3.086   1.862 -0.6387 -0.0623 -0.0444
   78MPD1    C5 1193   4.012   3.024   1.777  0.8868 -0.1828  0.2293
   78MPD1     H 1194   3.876   3.235   2.057 -0.9608 -1.0615  0.4490
   78MPD1    H1 1195   4.204   3.076   1.845 -0.7582  0.1371 -0.9302
   78MPD1    H2 1196   3.811   2.990   1.717 -2.3206  1.3568  1.7937
   78MPD1    H3 1197   4.062   2.970   1.698 -2.1861  0.6488 -2.2889
   78MPD1     N 1198   4.144   3.205   2.067  0.3108  0.4852  0.2989
   78MPD1    H5 1199   4.244   3.192   2.053 -0.1241 -0.4233 -1.9849
   78MPD1    N1 1200   3.691   3.132   1.915  0.3108 -0.1605 -0.5020
   78MPD1    H6 1201   3.631   3.117   1.834  1.1247 -0.1547 -1.1041
   78MPD1    H7 1202   3.670   3.218   1.964  1.3419  0.0781 -0.4771
   79TCq2    C1 1203   4.113   3.274   2.187  0.1815  0.0522  0.7340
   79TCq2    O2 1204   4.009   3.326   2.223 -0.4535 -0.1111  0.7276
   79TCq2    C2 1205   4.226   3.287   2.281  0.8374  0.2939 -0.6468
   79TCq2    C3 1206   4.205   3.336   2.408  0.2976 -0.3897  1.0670
   79TCq2    C4 1207   4.306   3.320   2.498  0.5354  0.2938 -0.0754
   79TCq2    C5 1208   4.421   3.253   2.464 -0.0244 -0.2612 -0.0050
   79TCq2    C6 1209   4.435   3.207   2.342 -0.3933 -0.4973  0.2943
   79TCq2    C7 1210   4.348   3.233   2.240 -0.1353 -0.0533  0.3572
   79TCq2    C8 1211   4.558   3.125   2.305 -0.0849  0.6367 -0.4690
   79TCq2    O4 1212   4.585   3.123   2.186  0.5326  0.2220  0.1968
   79TCq2    C9 1213   4.304   3.383   2.619  1.1661 -0.4229  0.6204
   79TCq2    O5 1214   4.190   3.415   2.665  0.1949 -0.2319  0.0431
   79TCq2    O6 1215   4.414   3.423   2.662 -0.4837  0.1603 -0.2849
   79TCq2    H2 1216   4.126   3.406   2.432 -1.2719 -2.0154  0.7148
   79TCq2    H3 1217   4.498   3.235   2.538 -0.5082 -0.2680  0.4944
   79TCq2    H4 1218   4.373   3.199   2.140 -1.0781 -0.6729  0.3357
   80MPD2     C 1219   2.269   1.611  11.340  0.4322  0.3245 -0.1955
   80MPD2    C1 1220   2.198   1.511  11.402 -0.1109  0.4992 -0.0273
   80MPD2    C2 1221   2.068   1.529  11.443  0.6647 -0.3179  0.2870
   80MPD2    C3 1222   2.001   1.649  11.416 -0.4926 -0.2656  0.3636
   80MPD2    C4 1223   2.073   1.746  11.353 -0.3636 -0.2299  0.0749
   80MPD2    C5 1224   2.201   1.724  11.311 -0.1728 -0.4711 -0.2217
   80MPD2     H 1225   2.019   1.449  11.498 -1.5666  0.9159  0.0875
   80MPD2    H1 1226   2.035   1.844  11.327  4.2063  1.5239 -0.1078
   80MPD2    H2 1227   2.376   1.603  11.321  0.0618 -1.0939 -1.7029
   80MPD2    H3 1228   2.248   1.807  11.259  1.1046 -0.6696  0.6355
   80MPD2     N 1229   1.874   1.685  11.469  0.2631 -0.5194  0.0186
   80MPD2    H5 1230   1.841   1.781  11.466  2.1314  0.0953 -0.5432
   80MPD2    N1 1231   2.248   1.379  11.426  0.4036  0.4514  0.5022
   80MPD2    H7 1232   2.175   1.312  11.451 -0.0851  0.1253 -1.7860
   81TCq2    C1 1233   2.376   1.335  11.418 -0.2525  0.0459  0.5808
   81TCq2    O2 1234   2.485   1.392  11.414 -0.5981  0.3777  0.1399
   81TCq2    C2 1235   2.389   1.184  11.427 -0.0049 -0.2557 -0.3061
   81TCq2    C3 1236   2.514   1.133  11.398  0.6872  0.3346 -0.1774
   81TCq2    C4 1237   2.525   1.001  11.371 -1.1289  0.2808 -0.5402
   81TCq2    C5 1238   2.426   0.913  11.410 -0.4217 -0.1351  0.2853
   81TCq2    C6 1239   2.308   0.970  11.452  0.3463 -0.6638 -0.6419
   81TCq2    C7 1240   2.286   1.103  11.451  1.0024 -0.4564  0.0038
   81TCq2    C8 1241   2.194   0.883  11.464 -0.4047  0.3509  0.5054
   81TCq2    O4 1242   2.181   0.789  11.386  0.0737 -0.0918 -0.2075
   81TCq2    C9 1243   2.652   0.956  11.334  0.2601  0.4260  0.4247
   81TCq2    O5 1244   2.739   1.044  11.324  0.0023  0.1124  0.6516
   81TCq2    O6 1245   2.674   0.834  11.315 -0.3069  0.0972  0.4332
   81TCq2    H2 1246   2.601   1.196  11.386  1.7976 -0.9507  1.1688
   81TCq2    H3 1247   2.439   0.806  11.408  0.1635 -0.0934  1.6788
   81TCq2    H4 1248   2.192   1.149  11.481  0.7546  0.1208 -1.6843
   82MPD2     C 1249   4.430   1.557  10.791  0.6289 -0.4835  0.8887
   82MPD2    C1 1250   4.366   1.440  10.755 -0.3922 -0.0137  0.1478
   82MPD2    C2 1251   4.348   1.340  10.855 -0.2216  0.9347  0.1258
   82MPD2    C3 1252   4.392   1.370  10.988  0.0905 -0.1554  0.1336
   82MPD2    C4 1253   4.437   1.491  11.020  0.1461 -0.5900  0.3570
   82MPD2    C5 1254   4.463   1.590  10.918  0.3521  0.2921  0.0358
   82MPD2     H 1255   4.293   1.252  10.823 -0.5411  1.0920  0.2420
   82MPD2    H1 1256   4.472   1.515  11.120  0.8715 -2.0596  0.4550
   82MPD2    H2 1257   4.444   1.618  10.702 -1.4398 -0.2975  0.6912
   82MPD2    H3 1258   4.515   1.683  10.940 -0.2071  0.2545  1.5597
   82MPD2     N 1259   4.402   1.272  11.084  0.0483  0.5544 -0.0415
   82MPD2    H5 1260   4.408   1.305  11.180 -0.7376  0.5027  0.0266
   82MPD2    N1 1261   4.314   1.439  10.625 -0.1203 -0.3024 -0.0633
   82MPD2    H7 1262   4.315   1.531  10.582  1.0519 -0.1318  0.3471
   83TCq2    C1 1263   4.402   1.135  11.069 -0.5114  0.0357 -0.3144
   83TCq2    O2 1264   4.436   1.073  10.966  0.5590 -0.3281  0.0290
   83TCq2    C2 1265   4.394   1.069  11.200  0.0589 -0.6749 -0.7929
   83TCq2    C3 1266   4.341   1.141  11.306 -0.1009  0.5250  0.1967
   83TCq2    C4 1267   4.344   1.089  11.435  0.1074  0.0560 -0.3936
   83TCq2    C5 1268   4.394   0.964  11.459 -0.2204 -0.2018  0.5053
   83TCq2    C6 1269   4.443   0.894  11.347 -0.3184 -0.1088  0.3336
   83TCq2    C7 1270   4.446   0.945  11.224  0.0288 -0.2945 -0.3571
   83TCq2    C8 1271   4.430   0.754  11.377 -0.1709  0.2156 -0.5805
   83TCq2    O4 1272   4.485   0.712  11.479 -0.3657  0.2135  0.0260
   83TCq2    C9 1273   4.308   1.169  11.548 -0.4241 -0.0498 -0.7362
   83TCq2    O5 1274   4.282   1.292  11.532  0.2603 -0.0554 -0.0266
   83TCq2    O6 1275   4.281   1.110  11.653 -1.1607 -0.0247  0.7714
   83TCq2    H2 1276   4.289   1.236  11.298  1.5084  1.4364  0.5593
   83TCq2    H3 1277   4.392   0.926  11.561  1.8307  1.7360  1.2812
   83TCq2    H4 1278   4.487   0.877  11.150  0.9085  0.8609 -0.9183
   84TCq2    C1 1279   1.096   0.611  10.295  0.3958 -0.7497  0.3640
   84TCq2    O2 1280   0.983   0.563  10.272  0.1291 -0.0251  0.1605
   84TCq2    C2 1281   1.132   0.631  10.435 -0.0344  0.0040  0.5296
   84TCq2    C3 1282   1.195   0.741  10.479  0.3354  0.4635  0.4560
   84TCq2    C4 1283   1.215   0.746  10.615 -0.4936 -0.6207  0.0793
   84TCq2    C5 1284   1.161   0.651  10.695 -1.0886  0.2794 -0.0769
   84TCq2    C6 1285   1.093   0.544  10.637  0.2124  0.2852 -0.2840
   84TCq2    C7 1286   1.083   0.526  10.504 -0.8384  0.1015  0.0482
   84TCq2    C8 1287   1.005   0.455  10.710 -0.3221  0.0268  0.0879
   84TCq2    O4 1288   0.962   0.358  10.649 -0.0657 -0.3780 -0.2564
   84TCq2    C9 1289   1.304   0.846  10.671  0.1085  0.6196  0.2330
   84TCq2    O5 1290   1.350   0.933  10.592 -0.0221  0.7529 -0.1153
   84TCq2    O6 1291   1.345   0.825  10.788  0.3967 -0.1123 -0.4394
   84TCq2    H2 1292   1.235   0.819  10.415  0.7409  0.7565  1.0631
   84TCq2    H3 1293   1.189   0.654  10.799 -1.4414  1.9857 -0.0282
   84TCq2    H4 1294   1.039   0.438  10.458 -0.5212 -0.4336  0.7570
   85MPD2     C 1295   1.845   2.648  16.586  0.5979 -0.4135  0.2905
   85MPD2    C1 1296   1.822   2.671  16.453  0.5776  0.2781  0.3581
   85MPD2    C2 1297   1.830   2.796  16.405 -0.0561  0.4617 -0.0652
   85MPD2    C3 1298   1.851   2.906  16.489  0.0554  0.6189 -0.4084
   85MPD2    C4 1299   1.864   2.880  16.619 -0.1282 -0.8091 -0.3970
   85MPD2    C5 1300   1.851   2.754  16.674 -0.3956  0.2699 -0.3298
   85MPD2     H 1301   1.817   2.817  16.299 -0.8586 -0.9957 -0.2519
   85MPD2    H1 1302   1.887   2.966  16.682 -0.0057  1.1445 -3.1449
   85MPD2    H2 1303   1.849   2.549  16.631 -0.1817 -0.1613  0.9296
   85MPD2    H3 1304   1.863   2.743  16.781  0.3762  2.1719 -0.2216
   85MPD2     N 1305   1.869   3.031  16.428 -0.4858 -0.4059  0.1002
   85MPD2    H5 1306   1.888   3.027  16.328 -1.2616 -0.3873 -0.0477
   85MPD2    N1 1307   1.787   2.565  16.362 -0.2465 -0.3712  0.1033
   85MPD2    H7 1308   1.782   2.584  16.262 -1.8185 -0.0077  0.2458
   86TCq2    C1 1309   1.844   3.145  16.492 -0.0020  0.3645  0.0246
   86TCq2    O2 1310   1.773   3.160  16.590  0.4902  0.3990 -0.6169
   86TCq2    C2 1311   1.898   3.264  16.420 -0.8085  0.2192  0.3781
   86TCq2    C3 1312   1.814   3.372  16.398  0.4520 -0.0664  0.1076
   86TCq2    C4 1313   1.858   3.473  16.316 -1.4578 -0.2098 -0.2502
   86TCq2    C5 1314   1.986   3.472  16.275  0.0025  0.2064  0.1530
   86TCq2    C6 1315   2.072   3.365  16.299 -0.1646  0.3370  0.7059
   86TCq2    C7 1316   2.025   3.256  16.370 -0.3806  0.8698 -0.1645
   86TCq2    C8 1317   2.190   3.347  16.213 -0.8352 -0.3972 -0.3858
   86TCq2    O4 1318   2.270   3.260  16.243  0.5840 -0.3811 -0.3472
   86TCq2    C9 1319   1.767   3.581  16.284  0.1500  0.4851 -1.5252
   86TCq2    O5 1320   1.814   3.670  16.212 -0.0246  0.0330 -0.7576
   86TCq2    O6 1321   1.651   3.573  16.332 -0.2260 -0.4550  0.2797
   86TCq2    H2 1322   1.708   3.367  16.419  0.2210 -0.0380 -1.0148
   86TCq2    H3 1323   2.014   3.551  16.207 -0.0112 -0.7651 -0.9858
   86TCq2    H4 1324   2.089   3.172  16.395  0.3023  1.0547 -1.2813
   87MPD2     C 1325   3.969   1.501   0.282  0.0914 -0.1541 -0.0529
   87MPD2    C1 1326   3.881   1.400   0.283  0.7447 -0.2077 -0.7563
   87MPD2    C2 1327   3.764   1.422   0.214 -0.3942  0.5249  0.2274
   87MPD2    C3 1328   3.736   1.542   0.154 -0.2458 -0.3507  0.4286
   87MPD2    C4 1329   3.824   1.646   0.159  0.2253  0.2191 -0.3771
   87MPD2    C5 1330   3.943   1.616   0.216 -0.6304  0.0299 -0.6811
   87MPD2     H 1331   3.697   1.337   0.208 -0.6025  0.7738 -0.8732
   87MPD2    H1 1332   3.804   1.742   0.113  0.1528  1.1802  1.7113
   87MPD2    H2 1333   4.060   1.493   0.341 -0.0560 -0.2838  0.1576
   87MPD2    H3 1334   4.024   1.688   0.226 -1.0295  0.2998  0.7070
   87MPD2     N 1335   3.613   1.574   0.091  0.9138 -0.4189  0.1714
   87MPD2    H5 1336   3.603   1.668   0.055 -0.7817 -0.7863 -0.3181
   87MPD2    N1 1337   3.910   1.282   0.360  0.1914  0.2601 -0.0582
   87MPD2    H7 1338   3.997   1.276   0.411 -0.1383  0.1573  0.4959
   88TCq2    C1 1339   3.828   1.171   0.373 -0.2702  0.0959  0.6196
   88TCq2    O2 1340   3.717   1.154   0.330  0.2973 -0.0338 -0.6884
   88TCq2    C2 1341   3.897   1.066   0.444 -0.1996  0.5511  0.1893
   88TCq2    C3 1342   3.817   0.978   0.509  0.0513  0.5225 -0.6160
   88TCq2    C4 1343   3.877   0.877   0.582 -0.2279 -0.3521  0.0162
   88TCq2    C5 1344   4.012   0.865   0.583  0.3963  0.1895  0.6244
   88TCq2    C6 1345   4.088   0.961   0.518  0.2191  0.4688 -0.9974
   88TCq2    C7 1346   4.031   1.065   0.449  0.1067  0.4642  0.6799
   88TCq2    C8 1347   4.236   0.940   0.526 -0.1921 -0.2977 -0.5021
   88TCq2    O4 1348   4.306   1.034   0.493  0.4447 -0.0461  0.1606
   88TCq2    C9 1349   3.799   0.805   0.672  0.0205 -0.2716  0.0414
   88TCq2    O5 1350   3.861   0.739   0.758 -0.3230 -0.3692 -0.1568
   88TCq2    O6 1351   3.680   0.850   0.691 -0.2775 -0.3588  0.2370
   88TCq2    H2 1352   3.709   0.991   0.505 -0.1071 -0.6309  0.2274
   88TCq2    H3 1353   4.046   0.785   0.648 -0.1344 -0.5605 -0.0363
   88TCq2    H4 1354   4.095   1.115   0.377 -1.1745 -1.1915 -1.5982
   89MPD2     C 1355   0.451   4.606   2.268 -0.2604  0.1513  0.8251
   89MPD2    C1 1356   0.545   4.524   2.203  0.5453  0.4949  0.8089
   89MPD2    C2 1357   0.675   4.563   2.194  0.1368  0.3207 -0.6993
   89MPD2    C3 1358   0.720   4.685   2.253  0.1579 -0.1451  0.0293
   89MPD2    C4 1359   0.620   0.041   2.315 -0.0925 -0.0128  0.6590
   89MPD2    C5 1360   0.488   4.721   2.320 -0.6916  0.1619  0.0649
   89MPD2     H 1361   0.747   4.499   2.145 -0.3688  0.0992 -1.1515
   89MPD2    H1 1362   0.635   0.142   2.350 -1.7050  0.4247  0.0682
   89MPD2    H2 1363   0.345   4.585   2.257  0.0408  0.5177 -2.6400
   89MPD2    H3 1364   0.408   0.047   2.371  0.6373  1.1725  1.1407
   89MPD2     N 1365   0.854   4.723   2.230  0.3228  0.3547 -0.5626
   89MPD2    H5 1366   0.909   4.655   2.180  0.2172  0.4460 -0.8035
   89MPD2    N1 1367   0.517   4.393   2.154  0.3471 -0.4520  0.3964
   89MPD2    H7 1368   0.596   4.345   2.112  0.4256 -0.0731  0.1041
   90TCq2    C1 1369   0.906   0.117   2.268  0.4204  0.1630 -0.1546
   90TCq2    O2 1370   0.854   0.215   2.317 -0.1958  0.6557  0.4360
   90TCq2    C2 1371   1.050   0.123   2.248 -1.0149  0.6492  0.1629
   90TCq2    C3 1372   1.115   0.004   2.230  0.3234 -0.2596  0.2461
   90TCq2    C4 1373   1.238   0.006   2.168  0.1259  0.4377 -0.0515
   90TCq2    C5 1374   1.298   0.125   2.134  0.3316  0.0980  0.6994
   90TCq2    C6 1375   1.231   0.243   2.168 -0.0452  0.2535 -0.2490
   90TCq2    C7 1376   1.115   0.242   2.230  0.2050 -0.3796  0.0128
   90TCq2    C8 1377   1.281   0.370   2.123  0.0900 -0.8126  0.5872
   90TCq2    O4 1378   1.230   0.475   2.170  0.1241 -0.2362 -0.7747
   90TCq2    C9 1379   1.308   4.617   2.119 -0.0034  0.4550 -0.9341
   90TCq2    O5 1380   1.234   4.520   2.100 -0.7597  0.2984  0.0034
   90TCq2    O6 1381   1.436   4.618   2.121 -0.2847 -0.1004 -0.1191
   90TCq2    H2 1382   1.073   4.632   2.250 -0.2677 -0.1759 -0.5994
   90TCq2    H3 1383   1.391   0.129   2.079 -1.4199 -0.1425 -2.3319
   90TCq2    H4 1384   1.060   0.336   2.236  2.0128  0.7152 -0.5455
   91TMC2    C1 1385   2.241   3.985  16.794  0.0379 -0.2294  0.0184
   91TMC2    C2 1386   2.297   4.042  16.687 -0.6464  0.3728 -1.0256
   91TMC2    C3 1387   2.226   4.117  16.605  0.7784  0.5932 -0.1614
   91TMC2    C4 1388   2.115   4.013  16.837 -0.3613 -0.3050  0.6551
   91TMC2    C5 1389   2.038   4.097  16.756 -0.4615 -0.2530 -0.2077
   91TMC2    C6 1390   2.099   4.152  16.642 -0.0734  0.2679 -0.1575
   91TMC2     C 1391   2.319   3.901  16.879 -0.4557  0.0222 -0.6945
   91TMC2     O 1392   2.264   3.821  16.948 -0.5571  0.2517  0.6573
   91TMC2     H 1393   2.403   4.031  16.667 -0.4666  2.5600 -1.2897
   91TMC2    H1 1394   2.076   3.967  16.927  1.2917 -0.4044  1.3296
   91TMC2    H2 1395   2.042   4.214  16.573 -0.5478 -1.0158 -0.9317
   91TMC2    C7 1396   1.897   4.129  16.787  0.5423  0.0544 -0.7323
   91TMC2    C8 1397   2.280   4.138  16.474 -0.0933  0.4435 -0.0422
   91TMC2    O1 1398   1.852   4.075  16.884  0.1021  0.0023  0.7442
   91TMC2    O2 1399   2.403   4.142  16.457 -0.4892  0.5188 -0.3591
   91TMC2    O5 1400   2.181   4.138  16.378 -0.1627  0.4055  0.2376
   91TMC2    H5 1401   2.091   4.148  16.415 -1.3802  1.0340 -2.9335
   92MPD2     C 1402   2.533   3.708  16.966 -0.6206 -0.0783 -0.2362
   92MPD2    C1 1403   2.554   3.823  16.892  0.1905  0.2036 -0.3917
   92MPD2    C2 1404   2.683   3.851  16.843  0.6692 -0.2813  0.3257
   92MPD2    C3 1405   2.787   3.758  16.853  0.3079 -0.5090 -0.4281
   92MPD2    C4 1406   2.760   3.645  16.926  0.2080 -0.5783  0.2686
   92MPD2    C5 1407   2.637   3.620  16.977  0.2792  0.9195  0.5406
   92MPD2     H 1408   2.687   3.950  16.798 -1.9911 -0.7588 -1.0041
   92MPD2    H1 1409   2.832   3.564  16.929  0.8677  0.0038  0.0550
   92MPD2    H2 1410   2.436   3.684  17.008  0.4291 -0.4616  1.9570
   92MPD2    H3 1411   2.624   3.523  17.023 -0.3991  1.1067  0.7316
   92MPD2     N 1412   2.913   3.784  16.791 -0.0925  0.2903  0.9346
   92MPD2    H5 1413   2.924   3.871  16.740  0.0228  0.6989  1.6570
   92MPD2    N1 1414   2.451   3.909  16.857  0.2238  0.1585  0.2846
   92MPD2    H7 1415   2.474   3.990  16.800 -0.8500  1.1728  1.2860
   93MPD2     C 1416   3.748   3.360  13.889  0.6018 -0.4454  0.0323
   93MPD2    C1 1417   3.675   3.443  13.967  0.4749 -0.1125  0.9121
   93MPD2    C2 1418   3.536   3.418  13.970 -0.4370  0.6530 -0.0859
   93MPD2    C3 1419   3.476   3.320  13.889 -0.1453 -0.7464 -0.3837
   93MPD2    C4 1420   3.561   3.238  13.820 -0.4436 -0.2606 -0.4064
   93MPD2    C5 1421   3.697   3.254  13.827 -0.2773 -0.0316  0.3902
   93MPD2     H 1422   3.473   3.493  14.014 -0.6694 -1.3586  3.0381
   93MPD2    H1 1423   3.523   3.160  13.755 -2.1111 -0.7605  1.1477
   93MPD2    H2 1424   3.856   3.367  13.884  0.5815 -0.0486  0.1208
   93MPD2    H3 1425   3.765   3.185  13.780  1.3168  0.6729  1.6485
   93MPD2     N 1426   3.338   3.316  13.855  0.3375 -0.1047  0.3660
   93MPD2    H5 1427   3.315   3.267  13.769  3.1896  1.4312 -1.2484
   93MPD2    N1 1428   3.716   3.566  14.017  0.5521 -0.5806  0.0811
   93MPD2    H7 1429   3.645   3.628  14.055  0.6512  0.5011 -1.5287
   94TCq2    C1 1430   3.837   3.634  13.988 -0.4003  0.6285 -0.2067
   94TCq2    O2 1431   3.940   3.594  13.936  0.4105 -0.0305 -0.4886
   94TCq2    C2 1432   3.844   3.768  14.049 -0.3800 -0.1886 -1.0522
   94TCq2    C3 1433   3.735   3.804  14.132  0.4364 -0.3159  0.1492
   94TCq2    C4 1434   3.749   3.912  14.220 -0.1544  0.3006 -0.0655
   94TCq2    C5 1435   3.868   3.982  14.217 -0.5268 -0.4152  0.0561
   94TCq2    C6 1436   3.971   3.942  14.132 -0.3238  0.2213  0.1292
   94TCq2    C7 1437   3.963   3.837  14.048  0.7764 -0.1513 -0.3389
   94TCq2    C8 1438   4.095   4.017  14.146  0.0949 -0.5863 -1.2698
   94TCq2    O4 1439   4.181   3.999  14.058  0.0174 -0.0295  0.0568
   94TCq2    C9 1440   3.648   3.931  14.318  0.0105 -0.2993  0.1279
   94TCq2    O5 1441   3.684   3.998  14.417  0.0698  0.1456  0.1015
   94TCq2    O6 1442   3.536   3.881  14.287  0.1559 -0.3067  0.0061
   94TCq2    H2 1443   3.661   3.730  14.160 -0.2175  1.2077  2.4069
   94TCq2    H3 1444   3.863   4.074  14.274  1.3283  0.0204 -0.4875
   94TCq2    H4 1445   4.048   3.797  13.994 -0.0613 -1.4438 -0.7013
   95TMC2    C1 1446   3.975   0.404  15.728  0.3849 -0.8404 -0.0531
   95TMC2    C2 1447   4.025   0.278  15.748 -0.0694  0.8660  1.1037
   95TMC2    C3 1448   3.974   0.215  15.859 -0.0689 -0.0433  0.6837
   95TMC2    C4 1449   3.886   0.466  15.811 -0.2789  0.3388 -0.0604
   95TMC2    C5 1450   3.828   0.390  15.906  0.2863  0.0783 -0.4046
   95TMC2    C6 1451   3.876   0.267  15.930 -0.1314 -0.5682  0.9338
   95TMC2     C 1452   4.027   0.473  15.614  0.3619  0.2929  0.2595
   95TMC2     O 1453   4.032   0.593  15.620 -0.2508  0.4525  0.0014
   95TMC2     H 1454   4.110   0.244  15.689 -0.9905  0.8429 -0.2105
   95TMC2    H1 1455   3.845   0.561  15.780 -0.7748  1.0772  2.8358
   95TMC2    H2 1456   3.830   0.210  16.011 -0.5296 -0.3732  0.8456
   95TMC2    C7 1457   3.779   0.463  16.021 -0.1923 -0.2928 -0.3746
   95TMC2    C8 1458   3.994   0.077  15.886  0.7561  0.3756  0.1162
   95TMC2    O1 1459   3.799   0.417  16.134 -0.3628 -0.3005  0.2715
   95TMC2    O2 1460   3.925   0.024  15.969  0.4296  0.7151  0.4565
   95TMC2    O5 1461   4.055   0.023  15.783  0.2393 -0.5524 -0.2588
   95TMC2    H5 1462   4.089   0.103  15.737 -2.3083  1.3655  1.2439
   96MPD2     C 1463   4.091   0.484  15.108 -0.4875 -0.2461 -0.2236
   96MPD2    C1 1464   4.087   0.587  15.196  0.2238 -0.0161  0.2486
   96MPD2    C2 1465   4.079   0.553  15.327 -0.1879  0.3573  0.7864
   96MPD2    C3 1466   4.069   0.422  15.364  0.7551  0.2177 -0.2361
   96MPD2    C4 1467   4.066   0.318  15.273  0.6194 -0.1893 -0.1733
   96MPD2    C5 1468   4.079   0.351  15.143  0.4965  0.6232 -0.6256
   96MPD2     H 1469   4.090   0.626  15.406  1.2908  0.1309  0.7966
   96MPD2    H1 1470   4.057   0.213  15.298  0.7184  0.7799  4.0061
   96MPD2    H2 1471   4.096   0.510  15.003  1.0568 -1.2690 -0.4087
   96MPD2    H3 1472   4.074   0.276  15.065 -1.0039 -0.6847  0.7135
   96MPD2     N 1473   4.048   0.390  15.503 -0.7014  0.3557  0.2394
   96MPD2    H5 1474   4.029   0.292  15.521 -1.3606  0.3027 -0.7414
   96MPD2    N1 1475   4.116   0.713  15.145 -0.3321  0.2681  0.1242
   96MPD2    H7 1476   4.138   0.720  15.046  3.2355 -1.6272  0.7829
   97MPD2     C 1477   0.693   3.337   0.630  0.8797 -0.1825 -0.3582
   97MPD2    C1 1478   0.826   3.304   0.632  0.1162  0.1115 -0.1860
   97MPD2    C2 1479   0.894   3.293   0.506  0.1910  0.3251  0.2351
   97MPD2    C3 1480   0.827   3.300   0.390 -0.1758 -0.1386 -0.2377
   97MPD2    C4 1481   0.691   3.319   0.387 -0.0109 -1.0055 -0.3026
   97MPD2    C5 1482   0.625   3.339   0.508 -0.2803  0.5091 -0.0162
   97MPD2     H 1483   1.002   3.279   0.512  0.2729 -0.1725 -2.3549
   97MPD2    H1 1484   0.630   3.307   0.298 -0.7611 -0.1075  0.0758
   97MPD2    H2 1485   0.640   3.346   0.724 -0.2399  1.3012 -1.1334
   97MPD2    H3 1486   0.517   3.345   0.511 -0.4016 -1.4869 -0.0895
   97MPD2     N 1487   0.889   3.293   0.263 -0.2729 -0.0445  1.0416
   97MPD2    H5 1488   0.836   3.320   0.181 -0.3908 -2.4596  0.3219
   97MPD2    N1 1489   0.894   3.301   0.757 -0.0444  0.2846  0.3838
   97MPD2    H7 1490   0.836   3.326   0.837 -2.0002  0.4553 -1.1118
   98TCq2    C1 1491   1.024   3.292   0.240 -0.6168  0.2456 -0.8718
   98TCq2    O2 1492   1.114   3.283   0.320 -0.7152 -0.0380  0.1659
   98TCq2    C2 1493   1.056   3.295   0.100  0.2256 -0.4342 -0.6006
   98TCq2    C3 1494   0.973   3.254  17.703  0.6428 -0.4374  0.0709
   98TCq2    C4 1495   1.015   3.268  17.575 -0.3413 -0.2390 -0.2215
   98TCq2    C5 1496   1.137   3.310  17.538 -0.0833 -0.5247 -0.0324
   98TCq2    C6 1497   1.218   3.359  17.641 -0.4281 -0.1232  0.8768
   98TCq2    C7 1498   1.176   3.349   0.069 -0.1573 -1.0448  0.1080
   98TCq2    C8 1499   1.335   3.436  17.608  0.2433 -0.4932  0.7643
   98TCq2    O4 1500   1.402   3.458   0.003  0.2381 -0.2696 -0.0073
   98TCq2    C9 1501   0.920   3.232  17.472 -0.0301  1.1372 -0.4608
   98TCq2    O5 1502   0.815   3.172  17.506  0.0848  0.3260 -0.2893
   98TCq2    O6 1503   0.925   3.301  17.369  0.0039  0.6001 -0.0856
   98TCq2    H2 1504   0.879   3.208   0.027  0.0884  0.1319 -0.8463
   98TCq2    H3 1505   1.175   3.306  17.436  0.2519 -0.8206  0.1042
   98TCq2    H4 1506   1.234   3.387   0.152 -0.6330  0.6969 -0.3677
   99MPD2     C 1507   0.850   1.243   1.344 -0.4980  0.7757  0.5688
   99MPD2    C1 1508   0.794   1.140   1.410  0.3113  0.3279  0.0022
   99MPD2    C2 1509   0.872   1.028   1.436  0.8056  0.0018 -1.0251
   99MPD2    C3 1510   0.996   1.009   1.379  0.2738  0.0711 -0.1814
   99MPD2    C4 1511   1.051   1.113   1.307 -0.2940  0.6719 -0.5142
   99MPD2    C5 1512   0.977   1.228   1.289 -0.7538 -0.6886  0.2727
   99MPD2     H 1513   0.833   0.943   1.491 -1.9189  2.2289  0.4903
   99MPD2    H1 1514   1.151   1.108   1.266 -0.2668 -0.1121 -0.3566
   99MPD2    H2 1515   0.797   1.335   1.323 -0.2465  1.1300  1.4847
   99MPD2    H3 1516   1.018   1.316   1.242  1.3496 -1.5806  0.4740
   99MPD2     N 1517   1.080   0.894   1.415 -0.1160  0.0262  0.1488
   99MPD2    H5 1518   1.052   0.833   1.491  0.6297  0.5222  0.8286
   99MPD2    N1 1519   0.661   1.141   1.459 -0.1504 -0.0805 -0.1892
   99MPD2    H7 1520   0.620   1.061   1.505 -1.2149  0.5324 -0.0633
  100TCq2    C1 1521   0.569   1.245   1.437 -0.4730  1.5610 -0.2971
  100TCq2    O2 1522   0.593   1.365   1.426  0.1260  0.0087 -0.1524
  100TCq2    C2 1523   0.434   1.212   1.475 -0.1073  0.0909  0.1473
  100TCq2    C3 1524   0.363   1.308   1.543  0.1335  0.2355 -0.5674
  100TCq2    C4 1525   0.236   1.283   1.576 -0.2066  0.7644 -0.3856
  100TCq2    C5 1526   0.183   1.164   1.557 -0.3974  0.3343 -0.1061
  100TCq2    C6 1527   0.248   1.075   1.478 -0.2867  0.4516  1.1076
  100TCq2    C7 1528   0.371   1.105   1.427  0.3510 -0.1904  1.0269
  100TCq2    C8 1529   0.183   0.963   1.417  0.4974 -0.0044  0.7384
  100TCq2    O4 1530   0.235   0.923   1.315  0.0068 -0.1290  0.4840
  100TCq2    C9 1531   0.171   1.381   1.654 -0.1991 -0.2439  0.2490
  100TCq2    O5 1532   0.224   1.488   1.682 -0.1508  0.3748 -0.0585
  100TCq2    O6 1533   0.064   1.344   1.711  0.1277 -0.2626 -0.2855
  100TCq2    H2 1534   0.416   1.388   1.594 -0.9591  0.8043 -0.3111
  100TCq2    H3 1535   0.087   1.132   1.597 -0.7240  0.6868 -0.6092
  100TCq2    H4 1536   0.435   1.035   1.375 -0.5880  0.1071 -0.5356
  101MPD2     C 1537   0.800   2.304  12.833  0.1147 -0.0470  0.0343
  101MPD2    C1 1538   0.670   2.339  12.869 -0.1626 -0.4982  0.0375
  101MPD2    C2 1539   0.625   2.301  12.989 -0.0257 -0.4633 -0.2455
  101MPD2    C3 1540   0.712   2.235  13.079 -0.1793  0.1557 -0.1610
  101MPD2    C4 1541   0.842   2.212  13.044 -0.4846  0.2733 -0.0054
  101MPD2    C5 1542   0.890   2.246  12.917  0.0550 -0.0897 -0.2410
  101MPD2     H 1543   0.524   2.325  13.021 -0.1638  0.2958 -1.2752
  101MPD2    H1 1544   0.917   2.163  13.105 -1.3962 -0.7130  0.3345
  101MPD2    H2 1545   0.840   2.341  12.739  1.9561  3.3414  2.1617
  101MPD2    H3 1546   0.990   2.229  12.880  0.6100 -0.5032  1.4371
  101MPD2     N 1547   0.663   2.200  13.206  0.9742  0.5280 -0.0084
  101MPD2    H5 1548   0.567   2.219  13.231  0.5894 -2.0898  0.4838
  101MPD2    N1 1549   0.588   2.416  12.779  0.2068 -0.1722  0.2722
  101MPD2    H7 1550   0.627   2.437  12.688 -0.1944  1.9490  0.6069
  102TCq2    C1 1551   0.497   2.470  12.354  0.1733  0.6308  0.0592
  102TCq2    O2 1552   0.549   2.366  12.376  0.3839  0.6786 -0.5070
  102TCq2    C2 1553   0.431   2.543  12.461 -0.0112 -0.5055  0.4284
  102TCq2    C3 1554   0.389   2.673  12.459 -0.9086 -0.7315  0.4667
  102TCq2    C4 1555   0.368   2.740  12.576 -0.3650  0.0795  0.4575
  102TCq2    C5 1556   0.382   2.672  12.697 -0.3829 -0.6502  0.1980
  102TCq2    C6 1557   0.419   2.542  12.693  0.6996 -0.3051 -0.1895
  102TCq2    C7 1558   0.447   2.475  12.579 -0.6427 -0.3192 -0.1864
  102TCq2    C8 1559   0.473   2.484  12.812 -0.2611 -0.1111 -0.2296
  102TCq2    O4 1560   0.425   2.516  12.919 -0.8715 -0.6325  0.4661
  102TCq2    C9 1561   0.362   2.884  12.578 -0.3451  0.2101 -0.0327
  102TCq2    O5 1562   0.369   2.935  12.693 -0.2464  0.3326  0.0307
  102TCq2    O6 1563   0.308   2.934  12.474 -0.3584 -0.0021 -0.3979
  102TCq2    H2 1564   0.371   2.732  12.371  2.0654  0.4952  0.6792
  102TCq2    H3 1565   0.366   2.724  12.791 -3.1304  1.6517 -1.5232
  102TCq2    H4 1566   0.471   2.369  12.582  1.0594  0.0690 -0.1128
  103TMC2    C1 1567   3.208   1.554  12.296  0.2567  0.6698  0.0261
  103TMC2    C2 1568   3.333   1.563  12.241  0.4955 -0.1288 -0.0468
  103TMC2    C3 1569   3.439   1.576  12.328 -0.1093 -0.1893 -0.5464
  103TMC2    C4 1570   3.185   1.567  12.428  0.5718 -0.7943  0.5021
  103TMC2    C5 1571   3.295   1.558  12.512  0.7662  0.1108 -0.1645
  103TMC2    C6 1572   3.423   1.557  12.463  0.6344  0.2962  0.8891
  103TMC2     C 1573   3.093   1.580  12.209  0.1130  0.3637 -0.5802
  103TMC2     O 1574   2.978   1.550  12.246  0.4738  0.1212  0.0140
  103TMC2     H 1575   3.360   1.565  12.136  0.7791 -3.3927 -0.0274
  103TMC2    H1 1576   3.084   1.552  12.466  0.3190  2.7917  1.2804
  103TMC2    H2 1577   3.504   1.540  12.533 -2.1745 -2.8205  3.3720
  103TMC2    C7 1578   3.281   1.551  12.662  0.3457  0.1394  0.2221
  103TMC2    C8 1579   3.570   1.558  12.267  0.2235 -0.3068  0.3359
  103TMC2    O1 1580   3.379   1.514  12.726 -0.5512  0.0522 -0.1096
  103TMC2    O2 1581   3.592   1.461  12.194  0.2146  0.1993  0.0391
  103TMC2    O5 1582   3.616   1.678  12.243  0.2712  0.1272 -0.0850
  103TMC2    H5 1583   3.581   1.742  12.308 -0.4198 -0.2121 -0.1237
  104MPD2     C 1584   3.109   1.802  11.913  0.9825 -0.2000 -0.2472
  104MPD2    C1 1585   3.052   1.740  12.018  0.2722 -0.3000  0.0186
  104MPD2    C2 1586   2.918   1.751  12.032 -0.2607  0.3078  0.3633
  104MPD2    C3 1587   2.837   1.824  11.943  0.9046  0.0866 -0.2209
  104MPD2    C4 1588   2.899   1.892  11.841  0.7045  0.2351  0.8020
  104MPD2    C5 1589   3.036   1.873  11.827  0.1144  0.1459 -0.2234
  104MPD2     H 1590   2.866   1.691  12.106 -0.5052 -0.7845 -0.7114
  104MPD2    H1 1591   2.852   1.952  11.764  1.0941  0.3470  0.6465
  104MPD2    H2 1592   3.216   1.804  11.898  1.0335  1.0349  0.2865
  104MPD2    H3 1593   3.084   1.918  11.740  0.6520 -0.3714 -0.1965
  104MPD2     N 1594   2.698   1.834  11.967  0.3125 -0.1459  0.2537
  104MPD2    H5 1595   2.653   1.769  12.030  0.4488 -0.0298  0.4691
  104MPD2    N1 1596   3.132   1.662  12.104  0.2604  0.3591 -0.1929
  104MPD2    H7 1597   3.231   1.668  12.084  0.4853  2.3035  1.4793
  105MPD2     C 1598   0.733   0.765  17.557  0.0916 -0.2772 -0.0777
  105MPD2    C1 1599   0.652   0.877  17.548  0.1316  0.8480  0.1841
  105MPD2    C2 1600   0.601   0.930  17.665 -0.2456 -0.2365 -0.6162
  105MPD2    C3 1601   0.629   0.872   0.085  1.0352  0.2873  0.4550
  105MPD2    C4 1602   0.716   0.772   0.091 -0.1848 -0.0727  0.0365
  105MPD2    C5 1603   0.762   0.713  17.678  0.7865 -0.0533 -0.4169
  105MPD2     H 1604   0.531   1.013  17.662  1.6170  1.3544  0.1691
  105MPD2    H1 1605   0.759   0.735   0.183 -2.8862 -0.1319  1.2860
  105MPD2    H2 1606   0.795   0.722  17.479 -1.2521  0.0198 -1.3220
  105MPD2    H3 1607   0.822   0.623  17.681  0.7159 -0.0614  0.5795
  105MPD2     N 1608   0.565   0.921   0.201  0.1922  0.3933  0.0028
  105MPD2    H5 1609   0.502   1.000   0.201 -1.4312 -0.8920 -2.1862
  105MPD2    N1 1610   0.627   0.950  17.425  0.0136 -0.0780 -0.4920
  105MPD2    H7 1611   0.575   1.037  17.427  1.1638  0.6115 -0.4314
  106TCq2    C1 1612   0.571   0.857   0.325 -0.8598 -0.0822 -1.0141
  106TCq2    O2 1613   0.611   0.748   0.356  0.0707 -0.1663 -0.7506
  106TCq2    C2 1614   0.473   0.922   0.411 -0.0484  0.2493  0.4539
  106TCq2    C3 1615   0.451   1.058   0.410  0.2916  0.1759 -0.1115
  106TCq2    C4 1616   0.331   1.105   0.450  0.3168  0.0505 -0.4322
  106TCq2    C5 1617   0.238   1.022   0.497 -0.0902 -0.9989  0.4539
  106TCq2    C6 1618   0.265   0.890   0.499 -0.2503  0.3483  0.6671
  106TCq2    C7 1619   0.379   0.832   0.451 -0.6717 -0.4449 -0.0372
  106TCq2    C8 1620   0.161   0.786   0.526  0.0922  0.4989 -0.1102
  106TCq2    O4 1621   0.195   0.668   0.537 -0.3039  0.4088 -0.2768
  106TCq2    C9 1622   0.308   1.248   0.455  0.0971  0.6821 -0.0532
  106TCq2    O5 1623   0.190   1.290   0.466  0.1155  0.1106 -0.2428
  106TCq2    O6 1624   0.413   1.316   0.445  0.0999  0.3637 -0.1668
  106TCq2    H2 1625   0.525   1.117   0.358  1.5383 -0.0096  1.4413
  106TCq2    H3 1626   0.144   1.064   0.531 -0.2630 -0.8196 -0.2434
  106TCq2    H4 1627   0.401   0.726   0.449 -2.0334 -0.7300  0.5167
  107TMC2    C1 1628   0.579   0.695  11.653  0.7744 -0.2000  0.1331
  107TMC2    C2 1629   0.553   0.821  11.618 -0.2128 -0.1275 -0.0012
  107TMC2    C3 1630   0.564   0.847  11.486 -0.2529 -0.6862 -0.7346
  107TMC2    C4 1631   0.620   0.596  11.573  0.1599 -0.0074 -0.0305
  107TMC2    C5 1632   0.622   0.627  11.434 -0.3663 -0.5530  0.0948
  107TMC2    C6 1633   0.612   0.754  11.397 -0.7462  0.5922 -0.2508
  107TMC2     C 1634   0.569   0.665  11.796 -1.2636 -0.2703  0.2522
  107TMC2     O 1635   0.506   0.740  11.869 -0.6850  0.0072 -0.1056
  107TMC2     H 1636   0.524   0.898  11.689 -2.9628 -1.2640  0.1044
  107TMC2    H1 1637   0.625   0.491  11.601  1.0560 -0.3467 -1.4505
  107TMC2    H2 1638   0.615   0.767  11.289  0.7530 -1.1396 -0.4145
  107TMC2    C7 1639   0.627   0.525  11.329  0.2699  0.6265 -0.1095
  107TMC2    C8 1640   0.538   0.970  11.428  0.1534  0.1173  0.9196
  107TMC2    O1 1641   0.555   0.429  11.351  0.1984  0.3676 -0.7070
  107TMC2    O2 1642   0.602   1.013  11.336  0.0335  0.2145 -0.0086
  107TMC2    O5 1643   0.432   1.026  11.492 -0.1806 -0.5977  0.1373
  107TMC2    H5 1644   0.381   0.956  11.538  1.1121 -1.5566  0.1187
  108MPD2     C 1645   0.812   0.463  11.988 -1.1249 -0.4251  0.0513
  108MPD2    C1 1646   0.692   0.533  11.968  0.4328 -0.0984  0.3827
  108MPD2    C2 1647   0.601   0.548  12.071  0.1555 -0.5166 -0.7550
  108MPD2    C3 1648   0.627   0.495  12.195  0.4374 -0.2747 -0.1739
  108MPD2    C4 1649   0.746   0.434  12.215 -0.3269  0.2728  0.2847
  108MPD2    C5 1650   0.839   0.410  12.109 -0.3781 -0.2454  0.0965
  108MPD2     H 1651   0.517   0.615  12.056 -0.7342 -1.9206 -1.9980
  108MPD2    H1 1652   0.758   0.371  12.302 -0.3240  0.6934  0.5921
  108MPD2    H2 1653   0.877   0.450  11.903  0.1660  0.5914  0.8795
  108MPD2    H3 1654   0.941   0.376  12.124 -0.7663 -2.1088 -1.5443
  108MPD2     N 1655   0.542   0.514  12.302  0.5371  0.4778  0.3877
  108MPD2    H5 1656   0.572   0.471  12.389 -0.8057 -1.3011 -0.0345
  108MPD2    N1 1657   0.667   0.581  11.838  0.0934  0.4636  0.3859
  108MPD2    H7 1658   0.738   0.573  11.766  2.4494  1.3075  2.6284
  109MPD2     C 1659   0.826   2.580   2.161 -0.1478 -0.4802  0.5160
  109MPD2    C1 1660   0.798   2.564   2.023  0.1317 -0.0073  0.2727
  109MPD2    C2 1661   0.899   2.540   1.936 -0.4586  0.3415  0.0618
  109MPD2    C3 1662   1.023   2.497   1.978  0.3231  0.6861  0.1185
  109MPD2    C4 1663   1.059   2.515   2.109 -0.4631 -0.2503 -0.1211
  109MPD2    C5 1664   0.957   2.553   2.196  0.4569 -0.6279 -0.1781
  109MPD2     H 1665   0.874   2.530   1.831  2.0333  1.1032 -0.6176
  109MPD2    H1 1666   1.160   2.497   2.144 -1.1603 -0.8366  1.6106
  109MPD2    H2 1667   0.748   2.610   2.230 -0.8178  1.5588 -1.1132
  109MPD2    H3 1668   0.994   2.580   2.294 -0.0832 -1.1883  0.1711
  109MPD2     N 1669   1.118   2.467   1.878  0.3655 -0.2058  0.4755
  109MPD2    H5 1670   1.075   2.453   1.787  0.4966  3.3135 -0.1228
  109MPD2    N1 1671   0.663   2.607   1.985  0.0602 -0.2227  0.3974
  109MPD2    H7 1672   0.612   2.639   2.067  0.1900  0.4871  0.1917
  110TCq2    C1 1673   1.253   2.444   1.890 -0.2149 -0.1120  0.3519
  110TCq2    O2 1674   1.318   2.428   1.991 -0.4403  0.0763 -0.6496
  110TCq2    C2 1675   1.310   2.411   1.759  0.6067  0.0697 -0.0172
  110TCq2    C3 1676   1.419   2.334   1.763  0.2791 -0.2143  0.6411
  110TCq2    C4 1677   1.484   2.315   1.645 -0.0145 -0.2444 -0.2621
  110TCq2    C5 1678   1.445   2.380   1.534 -0.0302 -0.6820 -0.0485
  110TCq2    C6 1679   1.325   2.445   1.525  0.0381 -0.0236  0.7107
  110TCq2    C7 1680   1.262   2.467   1.638  0.2568  0.3289 -0.6322
  110TCq2    C8 1681   1.308   2.536   1.409  0.1170  0.2557  0.3589
  110TCq2    O4 1682   1.205   2.595   1.388 -0.4353  0.3099 -0.1819
  110TCq2    C9 1683   1.604   2.234   1.651  0.4417 -0.7645 -0.5860
  110TCq2    O5 1684   1.687   2.235   1.557  0.4149 -1.5107 -0.3061
  110TCq2    O6 1685   1.625   2.177   1.762 -0.3339 -0.0051  0.3215
  110TCq2    H2 1686   1.449   2.284   1.854  1.5962 -1.0627 -0.2424
  110TCq2    H3 1687   1.499   2.361   1.442 -1.2633 -0.8310 -0.7346
  110TCq2    H4 1688   1.167   2.520   1.634  0.1981  0.1195 -2.0156
  111TMC2    C1 1689   1.204   2.901  11.284 -0.4122 -0.0931 -0.3399
  111TMC2    C2 1690   1.305   2.941  11.204 -0.0248  0.2207  0.5736
  111TMC2    C3 1691   1.432   2.927  11.250  1.3316 -0.0190 -0.4512
  111TMC2    C4 1692   1.224   2.849  11.410 -0.4861  0.3869 -0.9663
  111TMC2    C5 1693   1.353   2.826  11.452 -0.5820 -0.0666 -0.2861
  111TMC2    C6 1694   1.454   2.873  11.373 -0.1281 -0.0930 -0.3333
  111TMC2     C 1695   1.069   2.912  11.226  0.5299 -0.2551 -0.4043
  111TMC2     O 1696   1.062   2.928  11.108 -0.5623 -0.2907  0.9527
  111TMC2     H 1697   1.289   3.013  11.125 -0.2018  0.5724  0.9248
  111TMC2    H1 1698   1.139   2.827  11.473 -0.9488 -0.8747 -2.0317
  111TMC2    H2 1699   1.557   2.854  11.401 -0.3564 -2.8953 -1.3549
  111TMC2    C7 1700   1.373   2.731  11.554 -0.1873  0.1300 -0.0440
  111TMC2    C8 1701   1.554   2.970  11.189 -0.3754 -0.4460  0.4125
  111TMC2    O1 1702   1.285   2.648  11.575 -0.5512 -0.2244  0.4988
  111TMC2    O2 1703   1.650   3.016  11.251 -0.2423  0.2358  0.0030
  111TMC2    O5 1704   1.527   2.981  11.059  0.1634 -0.0918 -0.1615
  111TMC2    H5 1705   1.450   2.926  11.034 -0.6935  1.4679 -0.9195
  112MPD2     C 1706   0.559   2.917  11.231  0.7187  0.3198 -0.2275
  112MPD2    C1 1707   0.649   2.875  11.132  1.0216 -0.2132  0.5894
  112MPD2    C2 1708   0.786   2.876  11.158 -0.5919  0.0455 -0.0546
  112MPD2    C3 1709   0.834   2.922  11.278  0.0615  0.2227 -0.7220
  112MPD2    C4 1710   0.744   2.956  11.377  0.7978 -0.6951 -0.0676
  112MPD2    C5 1711   0.609   2.950  11.350 -0.1195  0.3683 -0.3433
  112MPD2     H 1712   0.856   2.833  11.087  0.6749  2.5681 -0.3363
  112MPD2    H1 1713   0.775   2.966  11.480 -1.6741  1.9770  0.4206
  112MPD2    H2 1714   0.451   2.919  11.219  0.5772 -0.2518  1.0068
  112MPD2    H3 1715   0.537   2.948  11.431 -0.7795 -2.6943 -1.0134
  112MPD2     N 1716   0.971   2.906  11.310 -0.1112  0.1789 -0.0220
  112MPD2    H5 1717   0.990   2.928  11.408 -1.5052  2.6992 -0.3092
  112MPD2    N1 1718   0.611   2.823  11.005  0.5608 -0.2125 -0.0711
  112MPD2    H7 1719   0.684   2.781  10.947  0.1622 -0.7053 -0.2107
  113MPD2     C 1720   3.793   0.509   1.249  0.5436  0.4716 -0.5506
  113MPD2    C1 1721   3.690   0.595   1.281  0.7367 -0.4450 -0.5520
  113MPD2    C2 1722   3.559   0.570   1.235  0.3965 -0.1552  0.3559
  113MPD2    C3 1723   3.528   0.457   1.164 -0.6953  0.5272 -0.0724
  113MPD2    C4 1724   3.630   0.368   1.136  0.5675 -0.1979  0.0973
  113MPD2    C5 1725   3.757   0.398   1.176  0.5515 -0.4347  0.6261
  113MPD2     H 1726   3.484   0.647   1.246 -0.0282 -0.6160  0.7123
  113MPD2    H1 1727   3.621   0.290   1.062 -2.1554 -0.7010  0.9753
  113MPD2    H2 1728   3.896   0.519   1.283 -0.2405  4.0045  0.6992
  113MPD2    H3 1729   3.829   0.319   1.157  1.8314  0.8139  0.2910
  113MPD2     N 1730   3.387   0.425   1.126  0.2877 -0.0067  0.0168
  113MPD2    H5 1731   3.370   0.337   1.080 -0.1681 -0.9666  2.0175
  113MPD2    N1 1732   3.713   0.714   1.356  0.1721  0.7219 -0.7135
  113MPD2    H7 1733   3.631   0.773   1.352  0.2651  1.0629  2.3637
  114TCq2    C1 1734   3.274   0.506   1.154  0.2597  0.0405  0.2083
  114TCq2    O2 1735   3.261   0.608   1.222 -0.8477  0.0699 -0.4496
  114TCq2    C2 1736   3.146   0.447   1.107 -0.1090  0.0172 -0.2083
  114TCq2    C3 1737   3.039   0.523   1.112  0.0271 -0.2857 -0.0119
  114TCq2    C4 1738   2.926   0.496   1.035 -0.7950  0.2361 -0.1626
  114TCq2    C5 1739   2.913   0.380   0.968  0.4195  0.3512  0.5243
  114TCq2    C6 1740   3.020   0.297   0.975 -0.1987 -0.3923  0.4363
  114TCq2    C7 1741   3.144   0.334   1.031 -0.2512  0.7840  0.0987
  114TCq2    C8 1742   3.003   0.154   0.946 -0.3008 -0.1767 -0.1593
  114TCq2    O4 1743   2.900   0.122   0.889  0.0201  0.1732  0.4146
  114TCq2    C9 1744   2.817   0.588   1.022 -0.2014 -0.2789 -0.3357
  114TCq2    O5 1745   2.831   0.686   1.098  0.2201  0.0483 -0.3506
  114TCq2    O6 1746   2.710   0.551   0.970 -0.4687  0.0004  0.5777
  114TCq2    H2 1747   3.051   0.622   1.154 -0.1349 -0.5270  0.6041
  114TCq2    H3 1748   2.829   0.364   0.902  0.9685  0.4235 -0.2064
  114TCq2    H4 1749   3.235   0.278   1.014 -1.0263 -0.6866  0.7825
  115TMC2    C1 1750   4.423   3.192   0.256  0.0431  0.6688 -0.6765
  115TMC2    C2 1751   4.466   3.169   0.382  0.2376  0.0987 -0.1969
  115TMC2    C3 1752   4.514   3.280   0.445 -1.0534 -0.1036  0.3005
  115TMC2    C4 1753   4.444   3.306   0.192  0.2289 -0.2513  0.1045
  115TMC2    C5 1754   4.490   3.418   0.260  0.1260 -0.1991  0.6292
  115TMC2    C6 1755   4.512   3.409   0.395 -0.0413  0.2832 -0.1812
  115TMC2     C 1756   4.395   3.076   0.168  0.1823 -0.0835 -0.1265
  115TMC2     O 1757   4.419   3.092   0.046 -0.7752 -0.0398 -0.0288
  115TMC2     H 1758   4.489   3.068   0.414  0.2344  0.1823  0.0662
  115TMC2    H1 1759   4.419   3.314   0.087  0.0204  0.9917  0.2541
  115TMC2    H2 1760   4.530   3.495   0.458  2.4207 -0.4034  0.0511
  115TMC2    C7 1761   4.438   3.548   0.217  0.5334 -0.1419 -0.0083
  115TMC2    C8 1762   4.579   3.253   0.568 -0.0521  0.0224  0.2048
  115TMC2    O1 1763   4.374   3.607   0.302 -0.1213 -0.0992 -0.2338
  115TMC2    O2 1764   4.572   3.149   0.636  0.4672  0.0521  0.5230
  115TMC2    O5 1765   4.690   3.335   0.572 -0.5346  0.1155  0.2264
  115TMC2    H5 1766   4.697   3.392   0.492  1.1971  0.2412  0.4666
  116MPD2     C 1767   4.101   2.660   0.059  0.1383 -0.2434 -0.1497
  116MPD2    C1 1768   4.191   2.726  17.682 -0.2042  0.0813  0.6057
  116MPD2    C2 1769   4.275   2.827   0.028 -0.2490 -0.3551 -0.1437
  116MPD2    C3 1770   4.267   2.865   0.163  0.2842 -0.5317  0.1726
  116MPD2    C4 1771   4.189   2.786   0.247  0.0109 -0.0885 -0.2684
  116MPD2    C5 1772   4.103   2.689   0.193  0.0742 -0.2569 -0.4715
  116MPD2     H 1773   4.344   2.878  17.667 -0.4284  0.1415  0.0524
  116MPD2    H1 1774   4.190   2.787   0.356  0.6755 -1.3245 -0.2723
  116MPD2    H2 1775   4.039   2.582   0.015 -0.6714 -0.8843  2.1532
  116MPD2    H3 1776   4.032   2.638   0.256  0.9339 -1.3308 -0.3667
  116MPD2     N 1777   4.337   2.972   0.231 -0.3140  0.9518  0.1709
  116MPD2    H5 1778   4.329   2.978   0.332 -0.8671  1.0134  0.1251
  116MPD2    N1 1779   4.193   2.681  17.547  0.4107 -0.0070  0.4647
  116MPD2    H7 1780   4.126   2.618  17.503 -0.4813  0.7090  0.7819
  117TMC2    C1 1781   2.846   4.042  13.893  0.1197  0.7181  0.1217
  117TMC2    C2 1782   2.868   3.909  13.863 -0.4016  0.2410  0.0892
  117TMC2    C3 1783   3.004   3.877  13.881 -0.5519  0.5752 -0.3767
  117TMC2    C4 1784   2.944   4.135  13.927  0.4893  0.0677  0.6393
  117TMC2    C5 1785   3.074   4.092  13.945  0.1832 -0.4104 -0.0089
  117TMC2    C6 1786   3.112   3.961  13.922 -0.2837  0.3871  0.1043
  117TMC2     C 1787   2.705   4.097  13.891 -0.7867 -0.1255 -0.1131
  117TMC2     O 1788   2.623   4.006  13.895  0.1889  0.5757  0.0088
  117TMC2     H 1789   2.791   3.843  13.826 -0.8746  1.2628 -0.7514
  117TMC2    H1 1790   2.920   4.236  13.957 -0.0163  0.1251  0.0538
  117TMC2    H2 1791   3.208   3.915  13.943  0.0452  0.8632 -0.3741
  117TMC2    C7 1792   3.178   4.194  13.966  0.0788 -0.0083  0.0838
  117TMC2    C8 1793   3.034   3.740  13.919 -0.0768 -0.1150  0.2511
  117TMC2    O1 1794   3.140   4.308  13.943  0.1604 -0.6159  0.4583
  117TMC2    O2 1795   3.145   3.694  13.925  0.7957  0.5820  0.1692
  117TMC2    O5 1796   2.948   3.722  14.021 -0.0926  0.5816  0.1343
  117TMC2    H5 1797   2.865   3.774  14.026 -0.3067  0.1804  0.6871
  118MPD2     C 1798   3.535   4.178  14.064 -0.3270  0.5379 -0.3611
  118MPD2    C1 1799   3.424   4.224  13.993 -0.2902 -0.4256  0.2933
  118MPD2    C2 1800   3.428   4.350  13.925 -1.2022  0.1212 -0.7309
  118MPD2    C3 1801   3.548   4.428  13.933 -0.9641  0.2079  1.5729
  118MPD2    C4 1802   3.646   4.382  14.011 -0.2146 -0.0224 -0.7085
  118MPD2    C5 1803   3.643   4.260  14.070  1.2031 -0.5017 -0.1724
  118MPD2     H 1804   3.336   4.393  13.888 -2.0877 -1.4868 -0.3923
  118MPD2    H1 1805   3.730   4.450  14.023  1.1411 -1.9062  0.5545
  118MPD2    H2 1806   3.545   4.081  14.112  1.0711 -0.9072 -3.5638
  118MPD2    H3 1807   3.730   4.231  14.129  1.0163 -0.9400 -0.1113
  118MPD2     N 1808   3.554   4.558  13.882 -0.1898 -0.4543  0.1104
  118MPD2    H5 1809   3.624   4.626  13.910 -0.6774 -0.2012  0.6929
  118MPD2    N1 1810   3.304   4.150  13.990  0.4083  0.6050  0.3042
  118MPD2    H7 1811   3.307   4.060  14.037  1.7449  0.4516 -0.0794
  119MPD2     C 1812   1.103   1.304  13.111 -0.4538  0.4163  0.3744
  119MPD2    C1 1813   1.072   1.300  13.244 -0.4492 -0.0925  0.0464
  119MPD2    C2 1814   0.952   1.250  13.285 -0.2863  0.1776 -0.3044
  119MPD2    C3 1815   0.887   1.168  13.196  0.3321 -0.1231 -0.5648
  119MPD2    C4 1816   0.909   1.174  13.064  0.5648 -0.0791 -0.5858
  119MPD2    C5 1817   1.022   1.236  13.023  0.0875  0.0929  0.3822
  119MPD2     H 1818   0.908   1.261  13.383 -0.3389 -0.0212 -0.3057
  119MPD2    H1 1819   0.848   1.112  13.000  0.4074  0.3725 -0.8682
  119MPD2    H2 1820   1.194   1.346  13.070  0.2183 -1.4602 -0.0418
  119MPD2    H3 1821   1.046   1.231  12.917  2.1078  1.3356  0.7712
  119MPD2     N 1822   0.770   1.094  13.231 -0.2127 -0.3106 -0.1029
  119MPD2    H5 1823   0.723   1.045  13.155 -0.2868  1.4417 -1.1975
  119MPD2    N1 1824   1.155   1.382  13.331 -0.5626 -0.3437 -0.0428
  119MPD2    H7 1825   1.222   1.434  13.275 -0.3039 -0.0846  0.4991
  120TCq2    C1 1826   0.738   1.058  13.357 -0.2848 -0.3046  0.4252
  120TCq2    O2 1827   0.799   1.080  13.463 -0.1711 -0.1400 -0.5785
  120TCq2    C2 1828   0.625   0.973  13.365 -0.1276 -0.2820  0.2653
  120TCq2    C3 1829   0.554   0.952  13.249  0.4435 -0.3769  0.0547
  120TCq2    C4 1830   0.434   0.888  13.266 -0.4556 -0.1680 -0.2467
  120TCq2    C5 1831   0.404   0.822  13.383  0.5761 -0.0766 -0.8065
  120TCq2    C6 1832   0.490   0.839  13.490  0.2101  0.0088  0.3363
  120TCq2    C7 1833   0.598   0.915  13.481  0.7474  0.6418 -0.3115
  120TCq2    C8 1834   0.427   0.813  13.617  0.0863 -0.6881  0.2142
  120TCq2    O4 1835   0.304   0.801  13.616 -0.1448 -0.3296 -0.1150
  120TCq2    C9 1836   0.324   0.875  13.165  0.1707  0.3171  0.4928
  120TCq2    O5 1837   0.335   0.945  13.065 -0.6429 -0.0230  0.0621
  120TCq2    O6 1838   0.216   0.812  13.190  0.0501 -0.1474 -0.4762
  120TCq2    H2 1839   0.582   0.975  13.146 -2.1430  0.6723 -0.4185
  120TCq2    H3 1840   0.308   0.773  13.393  0.5165  0.7226  2.3980
  120TCq2    H4 1841   0.655   0.944  13.568 -1.8094  0.6502  1.3830
  121TMC2    C1 1842   2.629   2.837  14.934  0.0192  0.0210  1.2303
  121TMC2    C2 1843   2.746   2.763  14.919 -0.6087  0.0636 -0.0077
  121TMC2    C3 1844   2.765   2.648  14.992 -0.1759 -0.2881  0.2739
  121TMC2    C4 1845   2.533   2.794  15.025  0.5189 -0.0617 -0.3836
  121TMC2    C5 1846   2.551   2.673  15.084 -0.9170 -0.3237 -0.5300
  121TMC2    C6 1847   2.665   2.600  15.075  0.3136  0.8438 -0.3050
  121TMC2     C 1848   2.596   2.938  14.841 -0.3372 -0.1575 -0.0635
  121TMC2     O 1849   2.504   3.009  14.870  0.2014 -0.3427 -0.0901
  121TMC2     H 1850   2.820   2.794  14.846  0.7336 -0.7086  1.0230
  121TMC2    H1 1851   2.448   2.853  15.056  1.7381  1.1444  0.6462
  121TMC2    H2 1852   2.671   2.499  15.114  1.6991  1.0066 -0.0863
  121TMC2    C7 1853   2.439   2.605  15.136 -0.0663  0.2487  0.3082
  121TMC2    C8 1854   2.879   2.565  14.953  0.1341  0.0605 -0.4568
  121TMC2    O1 1855   2.450   2.502  15.201 -0.2604  0.2285 -0.1426
  121TMC2    O2 1856   2.911   2.554  14.833 -0.4058 -0.2840  0.4683
  121TMC2    O5 1857   2.917   2.485  15.056 -0.2918  0.0389  0.5954
  121TMC2    H5 1858   2.894   2.522  15.144 -0.7224  1.3581 -0.0714
  122MPD2     C 1859   2.588   3.131  14.620  0.1199 -0.6341 -0.2486
  122MPD2    C1 1860   2.663   3.015  14.608  0.8415 -0.2467  0.2701
  122MPD2    C2 1861   2.715   2.985  14.485  0.4051  0.1109 -0.2455
  122MPD2    C3 1862   2.686   3.065  14.379  0.1391 -0.3167  0.9449
  122MPD2    C4 1863   2.620   3.185  14.396 -0.0377 -0.0253  0.1464
  122MPD2    C5 1864   2.563   3.216  14.520 -0.1311 -0.6261  0.0865
  122MPD2     H 1865   2.775   2.895  14.472 -0.7090 -0.6800  0.0468
  122MPD2    H1 1866   2.584   3.233  14.305  0.1211  0.1326  0.1667
  122MPD2    H2 1867   2.548   3.162  14.716 -0.3002 -0.2233 -0.5567
  122MPD2    H3 1868   2.494   3.299  14.536 -0.0340 -0.9305  2.1447
  122MPD2     N 1869   2.715   3.031  14.246 -0.0974 -0.5960  0.0964
  122MPD2    H5 1870   2.692   3.107  14.183 -1.6016 -0.5169  0.7449
  122MPD2    N1 1871   2.674   2.924  14.721  0.1210 -0.6110 -0.3476
  122MPD2    H7 1872   2.718   2.834  14.703  0.2910 -0.3751 -1.1221
  123MPD2     C 1873   0.816   0.865  10.923  0.1843 -1.3032 -0.7165
  123MPD2    C1 1874   0.833   0.841  10.785 -0.0864  0.4732 -0.0249
  123MPD2    C2 1875   0.926   0.915  10.728 -0.4810 -0.8897  0.4514
  123MPD2    C3 1876   1.002   1.013  10.790  0.0518 -0.1627  0.0088
  123MPD2    C4 1877   0.986   1.034  10.921  0.6001  0.0186 -0.9493
  123MPD2    C5 1878   0.889   0.961  10.983  0.0308  0.0765 -0.0092
  123MPD2     H 1879   0.955   0.899  10.625 -1.6384  3.3197 -0.5060
  123MPD2    H1 1880   1.044   1.099  10.986 -1.2953  0.2828  0.4562
  123MPD2    H2 1881   0.734   0.820  10.979 -0.5932 -0.7678 -1.4294
  123MPD2    H3 1882   0.858   0.985  11.084 -2.7188 -0.2113 -0.7713
  123MPD2     N 1883   1.080   1.089  10.702  0.4821  0.4596 -0.0294
  123MPD2    H5 1884   1.068   1.066  10.604 -0.2713 -0.3517  0.2620
  123MPD2    N1 1885   0.742   0.751  10.718  0.2898  0.4934 -0.8965
  123MPD2    H7 1886   0.674   0.713  10.783  1.2950  0.6297  0.2521
  124TCq2    C1 1887   1.153   1.204  10.741  0.7852  0.1437  0.6961
  124TCq2    O2 1888   1.167   1.249  10.855  0.2344 -0.4949 -0.5089
  124TCq2    C2 1889   1.210   1.273  10.623  1.0112 -0.3628 -0.1450
  124TCq2    C3 1890   1.243   1.406  10.639 -0.1208  0.7863 -0.7353
  124TCq2    C4 1891   1.258   1.484  10.531 -0.7524 -0.0330 -0.5901
  124TCq2    C5 1892   1.231   1.437  10.400 -0.7708 -0.6710  0.3958
  124TCq2    C6 1893   1.208   1.301  10.391  0.0742  0.3803  0.3738
  124TCq2    C7 1894   1.200   1.221  10.498 -0.3141 -0.0040 -1.0646
  124TCq2    C8 1895   1.163   1.233  10.262 -0.9264  1.0487 -0.1493
  124TCq2    O4 1896   1.124   1.119  10.273 -0.1287 -0.1004  0.9376
  124TCq2    C9 1897   1.279   1.629  10.556 -0.3568 -0.2215  0.1625
  124TCq2    O5 1898   1.290   1.701  10.453  0.2536 -0.0772  0.2949
  124TCq2    O6 1899   1.272   1.666  10.681 -0.6886 -0.8294 -0.2083
  124TCq2    H2 1900   1.250   1.451  10.738 -0.5813 -4.0462  1.5153
  124TCq2    H3 1901   1.239   1.498  10.310 -1.5135  0.4815  1.1182
  124TCq2    H4 1902   1.198   1.114  10.481 -0.9461 -0.6209  2.8340
  125TMC2    C1 1903   1.830   2.705   9.272  0.0233 -0.0524 -0.1743
  125TMC2    C2 1904   1.723   2.774   9.217 -0.1883  0.1879  0.8229
  125TMC2    C3 1905   1.754   2.852   9.112 -0.2703  0.2777 -0.0163
  125TMC2    C4 1906   1.959   2.703   9.226  0.3554 -0.7802 -0.3402
  125TMC2    C5 1907   1.979   2.771   9.110  0.3252 -0.4896  0.1101
  125TMC2    C6 1908   1.874   2.846   9.051  0.1183 -0.4450  0.5694
  125TMC2     C 1909   1.799   2.640   9.397 -0.4916  0.3807  0.1095
  125TMC2     O 1910   1.705   2.680   9.468 -0.1879 -0.2373 -0.0132
  125TMC2     H 1911   1.627   2.782   9.267 -0.0657  2.3679  0.7362
  125TMC2    H1 1912   2.039   2.659   9.283 -0.7242 -0.5500  1.3608
  125TMC2    H2 1913   1.879   2.889   8.952  0.8115 -2.3551 -0.2273
  125TMC2    C7 1914   2.095   2.744   9.026  0.4119  0.4291 -0.8690
  125TMC2    C8 1915   1.656   2.875   9.009  0.5879  0.4938  0.7366
  125TMC2    O1 1916   2.104   2.813   8.922 -0.5162 -0.5040 -0.4493
  125TMC2    O2 1917   1.675   2.819   8.905  0.7253 -0.2169  0.1372
  125TMC2    O5 1918   1.535   2.901   9.063  0.2772 -0.2610  0.0238
  125TMC2    H5 1919   1.547   2.954   9.145  0.3628 -1.4136  0.7471
  126MPD1     C 1920   1.921   2.302   9.769  0.2225 -0.2092  0.2399
  126MPD1    C1 1921   1.983   2.262   9.650  0.2133  0.0453 -0.1354
  126MPD1    C2 1922   1.951   2.334   9.540  0.3333 -0.9830 -0.5077
  126MPD1    C3 1923   1.886   2.458   9.538  0.4979  0.2231 -0.1034
  126MPD1    C4 1924   1.831   2.500   9.661  0.4664  1.0888  0.0134
  126MPD1    C5 1925   1.846   2.416   9.766  0.3016  0.5338  0.2736
  126MPD1     H 1926   1.996   2.301   9.447  1.1358 -0.8095 -0.1829
  126MPD1    H1 1927   1.771   2.590   9.664  0.2954  0.9059  2.2366
  126MPD1    H2 1928   1.925   2.237   9.855  1.0927 -1.1089 -0.4669
  126MPD1    H3 1929   1.796   2.435   9.860 -0.2943  1.4221 -0.2223
  126MPD1     N 1930   1.877   2.528   9.415  0.6121 -0.0390 -0.1603
  126MPD1    H5 1931   1.917   2.500   9.326  1.8525  1.1783  0.0085
  126MPD1    N1 1932   2.031   2.131   9.641  0.0199 -0.3247  0.7095
  126MPD1    H6 1933   2.103   2.112   9.571  1.3164  0.2588  1.8911
  126MPD1    H7 1934   2.085   2.102   9.722 -1.5914  0.8910  2.2243
  127MPD2     C 1935   2.974   1.419   9.581 -0.4040  0.1583  0.3219
  127MPD2    C1 1936   2.938   1.425   9.706  0.9963 -0.1994 -0.0953
  127MPD2    C2 1937   3.028   1.447   9.807  0.1267  0.2065  0.4899
  127MPD2    C3 1938   3.160   1.471   9.781  0.0659  1.1883 -1.2477
  127MPD2    C4 1939   3.203   1.447   9.646 -0.0365  0.2476  0.1337
  127MPD2    C5 1940   3.112   1.419   9.552 -0.7394  0.4557 -1.1241
  127MPD2     H 1941   2.995   1.455   9.910 -0.5235 -0.1054  0.3070
  127MPD2    H1 1942   3.301   1.451   9.601  0.0848 -0.6276  0.3275
  127MPD2    H2 1943   2.903   1.400   9.502  0.4833 -0.0864 -0.4106
  127MPD2    H3 1944   3.136   1.412   9.446  0.2663  0.5419 -0.8962
  127MPD2     N 1945   3.259   1.514   9.879 -0.1383 -0.0833  0.4773
  127MPD2    H5 1946   3.237   1.534   9.976 -3.3529 -1.7773  0.0895
  127MPD2    N1 1947   2.798   1.429   9.714 -0.1046  0.0954 -0.4455
  127MPD2    H7 1948   2.743   1.430   9.629  0.1641  2.3033 -0.6130
  128TCq2    C1 1949   2.728   1.423   9.824 -0.7726 -0.2094  0.4925
  128TCq2    O2 1950   2.776   1.406   9.936 -0.6656  0.2629  0.4469
  128TCq2    C2 1951   2.586   1.415   9.789 -0.3784 -0.3909  0.3745
  128TCq2    C3 1952   2.545   1.467   9.663 -0.4737 -0.1572 -0.2850
  128TCq2    C4 1953   2.413   1.479   9.646  0.0583  0.0362  0.2423
  128TCq2    C5 1954   2.321   1.449   9.741  0.1558 -0.4484 -0.3897
  128TCq2    C6 1955   2.368   1.414   9.865  0.1985  1.2661 -0.0945
  128TCq2    C7 1956   2.498   1.390   9.891  0.5628  0.0246  0.5315
  128TCq2    C8 1957   2.266   1.384   9.965 -0.7558 -0.1766 -0.2661
  128TCq2    O4 1958   2.156   1.434   9.938  0.0393  0.1577 -0.1582
  128TCq2    C9 1959   2.368   1.513   9.515  0.0742 -0.4562  0.0347
  128TCq2    O5 1960   2.443   1.487   9.414  0.1652 -0.5223  0.5289
  128TCq2    O6 1961   2.246   1.558   9.511  0.8541  0.6527 -0.2580
  128TCq2    H2 1962   2.613   1.482   9.580  0.7900  1.6867  1.0637
  128TCq2    H3 1963   2.215   1.456   9.719 -0.0804 -1.6305  0.4065
  128TCq2    H4 1964   2.534   1.358   9.988  1.3680  1.0470  0.5730
  129MPD2     C 1965   1.555   2.300   0.786  0.0913 -0.0988 -0.5663
  129MPD2    C1 1966   1.589   2.304   0.921 -0.6359 -0.2954  0.3933
  129MPD2    C2 1967   1.727   2.322   0.953 -0.0769 -0.0127 -0.2042
  129MPD2    C3 1968   1.824   2.322   0.860 -0.4282  0.3301  0.9395
  129MPD2    C4 1969   1.785   2.312   0.726  0.2752  0.0071  0.3026
  129MPD2    C5 1970   1.656   2.301   0.691  0.5090  0.8045 -0.3266
  129MPD2     H 1971   1.754   2.319   1.058 -0.3174 -1.7222 -0.1967
  129MPD2    H1 1972   1.851   2.309   0.640  0.0234 -1.2468  0.1604
  129MPD2    H2 1973   1.450   2.294   0.758  0.2744  2.1049 -1.6928
  129MPD2    H3 1974   1.632   2.314   0.586  2.0024  1.3755 -0.5885
  129MPD2     N 1975   1.959   2.344   0.905 -0.2950  0.3814 -0.4512
  129MPD2    H5 1976   1.976   2.370   1.002 -1.9984  0.0050 -0.0481
  129MPD2    N1 1977   1.495   2.292   1.031  0.5185 -0.3027  0.3128
  129MPD2    H7 1978   1.540   2.304   1.121  0.3117  1.6756  0.1600
  130TCq2    C1 1979   1.364   2.265   1.021  0.2473 -0.3008 -0.5508
  130TCq2    O2 1980   1.293   2.257   0.921  0.0161 -0.1290  0.3569
  130TCq2    C2 1981   1.297   2.228   1.145  0.0683  0.0588  0.9528
  130TCq2    C3 1982   1.371   2.153   1.236  0.0341 -0.4960 -0.3630
  130TCq2    C4 1983   1.298   2.101   1.341 -0.5631 -1.2382 -0.5046
  130TCq2    C5 1984   1.166   2.129   1.359  0.3093 -0.0850 -1.2260
  130TCq2    C6 1985   1.105   2.221   1.272  0.6828  0.1474 -0.3555
  130TCq2    C7 1986   1.163   2.262   1.154  0.2080  0.0499 -0.2950
  130TCq2    C8 1987   0.968   2.255   1.297  0.0129  0.0755  0.3597
  130TCq2    O4 1988   0.901   2.319   1.215 -0.0928 -0.1383  0.0258
  130TCq2    C9 1989   1.352   1.998   1.429 -0.1824 -0.0120 -0.5908
  130TCq2    O5 1990   1.314   1.994   1.551  0.1435  0.2071  0.2609
  130TCq2    O6 1991   1.463   1.952   1.387 -0.1882  0.3946  0.1191
  130TCq2    H2 1992   1.472   2.121   1.213  0.8797  2.5931 -0.9163
  130TCq2    H3 1993   1.110   2.072   1.432  1.2200 -1.3102 -1.4906
  130TCq2    H4 1994   1.110   2.323   1.082 -1.0186 -0.0165  0.5669
  131MPD2     C 1995   0.512   0.938   9.787  0.2978 -0.0337  0.5102
  131MPD2    C1 1996   0.566   1.015   9.893  0.0118 -0.9964 -0.1452
  131MPD2    C2 1997   0.556   0.963  10.021 -0.3887 -0.6606 -0.6648
  131MPD2    C3 1998   0.498   0.837  10.042 -0.0603 -0.4660  0.0226
  131MPD2    C4 1999   0.444   0.758   9.938 -0.2848  0.1261 -0.1825
  131MPD2    C5 2000   0.445   0.816   9.812  0.0050  0.2804 -0.1140
  131MPD2     H 2001   0.604   1.007  10.108 -1.8992 -0.8416  0.2588
  131MPD2    H1 2002   0.398   0.659   9.939 -1.1695  0.5443  1.2152
  131MPD2    H2 2003   0.514   0.959   9.681  1.4419 -1.3345  0.2735
  131MPD2    H3 2004   0.405   0.749   9.737 -0.4077  2.9474 -2.2603
  131MPD2     N 2005   0.511   0.789  10.173  0.2703  0.0689  0.1771
  131MPD2    H5 2006   0.575   0.841  10.232 -0.7411 -0.9036  2.1337
  131MPD2    N1 2007   0.615   1.148   9.873 -0.3712 -0.2967  0.0350
  131MPD2    H7 2008   0.603   1.185   9.779 -1.5138  1.0602  0.7278
  132TCq2    C1 2009   0.811   1.568   9.658 -0.2699  0.5120 -0.3666
  132TCq2    O2 2010   0.780   1.493   9.564  0.6859 -0.1041 -0.4272
  132TCq2    C2 2011   0.757   1.536   9.788  0.4877 -0.4321  0.4285
  132TCq2    C3 2012   0.778   1.628   9.888 -0.4474 -0.5144 -0.8954
  132TCq2    C4 2013   0.733   1.599  10.008  0.1766  0.7696  0.4967
  132TCq2    C5 2014   0.688   1.480  10.039  0.3147  0.3764  0.0837
  132TCq2    C6 2015   0.690   1.380   9.941 -0.9749  0.1450 -0.6362
  132TCq2    C7 2016   0.713   1.407   9.810  0.4231  0.0597 -0.3782
  132TCq2    C8 2017   0.646   1.238   9.979 -0.3469  0.4086 -0.1214
  132TCq2    O4 2018   0.644   1.218  10.097 -0.2021 -0.3083 -0.1814
  132TCq2    C9 2019   0.742   1.702  10.109 -0.1595  0.0255  0.2199
  132TCq2    O5 2020   0.824   1.793  10.090 -0.1787 -0.1006 -0.4778
  132TCq2    O6 2021   0.660   1.694  10.204  0.2741  0.1434  0.2325
  132TCq2    H2 2022   0.796   1.730   9.857 -1.1347 -0.3779 -0.8516
  132TCq2    H3 2023   0.645   1.453  10.135 -1.9213 -0.2802 -1.0893
  132TCq2    H4 2024   0.721   1.331   9.733 -0.7241 -0.7419  0.2898
  133MPD2     C 2025   0.269   2.334   9.062 -0.1375  0.2659 -0.0930
  133MPD2    C1 2026   0.315   2.250   9.163 -0.7882 -0.2658 -0.2709
  133MPD2    C2 2027   0.235   2.140   9.195  0.8674 -0.0790 -0.4782
  133MPD2    C3 2028   0.130   2.099   9.115  0.0371  0.2477 -0.2447
  133MPD2    C4 2029   0.087   2.177   9.008 -0.0950  0.5591  0.3070
  133MPD2    C5 2030   0.158   2.296   8.991  0.0886 -0.2078  0.4182
  133MPD2     H 2031   0.277   2.066   9.263  1.0505  1.6269  1.2687
  133MPD2    H1 2032   0.020   2.146   8.929  0.5943 -0.3964  0.0983
  133MPD2    H2 2033   0.323   2.424   9.036 -0.8646  0.9636  0.8699
  133MPD2    H3 2034   0.117   2.353   8.909 -2.0962  1.6959  2.8367
  133MPD2     N 2035   0.073   1.967   9.122 -0.5024 -0.4677 -0.1629
  133MPD2    H5 2036   4.724   1.945   9.058 -1.4507 -1.2554  1.2442
  133MPD2    N1 2037   0.428   2.283   9.237 -0.2507  0.0855 -0.3052
  133MPD2    H7 2038   0.469   2.371   9.206  0.2097 -0.5505 -1.4952
  134TCq2    C1 2039   0.475   2.218   9.347  0.4311 -0.3642 -0.5308
  134TCq2    O2 2040   0.413   2.142   9.421  0.0775 -0.2920  0.0712
  134TCq2    C2 2041   0.595   2.279   9.392  0.6546 -0.7157  1.4475
  134TCq2    C3 2042   0.679   2.330   9.298  0.5970  0.3608 -0.3231
  134TCq2    C4 2043   0.785   2.410   9.335  0.3673 -1.4889 -0.1449
  134TCq2    C5 2044   0.796   2.441   9.467 -0.2707  0.3768  0.8940
  134TCq2    C6 2045   0.699   2.396   9.554  0.8678  0.9762  0.6396
  134TCq2    C7 2046   0.603   2.304   9.525  0.0901 -0.0579 -0.3249
  134TCq2    C8 2047   0.713   2.440   9.692 -0.3370 -0.4243  0.3692
  134TCq2    O4 2048   0.654   2.380   9.782  0.3531 -0.4675  0.8312
  134TCq2    C9 2049   0.890   2.447   9.248  0.4911  0.1391  1.3286
  134TCq2    O5 2050   0.914   2.361   9.156 -0.2549 -0.1649 -0.3266
  134TCq2    O6 2051   0.960   2.550   9.273 -0.5311 -0.8017  0.1260
  134TCq2    H2 2052   0.677   2.297   9.195 -0.5852  1.4769 -0.6650
  134TCq2    H3 2053   0.886   2.492   9.501 -0.9241  2.3666 -0.2983
  134TCq2    H4 2054   0.528   2.269   9.595  0.3069  0.0233 -0.0517
  135MPD2     C 2055   1.975   3.141   9.285  0.4731  0.2049 -0.4954
  135MPD2    C1 2056   2.029   3.055   9.369  0.4121 -0.1213 -0.7001
  135MPD2    C2 2057   2.153   3.003   9.342 -0.3327 -0.1521  0.0583
  135MPD2    C3 2058   2.217   3.030   9.221  0.5462 -0.7756 -0.4473
  135MPD2    C4 2059   2.154   3.113   9.137  0.2899 -0.5794  0.0311
  135MPD2    C5 2060   2.036   3.177   9.170  0.1280 -0.4705  0.0215
  135MPD2     H 2061   2.193   2.933   9.414 -0.3913 -1.0080 -0.7535
  135MPD2    H1 2062   2.193   3.138   9.038  2.0983 -1.2727  0.5661
  135MPD2    H2 2063   1.879   3.191   9.293  1.4821  1.7853  1.8044
  135MPD2    H3 2064   1.996   3.248   9.099  2.2982  1.5393  0.8067
  135MPD2     N 2065   2.335   2.974   9.171 -0.3074 -0.8433 -0.0774
  135MPD2    H5 2066   2.362   3.014   9.082  1.6656  1.1133  1.4063
  135MPD2    N1 2067   1.960   3.019   9.488  0.4528 -0.1473  0.5350
  135MPD2    H7 2068   1.999   2.949   9.550  0.9370 -0.9423 -0.6669
  136TCq2    C1 2069   1.829   3.051   9.520 -0.5415 -0.6014  0.8247
  136TCq2    O2 2070   1.758   3.134   9.471 -0.0989  0.0061  0.3996
  136TCq2    C2 2071   1.795   3.002   9.649  0.4074 -0.3342  0.3078
  136TCq2    C3 2072   1.696   3.063   9.717 -0.0435  0.8093  0.0651
  136TCq2    C4 2073   1.660   3.017   9.838  0.4517  0.4691  0.1056
  136TCq2    C5 2074   1.717   2.904   9.885  0.1167  0.8409  0.0932
  136TCq2    C6 2075   1.823   2.846   9.822  0.1462  0.2259  0.3151
  136TCq2    C7 2076   1.856   2.884   9.696  0.1333  0.5805 -0.1389
  136TCq2    C8 2077   1.923   2.752   9.878 -0.1104  0.3322  0.4101
  136TCq2    O4 2078   2.030   2.744   9.823 -0.1389  0.1459 -0.2234
  136TCq2    C9 2079   1.556   3.082   9.921  0.3233 -0.0560 -0.2875
  136TCq2    O5 2080   1.550   3.041  10.041  0.1705 -0.6284 -0.2915
  136TCq2    O6 2081   1.477   3.164   9.862  0.0541  0.3880 -0.1890
  136TCq2    H2 2082   1.631   3.136   9.669  1.2523  1.6191 -0.4566
  136TCq2    H3 2083   1.669   2.865   9.973  1.8279 -1.5427 -0.0245
  136TCq2    H4 2084   1.936   2.832   9.645 -2.6938 -0.3998 -3.5347
  137MPD2     C 2085   2.728   1.770   9.271  0.1906  0.1690 -0.2179
  137MPD2    C1 2086   2.632   1.864   9.295 -0.1586  0.1097 -0.8587
  137MPD2    C2 2087   2.590   1.890   9.426  0.6813 -0.2816 -0.2623
  137MPD2    C3 2088   2.648   1.832   9.540 -0.7604  0.1718 -0.4246
  137MPD2    C4 2089   2.744   1.738   9.510 -1.1451 -0.4066 -0.0397
  137MPD2    C5 2090   2.783   1.711   9.382 -0.4887 -0.3166 -0.7998
  137MPD2     H 2091   2.517   1.968   9.444  0.0681 -0.3860 -2.2865
  137MPD2    H1 2092   2.774   1.668   9.587 -0.9709  2.4344  2.4817
  137MPD2    H2 2093   2.760   1.737   9.173  0.8551 -1.3230  0.5119
  137MPD2    H3 2094   2.866   1.643   9.367  0.7635  1.0303  0.0482
  137MPD2     N 2095   2.609   1.875   9.666 -0.0550 -0.1085  0.2557
  137MPD2    H5 2096   2.523   1.930   9.664 -0.8129 -1.3491 -0.9150
  137MPD2    N1 2097   2.568   1.916   9.178 -0.8551  0.0774 -0.5429
  137MPD2    H7 2098   2.588   1.869   9.090 -1.8542  1.1649 -1.3548
  138TCq2    C1 2099   2.464   2.004   9.175 -0.5086  0.6804 -0.5095
  138TCq2    O2 2100   2.421   2.071   9.267 -0.2205  0.0086  0.2475
  138TCq2    C2 2101   2.408   2.015   9.045  0.2002  0.7549 -0.0928
  138TCq2    C3 2102   2.487   1.989   8.936 -0.6048 -0.3610  0.1430
  138TCq2    C4 2103   2.444   2.039   8.810 -0.3501  0.4945 -0.9759
  138TCq2    C5 2104   2.338   2.130   8.811 -0.7499 -0.7625  0.9505
  138TCq2    C6 2105   2.263   2.152   8.919 -0.0806 -0.1487  0.4183
  138TCq2    C7 2106   2.302   2.102   9.040  0.4815  0.3784  0.9654
  138TCq2    C8 2107   2.149   2.247   8.907 -0.0997 -0.8291  0.1283
  138TCq2    O4 2108   2.151   2.316   8.809  0.2998  0.0834 -0.1854
  138TCq2    C9 2109   2.515   1.998   8.685 -0.2625  0.3946 -0.8452
  138TCq2    O5 2110   2.494   2.076   8.591 -0.7904  0.0224 -0.2560
  138TCq2    O6 2111   2.602   1.906   8.704  0.1490  0.1881  0.3911
  138TCq2    H2 2112   2.576   1.927   8.939 -1.0669 -1.0744 -0.9273
  138TCq2    H3 2113   2.307   2.162   8.712  0.4397  1.4345  1.3053
  138TCq2    H4 2114   2.243   2.123   9.129 -1.2931 -2.4044  0.4632
  139TMC2    C1 2115   2.974   0.462  13.151  0.1913  0.1550 -0.0104
  139TMC2    C2 2116   3.048   0.506  13.041  0.3803  0.8947  0.1122
  139TMC2    C3 2117   2.988   0.612  12.973  0.4473 -0.1982 -0.7132
  139TMC2    C4 2118   2.842   0.505  13.172 -0.2089 -0.4082  0.1369
  139TMC2    C5 2119   2.784   0.599  13.091  0.1711  0.8583  0.6244
  139TMC2    C6 2120   2.862   0.656  12.996  1.2254  0.4405 -0.9194
  139TMC2     C 2121   3.022   0.338  13.194 -0.0976 -0.2653 -0.2408
  139TMC2     O 2122   3.118   0.287  13.131 -0.7334 -1.3669  0.0735
  139TMC2     H 2123   3.153   0.486  13.027  0.4314  0.2824  1.4455
  139TMC2    H1 2124   2.779   0.464  13.249 -0.8593  0.2956 -0.0158
  139TMC2    H2 2125   2.817   0.742  12.948 -1.5312 -0.5322 -0.0607
  139TMC2    C7 2126   2.697   0.691  13.152  0.1503 -0.3250 -0.4221
  139TMC2    C8 2127   3.073   0.708  12.913 -0.7726  0.8934  0.4929
  139TMC2    O1 2128   2.618   0.752  13.082 -0.2626 -0.5370  0.2604
  139TMC2    O2 2129   3.135   0.796  12.981 -0.1446  0.8902  0.1374
  139TMC2    O5 2130   3.084   0.702  12.773 -0.4661 -0.3818  0.3622
  139TMC2    H5 2131   3.039   0.622  12.739 -1.0629 -0.6292  1.7527
  140MPD2     C 2132   2.921   0.117  13.485 -0.3046 -0.2037 -0.5722
  140MPD2    C1 2133   2.990   0.155  13.369  0.4930 -0.5977 -0.2007
  140MPD2    C2 2134   3.083   0.065  13.323 -0.3519  0.0745  0.3345
  140MPD2    C3 2135   3.106   4.670  13.382 -0.4032  0.1129  0.0001
  140MPD2    C4 2136   3.037   4.637  13.500 -0.7729 -0.9807 -0.2446
  140MPD2    C5 2137   2.945   4.724  13.546 -0.4338 -0.5328  0.3873
  140MPD2     H 2138   3.151   0.092  13.243 -1.2339  0.6515 -0.2196
  140MPD2    H1 2139   3.035   4.542  13.553 -1.8512 -1.0330 -0.3693
  140MPD2    H2 2140   2.849   0.182  13.533  0.2374  0.1896 -0.2766
  140MPD2    H3 2141   2.890   4.703  13.636 -0.8184 -0.2207  0.2256
  140MPD2     N 2142   3.199   4.577  13.320  0.0791 -0.1407 -0.3378
  140MPD2    H5 2143   3.254   4.609  13.242  3.0118 -0.0879  1.7725
  140MPD2    N1 2144   2.962   0.285  13.311  0.2672 -0.1176 -0.0072
  140MPD2    H7 2145   2.905   0.347  13.367 -0.4775  0.7383 -1.7078
  141TCq2    C1 2146   3.412   1.165  14.352  0.6525 -1.0690 -0.0621
  141TCq2    O2 2147   3.503   1.165  14.267  0.1437 -0.3770 -0.5986
  141TCq2    C2 2148   3.461   1.159  14.489  0.0157  0.1794  0.5839
  141TCq2    C3 2149   3.397   1.079  14.584 -0.4368 -0.8305 -0.1886
  141TCq2    C4 2150   3.460   1.048  14.699 -0.0846  0.4671  0.5429
  141TCq2    C5 2151   3.586   1.091  14.720  0.5383 -0.2776 -0.0740
  141TCq2    C6 2152   3.643   1.171  14.630  0.1896  0.0040  0.7886
  141TCq2    C7 2153   3.585   1.209  14.508 -0.5332 -0.1672  0.3339
  141TCq2    C8 2154   3.777   1.222  14.664  0.2990  1.2183 -0.4738
  141TCq2    O4 2155   3.837   1.163  14.748  0.0711  0.0197 -0.2269
  141TCq2    C9 2156   3.393   0.959  14.785 -0.3214 -0.0054  0.5612
  141TCq2    O5 2157   3.272   0.927  14.758 -0.4611  0.1198 -0.0823
  141TCq2    O6 2158   3.470   0.901  14.864  0.0319 -0.1756  0.2501
  141TCq2    H2 2159   3.297   1.042  14.563 -1.5678  2.7688 -1.2682
  141TCq2    H3 2160   3.630   1.068  14.816  3.6323 -2.6270 -2.0409
  141TCq2    H4 2161   3.642   1.260  14.431 -0.2971 -0.5626  0.2397
  142MPD2     C 2162   0.571   0.246  10.464 -0.0328 -0.5288  0.6211
  142MPD2    C1 2163   0.511   0.227  10.341  1.0280  0.3174 -0.1001
  142MPD2    C2 2164   0.558   0.314  10.236  0.7300  0.3285 -0.0990
  142MPD2    C3 2165   0.669   0.396  10.256 -0.1552 -0.2382 -0.6929
  142MPD2    C4 2166   0.730   0.400  10.374 -0.3134 -0.1640 -0.8135
  142MPD2    C5 2167   0.675   0.330  10.482 -0.3826 -0.4691  0.0368
  142MPD2     H 2168   0.518   0.295  10.137 -0.9684  0.3296  0.5846
  142MPD2    H1 2169   0.805   0.477  10.388 -0.4822 -0.1277 -0.0915
  142MPD2    H2 2170   0.536   0.200  10.556 -0.5088  0.0196  0.7144
  142MPD2    H3 2171   0.714   0.340  10.583  0.0716 -0.9262 -0.0952
  142MPD2     N 2172   0.723   0.481  10.160  0.0388  0.2848  0.5224
  142MPD2    H5 2173   0.812   0.528  10.176  0.2447 -0.4198  1.4283
  142MPD2    N1 2174   0.416   0.125  10.330 -0.5646 -0.3878  0.0580
  142MPD2    H7 2175   0.387   0.066  10.407  0.6753 -1.5399 -0.3714
  143TCq2    C1 2176   0.676   0.491  10.032 -0.5387  0.3080  0.1012
  143TCq2    O2 2177   0.575   0.461   9.976 -0.5081 -0.7166 -0.5040
  143TCq2    C2 2178   0.764   0.567   9.954  0.2416 -0.1246  0.3334
  143TCq2    C3 2179   0.740   0.552   9.822  0.5170 -0.1380  0.0247
  143TCq2    C4 2180   0.781   0.645   9.732  0.1832  0.0162  0.2395
  143TCq2    C5 2181   0.844   0.759   9.775 -0.8317 -0.1238  0.2933
  143TCq2    C6 2182   0.851   0.773   9.912 -0.4942  0.3729  0.0739
  143TCq2    C7 2183   0.818   0.679  10.005 -0.7300 -0.9231 -0.3944
  143TCq2    C8 2184   0.907   0.898   9.966 -0.0508  0.1356  0.1873
  143TCq2    O4 2185   0.930   0.901  10.085 -0.6920  0.2071  0.2373
  143TCq2    C9 2186   0.763   0.624   9.593 -0.4809  0.7955  0.6782
  143TCq2    O5 2187   0.862   0.659   9.526 -0.1077  0.0290  0.3651
  143TCq2    O6 2188   0.676   0.535   9.561 -0.4057  0.6899  0.2859
  143TCq2    H2 2189   0.688   0.464   9.786  0.3646 -0.9750  2.2638
  143TCq2    H3 2190   0.874   0.826   9.695 -0.0343 -3.7579 -2.4532
  143TCq2    H4 2191   0.819   0.703  10.110 -1.5426  0.3668 -0.6744
  144MPD2     C 2192   4.371   0.196   0.437  0.0892  0.0719 -0.9093
  144MPD2    C1 2193   4.290   0.110   0.510  0.7805  0.0971  0.1307
  144MPD2    C2 2194   4.348   0.046   0.625  0.0034 -0.6417  0.2748
  144MPD2    C3 2195   4.476   0.073   0.664  0.0955  0.7393 -0.2950
  144MPD2    C4 2196   4.551   0.157   0.594 -0.6224  0.2715  0.5965
  144MPD2    C5 2197   4.499   0.222   0.480  0.2021  0.2902  0.2887
  144MPD2     H 2198   4.286   4.707   0.686 -0.2527 -2.1218 -1.5699
  144MPD2    H1 2199   4.652   0.184   0.624 -0.6141 -0.1761  0.9716
  144MPD2    H2 2200   4.347   0.246   0.344  1.5041 -0.6159 -1.6305
  144MPD2    H3 2201   4.549   0.308   0.437 -0.6530 -0.4311 -2.1122
  144MPD2     N 2202   4.539   0.012   0.780 -0.3279  0.5052 -0.3027
  144MPD2    H5 2203   4.637   0.037   0.789  0.2665 -1.8694  0.0095
  144MPD2    N1 2204   4.151   0.088   0.468  0.0715 -0.1816 -0.5133
  144MPD2    H7 2205   4.102   0.008   0.508  0.0465 -0.1989 -0.5786
  145TCq2    C1 2206   4.474   4.677   0.885 -0.4241 -0.1558 -0.1666
  145TCq2    O2 2207   4.355   4.666   0.898  0.2263 -0.2703 -0.6455
  145TCq2    C2 2208   4.570   4.626   0.984  0.5476  0.0805  0.4962
  145TCq2    C3 2209   4.702   4.621   0.947 -0.0127 -0.3411  0.4682
  145TCq2    C4 2210   0.065   4.610   1.052 -0.7791 -0.3961  0.6326
  145TCq2    C5 2211   0.027   4.605   1.181 -0.2198 -0.2338 -0.1137
  145TCq2    C6 2212   4.623   4.599   1.210  0.2743  0.0873 -0.7175
  145TCq2    C7 2213   4.530   4.602   1.111  0.1878 -0.2300 -0.3627
  145TCq2    C8 2214   4.587   4.606   1.352  0.0622  0.7249  0.1399
  145TCq2    O4 2215   4.650   4.550   1.440 -0.3016 -0.2661 -0.6421
  145TCq2    C9 2216   0.211   4.605   1.034  0.3118  0.2306 -0.5176
  145TCq2    O5 2217   0.256   4.606   0.918  0.4326  0.2518  0.4283
  145TCq2    O6 2218   0.286   4.590   1.133 -0.3791  0.1807 -0.2336
  145TCq2    H2 2219   0.020   4.635   0.849  0.6971 -1.1639  0.6654
  145TCq2    H3 2220   0.099   4.595   1.261 -0.9740  1.4326  0.7722
  145TCq2    H4 2221   4.425   4.614   1.134  0.1131 -1.4323 -0.0755
  146TMC2    C1 2222   0.545   3.514  12.562 -0.0790  0.3208 -0.1451
  146TMC2    C2 2223   0.542   3.633  12.480  0.2752  0.4195  0.4472
  146TMC2    C3 2224   0.559   3.596  12.346  0.1815  0.1848 -0.1468
  146TMC2    C4 2225   0.582   3.385  12.523  0.1069  0.5397 -0.7130
  146TMC2    C5 2226   0.610   3.367  12.391  0.4117 -0.0412  0.2583
  146TMC2    C6 2227   0.589   3.473  12.303  0.4128 -0.2176 -0.2918
  146TMC2     C 2228   0.524   3.542  12.705  1.0129 -0.5093  0.6381
  146TMC2     O 2229   0.496   3.659  12.731 -0.4651  0.1171 -0.0676
  146TMC2     H 2230   0.504   3.727  12.518 -1.9565 -0.9571  1.6042
  146TMC2    H1 2231   0.595   3.306  12.596  1.2404  1.7502  0.4047
  146TMC2    H2 2232   0.610   3.457  12.197  2.5433  0.0539  0.0860
  146TMC2    C7 2233   0.610   3.232  12.328  0.4741  0.0118  0.5100
  146TMC2    C8 2234   0.591   3.700  12.254 -0.0515  1.1924 -0.7626
  146TMC2    O1 2235   0.602   3.221  12.205 -0.0160 -0.1991 -0.0997
  146TMC2    O2 2236   0.676   3.669  12.173 -0.2692  0.1055  0.1909
  146TMC2    O5 2237   0.565   3.821  12.302  0.2676  0.0480  0.3467
  146TMC2    H5 2238   0.484   3.822  12.357  0.5525 -0.7950  0.7973
  147MPD2     C 2239   0.715   2.736  12.390  1.0973  0.3519  0.3423
  147MPD2    C1 2240   0.711   2.797  12.514  0.5287  0.0027  0.4061
  147MPD2    C2 2241   0.673   2.926  12.522 -0.4835  0.4139  0.2065
  147MPD2    C3 2242   0.637   3.000  12.411 -0.5627 -0.3519 -0.3163
  147MPD2    C4 2243   0.643   2.937  12.286  0.5486 -0.1723  0.7196
  147MPD2    C5 2244   0.679   2.803  12.280 -0.3697 -0.1708  0.2125
  147MPD2     H 2245   0.654   2.973  12.618 -4.5199  0.0861 -0.4014
  147MPD2    H1 2246   0.606   2.979  12.193 -2.7417 -1.6061  1.3494
  147MPD2    H2 2247   0.730   2.629  12.384 -0.0572  0.2232 -0.2444
  147MPD2    H3 2248   0.665   2.746  12.189 -0.0925 -1.2391  0.8372
  147MPD2     N 2249   0.618   3.136  12.426 -0.0365 -0.8808  0.0580
  147MPD2    H5 2250   0.613   3.170  12.522  1.8396  3.9862 -1.5723
  147MPD2    N1 2251   0.740   2.716  12.628  0.0934  0.3964  0.3671
  147MPD2    H7 2252   0.795   2.630  12.619 -0.0118  0.1495  2.0828
  148MPD2     C 2253   0.205   1.266  11.302  0.2326 -0.6726  0.3425
  148MPD2    C1 2254   0.273   1.285  11.185 -0.1053 -0.2006  0.0169
  148MPD2    C2 2255   0.206   1.297  11.066 -0.3438 -0.7585 -0.0967
  148MPD2    C3 2256   0.068   1.274  11.055 -0.4432  0.3918  0.7570
  148MPD2    C4 2257   0.001   1.239  11.178  0.2239  0.1186  0.0847
  148MPD2    C5 2258   0.069   1.239  11.296  0.1251  0.6751 -0.1248
  148MPD2     H 2259   0.260   1.340  10.982 -0.4074 -1.7360 -0.6482
  148MPD2    H1 2260   4.632   1.189  11.167  0.2716  0.2093 -0.8019
  148MPD2    H2 2261   0.248   1.276  11.401  0.7323 -0.7602  0.1338
  148MPD2    H3 2262   0.009   1.220  11.385  1.2735 -0.5546  0.3773
  148MPD2     N 2263   4.710   1.285  10.938  0.0338  0.5554 -0.0083
  148MPD2    H5 2264   4.610   1.273  10.952 -0.0841 -0.5520 -1.7548
  148MPD2    N1 2265   0.408   1.320  11.179  0.3112  0.7410  0.1816
  148MPD2    H7 2266   0.452   1.331  11.088  0.0286 -1.1091 -0.1750
  149TCq2    C1 2267   0.494   1.319  11.286  0.1251  0.5080 -0.7247
  149TCq2    O2 2268   0.470   1.337  11.407  0.5369 -0.8158 -0.0585
  149TCq2    C2 2269   0.622   1.357  11.226  0.1847  0.1727 -0.0134
  149TCq2    C3 2270   0.669   1.474  11.267 -0.5416 -0.0496 -0.5588
  149TCq2    C4 2271   0.763   1.534  11.185  0.2078  0.0901  0.1486
  149TCq2    C5 2272   0.773   1.496  11.052 -0.1047  0.0425  0.3393
  149TCq2    C6 2273   0.733   1.369  11.020  0.3906  0.1267  0.4843
  149TCq2    C7 2274   0.664   1.294  11.113 -0.0190  0.1305 -0.1577
  149TCq2    C8 2275   0.709   1.335  10.880  1.1602 -0.5278  0.0709
  149TCq2    O4 2276   0.610   1.266  10.859  0.0142 -0.0243 -0.2109
  149TCq2    C9 2277   0.778   1.671  11.224  0.0090 -0.0171  0.2164
  149TCq2    O5 2278   0.743   1.758  11.140  0.6888  0.2839 -0.3229
  149TCq2    O6 2279   0.849   1.703  11.325 -0.2028  0.1473 -0.0919
  149TCq2    H2 2280   0.629   1.515  11.359  1.6236  1.3021 -0.2144
  149TCq2    H3 2281   0.816   1.562  10.978 -0.9594  1.9482  1.5164
  149TCq2    H4 2282   0.615   1.202  11.081  1.1530 -0.0688 -1.3695
  150MPD2     C 2283   2.475   0.444  12.051  0.0060 -0.8959 -0.0171
  150MPD2    C1 2284   2.442   0.543  11.959 -0.0245 -0.1088  0.4438
  150MPD2    C2 2285   2.536   0.644  11.932  0.1320  0.1218 -0.8136
  150MPD2    C3 2286   2.669   0.641  11.983  0.0853 -0.1254  0.7157
  150MPD2    C4 2287   2.700   0.536  12.066 -0.7934 -0.1348 -0.9041
  150MPD2    C5 2288   2.604   0.442  12.101 -0.0404  0.2142  1.2211
  150MPD2     H 2289   2.500   0.727  11.872 -0.6088 -0.7739 -1.6213
  150MPD2    H1 2290   2.800   0.519  12.106 -0.5389 -0.5989 -1.7426
  150MPD2    H2 2291   2.401   0.371  12.082  0.1458 -0.1499  2.0674
  150MPD2    H3 2292   2.633   0.356  12.160  0.7795  0.7554  1.6165
  150MPD2     N 2293   2.772   0.733  11.951 -0.2008  0.3961 -0.2416
  150MPD2    H5 2294   2.867   0.711  11.977 -0.1669  2.2053  1.1657
  150MPD2    N1 2295   2.313   0.542  11.900  0.1588 -0.2130 -0.3273
  150MPD2    H7 2296   2.248   0.480  11.948  1.0023  0.6650  1.9434
  151TCq2    C1 2297   2.753   0.849  11.879  0.6263  0.2048  0.1436
  151TCq2    O2 2298   2.653   0.884  11.819 -0.3060 -0.1246  0.6955
  151TCq2    C2 2299   2.878   0.932  11.859  0.5537 -0.3417  0.0085
  151TCq2    C3 2300   2.862   1.036  11.767  1.0956 -0.4445  0.3796
  151TCq2    C4 2301   2.966   1.127  11.763 -0.5354 -0.5698 -0.5829
  151TCq2    C5 2302   3.077   1.117  11.839 -0.4226  0.4808 -0.1304
  151TCq2    C6 2303   3.085   1.003  11.921  0.0193 -0.1660 -0.6607
  151TCq2    C7 2304   2.983   0.919  11.943 -0.3755  0.4791  0.3381
  151TCq2    C8 2305   3.202   0.991  12.002 -0.0768 -0.0435 -0.2092
  151TCq2    O4 2306   3.271   1.092  12.017 -0.0904 -1.2685 -0.6601
  151TCq2    C9 2307   2.968   1.235  11.663 -0.0806  0.3907 -0.7701
  151TCq2    O5 2308   2.866   1.247  11.588 -0.3298  0.7202 -0.0905
  151TCq2    O6 2309   3.046   1.327  11.696 -0.2788 -0.1825  0.1958
  151TCq2    H2 2310   2.771   1.060  11.713  0.8147 -0.6520  0.7625
  151TCq2    H3 2311   3.159   1.188  11.835  0.1125 -0.2065 -1.4312
  151TCq2    H4 2312   2.966   0.850  12.025 -0.6781 -0.1854 -0.2764
  152MPD2     C 2313   2.218   0.699  12.729  0.1369  0.7648 -0.1666
  152MPD2    C1 2314   2.252   0.715  12.594 -0.4574 -0.1027  0.4526
  152MPD2    C2 2315   2.146   0.725  12.502 -0.0402 -0.1840  0.9063
  152MPD2    C3 2316   2.010   0.719  12.537 -0.4789  0.9656  0.3927
  152MPD2    C4 2317   1.978   0.713  12.670 -0.0167  0.3421 -0.1396
  152MPD2    C5 2318   2.079   0.707  12.763  0.3291 -0.6339 -0.2809
  152MPD2     H 2319   2.170   0.751  12.399 -0.1161  1.6908  1.3638
  152MPD2    H1 2320   1.874   0.718  12.697 -0.3750 -1.2097 -1.2376
  152MPD2    H2 2321   2.291   0.674  12.805 -0.1418  2.0934  0.5312
  152MPD2    H3 2322   2.050   0.698  12.867  1.0885 -0.9955 -0.0987
  152MPD2     N 2323   1.913   0.735  12.434  0.4660 -0.1505 -0.0142
  152MPD2    H5 2324   1.951   0.744  12.340 -1.0686  0.6403 -0.5678
  152MPD2    N1 2325   2.386   0.710  12.558  0.1572 -0.3042 -0.1205
  152MPD2    H7 2326   2.458   0.722  12.629 -0.1535  0.0780  0.1292
  153TCq2    C1 2327   2.432   0.713  12.432 -0.1165  1.7214 -0.1163
  153TCq2    O2 2328   2.377   0.750  12.331  0.1134  0.1060  0.4687
  153TCq2    C2 2329   2.575   0.685  12.424  0.5438 -0.2827 -0.8482
  153TCq2    C3 2330   2.634   0.608  12.514  0.1211  0.1361  0.2547
  153TCq2    C4 2331   2.770   0.609  12.527  0.4009  0.0752  0.3348
  153TCq2    C5 2332   2.854   0.692  12.462 -0.1763 -0.2031  0.4849
  153TCq2    C6 2333   2.786   0.772  12.370 -0.3622 -0.4908 -1.0210
  153TCq2    C7 2334   2.648   0.769  12.342 -1.3045 -0.1388  0.9544
  153TCq2    C8 2335   2.853   0.890  12.311  0.4279 -0.1945  0.2587
  153TCq2    O4 2336   2.785   0.950  12.230 -0.0679  0.1752  0.3270
  153TCq2    C9 2337   2.827   0.510  12.620 -0.0706 -0.2955 -0.4490
  153TCq2    O5 2338   2.774   0.397  12.618 -0.1815  0.4376  0.0035
  153TCq2    O6 2339   2.947   0.525  12.661 -0.3457  0.7047 -0.5170
  153TCq2    H2 2340   2.580   0.536  12.575 -1.8042  0.3775 -1.1461
  153TCq2    H3 2341   2.960   0.697  12.483  0.2244 -0.6092 -1.4026
  153TCq2    H4 2342   2.595   0.832  12.272 -1.3395 -0.0270  1.0827
  154MPD2     C 2343   3.201   0.320   0.623 -0.2194 -0.3366 -0.0244
  154MPD2    C1 2344   3.303   0.385   0.700 -0.3895 -0.3014  0.1699
  154MPD2    C2 2345   3.270   0.502   0.771  0.0599 -0.1758 -0.2532
  154MPD2    C3 2346   3.149   0.564   0.746 -0.1167 -0.9444  0.2128
  154MPD2    C4 2347   3.052   0.502   0.658 -0.2960 -0.2697  0.4859
  154MPD2    C5 2348   3.083   0.384   0.599  0.6024 -0.0619 -0.1047
  154MPD2     H 2349   3.342   0.546   0.838 -0.6091 -0.9078  0.9385
  154MPD2    H1 2350   2.949   0.536   0.648 -0.3392 -0.0401  1.8495
  154MPD2    H2 2351   3.226   0.225   0.577 -1.0730 -0.4852 -0.1871
  154MPD2    H3 2352   3.010   0.321   0.549 -0.1881  1.8265 -1.3110
  154MPD2     N 2353   3.127   0.691   0.805 -0.8903 -0.3450 -0.5538
  154MPD2    H5 2354   3.181   0.725   0.884 -0.0754  0.6609 -1.5490
  154MPD2    N1 2355   3.426   0.322   0.711 -0.0954  0.5104 -0.2453
  154MPD2    H7 2356   3.436   0.235   0.659 -0.1406  0.5587 -0.3343
  155TCq2    C1 2357   3.539   0.363   0.776  0.2419  0.2351 -0.4943
  155TCq2    O2 2358   3.570   0.473   0.821  0.2218  0.2064  0.5147
  155TCq2    C2 2359   3.632   0.259   0.777 -0.2338  0.6758  0.1963
  155TCq2    C3 2360   3.614   0.132   0.730 -0.6167  0.1503  0.1495
  155TCq2    C4 2361   3.721   0.049   0.705 -0.5753 -0.0982 -0.1563
  155TCq2    C5 2362   3.847   0.094   0.723  0.0393 -0.4790 -0.4060
  155TCq2    C6 2363   3.865   0.221   0.765  0.6942  0.0078 -0.3136
  155TCq2    C7 2364   3.757   0.310   0.796  0.1590 -0.1091 -0.1748
  155TCq2    C8 2365   3.998   0.251   0.811 -0.1146 -0.6064  0.0204
  155TCq2    O4 2366   4.074   0.157   0.834  0.1047  0.9606  0.0910
  155TCq2    C9 2367   3.705   4.635   0.676  0.2584  0.0449 -0.1836
  155TCq2    O5 2368   3.589   4.595   0.682  0.3382  0.1627 -0.3341
  155TCq2    O6 2369   3.810   4.568   0.657  0.2826  0.3488  0.4449
  155TCq2    H2 2370   3.518   0.081   0.734 -0.3456 -0.3731 -0.0140
  155TCq2    H3 2371   3.924   0.022   0.702 -0.6382 -0.4981 -2.7628
  155TCq2    H4 2372   3.770   0.404   0.848 -0.1355 -0.0600 -0.1907
  156MPD2     C 2373   2.052   2.409  12.632 -0.8888 -0.2758 -0.0741
  156MPD2    C1 2374   2.139   2.508  12.598 -0.1439  0.2964  0.2828
  156MPD2    C2 2375   2.203   2.579  12.696  0.4829  0.1588  0.6098
  156MPD2    C3 2376   2.167   2.559  12.827  0.7343 -0.1154  0.1039
  156MPD2    C4 2377   2.084   2.462  12.855  0.1514 -0.2202 -0.5092
  156MPD2    C5 2378   2.021   2.392  12.762 -0.4562  0.2842  0.3993
  156MPD2     H 2379   2.272   2.658  12.670  3.6098 -2.2125  1.7420
  156MPD2    H1 2380   2.049   2.453  12.957  2.6886 -2.0681  0.2053
  156MPD2    H2 2381   2.005   2.344  12.560 -2.6060 -0.6206  1.3493
  156MPD2    H3 2382   1.943   2.321  12.788 -1.0385  1.1987  1.1277
  156MPD2     N 2383   2.222   2.649  12.923  0.1027  0.1505  0.3191
  156MPD2    H5 2384   2.289   2.711  12.880 -0.2855 -0.4367 -1.1421
  156MPD2    N1 2385   2.178   2.530  12.464  0.0077  0.0446 -0.1536
  156MPD2    H7 2386   2.147   2.469  12.389  2.4187 -0.9172 -0.3471
  157TCq2    C1 2387   2.238   2.643  12.411 -0.4415  0.7013 -0.2779
  157TCq2    O2 2388   2.239   2.755  12.455 -0.8703 -0.1803 -0.3813
  157TCq2    C2 2389   2.284   2.626  12.270 -0.4745  0.5737 -0.2400
  157TCq2    C3 2390   2.332   2.502  12.230  0.1115 -0.0081 -0.1858
  157TCq2    C4 2391   2.411   2.497  12.115 -0.1518  0.0927 -0.0794
  157TCq2    C5 2392   2.441   2.608  12.040  0.0529  0.3573 -0.4858
  157TCq2    C6 2393   2.393   2.726  12.088  0.3506  0.0450  0.4865
  157TCq2    C7 2394   2.323   2.738  12.206  0.2353 -0.1417 -0.3404
  157TCq2    C8 2395   2.415   2.852  12.018  0.4489 -0.0375 -0.3392
  157TCq2    O4 2396   2.342   2.950  12.037 -0.6038 -0.4346  0.5135
  157TCq2    C9 2397   2.479   2.373  12.074  0.2371  0.3254  0.4358
  157TCq2    O5 2398   2.485   2.282  12.163 -0.1819 -0.4852 -0.5095
  157TCq2    O6 2399   2.541   2.375  11.960 -0.5279 -0.1364  0.4191
  157TCq2    H2 2400   2.323   2.412  12.289  1.2226 -1.2296 -1.8713
  157TCq2    H3 2401   2.502   2.602  11.951  1.1253 -3.3568  0.5177
  157TCq2    H4 2402   2.284   2.837  12.230 -0.3217 -0.6925  0.9881
  158TMC2    C1 2403   3.262   1.774  13.074 -0.0482  0.2453 -1.0732
  158TMC2    C2 2404   3.339   1.831  12.979 -0.1280 -0.0940 -0.0033
  158TMC2    C3 2405   3.278   1.883  12.869 -0.2358 -0.7218 -0.5641
  158TMC2    C4 2406   3.137   1.816  13.094  0.4508  0.1439 -0.4157
  158TMC2    C5 2407   3.081   1.883  12.990  0.0880 -0.1962 -0.9146
  158TMC2    C6 2408   3.146   1.903  12.872 -0.2690  0.0242 -0.2000
  158TMC2     C 2409   3.349   1.755  13.191 -0.3336  0.1797  0.0199
  158TMC2     O 2410   3.455   1.701  13.163 -0.8167  0.6709  0.2945
  158TMC2     H 2411   3.446   1.819  12.983  0.1092  1.3689 -1.8454
  158TMC2    H1 2412   3.077   1.779  13.177 -0.3814  1.5964 -0.3702
  158TMC2    H2 2413   3.093   1.944  12.787  0.4632  0.9692 -0.1953
  158TMC2    C7 2414   2.936   1.901  12.978 -0.7203  0.3877  0.0146
  158TMC2    C8 2415   3.344   1.910  12.742 -0.6605  0.3719  0.1902
  158TMC2    O1 2416   2.896   1.974  12.886 -0.4852 -0.3839  0.0169
  158TMC2    O2 2417   3.292   1.919  12.636 -0.5885 -0.2476  0.1691
  158TMC2    O5 2418   3.466   1.955  12.778 -0.1805  0.2244 -0.5547
  158TMC2    H5 2419   3.489   1.971  12.872 -1.8588 -1.5525  0.1468
  159MPD2     C 2420   3.446   1.714  13.686 -0.5633 -0.1003  0.3374
  159MPD2    C1 2421   3.308   1.679  13.666  0.5519  0.2206 -0.3637
  159MPD2    C2 2422   3.262   1.703  13.536 -0.2106 -0.0370  0.4860
  159MPD2    C3 2423   3.347   1.741  13.431 -0.5544 -0.1357  0.1460
  159MPD2    C4 2424   3.484   1.769  13.453 -0.2714 -0.2787  0.7404
  159MPD2    C5 2425   3.531   1.753  13.585  0.5926 -0.8315  0.3237
  159MPD2     H 2426   3.162   1.676  13.505  0.6864 -1.8176 -0.8541
  159MPD2    H1 2427   3.547   1.805  13.373 -1.5871  1.7685  0.6180
  159MPD2    H2 2428   3.506   1.705  13.776 -0.7931 -2.2155  0.2874
  159MPD2    H3 2429   3.637   1.762  13.604  0.6564 -2.8811  0.9391
  159MPD2     N 2430   3.280   1.757  13.309 -0.3998 -0.3482  0.1909
  159MPD2    H5 2431   3.179   1.755  13.303 -0.5002  0.1586  1.7202
  159MPD2    N1 2432   3.244   1.630  13.777  0.0774 -0.2113  0.4361
  159MPD2    H7 2433   3.293   1.593  13.858 -0.4480 -3.3234 -0.6655
  160TMC2    C1 2434   2.116   0.009   1.567 -0.0727  0.4165  0.3330
  160TMC2    C2 2435   2.057   4.608   1.583  0.3131 -0.5152 -0.1967
  160TMC2    C3 2436   2.126   4.505   1.531  0.6250 -0.1795  0.0364
  160TMC2    C4 2437   2.226   0.030   1.496 -0.1085 -0.6221  0.4962
  160TMC2    C5 2438   2.295   4.653   1.452  0.1736  1.0321 -0.3277
  160TMC2    C6 2439   2.245   4.522   1.465 -0.8683  0.4080 -0.3422
  160TMC2     C 2440   2.038   0.111   1.630  0.2133  0.8267 -0.3920
  160TMC2     O 2441   1.965   0.078   1.723 -0.6401 -0.4680 -0.7661
  160TMC2     H 2442   1.964   4.593   1.637  1.2368 -0.6314  1.3455
  160TMC2    H1 2443   2.267   0.129   1.481  0.5939 -0.4686  3.3542
  160TMC2    H2 2444   2.310   4.439   1.441 -1.3423  0.2781 -1.1776
  160TMC2    C7 2445   2.417   4.673   1.384  0.9895 -0.2061  0.0093
  160TMC2    C8 2446   2.068   4.373   1.571 -0.2823 -0.6207  0.7072
  160TMC2    O1 2447   2.452   4.579   1.316  0.0264 -0.6711 -0.3751
  160TMC2    O2 2448   1.947   4.354   1.594  0.0451 -0.3324  0.7902
  160TMC2    O5 2449   2.165   4.306   1.638  0.4245 -0.2609  0.6633
  160TMC2    H5 2450   2.247   4.360   1.634 -0.0671  0.3598 -0.8734
  161MPD2     C 2451   1.938   0.366   1.762  0.2881 -0.0765 -0.1688
  161MPD2    C1 2452   2.020   0.361   1.646  0.2482  0.0603  0.3790
  161MPD2    C2 2453   2.047   0.483   1.579  0.2813  0.8477 -0.4665
  161MPD2    C3 2454   1.988   0.602   1.621  0.1789  0.1094 -0.9412
  161MPD2    C4 2455   1.911   0.602   1.730  0.5623 -0.1554  0.0019
  161MPD2    C5 2456   1.888   0.490   1.806 -0.5492 -0.5466  0.4165
  161MPD2     H 2457   2.103   0.475   1.486 -1.4592 -1.5666 -1.3038
  161MPD2    H1 2458   1.883   0.697   1.773 -0.1817  0.4742 -1.9056
  161MPD2    H2 2459   1.910   0.275   1.815 -2.9155  1.7148  1.1854
  161MPD2    H3 2460   1.820   0.507   1.889 -0.1847 -2.3746  1.0736
  161MPD2     N 2461   2.004   0.722   1.550 -0.6861  0.1135  0.4493
  161MPD2    H5 2462   1.944   0.799   1.577  0.3729  1.1406 -0.1342
  161MPD2    N1 2463   2.073   0.244   1.594  0.2093  0.2656 -0.2836
  161MPD2    H7 2464   2.129   0.249   1.510  1.4052 -0.1344  0.4924
  162TMC2    C1 2465   0.470   2.663   0.385 -0.3166 -0.3852  0.2605
  162TMC2    C2 2466   0.444   2.685   0.249 -0.3391 -0.2110 -0.5268
  162TMC2    C3 2467   0.361   2.788   0.220 -0.6183  0.1084  0.2500
  162TMC2    C4 2468   0.422   2.738   0.488  0.3213 -0.4641 -0.6527
  162TMC2    C5 2469   0.336   2.837   0.451 -0.6428 -0.2206  0.0382
  162TMC2    C6 2470   0.314   2.870   0.318  0.5055 -0.2977 -0.0719
  162TMC2     C 2471   0.527   2.533   0.419  0.2105 -0.0512 -0.1612
  162TMC2     O 2472   0.590   2.479   0.332 -0.4206  0.1441  0.0400
  162TMC2     H 2473   0.484   2.619   0.173 -2.0350 -0.3388 -1.3327
  162TMC2    H1 2474   0.456   2.728   0.591 -2.1449 -1.8023  0.0170
  162TMC2    H2 2475   0.244   2.949   0.290  1.0525 -0.3724 -1.6665
  162TMC2    C7 2476   0.238   2.890   0.544  0.7408 -0.9140 -0.0322
  162TMC2    C8 2477   0.342   2.816   0.080  1.3638  0.3109  0.1896
  162TMC2    O1 2478   0.192   3.004   0.526  0.3977  0.0162 -0.6150
  162TMC2    O2 2479   0.358   2.725   0.003  0.2999 -0.0998  0.5023
  162TMC2    O5 2480   0.375   2.947   0.062  0.4447 -0.1539  0.1758
  162TMC2    H5 2481   0.374   3.003   0.142  1.8613  0.2495 -0.0788
  163MPD2     C 2482   0.541   2.108   0.713 -0.0327 -0.2932  0.2547
  163MPD2    C1 2483   0.620   2.143   0.607  1.4958 -0.4278 -0.5929
  163MPD2    C2 2484   0.611   2.270   0.553 -0.1321  0.3791  0.4034
  163MPD2    C3 2485   0.505   2.353   0.586  0.5518  0.1653 -0.2089
  163MPD2    C4 2486   0.432   2.325   0.705 -0.3931 -0.2663 -0.0074
  163MPD2    C5 2487   0.446   2.202   0.756 -0.4405 -0.3356  0.2758
  163MPD2     H 2488   0.670   2.289   0.464 -0.8320 -1.7059 -0.5149
  163MPD2    H1 2489   0.354   2.390   0.744 -0.4598  0.2071 -0.9376
  163MPD2    H2 2490   0.550   2.013   0.765 -0.5415 -1.8144 -2.4551
  163MPD2    H3 2491   0.386   2.180   0.843 -4.4843 -0.1133 -2.4459
  163MPD2     N 2492   0.469   2.484   0.533 -0.2948  0.3623 -0.1393
  163MPD2    H5 2493   0.392   2.534   0.578  0.8472  2.5606 -0.6384
  163MPD2    N1 2494   0.718   2.050   0.562  0.0545 -0.4531 -0.3609
  163MPD2    H7 2495   0.709   1.957   0.602  2.1716  0.3599  2.0011
  164TCq2    C1 2496   1.005   2.229  11.616 -0.0143 -0.0861  0.6568
  164TCq2    O2 2497   0.965   2.277  11.719 -0.2282  0.7997  0.7451
  164TCq2    C2 2498   1.046   2.323  11.517  0.4151 -0.2406 -0.4031
  164TCq2    C3 2499   1.130   2.277  11.414 -0.6520  0.3937  0.8758
  164TCq2    C4 2500   1.136   2.353  11.301 -0.5609 -0.2638  0.0237
  164TCq2    C5 2501   1.053   2.458  11.285 -0.3949 -0.0681  0.7157
  164TCq2    C6 2502   0.974   2.499  11.383  0.0307  0.5827  0.4650
  164TCq2    C7 2503   0.973   2.436  11.508  0.9289  0.6108 -0.5561
  164TCq2    C8 2504   0.847   2.550  11.345  0.2750 -0.2750 -0.4129
  164TCq2    O4 2505   0.809   2.549  11.228 -0.0356  0.1388 -0.3296
  164TCq2    C9 2506   1.201   2.297  11.188  0.1058 -0.0346  0.4260
  164TCq2    O5 2507   1.223   2.173  11.178  0.3798 -0.5672 -0.2027
  164TCq2    O6 2508   1.244   2.387  11.109  0.1599  0.9537 -0.2271
  164TCq2    H2 2509   1.188   2.185  11.413 -0.6975  0.3756 -1.3050
  164TCq2    H3 2510   1.048   2.487  11.181 -1.0562  0.6235  0.9443
  164TCq2    H4 2511   0.898   2.465  11.581  1.6998  2.9293 -0.6537
  165MPD2     C 2512   3.199   2.709   2.208  0.7498  0.6513 -0.5967
  165MPD2    C1 2513   3.184   2.796   2.098  0.2786 -0.4569  0.4362
  165MPD2    C2 2514   3.191   2.929   2.122  0.0918 -0.8857  1.0370
  165MPD2    C3 2515   3.211   2.982   2.255 -0.1369 -0.5115  0.1461
  165MPD2    C4 2516   3.220   2.890   2.363 -0.0896 -0.5684  0.5583
  165MPD2    C5 2517   3.210   2.755   2.339  0.5367  0.3751  0.0991
  165MPD2     H 2518   3.181   2.987   2.031 -0.5838  1.1682  2.4027
  165MPD2    H1 2519   3.235   2.929   2.463  0.8082  2.4417 -0.7522
  165MPD2    H2 2520   3.207   2.602   2.193  0.1731  0.5180  0.0325
  165MPD2    H3 2521   3.211   2.685   2.423 -1.6497  1.4953  1.0572
  165MPD2     N 2522   3.213   3.119   2.283 -0.3875 -0.5831  0.2851
  165MPD2    H5 2523   3.223   3.144   2.381 -0.2162 -1.2741  0.4444
  165MPD2    N1 2524   3.170   2.732   1.975 -0.1414  0.3575 -0.5749
  165MPD2    H7 2525   3.171   2.631   1.979 -0.8378  0.3961  0.5036
  166TCq2    C1 2526   3.201   3.220   2.193  0.4266  0.6124 -0.0784
  166TCq2    O2 2527   3.169   3.206   2.074 -0.1301  0.3935 -0.2624
  166TCq2    C2 2528   3.203   3.354   2.254 -0.7065 -0.3116  0.4560
  166TCq2    C3 2529   3.280   3.382   2.363  0.2254 -0.2086 -0.8589
  166TCq2    C4 2530   3.284   3.513   2.398 -0.6145  0.0682 -0.5184
  166TCq2    C5 2531   3.229   3.611   2.323  0.7262 -0.0527  0.5741
  166TCq2    C6 2532   3.143   3.577   2.223 -0.5583 -0.9711  0.3454
  166TCq2    C7 2533   3.129   3.450   2.186 -0.7122 -0.1387  1.1524
  166TCq2    C8 2534   3.084   3.687   2.140  0.4830 -0.0263  0.3605
  166TCq2    O4 2535   3.146   3.791   2.147 -0.3763  0.5816 -0.3757
  166TCq2    C9 2536   3.368   3.553   2.502  0.3603  0.9633 -0.2174
  166TCq2    O5 2537   3.407   3.669   2.505  0.2725 -0.1656  0.8410
  166TCq2    O6 2538   3.401   3.467   2.587 -0.1414  0.0356  0.5191
  166TCq2    H2 2539   3.337   3.308   2.418  0.2390 -1.1525 -2.1438
  166TCq2    H3 2540   3.263   3.713   2.336  1.5356 -0.3804  1.0378
  166TCq2    H4 2541   3.078   3.418   2.096  2.0047  2.1706 -1.2314
  167TMC2    C1 2542   0.011   2.710  12.498 -0.2662 -0.5074 -0.5330
  167TMC2    C2 2543   0.010   2.825  12.580 -0.0157 -0.1751  0.3806
  167TMC2    C3 2544   0.010   2.804  12.712  0.3699 -0.0121  0.8817
  167TMC2    C4 2545   0.011   2.583  12.545  0.2262 -0.1695 -0.1830
  167TMC2    C5 2546   0.001   2.574  12.684  0.0275 -0.3689 -0.3554
  167TMC2    C6 2547   4.724   2.682  12.764 -0.0238 -0.4334  0.2518
  167TMC2     C 2548   0.015   2.732  12.355  0.0387  0.4494  0.9454
  167TMC2     O 2549   4.721   2.849  12.317  0.4427  0.0467 -0.3097
  167TMC2     H 2550   4.719   2.919  12.530  0.2407  0.7415  2.0379
  167TMC2    H1 2551   0.001   2.501  12.475  0.4156  0.2015 -0.6470
  167TMC2    H2 2552   4.718   2.674  12.872 -0.0073  1.2060  0.3743
  167TMC2    C7 2553   0.026   2.454  12.757 -0.2479 -0.2942  0.3430
  167TMC2    C8 2554   0.013   2.915  12.806  0.7692 -0.1462 -0.7422
  167TMC2    O1 2555   4.726   2.454  12.873 -0.0820 -0.8404 -0.0042
  167TMC2    O2 2556   0.047   2.911  12.919 -0.3154 -0.3174 -0.5082
  167TMC2    O5 2557   4.674   3.014  12.744 -0.3199  0.2502 -0.4160
  167TMC2    H5 2558   4.631   2.990  12.659  0.4054  0.2158 -0.7764
  168MPD2     C 2559   0.041   2.729  12.047 -0.0365  0.1274  0.4887
  168MPD2    C1 2560   0.061   2.624  12.133  0.2573 -0.1862 -0.4327
  168MPD2    C2 2561   0.114   2.508  12.077  0.0504  0.5131  0.3996
  168MPD2    C3 2562   0.142   2.488  11.943 -0.1680  0.0972  0.1080
  168MPD2    C4 2563   0.123   2.591  11.861 -0.1026  0.3006 -0.9414
  168MPD2    C5 2564   0.069   2.708  11.909  0.2518  0.6246 -0.4734
  168MPD2     H 2565   0.136   2.430  12.150  0.7168  0.1036 -0.2380
  168MPD2    H1 2566   0.148   2.584  11.756  1.6885  0.1583 -0.5152
  168MPD2    H2 2567   0.000   2.824  12.080  0.4805 -0.1442  1.9231
  168MPD2    H3 2568   0.056   2.786  11.835 -0.8435 -0.2676 -1.2084
  168MPD2     N 2569   0.194   2.362  11.891 -0.2719  0.0738  0.5911
  168MPD2    H5 2570   0.216   2.359  11.791 -2.7924  2.5739 -0.0393
  168MPD2    N1 2571   0.049   2.624  12.277  0.2818  0.1601 -0.5762
  168MPD2    H7 2572   0.063   2.534  12.321  4.3374  0.8585 -0.3853
  169MPD1     C 2573   1.557   1.466   9.936 -0.2814  0.0231 -0.2101
  169MPD1    C1 2574   1.589   1.371  10.031  0.1304  0.7750 -0.1585
  169MPD1    C2 2575   1.696   1.282  10.002 -0.0344 -0.1798 -0.1441
  169MPD1    C3 2576   1.781   1.298   9.896 -0.3072  0.0967  0.5216
  169MPD1    C4 2577   1.758   1.404   9.813  0.4247 -0.0399 -0.2188
  169MPD1    C5 2578   1.643   1.482   9.839  0.2136  0.9928 -0.2024
  169MPD1     H 2579   1.705   1.190  10.059  0.3633 -0.0394  0.0203
  169MPD1    H1 2580   1.826   1.433   9.734  2.5615 -1.0149  1.2602
  169MPD1    H2 2581   1.477   1.538   9.946 -2.4793 -2.6500  1.2490
  169MPD1    H3 2582   1.633   1.563   9.769  1.1887  1.5896  0.3361
  169MPD1     N 2583   1.882   1.198   9.878  0.6174  0.4502  0.2455
  169MPD1    H5 2584   1.878   1.121   9.944 -1.9749  0.0191 -0.4092
  169MPD1    N1 2585   1.489   1.342  10.128 -0.1549 -0.3076 -0.8622
  169MPD1    H6 2586   1.444   1.432  10.141 -2.0393 -1.6931  2.1003
  169MPD1    H7 2587   1.520   1.311  10.220  1.3395 -0.4559 -1.4150
  170MPD1     C 2588   1.497   3.453  12.920 -0.0897 -0.6097  0.2743
  170MPD1    C1 2589   1.423   3.572  12.905  1.1004  0.0952  0.0983
  170MPD1    C2 2590   1.411   3.648  13.018 -0.4273  0.0435 -0.3873
  170MPD1    C3 2591   1.472   3.623  13.140 -0.5955  0.8229  0.0023
  170MPD1    C4 2592   1.536   3.504  13.151 -0.5080 -0.1758 -0.3335
  170MPD1    C5 2593   1.547   3.425  13.042 -0.2104  0.1049 -1.0285
  170MPD1     H 2594   1.356   3.741  13.013 -2.6394 -1.4413 -3.9915
  170MPD1    H1 2595   1.578   3.465  13.243  1.1187  3.4257  0.4474
  170MPD1    H2 2596   1.492   3.381  12.840  0.5384 -0.8038  0.4128
  170MPD1    H3 2597   1.607   3.335  13.046 -0.6533 -0.2305 -1.8300
  170MPD1     N 2598   1.467   3.717  13.246 -0.5183  0.1725 -0.1867
  170MPD1    H5 2599   1.407   3.795  13.225 -0.8556  0.4803  2.0052
  170MPD1    N1 2600   1.337   3.594  12.799 -0.2002  0.5602 -0.3759
  170MPD1    H6 2601   1.323   3.692  12.772 -1.2089  0.9659  1.6506
  170MPD1    H7 2602   1.352   3.544  12.712 -3.0708  1.5638 -1.4455
  171MPD1     C 2603   4.647   4.686  15.354 -0.2822 -0.3249 -0.6276
  171MPD1    C1 2604   4.706   4.599  15.273  0.4639  0.4044  0.4305
  171MPD1    C2 2605   0.056   4.510  15.349 -0.3258  0.1963  0.0821
  171MPD1    C3 2606   0.084   4.523  15.486  0.2549 -0.1768 -0.4240
  171MPD1    C4 2607   0.020   4.618  15.557  0.1198  0.1162 -0.1311
  171MPD1    C5 2608   4.666   4.701  15.487 -0.7830  0.1700 -0.0720
  171MPD1     H 2609   0.100   4.431  15.290  0.3837  1.1990 -0.7228
  171MPD1    H1 2610   0.039   4.642  15.661 -1.5683  0.2078  0.1640
  171MPD1    H2 2611   4.569   0.023  15.313  1.3265  1.8493 -0.4026
  171MPD1    H3 2612   4.623   0.061  15.538  1.9116  2.2583 -1.3194
  171MPD1     N 2613   0.173   4.432  15.553 -0.4716  0.6031 -0.6143
  171MPD1    H5 2614   0.191   4.448  15.651 -2.0391  1.1537 -0.4168
  171MPD1    N1 2615   4.666   4.576  15.143 -0.2052  0.1869 -0.3014
  171MPD1    H6 2616   0.018   4.528  15.098 -0.3281 -1.9770  1.7904
  171MPD1    H7 2617   4.638   4.662  15.097  1.6471  0.2991 -1.2325
  172MPD1     C 2618   3.938   0.007  17.628  0.0434  0.1608  0.0032
  172MPD1    C1 2619   3.901   0.129  17.671 -0.6646 -0.3814 -0.5844
  172MPD1    C2 2620   4.011   0.213   0.005  0.7435 -0.2964  0.3979
  172MPD1    C3 2621   4.137   0.158   0.032 -0.2050  0.6001 -0.0501
  172MPD1    C4 2622   4.169   0.027   0.003  0.8050  0.1137 -0.9701
  172MPD1    C5 2623   4.069   4.687  17.637 -0.2008  0.2017 -0.9158
  172MPD1     H 2624   3.993   0.318   0.025  2.0830  0.3678 -1.8221
  172MPD1    H1 2625   4.265   4.711   0.031  1.7531  2.2353 -1.0847
  172MPD1    H2 2626   3.872   4.674  17.566  1.0054 -1.6354  0.7050
  172MPD1    H3 2627   4.095   4.593  17.589 -1.4139  0.4651 -2.0991
  172MPD1     N 2628   4.245   0.239   0.088  0.5640  0.1376 -0.2198
  172MPD1    H5 2629   4.334   0.192   0.100  0.6104 -0.4651 -2.8809
  172MPD1    N1 2630   3.778   0.176  17.639 -0.2617  0.9252 -0.2012
  172MPD1    H6 2631   3.756   0.252  17.704  0.7171 -0.5124  1.8146
  172MPD1    H7 2632   3.694   0.119  17.630 -0.1434  0.3790  2.0366
  173MPD1     C 2633   0.080   3.609  13.970  0.0611 -0.3599 -0.3272
  173MPD1    C1 2634   0.142   3.509  14.037  0.8021 -0.2131 -0.0580
  173MPD1    C2 2635   0.219   3.546  14.148 -0.0766 -0.5836 -0.0445
  173MPD1    C3 2636   0.218   3.672  14.200  0.2303 -0.4202 -0.0356
  173MPD1    C4 2637   0.144   3.767  14.137  0.6125  0.1798 -0.4921
  173MPD1    C5 2638   0.072   3.736  14.022 -0.1861  0.1580  0.0963
  173MPD1     H 2639   0.276   3.470  14.200 -0.1144 -0.5580  0.0333
  173MPD1    H1 2640   0.128   3.866  14.179 -1.3810 -1.3358  2.2894
  173MPD1    H2 2641   0.030   3.592  13.876 -3.1273 -0.9238  1.4760
  173MPD1    H3 2642   0.015   3.817  13.979  0.2811  0.1184 -0.6013
  173MPD1     N 2643   0.296   3.698  14.315 -0.1757  0.1702  0.9238
  173MPD1    H5 2644   0.350   3.622  14.355 -0.6794 -0.6477  0.0670
  173MPD1    N1 2645   0.171   3.391  13.967  0.2600 -0.2211 -0.6249
  173MPD1    H6 2646   0.082   3.355  13.933  0.1499 -2.1195  1.6517
  173MPD1    H7 2647   0.206   3.319  14.031 -0.7554 -0.8979 -0.8291
  174MPD1     C 2648   0.847   4.514  14.510  0.6860 -0.1524 -0.3530
  174MPD1    C1 2649   0.895   4.424  14.597  0.2626  0.3889 -0.1565
  174MPD1    C2 2650   0.825   4.303  14.605  0.1749 -0.0869  0.0351
  174MPD1    C3 2651   0.716   4.280  14.521 -0.3362  0.3822  0.4012
  174MPD1    C4 2652   0.667   4.379  14.441  0.1189 -0.6681  0.2555
  174MPD1    C5 2653   0.729   4.497  14.444 -0.7115  0.2488 -0.2682
  174MPD1     H 2654   0.863   4.215  14.656 -0.7122  0.4260  1.5840
  174MPD1    H1 2655   0.581   4.382  14.375  0.7558 -1.3066 -0.6019
  174MPD1    H2 2656   0.891   4.612  14.496  1.5975 -0.3048  1.4035
  174MPD1    H3 2657   0.686   4.576  14.384 -1.7849  0.1417  0.3457
  174MPD1     N 2658   0.648   4.152  14.524  0.1617 -0.3308 -0.0779
  174MPD1    H5 2659   0.573   4.139  14.457 -0.9687 -1.4107  1.3984
  174MPD1    N1 2660   1.020   4.443  14.646  0.7180 -0.0042 -0.0631
  174MPD1    H6 2661   1.019   4.396  14.736 -0.7824  1.3387  0.6200
  174MPD1    H7 2662   1.041   4.540  14.668  2.6069  0.2070 -2.7326
  175MPD1     C 2663   3.312   0.035  15.564  0.5724  0.2865  0.8874
  175MPD1    C1 2664   3.388   4.656  15.625  0.7503 -0.5918  0.6189
  175MPD1    C2 2665   3.435   4.673  15.755 -0.0976  0.5097 -0.4053
  175MPD1    C3 2666   3.386   0.050  15.838 -0.8045  0.0905 -0.0856
  175MPD1    C4 2667   3.295   0.133  15.781 -0.1967  0.2619 -0.1319
  175MPD1    C5 2668   3.251   0.118  15.651  0.5868  0.3565 -0.2166
  175MPD1     H 2669   3.509   4.606  15.798 -0.7429  0.1826  0.1962
  175MPD1    H1 2670   3.259   0.215  15.842 -1.3646 -0.8736  0.7022
  175MPD1    H2 2671   3.283   0.045  15.460  2.0150  1.2065  0.5731
  175MPD1    H3 2672   3.181   0.188  15.607 -0.6171 -0.0817  0.9872
  175MPD1     N 2673   3.427   0.077  15.973  0.2825  0.5045 -0.1446
  175MPD1    H5 2674   3.382   0.163  16.006  0.9592  0.1733  1.6218
  175MPD1    N1 2675   3.460   4.571  15.537 -0.0428 -0.1329  0.6687
  175MPD1    H6 2676   3.479   4.489  15.594 -1.6719 -1.4802 -0.7152
  175MPD1    H7 2677   3.390   4.547  15.466 -0.8802  2.0787  0.7591
  176MPD1     C 2678   0.495   1.736  17.164 -0.0856 -0.6715 -0.3373
  176MPD1    C1 2679   0.600   1.752  17.076  0.5313 -0.3205  0.8631
  176MPD1    C2 2680   0.612   1.877  17.012  0.4267  0.7938 -0.3380
  176MPD1    C3 2681   0.509   1.975  17.012  0.5310 -0.4723 -0.1274
  176MPD1    C4 2682   0.409   1.953  17.110 -0.1724 -0.0023  0.2859
  176MPD1    C5 2683   0.408   1.839  17.187  0.1990  1.0964  0.4224
  176MPD1     H 2684   0.697   1.890  16.946  0.4080  0.4832 -0.4224
  176MPD1    H1 2685   0.329   2.026  17.120 -2.2149 -2.0735 -0.8061
  176MPD1    H2 2686   0.459   1.654  17.225  0.0211  0.3103  1.0614
  176MPD1    H3 2687   0.325   1.829  17.256  0.0381  1.7977  0.3324
  176MPD1     N 2688   0.512   2.088  16.926  0.2379 -0.4264 -0.1171
  176MPD1    H5 2689   0.582   2.086  16.853 -0.2416  2.6267 -0.6728
  176MPD1    N1 2690   0.713   1.666  17.082  0.3307 -0.0691 -0.2418
  176MPD1    H6 2691   0.761   1.663  16.993  0.0003  0.6644 -0.4416
  176MPD1    H7 2692   0.690   1.569  17.104 -0.4710  0.5795  1.8294
  177MPD1     C 2693   4.256   1.647   9.764 -0.3737 -0.0503 -0.2390
  177MPD1    C1 2694   4.166   1.559   9.718 -0.0108  0.1067  0.4716
  177MPD1    C2 2695   4.034   1.568   9.758  0.8511 -0.0049  0.5475
  177MPD1    C3 2696   3.998   1.643   9.867  0.2599 -0.1718  0.0033
  177MPD1    C4 2697   4.096   1.732   9.920  0.0256  0.9637  0.2510
  177MPD1    C5 2698   4.223   1.732   9.862  0.0881 -0.3655 -0.2732
  177MPD1     H 2699   3.955   1.520   9.701  0.5797 -0.9180  1.6885
  177MPD1    H1 2700   4.080   1.807   9.996 -1.2910  2.1147 -1.1626
  177MPD1    H2 2701   4.352   1.641   9.714 -0.1574 -0.9587  0.2759
  177MPD1    H3 2702   4.286   1.816   9.891 -2.0698  0.8007  1.0534
  177MPD1     N 2703   3.866   1.626   9.917  0.2510  0.2653 -0.2329
  177MPD1    H5 2704   3.797   1.576   9.861  0.5095 -2.7720  2.1425
  177MPD1    N1 2705   4.195   1.474   9.607 -0.7821  0.3366  0.0794
  177MPD1    H6 2706   4.292   1.444   9.609 -1.7066 -2.5695  1.4470
  177MPD1    H7 2707   4.134   1.393   9.608  1.3307 -1.2182  1.5156
  178MPD1     C 2708   1.415   2.249   0.436 -0.3003  0.4721  0.0345
  178MPD1    C1 2709   1.357   2.371   0.416  0.5478  0.2601 -0.4270
  178MPD1    C2 2710   1.387   2.448   0.305  0.6627  0.5828 -0.4338
  178MPD1    C3 2711   1.468   2.398   0.203  0.6147  0.1871 -0.4841
  178MPD1    C4 2712   1.515   2.271   0.216 -0.5610 -0.3403  0.4529
  178MPD1    C5 2713   1.484   2.197   0.329 -0.2437  0.0586  0.2734
  178MPD1     H 2714   1.342   2.546   0.292  1.5914  0.9719 -0.6847
  178MPD1    H1 2715   1.574   2.214   0.145 -3.3109 -1.2855 -1.0646
  178MPD1    H2 2716   1.397   2.196   0.529 -1.7354  1.9011  0.5754
  178MPD1    H3 2717   1.528   2.098   0.335  0.8668  0.5547  0.4580
  178MPD1     N 2718   1.493   2.482   0.087  0.7573  1.2818 -0.0817
  178MPD1    H5 2719   1.537   2.432   0.010  0.4084  0.9537 -0.0726
  178MPD1    N1 2720   1.287   2.434   0.523 -1.4173 -0.3128  0.5736
  178MPD1    H6 2721   1.207   2.484   0.485 -0.0127  0.4660 -1.3776
  178MPD1    H7 2722   1.247   2.359   0.579 -0.9728 -0.5272  0.6041
  179MPD1     C 2723   1.393   1.713  16.036  0.2816 -0.0239 -0.2783
  179MPD1    C1 2724   1.279   1.642  16.070  0.1000 -0.2718 -0.2424
  179MPD1    C2 2725   1.242   1.549  15.981  0.1960 -0.1472  0.2847
  179MPD1    C3 2726   1.318   1.521  15.868 -0.1882  0.4439 -0.3036
  179MPD1    C4 2727   1.422   1.600  15.830  0.2636  0.1276  0.2985
  179MPD1    C5 2728   1.455   1.700  15.919 -0.2957  0.0607  0.1778
  179MPD1     H 2729   1.145   1.501  15.985 -0.3547  1.2394  3.3265
  179MPD1    H1 2730   1.471   1.578  15.736 -0.1896 -0.1994  0.1373
  179MPD1    H2 2731   1.424   1.795  16.098 -1.6417 -0.5096  1.3214
  179MPD1    H3 2732   1.542   1.762  15.900 -0.9382  0.8904 -0.0210
  179MPD1     N 2733   1.284   1.414  15.785  0.1510  0.2433  0.2711
  179MPD1    H5 2734   1.337   1.410  15.698 -0.4408  0.4583 -0.0981
  179MPD1    N1 2735   1.206   1.683  16.185  0.0505 -0.1460  0.1239
  179MPD1    H6 2736   1.265   1.696  16.267 -0.3884  0.4451  0.3410
  179MPD1    H7 2737   1.139   1.611  16.210 -0.7404  0.8071  0.7398
  180MPD1     C 2738   1.317   2.331  15.272  0.4798 -0.0022  1.0191
  180MPD1    C1 2739   1.269   2.215  15.231 -0.4828  0.0917 -0.6108
  180MPD1    C2 2740   1.191   2.211  15.120 -0.3418 -0.1200  0.3331
  180MPD1    C3 2741   1.147   2.325  15.052  0.5222 -0.8304  0.0978
  180MPD1    C4 2742   1.193   2.451  15.100 -0.0972  0.3311  0.2071
  180MPD1    C5 2743   1.278   2.450  15.208  0.4131 -0.1424  0.8770
  180MPD1     H 2744   1.160   2.112  15.089 -1.6230  1.0243 -2.0492
  180MPD1    H1 2745   1.162   2.551  15.072  3.0543  0.8781 -1.2903
  180MPD1    H2 2746   1.393   2.347  15.347 -0.3462  0.0076  1.8541
  180MPD1    H3 2747   1.320   2.540  15.252 -1.4231  0.9012  0.5347
  180MPD1     N 2748   1.058   2.309  14.941 -0.6297  0.4250  0.1019
  180MPD1    H5 2749   1.060   2.219  14.895  1.7048  0.0262  0.9836
  180MPD1    N1 2750   1.330   2.098  15.279  0.9052  0.3200 -0.5431
  180MPD1    H6 2751   1.272   2.015  15.272  1.0710  0.4014 -2.8639
  180MPD1    H7 2752   1.376   2.106  15.370 -1.5122  0.8194  0.6571
  181MPD1     C 2753   1.711   3.966  10.190  0.5033  0.4474  0.1107
  181MPD1    C1 2754   1.738   4.101  10.218 -0.4490  0.2986 -0.0116
  181MPD1    C2 2755   1.871   4.137  10.228  0.4351  0.2494 -0.0089
  181MPD1    C3 2756   1.975   4.042  10.216  0.2988  0.1778 -0.3565
  181MPD1    C4 2757   1.942   3.913  10.193  0.4011 -0.4806  0.1980
  181MPD1    C5 2758   1.810   3.875  10.177  0.1054  0.0076  0.5254
  181MPD1     H 2759   1.904   4.236  10.259  0.8890  0.2400 -0.4886
  181MPD1    H1 2760   2.017   3.835  10.189  1.7825  0.9017 -1.0688
  181MPD1    H2 2761   1.609   3.938  10.169  1.0383 -0.5637 -1.1231
  181MPD1    H3 2762   1.783   3.772  10.157  0.4068  0.1364 -0.5262
  181MPD1     N 2763   2.111   4.076  10.233  0.3485  0.8127 -0.4778
  181MPD1    H5 2764   2.175   3.998  10.249 -0.4029 -0.1338 -2.1475
  181MPD1    N1 2765   1.628   4.187  10.236  0.5535  0.0643  0.0625
  181MPD1    H6 2766   1.661   4.283  10.243  1.9025 -0.3463 -0.5923
  181MPD1    H7 2767   1.541   4.174  10.186 -0.0595 -0.0214  1.1414
  182MPD1     C 2768   4.210   3.747   1.771 -0.3975 -0.3106  0.9690
  182MPD1    C1 2769   4.280   3.711   1.662  0.0239 -0.0139  0.2574
  182MPD1    C2 2770   4.214   3.724   1.543 -0.3335  0.1372  0.7444
  182MPD1    C3 2771   4.080   3.759   1.529 -0.6250 -0.4870 -0.1595
  182MPD1    C4 2772   4.011   3.778   1.643 -0.5299 -0.7244 -0.0004
  182MPD1    C5 2773   4.075   3.777   1.764 -0.1950 -0.7000 -0.3184
  182MPD1     H 2774   4.266   3.706   1.449 -1.3737  0.1367  0.1652
  182MPD1    H1 2775   3.905   3.801   1.647 -0.9432 -2.3609 -1.4211
  182MPD1    H2 2776   4.266   3.762   1.863  0.2827  1.2891  0.2867
  182MPD1    H3 2777   4.014   3.797   1.852  1.2156  0.4669  0.3988
  182MPD1     N 2778   4.022   3.772   1.402  0.0761 -0.1471  0.2551
  182MPD1    H5 2779   3.922   3.791   1.406  0.1837  1.1075 -2.7391
  182MPD1    N1 2780   4.420   3.700   1.665 -0.1548  0.1387 -0.0206
  182MPD1    H6 2781   4.456   3.659   1.579 -0.3687 -0.6627  0.2783
  182MPD1    H7 2782   4.466   3.652   1.742  0.9796 -0.2352 -0.9369
  183MPD1     C 2783   3.893   0.009   9.464 -0.2009  0.6271 -0.4908
  183MPD1    C1 2784   3.777   4.714   9.392  0.3389 -0.5327 -0.5279
  183MPD1    C2 2785   3.680   4.638   9.449 -0.8923 -0.2740  0.0759
  183MPD1    C3 2786   3.699   4.572   9.571 -0.2182  0.4367 -1.0984
  183MPD1    C4 2787   3.820   4.589   9.642 -0.5047  0.0592  0.7563
  183MPD1    C5 2788   3.917   4.664   9.579 -0.6508  0.0984  0.1716
  183MPD1     H 2789   3.584   4.647   9.400 -0.5321  1.6827 -0.2712
  183MPD1    H1 2790   3.848   4.547   9.738  1.6642  1.1236  0.6097
  183MPD1    H2 2791   3.968   0.071   9.415 -0.0967  0.5443 -0.4344
  183MPD1    H3 2792   4.013   4.678   9.628 -0.2335 -0.8677 -0.3904
  183MPD1     N 2793   3.589   4.500   9.627 -0.3726 -0.2760 -0.1690
  183MPD1    H5 2794   3.503   4.513   9.575 -0.7125  1.2648  0.7798
  183MPD1    N1 2795   3.746   0.073   9.286 -0.3764 -0.0832  0.6167
  183MPD1    H6 2796   3.678   0.031   9.223 -1.3219  2.6171 -0.1640
  183MPD1    H7 2797   3.826   0.088   9.224 -0.9493 -0.2596 -0.1568
  184MPD1     C 2798   2.663   0.814  10.436  0.3371  0.2076 -0.0060
  184MPD1    C1 2799   2.759   0.911  10.408  0.2544  0.6260  0.7876
  184MPD1    C2 2800   2.717   1.037  10.378 -0.2157 -0.9925  0.7664
  184MPD1    C3 2801   2.582   1.082  10.404  0.4874  0.3453  0.4419
  184MPD1    C4 2802   2.487   0.985  10.433  0.0777  0.1869  0.6426
  184MPD1    C5 2803   2.531   0.852  10.447 -0.1293  0.3444  0.5320
  184MPD1     H 2804   2.779   1.116  10.338 -1.9493 -0.1126 -0.1883
  184MPD1    H1 2805   2.380   1.005  10.436  0.7889  4.2838 -0.4647
  184MPD1    H2 2806   2.693   0.710  10.447 -0.9807 -0.2158 -0.3737
  184MPD1    H3 2807   2.460   0.771  10.453 -0.7855  0.9825  1.3892
  184MPD1     N 2808   2.532   1.212  10.405  0.3948  0.4024 -0.1441
  184MPD1    H5 2809   2.435   1.217  10.437 -0.0415  2.5639 -1.7807
  184MPD1    N1 2810   2.890   0.873  10.367 -0.1911  0.0320  0.2848
  184MPD1    H6 2811   2.916   0.788  10.417  0.8683 -0.2481 -0.7616
  184MPD1    H7 2812   2.960   0.945  10.383 -0.1618  0.1169 -0.2302
  185MPD1     C 2813   1.769   1.389  10.696  0.2323 -0.6781 -0.4310
  185MPD1    C1 2814   1.814   1.519  10.686 -0.2620  0.1524 -0.6633
  185MPD1    C2 2815   1.942   1.539  10.644  0.1437 -0.0367  0.2002
  185MPD1    C3 2816   2.028   1.434  10.628 -0.9057  0.5022 -0.0343
  185MPD1    C4 2817   1.988   1.305  10.654  0.4728 -0.1152  0.6585
  185MPD1    C5 2818   1.854   1.286  10.668 -0.0243 -0.0867 -0.0715
  185MPD1     H 2819   1.968   1.640  10.615 -0.3633  0.4865  1.5436
  185MPD1    H1 2820   2.045   1.213  10.643 -1.1534 -1.1102  0.4658
  185MPD1    H2 2821   1.664   1.369  10.715  0.4109 -1.3375 -0.1209
  185MPD1    H3 2822   1.814   1.186  10.675 -1.0153  0.1599 -2.3112
  185MPD1     N 2823   2.161   1.451  10.587 -0.4848  0.1591  0.5809
  185MPD1    H5 2824   2.203   1.363  10.559  0.5629  1.1590 -0.9317
  185MPD1    N1 2825   1.720   1.624  10.694 -0.1875  0.1238 -0.2717
  185MPD1    H6 2826   1.645   1.610  10.761  0.8559  0.0262  0.8791
  185MPD1    H7 2827   1.757   1.718  10.705 -1.5709  0.4187  1.8317
  186MPD1     C 2828   1.896   1.062  15.464  0.4464  0.3687 -0.4699
  186MPD1    C1 2829   1.796   1.006  15.541 -0.1489 -0.8289  0.4412
  186MPD1    C2 2830   1.737   1.075  15.637  0.9947 -0.4804  0.4107
  186MPD1    C3 2831   1.771   1.208  15.664 -0.9250  0.3385 -0.4509
  186MPD1    C4 2832   1.868   1.273  15.584  0.5572  0.1153 -0.1791
  186MPD1    C5 2833   1.926   1.194  15.487  0.4640 -0.4138 -0.1290
  186MPD1     H 2834   1.651   1.040  15.692 -0.4576  1.0405 -0.8718
  186MPD1    H1 2835   1.884   1.380  15.582  0.1356  0.1763 -0.3742
  186MPD1    H2 2836   1.961   1.005  15.399  1.1414  1.0310 -0.3605
  186MPD1    H3 2837   2.003   1.235  15.423 -0.5231  2.3193  0.4101
  186MPD1     N 2838   1.717   1.283  15.772  0.0887 -0.4137 -0.0021
  186MPD1    H5 2839   1.742   1.381  15.783  2.6034 -1.1605  1.0082
  186MPD1    N1 2840   1.761   0.875  15.536  0.3492  0.1394  0.6542
  186MPD1    H6 2841   1.660   0.881  15.541  0.3620  2.0649 -1.4698
  186MPD1    H7 2842   1.797   0.828  15.453 -0.5808  0.2375  0.1946
  187MPD1     C 2843   0.311   3.803   0.598 -0.6540  0.0027 -0.4461
  187MPD1    C1 2844   0.309   3.670   0.578  0.2336 -0.5416 -0.4334
  187MPD1    C2 2845   0.350   3.613   0.458  0.2349 -0.5077 -0.0748
  187MPD1    C3 2846   0.371   3.692   0.349 -0.4681 -0.1650 -0.2252
  187MPD1    C4 2847   0.371   3.831   0.359 -0.1817 -0.2120  0.2931
  187MPD1    C5 2848   0.342   3.880   0.487  0.1686 -0.3297 -0.2893
  187MPD1     H 2849   0.362   3.506   0.447  1.4157 -0.3018 -0.7414
  187MPD1    H1 2850   0.382   3.903   0.279  2.2483 -1.2190 -0.3001
  187MPD1    H2 2851   0.283   3.844   0.694  3.7402  0.0875  0.7857
  187MPD1    H3 2852   0.319   3.986   0.490 -1.2059 -0.6224 -0.2788
  187MPD1     N 2853   0.411   3.640   0.223  0.1593 -0.4365 -0.2927
  187MPD1    H5 2854   0.436   3.715   0.160  2.0016  1.8922  3.1751
  187MPD1    N1 2855   0.294   3.584   0.683  0.2262 -0.2115  0.6504
  187MPD1    H6 2856   0.221   3.614   0.747 -1.7366  0.3110 -1.8541
  187MPD1    H7 2857   0.273   3.487   0.661 -1.5802  0.5163 -0.7721
  188MPD1     C 2858   0.604   3.655   9.959  0.2707 -0.4809 -0.1817
  188MPD1    C1 2859   0.695   3.577  10.028  0.3118  0.8245  0.2129
  188MPD1    C2 2860   0.641   3.453  10.071 -0.6926 -0.1915  0.0043
  188MPD1    C3 2861   0.505   3.427  10.075  0.0651  0.4907 -0.1561
  188MPD1    C4 2862   0.415   3.524  10.029 -0.3505 -0.3535  0.0730
  188MPD1    C5 2863   0.471   3.631   9.964 -0.2484  0.1945 -0.0163
  188MPD1     H 2864   0.715   3.386  10.114  2.3784  3.4231  0.4166
  188MPD1    H1 2865   0.307   3.516  10.022 -0.5173  2.1404 -0.4743
  188MPD1    H2 2866   0.644   3.747   9.917  1.3974 -0.2402  1.4177
  188MPD1    H3 2867   0.403   3.695   9.910  0.1726 -0.3665 -1.2087
  188MPD1     N 2868   0.441   3.310  10.133 -0.4998 -0.6722 -0.5083
  188MPD1    H5 2869   0.340   3.317  10.132 -0.5247 -1.2967 -1.7010
  188MPD1    N1 2870   0.827   3.607  10.037  0.2112  0.4406  0.2586
  188MPD1    H6 2871   0.862   3.556  10.118  1.5439  0.9235 -0.0188
  188MPD1    H7 2872   0.848   3.703  10.063  1.8075 -0.0762  0.9001
  189MPD1     C 2873   2.091   3.263   0.636 -0.8798  0.3795  0.0951
  189MPD1    C1 2874   2.013   3.234   0.523  0.0728  0.0388 -0.1403
  189MPD1    C2 2875   2.004   3.322   0.418 -0.0053 -0.0776  1.0205
  189MPD1    C3 2876   2.090   3.430   0.406  0.4398  0.1257  0.2688
  189MPD1    C4 2877   2.179   3.454   0.512  0.2445 -0.5072 -1.3384
  189MPD1    C5 2878   2.173   3.367   0.624  0.5901 -0.0518  0.6198
  189MPD1     H 2879   1.934   3.294   0.340 -0.8414  1.3498  1.2491
  189MPD1    H1 2880   2.254   3.532   0.519 -0.3161 -0.0444 -0.4881
  189MPD1    H2 2881   2.080   3.208   0.729  0.2435 -1.6135 -0.9510
  189MPD1    H3 2882   2.232   3.397   0.710  2.2689  1.1886 -0.9554
  189MPD1     N 2883   2.067   3.516   0.295 -1.0483  0.3433 -0.3535
  189MPD1    H5 2884   1.996   3.490   0.227 -0.1772 -2.3357 -0.2319
  189MPD1    N1 2885   1.926   3.120   0.530 -0.1448 -0.0505  0.0672
  189MPD1    H6 2886   1.900   3.086   0.438  0.5163 -0.2391 -0.0443
  189MPD1    H7 2887   1.956   3.046   0.593  0.1765  0.6530  0.7471
  190MPD1     C 2888   0.710   2.580  15.326 -0.0896  0.3722  0.2213
  190MPD1    C1 2889   0.712   2.561  15.463 -0.9492 -0.9879 -0.2204
  190MPD1    C2 2890   0.826   2.610  15.528 -0.1266 -0.4781  0.5306
  190MPD1    C3 2891   0.942   2.637  15.459  0.0213 -0.7718  0.1870
  190MPD1    C4 2892   0.933   2.643  15.324  0.1564  0.4039  0.0712
  190MPD1    C5 2893   0.825   2.610  15.253 -0.3061 -0.2698  1.0044
  190MPD1     H 2894   0.839   2.600  15.635  1.7769  0.7196  0.4142
  190MPD1    H1 2895   1.019   2.665  15.261 -0.0620  1.6954  0.2428
  190MPD1    H2 2896   0.621   2.551  15.271 -0.4163  1.8769 -0.0398
  190MPD1    H3 2897   0.830   2.630  15.147 -1.0461 -0.5425  0.9160
  190MPD1     N 2898   1.055   2.641  15.532 -0.1629  0.7980  0.0349
  190MPD1    H5 2899   1.050   2.606  15.627 -1.6043 -0.4286 -0.4935
  190MPD1    N1 2900   0.587   2.542  15.522 -0.1757 -0.2867  0.0279
  190MPD1    H6 2901   0.592   2.502  15.616  0.3565 -0.3425 -0.0248
  190MPD1    H7 2902   0.524   2.476  15.476 -0.3573  1.0233 -1.5811
  191MPD1     C 2903   0.309   4.371  13.634 -0.6991 -0.4532 -0.3406
  191MPD1    C1 2904   0.395   4.400  13.529 -0.0916  0.5378 -0.0116
  191MPD1    C2 2905   0.352   4.507  13.451  0.4002 -0.0936 -0.6369
  191MPD1    C3 2906   0.234   4.577  13.470 -0.1844 -0.1363 -0.9846
  191MPD1    C4 2907   0.150   4.548  13.580 -0.1981 -0.2335  0.0408
  191MPD1    C5 2908   0.198   4.446  13.667 -0.3971 -0.2602  0.1290
  191MPD1     H 2909   0.407   4.534  13.362 -1.6516 -0.2407 -1.9540
  191MPD1    H1 2910   0.054   4.591  13.603  0.5430  0.1208  2.3924
  191MPD1    H2 2911   0.334   4.287  13.697 -1.6629 -1.0367 -0.7300
  191MPD1    H3 2912   0.132   4.419  13.749 -0.0943  2.1137  1.1505
  191MPD1     N 2913   0.211   4.689  13.381 -0.9046  0.0320  0.3857
  191MPD1    H5 2914   0.286   4.711  13.316 -0.1980 -0.9480  0.8747
  191MPD1    N1 2915   0.487   4.309  13.487 -0.0700 -0.3106 -0.3014
  191MPD1    H6 2916   0.542   4.278  13.567 -0.3275  0.7949  0.3085
  191MPD1    H7 2917   0.555   4.363  13.435 -0.7639 -1.1952 -2.1204
  192MPD1     C 2918   4.211   0.722  12.988 -0.1996 -0.6597 -0.2170
  192MPD1    C1 2919   4.194   0.630  13.091 -0.3531  0.9029  0.0618
  192MPD1    C2 2920   4.293   0.525  13.106  0.5342 -0.6896  0.3794
  192MPD1    C3 2921   4.402   0.510  13.014 -0.3866 -0.9349  0.2479
  192MPD1    C4 2922   4.405   0.596  12.908  0.5439 -0.6565 -0.2530
  192MPD1    C5 2923   4.312   0.697  12.902 -0.3389 -0.4131  0.2843
  192MPD1     H 2924   4.286   0.471  13.199 -0.3857  0.9374  1.2599
  192MPD1    H1 2925   4.484   0.598  12.833 -0.6384  1.0666 -1.4562
  192MPD1    H2 2926   4.143   0.803  12.963 -0.2958 -0.5391  0.4416
  192MPD1    H3 2927   4.331   0.782  12.836  0.6627 -1.1754 -0.4103
  192MPD1     N 2928   4.509   0.419  13.026 -0.2176  0.0195 -0.1481
  192MPD1    H5 2929   4.566   0.398  12.945 -0.5711  1.6460 -0.8116
  192MPD1    N1 2930   4.087   0.651  13.177  0.2819  0.0171 -0.4048
  192MPD1    H6 2931   4.010   0.696  13.130 -1.8207 -2.0461  1.0688
  192MPD1    H7 2932   4.045   0.561  13.199  0.7037  0.1964  1.1929
  193MPD1     C 2933   4.597   0.333  16.514  0.1739  0.8075 -0.6424
  193MPD1    C1 2934   4.706   0.254  16.480  0.6276 -0.7840  0.4038
  193MPD1    C2 2935   0.071   0.237  16.581 -0.4404 -0.3812  0.4263
  193MPD1    C3 2936   0.080   0.315  16.692  0.9803  0.6220  0.1268
  193MPD1    C4 2937   4.706   0.404  16.714 -1.3827 -0.5025  0.8329
  193MPD1    C5 2938   4.598   0.399  16.633 -0.1327  0.1228 -0.2075
  193MPD1     H 2939   0.154   0.173  16.552 -0.0155 -0.0266  0.8721
  193MPD1    H1 2940   4.696   0.465  16.803 -2.5012 -0.0583  0.3919
  193MPD1    H2 2941   4.504   0.335  16.459  0.8798  0.5525 -1.8312
  193MPD1    H3 2942   4.512   0.463  16.650 -0.8640 -0.7506 -0.5937
  193MPD1     N 2943   0.191   0.327  16.778  0.2387 -0.0119  0.3272
  193MPD1    H5 2944   0.191   0.405  16.843 -0.8357  2.1721 -2.2861
  193MPD1    N1 2945   4.701   0.167  16.370  0.4310  0.6389  0.3167
  193MPD1    H6 2946   4.654   0.214  16.293  0.9622 -1.4506 -1.2639
  193MPD1    H7 2947   0.067   0.133  16.343 -0.8309 -2.5192 -0.0160
  194MPD1     C 2948   3.503   2.187  17.329 -0.9849  0.2841 -0.0185
  194MPD1    C1 2949   3.402   2.187  17.230  0.3121  0.4502  0.1069
  194MPD1    C2 2950   3.314   2.080  17.229  0.4457 -0.5786  0.7075
  194MPD1    C3 2951   3.335   1.974  17.312  0.1674 -0.6099 -0.1866
  194MPD1    C4 2952   3.448   1.965  17.383  0.4039  0.1323 -0.1253
  194MPD1    C5 2953   3.532   2.070  17.395  0.1393  0.8713  0.1659
  194MPD1     H 2954   3.219   2.103  17.182  1.8482 -0.7384 -2.2124
  194MPD1    H1 2955   3.461   1.880  17.449 -2.7194 -0.2201  0.0311
  194MPD1    H2 2956   3.568   2.272  17.347  0.1293 -0.3218 -1.2137
  194MPD1    H3 2957   3.610   2.057  17.469  0.4731 -1.0724 -0.5394
  194MPD1     N 2958   3.237   1.870  17.324  0.8953  0.0745  0.4327
  194MPD1    H5 2959   3.281   1.791  17.370 -3.5881 -1.1530  2.5779
  194MPD1    N1 2960   3.372   2.304  17.163 -0.1124 -0.2031  0.2042
  194MPD1    H6 2961   3.313   2.298  17.080  1.3081 -2.1998 -0.6629
  194MPD1    H7 2962   3.455   2.360  17.143 -1.3108  2.3419  2.3417
  195MPD1     C 2963   0.190   3.834  17.697  0.6141 -0.1119 -0.4489
  195MPD1    C1 2964   0.104   3.758   0.071 -0.2064  0.1303  0.3288
  195MPD1    C2 2965   0.068   3.635   0.023 -0.8409 -0.6012  0.2439
  195MPD1    C3 2966   0.133   3.582  17.617 -0.2552  0.3834 -0.2070
  195MPD1    C4 2967   0.209   3.664  17.544  1.2282  0.0544  0.0542
  195MPD1    C5 2968   0.246   3.791  17.580 -0.3886  0.0153 -0.2288
  195MPD1     H 2969   4.714   3.586   0.078 -1.3750  0.0716  0.0705
  195MPD1    H1 2970   0.255   3.622  17.455  2.1369 -0.9167  0.9826
  195MPD1    H2 2971   0.208   3.937   0.023 -0.3088 -0.8641  2.4804
  195MPD1    H3 2972   0.315   3.848  17.519  0.6907  0.4340  1.3765
  195MPD1     N 2973   0.121   3.447  17.578  0.0334 -0.0867 -0.2382
  195MPD1    H5 2974   0.185   3.415  17.505  1.7174 -3.2374  2.6358
  195MPD1    N1 2975   0.036   3.821   0.176 -0.1680 -0.3045  0.1629
  195MPD1    H6 2976   0.082   3.905   0.213  2.1023 -1.8132  0.7502
  195MPD1    H7 2977   0.020   3.755   0.252  0.5600 -0.2899  0.3363
  196MPD1     C 2978   1.139   2.728   0.790 -0.0039 -0.4141  0.3126
  196MPD1    C1 2979   1.079   2.846   0.755  0.0790  0.2110  0.8700
  196MPD1    C2 2980   0.977   2.899   0.836  0.0815 -0.4211 -0.1616
  196MPD1    C3 2981   0.936   2.838   0.947  0.0386  0.4744  0.1534
  196MPD1    C4 2982   1.000   2.720   0.980 -0.9521 -0.2922 -0.4297
  196MPD1    C5 2983   1.099   2.663   0.905 -0.0021  0.0936  0.6613
  196MPD1     H 2984   0.945   2.996   0.800  0.5017 -0.3209 -0.2611
  196MPD1    H1 2985   0.974   2.662   1.068 -1.2833 -0.6241 -0.7469
  196MPD1    H2 2986   1.198   2.673   0.717  1.0628  0.5946  0.4044
  196MPD1    H3 2987   1.151   2.572   0.931 -2.3298 -2.4409 -3.4885
  196MPD1     N 2988   0.841   2.892   1.033 -0.3920 -0.0602 -0.1896
  196MPD1    H5 2989   0.822   2.844   1.121 -1.0049  0.6506  0.0586
  196MPD1    N1 2990   1.115   2.915   0.631  0.2482 -0.3681 -0.0769
  196MPD1    H6 2991   1.202   2.879   0.593 -0.7839  0.8831 -3.6494
  196MPD1    H7 2992   1.121   3.016   0.640  1.0249 -0.3569 -0.7355
  197MPD1     C 2993   3.451   0.461  17.576 -0.6521 -0.2401  0.5463
  197MPD1    C1 2994   3.441   0.597  17.575 -0.4470 -0.4403  1.0831
  197MPD1    C2 2995   3.496   0.667  17.475 -0.0192  0.0534 -0.1027
  197MPD1    C3 2996   3.559   0.605  17.369 -0.7426 -0.2250 -0.2103
  197MPD1    C4 2997   3.561   0.470  17.371  0.3951 -0.0439  0.3515
  197MPD1    C5 2998   3.508   0.397  17.466  0.4136 -0.2406 -0.3569
  197MPD1     H 2999   3.463   0.769  17.460 -1.3655 -0.2869  0.5860
  197MPD1    H1 3000   3.610   0.420  17.288 -0.0919  0.3606 -0.1849
  197MPD1    H2 3001   3.418   0.389  17.651 -0.6350 -1.1817 -0.3562
  197MPD1    H3 3002   3.514   0.290  17.452  1.5372 -0.0288 -1.4991
  197MPD1     N 3003   3.599   0.673  17.256  0.0614 -0.1461 -0.9017
  197MPD1    H5 3004   3.645   0.614  17.186 -0.4346  0.8104 -2.0426
  197MPD1    N1 3005   3.347   0.656  17.662 -0.5741 -0.4394  0.0765
  197MPD1    H6 3006   3.322   0.598   0.037 -0.4445 -0.9554 -0.2522
  197MPD1    H7 3007   3.374   0.747  17.698  1.3009  0.2252 -3.0747
  198MPD1     C 3008   0.851   3.775  15.612 -0.6814 -0.3549 -0.0804
  198MPD1    C1 3009   0.948   3.852  15.556 -0.4273  0.1639 -0.4838
  198MPD1    C2 3010   1.014   3.934  15.650  0.2330  0.4363 -0.3299
  198MPD1    C3 3011   0.978   3.948  15.781 -0.0281 -0.4730 -0.1469
  198MPD1    C4 3012   0.857   3.895  15.825  0.3789 -0.0308 -0.2521
  198MPD1    C5 3013   0.796   3.802  15.740 -0.0194  0.3346  0.3396
  198MPD1     H 3014   1.107   3.982  15.621 -0.2359 -0.5848 -3.4708
  198MPD1    H1 3015   0.807   3.910  15.920 -0.7298  2.9362 -1.2882
  198MPD1    H2 3016   0.803   3.704  15.546 -3.7475  1.6236  0.0099
  198MPD1    H3 3017   0.704   3.753  15.767 -0.1006  1.4565  2.1332
  198MPD1     N 3018   1.046   4.044  15.859  0.4841  0.1400 -0.3834
  198MPD1    H5 3019   1.123   4.087  15.809  2.3451  1.9661  4.0957
  198MPD1    N1 3020   0.999   3.826  15.426 -0.1668  0.2444 -0.5191
  198MPD1    H6 3021   0.925   3.806  15.360 -0.2348 -0.0796 -0.3440
  198MPD1    H7 3022   1.042   3.911  15.390 -0.5262  1.3274  1.5769
  199MPD1     C 3023   3.455   4.666   9.936 -0.3481 -0.0674  0.1012
  199MPD1    C1 3024   3.386   0.036   9.866  0.3975  0.5089  0.5237
  199MPD1    C2 3025   3.249   0.041   9.875 -0.0553 -0.8368 -0.3441
  199MPD1    C3 3026   3.182   4.677   9.955 -0.7095  0.0687 -0.1917
  199MPD1    C4 3027   3.254   4.588  10.032 -0.0225 -0.6045  0.2929
  199MPD1    C5 3028   3.388   4.582  10.019 -1.1723  0.1322  0.4007
  199MPD1     H 3029   3.203   0.107   9.802  2.0123 -0.7504 -1.5675
  199MPD1    H1 3030   3.195   4.524  10.097 -1.1007 -0.7518 -0.8095
  199MPD1    H2 3031   3.560   4.651   9.915 -0.3927 -1.3504  0.7841
  199MPD1    H3 3032   3.442   4.500  10.066 -2.2610 -0.7955  0.0327
  199MPD1     N 3033   3.039   4.684   9.963 -0.9967 -0.1605  0.0359
  199MPD1    H5 3034   2.986   4.600   9.984  0.0123 -0.4727  1.3532
  199MPD1    N1 3035   3.459   0.111   9.772 -0.7463 -0.4784 -0.4716
  199MPD1    H6 3036   3.560   0.098   9.766 -0.9664 -1.6830 -1.5303
  199MPD1    H7 3037   3.428   0.208   9.763 -0.4694 -0.2199  1.3454
  200MPD1     C 3038   1.350   4.614  14.500  0.1802  0.0627  0.1048
  200MPD1    C1 3039   1.441   4.506  14.508 -0.3232 -0.5162 -0.2794
  200MPD1    C2 3040   1.578   4.531  14.489 -0.5138  0.5624 -0.4310
  200MPD1    C3 3041   1.626   4.656  14.474  0.3408 -0.1886  0.0936
  200MPD1    C4 3042   1.536   0.033  14.474 -0.1566 -0.2975 -0.0628
  200MPD1    C5 3043   1.399   0.016  14.489 -0.1824 -0.1230 -0.6770
  200MPD1     H 3044   1.636   4.440  14.483  0.5264  1.0488  2.1224
  200MPD1    H1 3045   1.562   0.136  14.456  1.3147 -0.5352  0.7163
  200MPD1    H2 3046   1.243   4.596  14.499  0.8675 -4.0459 -0.5373
  200MPD1    H3 3047   1.337   0.105  14.488 -2.0390 -1.3640  2.9393
  200MPD1     N 3048   1.766   4.673  14.460  0.3238  0.5437 -0.6066
  200MPD1    H5 3049   1.826   4.591  14.466  0.5448  0.6653 -1.1490
  200MPD1    N1 3050   1.392   4.377  14.481  0.3882 -0.2519  0.6645
  200MPD1    H6 3051   1.294   4.361  14.504  0.7585 -1.4128  1.4567
  200MPD1    H7 3052   1.444   4.300  14.522  1.9890 -1.1383 -3.0233
  201MPD1     C 3053   4.138   4.713  13.305  0.7438 -0.0439  1.2673
  201MPD1    C1 3054   4.248   4.653  13.358  0.3108 -0.9874  0.1259
  201MPD1    C2 3055   4.237   4.518  13.383 -0.1776  0.0898 -0.2481
  201MPD1    C3 3056   4.133   4.450  13.345  0.2168  0.5025  0.1605
  201MPD1    C4 3057   4.015   4.512  13.309 -0.4060 -0.3744 -0.1005
  201MPD1    C5 3058   4.025   4.645  13.282  0.1563 -0.1052  0.0336
  201MPD1     H 3059   4.321   4.476  13.436  0.2146  0.3901 -0.6315
  201MPD1    H1 3060   3.920   4.463  13.290  0.4607 -2.0672  0.0091
  201MPD1    H2 3061   4.141   0.087  13.263  1.9752 -0.6537 -0.1164
  201MPD1    H3 3062   3.941   4.703  13.247 -0.5700 -0.9410  0.3779
  201MPD1     N 3063   4.145   4.318  13.379  0.7080  0.1595 -0.1050
  201MPD1    H5 3064   4.228   4.281  13.424 -2.4140 -3.2588  2.8724
  201MPD1    N1 3065   4.369   0.003  13.362  0.2550 -0.2610  0.5291
  201MPD1    H6 3066   4.419   4.691  13.442 -1.7141 -1.1525  1.3547
  201MPD1    H7 3067   4.356   0.103  13.354 -2.4129 -0.5862  0.8414
  202MPD1     C 3068   3.317   3.421   9.201 -0.3368 -0.4194  0.3780
  202MPD1    C1 3069   3.360   3.291   9.206  0.0841 -0.5837  0.6002
  202MPD1    C2 3070   3.449   3.266   9.311  0.0244  0.1383  0.1890
  202MPD1    C3 3071   3.486   3.358   9.405  0.2977  0.0853  0.2544
  202MPD1    C4 3072   3.450   3.485   9.391 -0.2472  0.2103  0.4227
  202MPD1    C5 3073   3.373   3.518   9.283 -0.3745  0.1828 -0.1693
  202MPD1     H 3074   3.460   3.160   9.332 -2.4456  0.1089  1.3739
  202MPD1    H1 3075   3.472   3.561   9.465  2.0985 -1.6698  1.6707
  202MPD1    H2 3076   3.234   3.446   9.136  0.2292  0.6430  0.0727
  202MPD1    H3 3077   3.346   3.622   9.267 -0.0746  0.3142  0.1736
  202MPD1     N 3078   3.565   3.325   9.519 -0.5452  0.2807  0.2403
  202MPD1    H5 3079   3.575   3.401   9.585 -0.2540  0.6127 -0.1858
  202MPD1    N1 3080   3.283   3.189   9.159  0.3742  0.0355  0.0220
  202MPD1    H6 3081   3.336   3.102   9.163  0.1975 -0.0758 -0.0102
  202MPD1    H7 3082   3.249   3.201   9.064 -0.4122 -0.5734  0.2205
  203MPD1     C 3083   2.694   4.163  13.091  1.2405 -0.5180  0.2863
  203MPD1    C1 3084   2.605   4.072  13.139 -0.5283  0.4066 -0.4556
  203MPD1    C2 3085   2.631   3.937  13.125 -0.2572  0.3428 -0.2897
  203MPD1    C3 3086   2.754   3.895  13.078 -0.2365  0.0841 -0.3850
  203MPD1    C4 3087   2.854   3.985  13.040 -0.1421 -0.3449  0.1747
  203MPD1    C5 3088   2.812   4.118  13.041 -0.0329 -0.1676 -0.3019
  203MPD1     H 3089   2.555   3.865  13.152 -0.8104  0.7236 -0.8347
  203MPD1    H1 3090   2.945   3.956  12.989 -1.4192 -0.1116 -2.2714
  203MPD1    H2 3091   2.669   4.269  13.083 -2.4750 -1.4191 -0.0041
  203MPD1    H3 3092   2.885   4.188  13.002 -0.8691  0.1450 -1.2832
  203MPD1     N 3093   2.766   3.752  13.052 -0.3907  0.3853  0.0155
  203MPD1    H5 3094   2.713   3.677  13.095  1.5109  0.2877  2.1897
  203MPD1    N1 3095   2.471   4.109  13.172  0.0240 -0.0464  0.1433
  203MPD1    H6 3096   2.475   4.201  13.216 -0.1734  0.5123 -0.9925
  203MPD1    H7 3097   2.425   4.047  13.237 -1.0186  1.5146  0.8949
  204MPD1     C 3098   2.046   0.344   0.105 -0.1365  0.7255 -0.0252
  204MPD1    C1 3099   2.118   0.396   0.003  0.3606  0.0463 -0.0347
  204MPD1    C2 3100   2.228   0.329  17.652 -0.5320 -0.1170 -0.3733
  204MPD1    C3 3101   2.272   0.207  17.705  0.0084 -0.1647  0.6214
  204MPD1    C4 3102   2.195   0.158   0.101 -0.4133  0.0341 -0.6721
  204MPD1    C5 3103   2.093   0.229   0.158  0.4249 -0.0539  0.3544
  204MPD1     H 3104   2.276   0.362  17.560 -1.4120  1.3123 -0.3092
  204MPD1    H1 3105   2.215   0.063   0.150  0.6324 -0.2339 -1.6137
  204MPD1    H2 3106   1.961   0.391   0.153 -0.2619 -1.5631  1.9493
  204MPD1    H3 3107   2.048   0.183   0.246  0.5683  0.5019  0.7157
  204MPD1     N 3108   2.384   0.147  17.641 -0.4313 -0.4607 -0.3881
  204MPD1    H5 3109   2.416   0.181  17.551  3.4309 -0.2155  1.0519
  204MPD1    N1 3110   2.065   0.493  17.624 -0.2833  0.4188 -0.2850
  204MPD1    H6 3111   2.144   0.531  17.573  2.5236 -1.6173  2.5586
  204MPD1    H7 3112   1.995   0.553  17.668 -0.2159  1.4361 -1.5845
  205MPD1     C 3113   2.007   3.633  17.305  0.2759 -0.7115  0.3329
  205MPD1    C1 3114   2.098   3.695  17.222  0.0687 -0.3891 -0.9206
  205MPD1    C2 3115   2.237   3.682  17.240  0.3245 -0.2312 -0.2154
  205MPD1    C3 3116   2.266   3.609  17.357  0.0880 -0.2313 -0.5462
  205MPD1    C4 3117   2.173   3.535  17.425 -0.3921  0.7228 -0.4001
  205MPD1    C5 3118   2.042   3.536  17.390 -0.1279 -1.0238  0.1586
  205MPD1     H 3119   2.312   3.740  17.187 -0.7755 -0.2479 -1.7663
  205MPD1    H1 3120   2.193   3.482  17.518 -2.0797  0.0523 -0.4240
  205MPD1    H2 3121   1.902   3.650  17.287 -0.0877 -1.7349  1.5416
  205MPD1    H3 3122   1.967   3.477  17.442 -0.1926 -2.6456 -1.7853
  205MPD1     N 3123   2.398   3.601  17.406 -1.3224 -0.0423 -0.5305
  205MPD1    H5 3124   2.405   3.533  17.481 -1.2180  1.4607  0.8208
  205MPD1    N1 3125   2.054   3.785  17.125  0.3139  0.1976 -0.5449
  205MPD1    H6 3126   2.129   3.801  17.058 -0.6178  0.0363 -1.6242
  205MPD1    H7 3127   1.969   3.753  17.079  0.2524 -0.2750 -0.1029
  206MPD1     C 3128   3.269   2.729  17.231 -0.1064  0.1429 -0.1789
  206MPD1    C1 3129   3.319   2.688  17.106  0.3980  0.2063 -0.1693
  206MPD1    C2 3130   3.256   2.589  17.039  0.4568 -0.6311  0.3855
  206MPD1    C3 3131   3.129   2.555  17.076 -0.0036 -0.4452  0.1669
  206MPD1    C4 3132   3.078   2.618  17.183  0.9714 -0.5600 -0.1035
  206MPD1    C5 3133   3.139   2.708  17.256 -0.0105  0.1655 -0.2207
  206MPD1     H 3134   3.294   2.532  16.955  0.3393  0.2133 -0.2385
  206MPD1    H1 3135   2.979   2.598  17.222  0.6581  1.7281  0.2869
  206MPD1    H2 3136   3.317   2.805  17.291 -2.9432  0.8442  1.1906
  206MPD1    H3 3137   3.093   2.750  17.345 -1.1344  0.3613 -0.9070
  206MPD1     N 3138   3.051   2.470  17.004 -0.1220 -0.0652 -0.6854
  206MPD1    H5 3139   2.951   2.475  17.019  0.3119  2.1107  1.3380
  206MPD1    N1 3140   3.449   2.727  17.076  0.1200  0.4057  0.2318
  206MPD1    H6 3141   3.474   2.736  16.978 -0.8982 -1.6895 -0.2254
  206MPD1    H7 3142   3.467   2.820  17.113  0.6547  0.0102  0.9640
  207MPD1     C 3143   4.427   0.069   9.632  0.2212  0.1209 -0.6295
  207MPD1    C1 3144   4.434   4.660   9.668  0.0203  0.1509  0.8874
  207MPD1    C2 3145   4.514   4.635   9.776 -0.2751 -0.3871  0.3788
  207MPD1    C3 3146   4.596   0.007   9.835 -0.5586  0.7315  0.0891
  207MPD1    C4 3147   4.590   0.137   9.793 -0.0033 -0.9192 -0.5841
  207MPD1    C5 3148   4.508   0.167   9.694  0.9783  0.2752  0.0775
  207MPD1     H 3149   4.523   4.534   9.815  2.5262  0.1128  1.0079
  207MPD1    H1 3150   4.658   0.212   9.832  0.2534 -1.7646  0.5843
  207MPD1    H2 3151   4.359   0.105   9.556  0.8585 -0.8737 -1.6706
  207MPD1    H3 3152   4.512   0.265   9.647  0.0444  0.6193  0.7133
  207MPD1     N 3153   4.682   4.701   9.949 -0.6237  0.2497  0.4681
  207MPD1    H5 3154   0.009   0.057   9.976 -0.5296 -0.5247  2.5868
  207MPD1    N1 3155   4.365   4.553   9.599  0.5286 -0.0836  0.5524
  207MPD1    H6 3156   4.279   4.588   9.558  1.3323  2.9789  1.4314
  207MPD1    H7 3157   4.343   4.472   9.656 -1.5017  0.9596  1.2825
  208MPD1     C 3158   3.725   3.490  17.143 -0.4345 -0.8310 -0.2134
  208MPD1    C1 3159   3.657   3.369  17.151  0.3955  0.2774 -0.4463
  208MPD1    C2 3160   3.645   3.318  17.283 -0.2691  0.1977  0.0543
  208MPD1    C3 3161   3.705   3.372  17.400 -0.7475 -0.2417  0.3953
  208MPD1    C4 3162   3.768   3.495  17.384  0.1048  0.2101 -0.8913
  208MPD1    C5 3163   3.779   3.541  17.258 -0.5736  0.4251 -0.3927
  208MPD1     H 3164   3.581   3.231  17.291  0.2544 -0.3283 -1.5523
  208MPD1    H1 3165   3.819   3.551  17.461  0.1592  0.5476 -1.1719
  208MPD1    H2 3166   3.738   3.543  17.049 -2.2180  1.1042  0.6268
  208MPD1    H3 3167   3.832   3.635  17.244 -0.1921  0.5681  1.9460
  208MPD1     N 3168   3.686   3.312  17.524  0.0770 -0.2912 -0.6205
  208MPD1    H5 3169   3.626   3.230  17.533 -0.3620 -0.0391 -1.2518
  208MPD1    N1 3170   3.584   3.329  17.033  0.2796 -0.1196 -0.0138
  208MPD1    H6 3171   3.635   3.349  16.948 -1.5458 -0.7716 -1.2690
  208MPD1    H7 3172   3.583   3.227  17.029  3.5028 -0.1395  0.1159
  209MPD1     C 3173   0.620   3.190  10.931  0.1853  0.2185  0.5016
  209MPD1    C1 3174   0.589   3.257  10.814  0.0497  0.4131  0.0494
  209MPD1    C2 3175   0.563   3.394  10.819 -0.8252  0.1744 -0.5521
  209MPD1    C3 3176   0.589   3.467  10.936 -0.6297  0.0077 -0.3721
  209MPD1    C4 3177   0.631   3.404  11.045 -0.8082  0.1751 -0.3735
  209MPD1    C5 3178   0.647   3.268  11.038 -0.1829  0.3664  0.6919
  209MPD1     H 3179   0.531   3.448  10.731  0.3334 -1.4655 -1.9611
  209MPD1    H1 3180   0.651   3.446  11.143 -2.2694  1.1063 -0.4878
  209MPD1    H2 3181   0.635   3.082  10.932 -0.5716  0.1099 -1.4990
  209MPD1    H3 3182   0.674   3.209  11.124 -1.0127  0.3525  0.9456
  209MPD1     N 3183   0.561   3.603  10.935 -0.0667 -0.5633  0.1226
  209MPD1    H5 3184   0.521   3.646  10.852  0.5528 -1.0284 -0.4152
  209MPD1    N1 3185   0.556   3.192  10.694 -0.6095 -0.0814 -0.2725
  209MPD1    H6 3186   0.578   3.253  10.615  1.3539  0.2706  0.5668
  209MPD1    H7 3187   0.604   3.102  10.691 -0.4280  0.0729 -2.1976
  210MPD1     C 3188   0.523   4.607  11.430  0.2627  0.3415  0.1651
  210MPD1    C1 3189   0.489   4.476  11.483 -0.5370  0.0923  0.2161
  210MPD1    C2 3190   0.502   4.374  11.397 -0.0415 -0.3745  0.5708
  210MPD1    C3 3191   0.518   4.386  11.260 -0.6106  0.2513 -0.1723
  210MPD1    C4 3192   0.542   4.513  11.206  0.4583  0.1264  0.6617
  210MPD1    C5 3193   0.547   4.618  11.293 -0.4543  0.4290 -0.0599
  210MPD1     H 3194   0.497   4.270  11.427  1.5046  0.0856  2.4030
  210MPD1    H1 3195   0.545   4.532  11.100  1.4299 -0.4692  0.5890
  210MPD1    H2 3196   0.522   4.695  11.493  0.8339  1.2072 -1.0444
  210MPD1    H3 3197   0.566   4.721  11.268  2.0945  0.1275  0.6958
  210MPD1     N 3198   0.521   4.277  11.168 -0.1502  0.3722 -0.0077
  210MPD1    H5 3199   0.527   4.298  11.069  2.0735 -1.4323 -0.2596
  210MPD1    N1 3200   0.490   4.453  11.621  0.3183 -0.4496 -0.2929
  210MPD1    H6 3201   0.435   4.527  11.663  0.8102 -1.2595  1.7892
  210MPD1    H7 3202   0.450   4.362  11.641 -0.2113 -0.0833  0.3426
  211MPD1     C 3203   4.016   3.742  16.776 -0.2034  0.4662  0.2747
  211MPD1    C1 3204   3.978   3.859  16.708 -0.2690 -0.1138 -0.3747
  211MPD1    C2 3205   3.843   3.878  16.677  0.0245 -0.2878  0.0014
  211MPD1    C3 3206   3.748   3.785  16.720 -0.6488 -0.3706  0.2226
  211MPD1    C4 3207   3.783   3.668  16.779  0.2136 -0.3028  0.1144
  211MPD1    C5 3208   3.920   3.649  16.807 -0.1918  0.5026  0.2544
  211MPD1     H 3209   3.817   3.967  16.621  1.0580 -1.2152 -1.9477
  211MPD1    H1 3210   3.718   3.583  16.797  0.9668 -0.4996  1.9015
  211MPD1    H2 3211   4.120   3.720  16.797 -0.4526  1.3188  2.5192
  211MPD1    H3 3212   3.954   3.561  16.861  1.1269 -0.1260 -1.6061
  211MPD1     N 3213   3.609   3.806  16.688 -0.0097 -0.2713 -0.5099
  211MPD1    H5 3214   3.583   3.897  16.653 -1.1698 -0.7508 -0.9138
  211MPD1    N1 3215   4.066   3.947  16.650  0.2986 -0.1548  0.3770
  211MPD1    H6 3216   4.025   4.039  16.640 -1.1151 -0.9194 -0.8047
  211MPD1    H7 3217   4.151   3.962  16.705 -1.2158 -1.0214  2.9261
  212MPD1     C 3218   2.558   2.007  16.319 -0.3024 -0.8036 -0.6419
  212MPD1    C1 3219   2.467   2.091  16.366 -0.1282  0.0198  0.0054
  212MPD1    C2 3220   2.390   2.049  16.475  0.5712  0.4233  0.4072
  212MPD1    C3 3221   2.389   1.915  16.515  0.0446  0.9847  0.4622
  212MPD1    C4 3222   2.473   1.831  16.456  0.0121 -0.1397 -0.6867
  212MPD1    C5 3223   2.560   1.879  16.363 -0.3781  0.4316  0.4081
  212MPD1     H 3224   2.327   2.124  16.520  0.1424  0.6277 -0.5250
  212MPD1    H1 3225   2.485   1.726  16.478 -0.4460 -0.2939 -1.1659
  212MPD1    H2 3226   2.621   2.037  16.237 -0.6993  0.2678 -0.5517
  212MPD1    H3 3227   2.630   1.812  16.314  0.8586  3.9831 -2.6432
  212MPD1     N 3228   2.305   1.876  16.616  0.3120 -0.2232 -0.9046
  212MPD1    H5 3229   2.299   1.778  16.642  0.8796  0.1830  0.7413
  212MPD1    N1 3230   2.469   2.229  16.332  0.0116 -0.3937 -0.3372
  212MPD1    H6 3231   2.496   2.242  16.234 -0.2410 -0.2809 -0.3933
  212MPD1    H7 3232   2.378   2.274  16.341  0.0547 -0.0711 -1.4850
  213MPD1     C 3233   0.372   2.648  15.927  0.1247  0.1056  0.2597
  213MPD1    C1 3234   0.322   2.532  15.877 -0.4212 -0.1427  0.0245
  213MPD1    C2 3235   0.293   2.541  15.734 -0.0513  0.2374  0.0864
  213MPD1    C3 3236   0.283   2.660  15.656  0.1612  0.8222 -0.3243
  213MPD1    C4 3237   0.321   2.775  15.725  0.3110 -0.1471  0.2658
  213MPD1    C5 3238   0.366   2.770  15.856  0.2493 -0.8281 -0.3580
  213MPD1     H 3239   0.275   2.448  15.682 -0.5246  0.0966  0.4974
  213MPD1    H1 3240   0.299   2.870  15.677  1.7786 -0.2268 -0.5795
  213MPD1    H2 3241   0.398   2.651  16.032 -0.1359  0.7087  0.3040
  213MPD1    H3 3242   0.382   2.864  15.906 -1.0367 -0.1146 -1.2904
  213MPD1     N 3243   0.223   2.669  15.531  0.1195 -0.1481  0.8619
  213MPD1    H5 3244   0.180   2.583  15.499 -0.1007 -0.0358  0.8569
  213MPD1    N1 3245   0.362   2.411  15.935 -0.1095  0.7516  0.2177
  213MPD1    H6 3246   0.347   2.406  16.035 -0.7075 -0.6816  0.0543
  213MPD1    H7 3247   0.297   2.338  15.907 -0.8804  0.2606  3.2985
  214MPD1     C 3248   4.540   2.117  14.860  0.0054  0.2821  0.3501
  214MPD1    C1 3249   4.529   2.129  14.995  0.7126 -0.0074  0.1945
  214MPD1    C2 3250   4.575   2.244  15.054 -0.9026  0.6725  0.1738
  214MPD1    C3 3251   4.637   2.347  14.982 -0.1223 -0.0341 -0.0738
  214MPD1    C4 3252   4.648   2.329  14.848  0.2046 -0.4131 -0.5402
  214MPD1    C5 3253   4.597   2.215  14.794  0.0432 -0.9904  0.7655
  214MPD1     H 3254   4.573   2.245  15.162 -0.3293  3.5588  0.1506
  214MPD1    H1 3255   4.702   2.398  14.783 -0.8802 -0.0158 -1.0152
  214MPD1    H2 3256   4.493   2.033  14.809  2.2061  0.3523 -1.8030
  214MPD1    H3 3257   4.595   2.229  14.687  1.2168 -0.0387  0.8523
  214MPD1     N 3258   4.694   2.461  15.035 -0.4116 -0.5441  0.1447
  214MPD1    H5 3259   0.003   2.527  14.965 -1.1675 -0.3215 -0.0266
  214MPD1    N1 3260   4.484   2.019  15.069 -0.1374  0.7125 -0.5433
  214MPD1    H6 3261   4.407   1.983  15.014 -0.4115 -1.1804  1.0966
  214MPD1    H7 3262   4.439   2.055  15.154  1.0540  2.2505 -0.5596
  215MPD1     C 3263   4.615   3.504  10.523  0.0706 -0.3886  0.1900
  215MPD1    C1 3264   4.592   3.629  10.469 -0.5769 -0.6106 -0.0154
  215MPD1    C2 3265   4.643   3.730  10.543  0.6946 -0.3742 -0.6250
  215MPD1    C3 3266   0.009   3.721  10.644 -1.2050  0.2158 -0.3371
  215MPD1    C4 3267   0.049   3.592  10.680  0.0247  0.9284 -0.2570
  215MPD1    C5 3268   4.700   3.486  10.627 -0.2624 -0.0639  0.1056
  215MPD1     H 3269   4.627   3.831  10.508  0.3687 -0.2959 -0.2465
  215MPD1    H1 3270   0.108   3.564  10.767  0.4208  1.4457 -0.3558
  215MPD1    H2 3271   4.559   3.423  10.477  1.9213 -0.7563 -1.3984
  215MPD1    H3 3272   4.705   3.387  10.671 -2.7106  0.3914  1.4217
  215MPD1     N 3273   0.038   3.836  10.719 -0.3228  0.4501 -0.3191
  215MPD1    H5 3274   4.723   3.923  10.687 -1.5510 -1.2868 -3.4324
  215MPD1    N1 3275   4.532   3.644  10.341 -0.0545  0.4440  0.1136
  215MPD1    H6 3276   4.451   3.707  10.347 -0.4871  0.0509 -1.4321
  215MPD1    H7 3277   4.508   3.548  10.316  0.7991  0.4518 -0.7094
  216MPD1     C 3278   2.942   2.363  17.533 -0.1764  0.0446  0.4212
  216MPD1    C1 3279   2.909   2.261  17.448  0.1752  0.3554 -0.4146
  216MPD1    C2 3280   2.802   2.174  17.477 -0.0301  0.7525  0.1956
  216MPD1    C3 3281   2.734   2.187  17.598 -0.0416 -0.2441 -0.0261
  216MPD1    C4 3282   2.773   2.288  17.679  0.6661  0.4229 -0.0520
  216MPD1    C5 3283   2.870   2.369  17.648 -0.6320  0.2483  0.2167
  216MPD1     H 3284   2.793   2.086  17.415  0.2691  0.6601  0.2868
  216MPD1    H1 3285   2.715   2.313   0.062  0.5667 -2.2500  0.6331
  216MPD1    H2 3286   3.028   2.428  17.522 -0.3167  0.0211 -0.8179
  216MPD1    H3 3287   2.899   2.454   0.004  1.3845  1.2039 -2.0780
  216MPD1     N 3288   2.621   2.105  17.624 -0.3919  0.1231 -0.2322
  216MPD1    H5 3289   2.611   2.034  17.552 -1.2979 -2.0128  2.0306
  216MPD1    N1 3290   2.986   2.251  17.336 -0.5718  0.2513 -0.0283
  216MPD1    H6 3291   3.073   2.302  17.349 -0.1938 -0.0828 -1.2290
  216MPD1    H7 3292   2.994   2.168  17.278 -0.9132 -0.3856  0.8540
  217MPD1     C 3293   2.651   3.197   8.437  0.0946 -0.0604 -0.6574
  217MPD1    C1 3294   2.712   3.072   8.443  0.3554  0.0257  0.5452
  217MPD1    C2 3295   2.715   3.011   8.566 -0.1651 -0.7677 -0.0326
  217MPD1    C3 3296   2.643   3.055   8.676  0.1299 -0.7645  0.3150
  217MPD1    C4 3297   2.571   3.168   8.665 -0.7423 -1.1456  0.4130
  217MPD1    C5 3298   2.578   3.239   8.546 -0.0608 -0.1590  0.0020
  217MPD1     H 3299   2.769   2.917   8.561 -0.0242 -0.7667  1.5969
  217MPD1    H1 3300   2.509   3.196   8.749 -1.3787  1.0838 -0.7750
  217MPD1    H2 3301   2.669   3.270   8.358  2.4789 -0.6072 -0.6300
  217MPD1    H3 3302   2.544   3.342   8.551  1.5479  0.3731  0.2123
  217MPD1     N 3303   2.630   2.980   8.803  0.2458 -0.2514  0.0946
  217MPD1    H5 3304   2.572   3.022   8.875 -0.9521 -0.6263 -0.6490
  217MPD1    N1 3305   2.815   3.042   8.348  0.2151 -0.3496 -0.1380
  217MPD1    H6 3306   2.786   3.062   8.252 -2.8029 -0.4725  0.7410
  217MPD1    H7 3307   2.829   2.942   8.352  2.7108 -0.1031 -2.5706
  218MPD1     C 3308   4.288   4.153  12.960  0.1161  0.4583 -0.3237
  218MPD1    C1 3309   4.318   4.041  12.879 -0.5497  1.3014  0.5784
  218MPD1    C2 3310   4.450   4.028  12.844  0.5505  0.2104 -0.2165
  218MPD1    C3 3311   4.550   4.121  12.880 -0.5559 -0.7958 -1.0086
  218MPD1    C4 3312   4.522   4.225  12.968 -0.4371 -0.2077  0.5812
  218MPD1    C5 3313   4.385   4.235  13.008 -0.2924  0.5485 -0.7907
  218MPD1     H 3314   4.481   3.955  12.770  1.0882  0.3403 -0.1181
  218MPD1    H1 3315   4.586   4.308  12.995  0.2988  0.3783 -2.9975
  218MPD1    H2 3316   4.184   4.166  12.987  0.5978 -1.1351  2.3827
  218MPD1    H3 3317   4.351   4.309  13.079 -2.3607 -0.5150 -0.6757
  218MPD1     N 3318   4.681   4.110  12.819 -0.4551  0.1187  0.4609
  218MPD1    H5 3319   4.687   4.042  12.744  2.3329  1.6477 -0.7237
  218MPD1    N1 3320   4.216   3.978  12.812  0.4039  0.6036  0.3713
  218MPD1    H6 3321   4.133   3.992  12.870 -1.4976 -0.4775 -2.1017
  218MPD1    H7 3322   4.240   3.879  12.809 -1.8260  0.0919 -0.8546
  219MPD1     C 3323   4.516   3.944  12.037 -0.7151 -0.2791 -0.0328
  219MPD1    C1 3324   4.625   4.027  12.009  0.2501  0.3319  0.0863
  219MPD1    C2 3325   4.706   4.059  12.121  0.3437  0.3733 -0.3223
  219MPD1    C3 3326   4.686   4.000  12.249  0.0054  0.2102 -0.6500
  219MPD1    C4 3327   4.590   3.906  12.261  0.3171  0.7248 -0.4991
  219MPD1    C5 3328   4.512   3.869  12.151 -1.4214 -0.2716  0.9349
  219MPD1     H 3329   0.056   4.135  12.107 -0.9999  1.6547 -0.6460
  219MPD1    H1 3330   4.574   3.847  12.351 -1.2059  0.1912 -1.1132
  219MPD1    H2 3331   4.443   3.918  11.961 -1.1729  0.7960  0.0491
  219MPD1    H3 3332   4.437   3.791  12.160  0.7899 -2.5947 -0.8211
  219MPD1     N 3333   0.035   4.033  12.366 -0.4013 -0.8533 -0.6270
  219MPD1    H5 3334   0.010   3.990  12.454 -2.3857 -0.4660 -0.9822
  219MPD1    N1 3335   4.647   4.098  11.892  0.2902  0.3672  0.2276
  219MPD1    H6 3336   0.018   4.128  11.882  0.3905 -0.4542 -1.1976
  219MPD1    H7 3337   4.613   4.043  11.813 -3.3583  1.0939  1.2736
  220MPD1     C 3338   3.840   0.334   9.938  0.9428 -0.0400  0.6277
  220MPD1    C1 3339   3.954   0.366  10.006 -0.0557 -0.1390 -0.2094
  220MPD1    C2 3340   4.052   0.269  10.012  0.1079 -0.1521  0.0465
  220MPD1    C3 3341   4.037   0.140   9.961 -0.6586 -0.7161 -0.1162
  220MPD1    C4 3342   3.917   0.114   9.899  0.0265 -0.2001  0.2297
  220MPD1    C5 3343   3.820   0.207   9.886 -0.0075  0.4414 -0.0519
  220MPD1     H 3344   4.144   0.300  10.060  1.2781 -2.8221 -0.4636
  220MPD1    H1 3345   3.895   0.019   9.851  1.7914 -0.8094  0.6187
  220MPD1    H2 3346   3.757   0.403   9.930  1.4665  0.4910 -0.2556
  220MPD1    H3 3347   3.727   0.182   9.836  1.2999 -0.2041 -2.1350
  220MPD1     N 3348   4.147   0.055   9.978  0.7901  0.6325  0.6166
  220MPD1    H5 3349   4.229   0.090  10.026  1.0961 -1.9290  1.9289
  220MPD1    N1 3350   3.965   0.495  10.059 -0.0828 -0.0932 -0.3169
  220MPD1    H6 3351   4.046   0.507  10.120 -0.3000 -2.0779  0.3643
  220MPD1    H7 3352   3.881   0.515  10.113  0.2607 -1.2400  0.6506
  221MPD1     C 3353   1.886   3.815  16.605  0.2648 -0.4118  0.7163
  221MPD1    C1 3354   1.955   3.860  16.500  0.0257  0.0539  0.8994
  221MPD1    C2 3355   2.081   3.818  16.489  0.0179  0.3215  0.6568
  221MPD1    C3 3356   2.135   3.722  16.575 -0.3223 -0.4607  0.5977
  221MPD1    C4 3357   2.053   3.664  16.674  0.3214 -0.0232  0.2420
  221MPD1    C5 3358   1.928   3.714  16.693  0.1327 -0.5478 -0.2357
  221MPD1     H 3359   2.137   3.867  16.411 -1.2300 -0.3229 -0.6560
  221MPD1    H1 3360   2.093   3.587  16.739  0.1382  0.5469  1.0296
  221MPD1    H2 3361   1.783   3.845  16.621 -0.1971 -1.1875 -0.7648
  221MPD1    H3 3362   1.875   3.682  16.782 -0.0660  0.0390 -0.1434
  221MPD1     N 3363   2.257   3.669  16.562  0.3079  0.5164 -0.6352
  221MPD1    H5 3364   2.280   3.591  16.624 -0.0627  0.7685 -0.1845
  221MPD1    N1 3365   1.909   3.974  16.425  0.1896 -0.2893 -0.0676
  221MPD1    H6 3366   1.943   3.963  16.329 -0.7127  0.5729 -0.4843
  221MPD1    H7 3367   1.809   3.962  16.410  0.3906 -0.7353 -1.0816
  222MPD1     C 3368   2.755   2.068  16.890  0.1355  0.3013  0.0661
  222MPD1    C1 3369   2.619   2.063  16.862  0.0950 -0.2517  0.2931
  222MPD1    C2 3370   2.538   2.135  16.955  0.6799  0.6018  1.0847
  222MPD1    C3 3371   2.593   2.215  17.066  0.0766  0.1022 -0.1249
  222MPD1    C4 3372   2.730   2.228  17.075 -0.3139  1.1595 -0.3560
  222MPD1    C5 3373   2.804   2.145  16.990 -0.1755 -0.1374 -0.9573
  222MPD1     H 3374   2.432   2.115  16.949  1.0205 -0.2152 -2.3957
  222MPD1    H1 3375   2.771   2.275  17.163  2.3428 -0.8042 -0.5530
  222MPD1    H2 3376   2.828   2.015  16.830  1.5057 -1.5010  3.3028
  222MPD1    H3 3377   2.903   2.126  17.031 -1.2132 -1.7787  0.7823
  222MPD1     N 3378   2.514   2.277  17.166  0.3649 -0.1544  0.0141
  222MPD1    H5 3379   2.563   2.330  17.238  0.3716  0.2373 -0.2781
  222MPD1    N1 3380   2.575   1.970  16.767 -0.0699  0.1512 -0.1732
  222MPD1    H6 3381   2.486   1.996  16.724 -0.0751  1.6194  0.7104
  222MPD1    H7 3382   2.641   1.951  16.691 -1.7407  0.4250 -1.6848
  223MPD1     C 3383   1.818   1.810  17.703 -0.4828 -0.9256  0.8466
  223MPD1    C1 3384   1.873   1.791  17.578 -0.5815 -0.1977 -0.2487
  223MPD1    C2 3385   1.941   1.886  17.514 -0.1572  0.2633 -0.6101
  223MPD1    C3 3386   1.973   2.007  17.573 -0.2507 -0.3208 -0.2712
  223MPD1    C4 3387   1.926   2.028   0.000 -0.4585 -0.4600 -0.0445
  223MPD1    C5 3388   1.845   1.932   0.059  0.1618  0.7169 -0.8429
  223MPD1     H 3389   1.973   1.864  17.413 -3.4989 -1.0713 -1.3538
  223MPD1    H1 3390   1.938   2.121   0.054  0.3939 -0.3901 -0.3530
  223MPD1    H2 3391   1.758   1.733   0.045  2.3230 -2.6879  1.5711
  223MPD1    H3 3392   1.811   1.949   0.161 -3.5365  0.8093 -2.1140
  223MPD1     N 3393   2.063   2.098  17.512  0.0851 -0.6932 -0.1037
  223MPD1    H5 3394   2.091   2.079  17.417 -0.0660 -1.9937  0.1113
  223MPD1    N1 3395   1.844   1.670  17.511  0.2251 -0.0846  0.0931
  223MPD1    H6 3396   1.922   1.632  17.458 -0.8247  2.6064 -3.3021
  223MPD1    H7 3397   1.796   1.596  17.563 -0.1091  1.4421  1.9476
  224MPD1     C 3398   2.745   3.393   8.926 -0.0161 -0.5620 -0.4917
  224MPD1    C1 3399   2.720   3.516   8.978  0.1186  0.6227 -0.6569
  224MPD1    C2 3400   2.779   3.555   9.101 -0.2053  0.2240  0.2244
  224MPD1    C3 3401   2.867   3.462   9.154 -0.4275  0.4152 -0.2135
  224MPD1    C4 3402   2.889   3.337   9.100 -0.3604  0.4667 -0.1816
  224MPD1    C5 3403   2.820   3.300   8.986 -0.7588  0.0881  0.5397
  224MPD1     H 3404   2.753   3.650   9.146  0.2530  1.6052 -2.4235
  224MPD1    H1 3405   2.947   3.265   9.156  0.8697  0.4385 -1.4936
  224MPD1    H2 3406   2.695   3.359   8.836  3.0812 -1.1664 -1.9949
  224MPD1    H3 3407   2.824   3.199   8.947  0.1873  0.0597  0.7185
  224MPD1     N 3408   2.931   3.481   9.279  0.2824  0.3304  0.0601
  224MPD1    H5 3409   2.981   3.401   9.315  1.4800 -0.1386 -2.6272
  224MPD1    N1 3410   2.626   3.605   8.920  0.7011  0.3544  0.2606
  224MPD1    H6 3411   2.621   3.606   8.819 -2.1578 -0.5421  0.4063
  224MPD1    H7 3412   2.643   3.695   8.965 -1.4932 -0.5852  3.0031
  225MPD1     C 3413   0.273   0.280  12.254  0.0047 -0.4078 -0.6248
  225MPD1    C1 3414   0.162   0.310  12.183  0.8502 -0.3647 -0.1409
  225MPD1    C2 3415   0.036   0.248  12.219  0.2616  0.4122 -0.2317
  225MPD1    C3 3416   0.029   0.174  12.337 -0.1463 -0.0346 -0.2529
  225MPD1    C4 3417   0.147   0.153  12.409 -0.7467 -0.1914  0.3508
  225MPD1    C5 3418   0.270   0.209  12.376 -0.9878 -0.6366 -0.4811
  225MPD1     H 3419   4.679   0.271  12.153 -1.4782 -0.7641  1.5441
  225MPD1    H1 3420   0.149   0.095  12.501  0.2770 -0.4536  0.1611
  225MPD1    H2 3421   0.373   0.319  12.235  0.5154 -1.7107 -0.6049
  225MPD1    H3 3422   0.364   0.190  12.426 -0.4324  0.4088 -1.1241
  225MPD1     N 3423   4.641   0.116  12.392  0.2101 -0.0582  0.3083
  225MPD1    H5 3424   4.644   0.094  12.491  1.0448 -1.0579  0.0565
  225MPD1    N1 3425   0.173   0.379  12.065  0.3323 -0.1894 -0.3219
  225MPD1    H6 3426   0.238   0.456  12.076 -0.4034  0.6010 -1.5390
  225MPD1    H7 3427   0.083   0.422  12.043  0.7106  0.4542 -0.5915
  226MPD1     C 3428   2.358   3.457   9.299  0.4397  0.0997 -0.1779
  226MPD1    C1 3429   2.237   3.524   9.280 -0.3010 -1.1819 -0.2984
  226MPD1    C2 3430   2.232   3.660   9.319  0.2158  0.4476  0.2070
  226MPD1    C3 3431   2.340   3.718   9.371  0.0635 -0.2456 -0.6529
  226MPD1    C4 3432   2.456   3.649   9.400  0.6220 -0.3808 -0.0319
  226MPD1    C5 3433   2.466   3.516   9.355 -0.1621  0.4920 -1.0027
  226MPD1     H 3434   2.144   3.715   9.288 -0.2163 -0.2146  0.2489
  226MPD1    H1 3435   2.539   3.690   9.455 -0.1845  2.6135 -1.0289
  226MPD1    H2 3436   2.362   3.354   9.268 -1.0573 -0.4815  1.5769
  226MPD1    H3 3437   2.555   3.459   9.379 -2.7019 -2.7359  0.7693
  226MPD1     N 3438   2.332   3.855   9.399  0.2459 -0.5819 -0.1358
  226MPD1    H5 3439   2.252   3.907   9.365 -0.0038 -1.7205 -1.2692
  226MPD1    N1 3440   2.138   3.471   9.190  0.3274 -0.2321 -0.5683
  226MPD1    H6 3441   2.046   3.505   9.218  0.0158 -0.7919 -0.9093
  226MPD1    H7 3442   2.141   3.369   9.191 -0.3248 -0.2387  2.9581
  227MPD1     C 3443   1.641   4.516   9.585 -0.0609 -0.0642 -0.1984
  227MPD1    C1 3444   1.756   4.588   9.625  0.0348 -0.5600 -0.2284
  227MPD1    C2 3445   1.875   4.518   9.623 -0.4849 -0.2191 -0.2194
  227MPD1    C3 3446   1.885   4.397   9.560 -0.0079 -0.4796 -0.0376
  227MPD1    C4 3447   1.772   4.327   9.521  0.1944 -0.4039 -0.2620
  227MPD1    C5 3448   1.650   4.387   9.539  0.0055  0.5807 -0.1192
  227MPD1     H 3449   1.966   4.573   9.642 -0.9852  0.7304 -0.5612
  227MPD1    H1 3450   1.773   4.225   9.483 -3.1418 -1.3300  2.0718
  227MPD1    H2 3451   1.541   4.559   9.586  0.1930  0.4834  1.7118
  227MPD1    H3 3452   1.560   4.331   9.515 -0.8632  2.0008 -0.2010
  227MPD1     N 3453   2.014   4.345   9.554  0.4325 -0.4518 -0.0678
  227MPD1    H5 3454   2.090   4.412   9.566  0.5315 -0.4116 -0.8965
  227MPD1    N1 3455   1.756   4.720   9.663 -0.2587  0.7850 -0.0646
  227MPD1    H6 3456   1.664   0.021   9.697 -0.6895  1.1558 -1.4934
  227MPD1    H7 3457   1.827   0.009   9.733 -0.9938 -0.9243  1.0514
  228MPD1     C 3458   1.551   2.525  12.694 -0.5266  0.0368  0.2123
  228MPD1    C1 3459   1.506   2.656  12.712 -0.8195 -0.0505  0.5273
  228MPD1    C2 3460   1.378   2.682  12.764 -0.4002  0.2372  0.3087
  228MPD1    C3 3461   1.304   2.573  12.811  0.2827 -0.7863  0.2829
  228MPD1    C4 3462   1.351   2.441  12.797  0.5320  0.7360 -0.4763
  228MPD1    C5 3463   1.471   2.420  12.731 -0.0485  0.2504 -0.6495
  228MPD1     H 3464   1.330   2.778  12.775 -0.0483  0.1772  2.2628
  228MPD1    H1 3465   1.300   2.351  12.829  0.6212  0.4888 -1.0333
  228MPD1    H2 3466   1.649   2.503  12.652 -0.5181 -0.6652  0.6022
  228MPD1    H3 3467   1.524   2.326  12.716 -0.7388 -0.0540 -1.1894
  228MPD1     N 3468   1.173   2.605  12.851  0.2169 -0.4827  0.3073
  228MPD1    H5 3469   1.147   2.703  12.854 -0.3114 -0.6984  2.4884
  228MPD1    N1 3470   1.584   2.763  12.678 -0.1955 -0.4954  0.5786
  228MPD1    H6 3471   1.584   2.841  12.744 -1.5404  1.7084 -2.0457
  228MPD1    H7 3472   1.682   2.735  12.680 -0.1334 -0.3509 -0.6180
  229MPD1     C 3473   1.028   1.920  15.015 -0.1509  0.0911  0.2563
  229MPD1    C1 3474   1.106   1.889  14.907 -0.4526  0.0411 -0.2269
  229MPD1    C2 3475   1.191   1.780  14.923  0.4533  0.3501  0.2398
  229MPD1    C3 3476   1.204   1.708  15.035  0.8563  0.0936 -0.1267
  229MPD1    C4 3477   1.110   1.734  15.135 -0.4874 -0.3937  0.3843
  229MPD1    C5 3478   1.037   1.849  15.126  0.7011 -0.4650 -0.1964
  229MPD1     H 3479   1.245   1.755  14.833 -0.4311 -2.4365  0.4842
  229MPD1    H1 3480   1.097   1.675  15.226  3.1136 -2.0557 -0.1677
  229MPD1    H2 3481   0.970   2.012  15.021 -0.2007  0.1263 -0.7622
  229MPD1    H3 3482   0.970   1.862  15.211 -0.2901 -0.0483 -1.0383
  229MPD1     N 3483   1.287   1.592  15.049 -0.7625  0.4808  0.8036
  229MPD1    H5 3484   1.280   1.540  15.136 -0.9525 -1.5561 -0.4333
  229MPD1    N1 3485   1.097   1.973  14.798 -0.0933  0.0470  0.5249
  229MPD1    H6 3486   1.004   1.979  14.757  0.8550  0.1485 -1.6124
  229MPD1    H7 3487   1.151   1.932  14.721  0.8587 -0.5844  1.5221
  230MPD1     C 3488   1.390   0.767  15.535 -0.2831  0.3781 -0.1769
  230MPD1    C1 3489   1.354   0.732  15.410 -0.0255 -0.3107  0.0345
  230MPD1    C2 3490   1.355   0.841  15.322 -0.0337  0.2989  0.0104
  230MPD1    C3 3491   1.403   0.968  15.353  0.5864 -0.3081  0.3223
  230MPD1    C4 3492   1.447   0.987  15.481 -0.4386  0.3390  0.4559
  230MPD1    C5 3493   1.437   0.891  15.572 -0.0311  0.0652 -0.0066
  230MPD1     H 3494   1.340   0.820  15.217  0.7942 -0.6689  0.0790
  230MPD1    H1 3495   1.495   1.078  15.516 -1.5427  0.2757  2.1791
  230MPD1    H2 3496   1.368   0.690  15.608  3.2619 -1.0734 -0.6078
  230MPD1    H3 3497   1.458   0.900  15.678 -1.6496  1.4846  0.1939
  230MPD1     N 3498   1.421   1.061  15.254 -0.0576  0.6793 -0.4317
  230MPD1    H5 3499   1.415   1.019  15.161 -1.7338  2.2661 -1.0378
  230MPD1    N1 3500   1.298   0.605  15.379  0.1720 -0.5058 -0.4480
  230MPD1    H6 3501   1.296   0.579  15.281  1.3116 -0.7142 -0.4163
  230MPD1    H7 3502   1.335   0.527  15.433 -1.6369 -1.1486 -0.1608
  231MPD1     C 3503   4.394   2.535  15.548 -0.0784 -0.1856 -0.1906
  231MPD1    C1 3504   4.410   2.662  15.593 -0.3827  0.0128 -0.0460
  231MPD1    C2 3505   4.389   2.767  15.507 -0.4089 -0.5800  0.0377
  231MPD1    C3 3506   4.388   2.746  15.375 -0.5815 -0.5204 -0.1611
  231MPD1    C4 3507   4.369   2.615  15.331 -0.0038 -0.2976 -0.0815
  231MPD1    C5 3508   4.364   2.515  15.415 -0.0031 -0.7849  0.1686
  231MPD1     H 3509   4.391   2.870  15.541  4.4108 -0.9432  0.8465
  231MPD1    H1 3510   4.352   2.590  15.227 -2.6714 -0.6878  0.4619
  231MPD1    H2 3511   4.393   2.452  15.618 -0.5368  1.4799  1.7699
  231MPD1    H3 3512   4.360   2.411  15.384 -1.8820 -1.0410  1.2840
  231MPD1     N 3513   4.396   2.861  15.293  0.0167 -0.0189  0.1943
  231MPD1    H5 3514   4.404   2.956  15.330 -0.4664  0.7022 -1.5351
  231MPD1    N1 3515   4.430   2.686  15.730  0.0315  0.2280 -0.7237
  231MPD1    H6 3516   4.485   2.618  15.781  0.7396  1.0998 -0.3171
  231MPD1    H7 3517   4.475   2.777  15.739 -0.1182  0.1762  0.5485
  232MPD1     C 3518   1.646   1.437  17.413 -0.0806  0.1470  0.0904
  232MPD1    C1 3519   1.557   1.485  17.497  0.4805 -0.6488 -1.0715
  232MPD1    C2 3520   1.578   1.466  17.636  0.7505 -0.5623 -0.3388
  232MPD1    C3 3521   1.685   1.396  17.683  0.2963  0.2863 -0.0744
  232MPD1    C4 3522   1.766   1.342  17.593 -0.3028 -0.0390 -0.0662
  232MPD1    C5 3523   1.749   1.361  17.462  0.1237  0.1466  0.3445
  232MPD1     H 3524   1.507   1.506   0.002 -0.4024 -0.1540 -1.7219
  232MPD1    H1 3525   1.854   1.289  17.629 -0.6333  0.4488  1.4654
  232MPD1    H2 3526   1.640   1.458  17.307 -0.1890  0.0637  0.0805
  232MPD1    H3 3527   1.822   1.321  17.392  3.1966  1.4843  2.7810
  232MPD1     N 3528   1.703   1.382   0.120  0.2934 -0.4846 -0.2896
  232MPD1    H5 3529   1.634   1.432   0.176  0.8275  1.0221 -0.9565
  232MPD1    N1 3530   1.451   1.565  17.452 -0.5455 -0.5513  0.3776
  232MPD1    H6 3531   1.379   1.572  17.523  1.2859 -1.9722  2.3976
  232MPD1    H7 3532   1.419   1.540  17.359 -0.7721  0.0610  0.2986
  233MPD1     C 3533   2.325   3.478   1.669  0.1369  0.9459  0.8732
  233MPD1    C1 3534   2.358   3.608   1.643  0.8387  0.5793  1.0081
  233MPD1    C2 3535   2.488   3.629   1.607 -0.2203 -0.1901  0.1909
  233MPD1    C3 3536   2.588   3.531   1.610 -0.5613 -0.1780 -0.1164
  233MPD1    C4 3537   2.558   3.403   1.653  0.7551 -0.0307  0.4582
  233MPD1    C5 3538   2.421   3.382   1.678 -0.3216 -0.0754  0.2134
  233MPD1     H 3539   2.518   3.725   1.568 -0.3135  0.2536  1.2107
  233MPD1    H1 3540   2.632   3.325   1.652  0.5939 -0.2027  1.5831
  233MPD1    H2 3541   2.228   3.447   1.706  0.2939  2.2347  2.3396
  233MPD1    H3 3542   2.377   3.285   1.698  2.0280 -1.3459 -0.6928
  233MPD1     N 3543   2.727   3.566   1.602 -0.0027 -0.4643 -0.2506
  233MPD1    H5 3544   2.789   3.489   1.627 -2.0232 -1.8333  0.5760
  233MPD1    N1 3545   2.264   3.709   1.626  0.0914 -0.6225 -0.5032
  233MPD1    H6 3546   2.172   3.694   1.669 -0.0727 -0.7561 -0.9043
  233MPD1    H7 3547   2.305   3.798   1.654  1.6706 -1.2422 -0.8545
  234MPD1     C 3548   3.748   1.852   9.735  0.0583 -0.6788 -0.1342
  234MPD1    C1 3549   3.618   1.863   9.688 -0.5812 -0.9244  0.7247
  234MPD1    C2 3550   3.564   1.990   9.701  0.7939  0.3833 -0.4638
  234MPD1    C3 3551   3.626   2.099   9.769  0.9286  0.0295  0.5460
  234MPD1    C4 3552   3.749   2.075   9.828  0.5704 -0.3819  0.1656
  234MPD1    C5 3553   3.808   1.953   9.809 -0.3051  0.2032  0.6195
  234MPD1     H 3554   3.477   2.010   9.639 -0.3435 -1.5941  0.4949
  234MPD1    H1 3555   3.811   2.152   9.871 -0.4971 -0.1136  1.2242
  234MPD1    H2 3556   3.802   1.759   9.718  1.2718 -0.1279  0.6645
  234MPD1    H3 3557   3.904   1.935   9.856  0.1875 -0.2236 -0.5627
  234MPD1     N 3558   3.561   2.224   9.757 -0.4889 -0.2117  0.0604
  234MPD1    H5 3559   3.474   2.222   9.705  1.4732  1.4748 -3.3210
  234MPD1    N1 3560   3.555   1.758   9.617  0.9549 -0.4982  0.1556
  234MPD1    H6 3561   3.457   1.753   9.644  1.1474 -1.5027  0.6787
  234MPD1    H7 3562   3.595   1.665   9.628  1.1179 -0.3676  0.6383
  235MPD1     C 3563   0.160   0.263  11.057  0.3226 -0.4189  0.3333
  235MPD1    C1 3564   0.243   0.362  11.099  0.3756  0.1943  1.0251
  235MPD1    C2 3565   0.302   0.441  10.998  0.0204  0.2446 -0.3526
  235MPD1    C3 3566   0.272   0.420  10.863 -0.3706  0.5345 -0.0434
  235MPD1    C4 3567   0.187   0.311  10.827  0.0838 -0.1936 -0.7945
  235MPD1    C5 3568   0.132   0.229  10.926  0.3878 -0.2380 -0.7801
  235MPD1     H 3569   0.368   0.524  11.021 -1.3366  1.2800 -0.1652
  235MPD1    H1 3570   0.156   0.288  10.726  1.3116 -0.6363 -1.0725
  235MPD1    H2 3571   0.101   0.208  11.130 -0.5467 -2.6410 -1.9977
  235MPD1    H3 3572   0.049   0.162  10.907 -0.1372  0.3986 -0.7242
  235MPD1     N 3573   0.326   0.503  10.770  0.6934  1.0904  0.2811
  235MPD1    H5 3574   0.400   0.567  10.799  0.3053  1.9876 -0.7069
  235MPD1    N1 3575   0.247   0.408  11.234  0.4253 -0.5607 -0.3609
  235MPD1    H6 3576   0.340   0.446  11.252  0.3168 -0.7116  0.5413
  235MPD1    H7 3577   0.235   0.337  11.306 -0.2436  1.5220  1.5818
  236MPD1     C 3578   4.704   1.906  10.195  0.0739  0.6247 -0.4867
  236MPD1    C1 3579   4.584   1.837  10.194 -0.2430 -0.6019  0.1652
  236MPD1    C2 3580   4.588   1.713  10.261 -0.4523  0.6607 -0.1794
  236MPD1    C3 3581   4.707   1.657  10.309 -0.0561 -0.2874  0.1067
  236MPD1    C4 3582   0.098   1.732  10.293 -0.4100  0.0530 -0.0567
  236MPD1    C5 3583   0.096   1.845  10.236  1.0182 -0.3407  0.4806
  236MPD1     H 3584   4.496   1.659  10.276 -0.1563 -0.3391 -1.9505
  236MPD1    H1 3585   0.193   1.705  10.337 -0.6137 -0.6678 -0.0500
  236MPD1    H2 3586   4.712   2.010  10.166 -0.1705  1.1616  1.4130
  236MPD1    H3 3587   0.189   1.899  10.228  0.0758  1.0630 -1.1141
  236MPD1     N 3588   4.711   1.529  10.377  0.2185 -0.2064 -0.0251
  236MPD1    H5 3589   0.074   1.498  10.416  0.3200 -1.2460 -1.0787
  236MPD1    N1 3590   4.461   1.894  10.161 -0.2361  0.1929 -0.2445
  236MPD1    H6 3591   4.379   1.835  10.145  0.3986 -0.9358  0.7334
  236MPD1    H7 3592   4.471   1.957  10.082  0.2946 -0.0259 -0.3487
  237MPD1     C 3593   4.362   0.238  15.572 -0.3318  0.6931 -0.0737
  237MPD1    C1 3594   4.347   0.131  15.659 -0.2500  1.4007  0.2055
  237MPD1    C2 3595   4.331   0.003  15.608  0.4593  0.5242 -0.2744
  237MPD1    C3 3596   4.330   4.705  15.473 -0.3570  0.0302 -0.0012
  237MPD1    C4 3597   4.333   0.084  15.388 -0.0130 -0.3643 -0.2303
  237MPD1    C5 3598   4.356   0.213  15.435 -0.5992  0.0697 -0.1553
  237MPD1     H 3599   4.333   4.653  15.685  1.5823  0.5922 -0.2246
  237MPD1    H1 3600   4.342   0.073  15.281 -0.0969  2.1587 -0.4849
  237MPD1    H2 3601   4.398   0.333  15.611 -5.4193  2.4464  0.3804
  237MPD1    H3 3602   4.370   0.302  15.374  1.8048 -0.6500 -0.6660
  237MPD1     N 3603   4.326   4.576  15.421 -0.2674 -0.4010  0.1364
  237MPD1    H5 3604   4.322   4.574  15.320  2.9586  0.1925 -0.0225
  237MPD1    N1 3605   4.338   0.151  15.799 -0.0937 -0.1016  0.4215
  237MPD1    H6 3606   4.344   0.057  15.839 -0.7755  0.8978  2.8810
  237MPD1    H7 3607   4.427   0.192  15.825 -2.0367  3.1269  1.9392
  238MPD1     C 3608   1.392   3.340  15.262 -0.4991 -0.0042 -0.2681
  238MPD1    C1 3609   1.378   3.206  15.288 -0.1165 -0.7118 -0.5876
  238MPD1    C2 3610   1.330   3.119  15.187 -0.2505 -0.1560 -0.1763
  238MPD1    C3 3611   1.315   3.170  15.062  0.1540  0.0704  0.4309
  238MPD1    C4 3612   1.341   3.300  15.036 -0.0790  0.0803  0.6071
  238MPD1    C5 3613   1.376   3.390  15.135 -0.5355 -0.5859  0.3379
  238MPD1     H 3614   1.292   3.022  15.218 -1.9007  0.2037 -1.1047
  238MPD1    H1 3615   1.319   3.347  14.941 -0.6456  2.4006  1.8793
  238MPD1    H2 3616   1.419   3.408  15.342  0.9337  1.1498 -1.7058
  238MPD1    H3 3617   1.388   3.495  15.112 -0.2578 -0.6040  0.4004
  238MPD1     N 3618   1.255   3.094  14.956 -0.0984 -0.2647  0.2073
  238MPD1    H5 3619   1.234   3.147  14.872  0.6928 -1.6468 -0.8571
  238MPD1    N1 3620   1.380   3.170  15.422  0.1166 -0.2454  0.0691
  238MPD1    H6 3621   1.391   3.072  15.445  2.0719 -0.2764 -1.0212
  238MPD1    H7 3622   1.446   3.231  15.469  0.1654  0.6963 -1.1954
  239MPD1     C 3623   2.263   3.981  14.627  0.4244  0.7041 -0.2476
  239MPD1    C1 3624   2.148   4.055  14.665  0.4697 -0.1238 -0.2324
  239MPD1    C2 3625   2.036   4.045  14.581  0.1587 -0.1920  0.2343
  239MPD1    C3 3626   2.034   3.957  14.469  0.1955 -0.4269 -0.6930
  239MPD1    C4 3627   2.143   3.879  14.443 -0.2675  0.2094 -0.6054
  239MPD1    C5 3628   2.260   3.899  14.516 -0.5170 -1.0918 -0.1883
  239MPD1     H 3629   1.953   4.108  14.613 -0.0638 -1.5508  2.3233
  239MPD1    H1 3630   2.136   3.809  14.360 -2.1607 -0.7610  0.3691
  239MPD1    H2 3631   2.343   3.984  14.699  1.6905  2.9817 -1.7647
  239MPD1    H3 3632   2.345   3.837  14.490  1.2642  1.2411  0.1119
  239MPD1     N 3633   1.924   3.935  14.388 -0.3543 -0.0549 -0.0680
  239MPD1    H5 3634   1.948   3.863  14.320  2.1138  0.6899  0.0162
  239MPD1    N1 3635   2.154   4.159  14.758 -0.9003 -0.5693 -0.4565
  239MPD1    H6 3636   2.214   4.127  14.834 -2.0555 -1.8955 -0.0989
  239MPD1    H7 3637   2.064   4.182  14.801 -0.4060 -0.5734  0.5870
  240MPD1     C 3638   0.981   3.657  14.007  0.4470 -0.2861  0.1538
  240MPD1    C1 3639   0.881   3.567  13.989  0.0283 -0.5668  0.7035
  240MPD1    C2 3640   0.870   3.469  14.091  0.0924  0.5916 -0.4678
  240MPD1    C3 3641   0.941   3.497  14.211  1.0296  0.3468 -0.4290
  240MPD1    C4 3642   1.038   3.595  14.223  0.4923  0.1565 -0.3887
  240MPD1    C5 3643   1.066   3.670  14.112 -1.1145  0.3874  0.1954
  240MPD1     H 3644   0.807   3.381  14.082 -1.1583  1.7072 -2.4973
  240MPD1    H1 3645   1.099   3.612  14.310  1.0946  1.8407 -1.1548
  240MPD1    H2 3646   0.992   3.733  13.930  2.8166 -1.1039 -0.3148
  240MPD1    H3 3647   1.122   3.763  14.122 -0.0295 -0.2028 -0.4415
  240MPD1     N 3648   0.891   3.417  14.324 -0.0417 -0.2303  0.1100
  240MPD1    H5 3649   0.811   3.355  14.310  1.0974 -2.1501  2.1819
  240MPD1    N1 3650   0.837   3.540  13.857  0.0235  0.1126 -0.5740
  240MPD1    H6 3651   0.746   3.494  13.857 -0.4590  1.0784 -0.0710
  240MPD1    H7 3652   0.826   3.626  13.805  1.0439  0.3491 -0.3944
  241MPD1     C 3653   0.958   3.468  15.308  0.0679  0.1593 -0.6557
  241MPD1    C1 3654   0.934   3.330  15.282 -0.7528 -0.3512  0.3838
  241MPD1    C2 3655   0.948   3.276  15.153 -0.6070  0.4889 -0.3282
  241MPD1    C3 3656   0.989   3.357  15.047 -0.5293 -0.3888 -0.0205
  241MPD1    C4 3657   1.029   3.485  15.083 -0.9373 -0.1312 -1.1490
  241MPD1    C5 3658   1.015   3.535  15.207 -0.1753 -0.3533 -1.1196
  241MPD1     H 3659   0.920   3.171  15.145 -0.7056  0.4589  0.4195
  241MPD1    H1 3660   1.072   3.557  15.014 -2.7938  2.7501  0.7312
  241MPD1    H2 3661   0.956   3.510  15.408  0.4128  2.3344 -1.5533
  241MPD1    H3 3662   1.062   3.630  15.232  0.3880 -0.4142 -1.9387
  241MPD1     N 3663   0.977   3.320  14.910  0.3527 -0.2370 -0.6459
  241MPD1    H5 3664   1.026   3.382  14.845 -0.2337  0.1715 -0.6994
  241MPD1    N1 3665   0.916   3.240  15.387 -0.3688 -0.1190 -0.6533
  241MPD1    H6 3666   0.859   3.274  15.464  1.2680 -0.3967  0.6810
  241MPD1    H7 3667   0.873   3.153  15.357  3.0289 -1.2429 -2.3124
  242MPD1     C 3668   0.740   1.098  15.717 -0.1746  0.2859  0.3784
  242MPD1    C1 3669   0.833   1.167  15.799  0.3601 -0.0886  0.3139
  242MPD1    C2 3670   0.844   1.308  15.796  0.5205 -0.1194  0.0340
  242MPD1    C3 3671   0.795   1.372  15.682 -0.5493 -0.3802  0.0289
  242MPD1    C4 3672   0.723   1.296  15.588  0.9179  0.0108 -0.0329
  242MPD1    C5 3673   0.691   1.167  15.608  0.1678 -0.6758  0.6570
  242MPD1     H 3674   0.907   1.353  15.871  0.0173  0.5463  0.0557
  242MPD1    H1 3675   0.688   1.337  15.493  3.9845  0.5923 -0.9196
  242MPD1    H2 3676   0.699   0.999  15.733  2.8640 -1.8373 -4.8853
  242MPD1    H3 3677   0.628   1.121  15.533 -0.1117  1.2209 -0.2631
  242MPD1     N 3678   0.813   1.512  15.659 -0.2265  0.1114 -0.0476
  242MPD1    H5 3679   0.775   1.546  15.571 -0.9432 -0.9858 -0.1547
  242MPD1    N1 3680   0.872   1.102  15.911 -0.4067  0.0097  0.3065
  242MPD1    H6 3681   0.863   1.001  15.904  1.6928 -0.1528 -0.1543
  242MPD1    H7 3682   0.960   1.136  15.950 -0.4735 -0.7456  1.1290
  243MPD1     C 3683   2.619   0.350   0.071 -0.0275 -0.4006  0.1196
  243MPD1    C1 3684   2.735   0.277   0.090  0.4439 -0.3532 -0.0554
  243MPD1    C2 3685   2.818   0.274  17.681 -0.4517 -0.3068 -0.0749
  243MPD1    C3 3686   2.783   0.348  17.568 -0.4628 -0.1005 -0.7134
  243MPD1    C4 3687   2.665   0.425  17.561 -0.0112  0.0857 -0.1751
  243MPD1    C5 3688   2.579   0.420  17.668 -0.0148 -0.0077  0.1225
  243MPD1     H 3689   2.908   0.214  17.677  0.4163  1.0721 -1.3912
  243MPD1    H1 3690   2.629   0.494  17.486  1.1514  0.4245 -0.4215
  243MPD1    H2 3691   2.549   0.356   0.153  0.9885 -1.0282  1.0424
  243MPD1    H3 3692   2.485   0.472  17.655  1.1725  2.3169  0.6534
  243MPD1     N 3693   2.875   0.355  17.459 -0.3836  0.4414 -0.2927
  243MPD1    H5 3694   2.965   0.307  17.471 -1.7938 -2.0268  0.5062
  243MPD1    N1 3695   2.790   0.224   0.208 -0.2898  0.1405  0.0117
  243MPD1    H6 3696   2.718   0.174   0.260  1.3453 -0.2965  1.8554
  243MPD1    H7 3697   2.874   0.169   0.193 -2.4174 -3.8717  2.9994
  244MPD1     C 3698   3.737   0.070  17.299  0.0088 -0.4487  0.0392
  244MPD1    C1 3699   3.731   0.140  17.180  0.3088  0.7658  0.2587
  244MPD1    C2 3700   3.605   0.187  17.143 -0.2084  0.4779 -0.1098
  244MPD1    C3 3701   3.492   0.153  17.214  0.3587 -0.0654  0.5168
  244MPD1    C4 3702   3.507   0.063  17.323 -0.2091 -0.6055 -0.0826
  244MPD1    C5 3703   3.632   0.024  17.366 -0.4547  0.0103  0.7318
  244MPD1     H 3704   3.604   0.262  17.065 -1.0428  0.3344 -0.2399
  244MPD1    H1 3705   3.422   0.033  17.383 -2.5163  0.5362 -2.7719
  244MPD1    H2 3706   3.831   0.043  17.346 -0.9468 -1.0244  1.5992
  244MPD1    H3 3707   3.643   4.698  17.460  0.9646  0.9090  1.0639
  244MPD1     N 3708   3.371   0.211  17.175 -0.5993  0.1202  0.6556
  244MPD1    H5 3709   3.382   0.287  17.108 -0.6191 -0.6164 -0.1827
  244MPD1    N1 3710   3.848   0.177  17.112 -0.5075 -0.4122 -0.1370
  244MPD1    H6 3711   3.923   0.110  17.125 -1.0624 -0.4624  2.8928
  244MPD1    H7 3712   3.832   0.195  17.013 -1.3870  2.8291  0.5839
  245MPD1     C 3713   3.776   0.826  12.948  0.2625 -0.5054 -0.5374
  245MPD1    C1 3714   3.801   0.833  13.086  0.1950 -0.5507  0.3008
  245MPD1    C2 3715   3.885   0.943  13.130 -0.7278  0.1503 -0.5569
  245MPD1    C3 3716   3.917   1.046  13.046  0.2916  0.2537 -0.1093
  245MPD1    C4 3717   3.869   1.044  12.913  0.6710 -0.4698  0.0795
  245MPD1    C5 3718   3.803   0.932  12.866 -0.3547 -0.6937  0.2670
  245MPD1     H 3719   3.915   0.935  13.234 -0.6370 -2.2213 -0.7538
  245MPD1    H1 3720   3.888   1.123  12.841  2.7171 -0.9090  0.1517
  245MPD1    H2 3721   3.743   0.738  12.895  0.0995 -2.0752  2.1561
  245MPD1    H3 3722   3.769   0.931  12.763  0.1064 -1.8178  0.1277
  245MPD1     N 3723   3.996   1.149  13.102 -0.2402 -0.4679 -0.3619
  245MPD1    H5 3724   4.036   1.129  13.193  0.7348  2.2356 -0.1814
  245MPD1    N1 3725   3.793   0.715  13.159 -0.1031  0.8982 -0.5096
  245MPD1    H6 3726   3.795   0.737  13.259 -0.8805  1.1712 -0.5522
  245MPD1    H7 3727   3.732   0.644  13.117 -0.6264  2.4615 -2.3626
  246MPD1     C 3728   0.771   2.801  10.048 -0.6100  0.2160 -0.4474
  246MPD1    C1 3729   0.810   2.856   9.921  0.6355  0.4438  0.5161
  246MPD1    C2 3730   0.798   2.776   9.805  0.1052 -0.1994 -0.5074
  246MPD1    C3 3731   0.772   2.640   9.820 -0.1775 -0.0911 -0.0050
  246MPD1    C4 3732   0.777   2.588   9.942  0.5362  0.2091 -0.5657
  246MPD1    C5 3733   0.764   2.667  10.058 -1.3524  0.0530 -0.1764
  246MPD1     H 3734   0.814   2.831   9.713 -0.0353 -1.2033 -1.1313
  246MPD1    H1 3735   0.755   2.484   9.961  1.1309 -0.0211 -1.1081
  246MPD1    H2 3736   0.771   2.859  10.139 -1.6215 -1.3744  0.5486
  246MPD1    H3 3737   0.764   2.622  10.157 -1.2525  0.1498 -0.1324
  246MPD1     N 3738   0.769   2.567   9.701 -0.4717  0.0427 -0.0424
  246MPD1    H5 3739   0.782   2.613   9.612 -0.1370 -0.9185 -0.4899
  246MPD1    N1 3740   0.821   2.994   9.900  0.4475  0.7316 -0.1819
  246MPD1    H6 3741   0.857   3.042   9.982  1.5263 -0.9891  0.3574
  246MPD1    H7 3742   0.891   3.009   9.827  1.4655  0.5077  0.7424
  247MPD1     C 3743   3.615   0.906  16.224  0.0561  0.1843 -0.7746
  247MPD1    C1 3744   3.679   0.798  16.284  0.4879  0.1187  0.0475
  247MPD1    C2 3745   3.706   0.687  16.210 -0.0117  0.3082 -0.2326
  247MPD1    C3 3746   3.696   0.692  16.074  0.0892 -0.2293  0.5938
  247MPD1    C4 3747   3.632   0.794  16.012  0.0617  0.3128  0.5861
  247MPD1    C5 3748   3.588   0.904  16.089 -0.0026 -0.4266  0.0320
  247MPD1     H 3749   3.748   0.607  16.270 -1.2099 -0.1357  0.0061
  247MPD1    H1 3750   3.621   0.788  15.904  0.6446  0.7956  0.5040
  247MPD1    H2 3751   3.579   0.992  16.279  2.2662  1.3605 -1.1529
  247MPD1    H3 3752   3.534   0.989  16.048 -0.8213 -0.4160  1.1465
  247MPD1     N 3753   3.730   0.585  15.992  0.9040  0.1569 -0.6633
  247MPD1    H5 3754   3.691   0.597  15.900 -2.0062  3.5277  1.0290
  247MPD1    N1 3755   3.701   0.797  16.421 -0.3130  0.5554 -0.1528
  247MPD1    H6 3756   3.787   0.748  16.444  0.7747  1.5437 -2.0189
  247MPD1    H7 3757   3.709   0.892  16.456 -0.6074  1.6353 -3.0249
  248MPD1     C 3758   4.356   0.562   0.995 -0.0278  0.3764  0.0542
  248MPD1    C1 3759   4.239   0.633   0.998  0.1032  0.7605 -0.3716
  248MPD1    C2 3760   4.132   0.570   0.945 -0.3429 -0.0875 -0.5703
  248MPD1    C3 3761   4.129   0.445   0.883  0.0679  0.0555 -0.1815
  248MPD1    C4 3762   4.257   0.379   0.878 -0.3571  0.4802 -0.0017
  248MPD1    C5 3763   4.367   0.442   0.926  0.2877 -0.0106 -0.2866
  248MPD1     H 3764   4.035   0.616   0.963  0.0096  0.7216 -0.7324
  248MPD1    H1 3765   4.276   0.284   0.829  0.3660 -0.2690  1.7204
  248MPD1    H2 3766   4.452   0.606   1.021 -0.9855  1.6887  1.4505
  248MPD1    H3 3767   4.464   0.393   0.925 -0.0600 -0.6984 -0.3134
  248MPD1     N 3768   4.005   0.388   0.840  0.3035  0.4698  0.4358
  248MPD1    H5 3769   3.923   0.447   0.831  0.4127  0.5178 -0.2261
  248MPD1    N1 3770   4.229   0.752   1.075  0.1670  0.1298 -0.2207
  248MPD1    H6 3771   4.155   0.812   1.040 -0.5276 -0.1576  0.7452
  248MPD1    H7 3772   4.312   0.811   1.079 -0.0608  0.4765 -0.6181
  249MPD1     C 3773   1.088   4.355  10.244  0.4752 -0.2614 -0.0189
  249MPD1    C1 3774   1.175   4.454  10.207 -0.5065 -0.5335  0.2702
  249MPD1    C2 3775   1.138   4.532  10.100 -0.1540  0.2736 -0.4812
  249MPD1    C3 3776   1.015   4.527  10.042  0.4817  0.3652 -0.2617
  249MPD1    C4 3777   0.920   4.438  10.095  0.2737 -0.2472 -0.0444
  249MPD1    C5 3778   0.963   4.349  10.187 -0.1796 -0.2604  0.3843
  249MPD1     H 3779   1.214   4.599  10.060 -0.3493  1.1557  0.6260
  249MPD1    H1 3780   0.821   4.419  10.053 -0.3827  2.3576  0.3163
  249MPD1    H2 3781   1.114   4.281  10.319  1.8288 -1.6258 -1.8479
  249MPD1    H3 3782   0.896   4.269  10.219 -0.2348 -0.3816 -0.0435
  249MPD1     N 3783   0.986   4.612   9.933 -0.2987  0.4002 -0.0986
  249MPD1    H5 3784   1.049   4.676   9.886  1.3632 -1.7364 -0.8144
  249MPD1    N1 3785   1.299   4.465  10.267 -0.8199 -0.7367  0.0094
  249MPD1    H6 3786   1.359   4.538  10.230 -1.3402 -1.4712 -2.2681
  249MPD1    H7 3787   1.315   4.438  10.364 -1.6942 -0.1482  0.3165
  250MPD2     C 3788   2.710   4.055  13.552  0.4079 -0.0220  1.3630
  250MPD2    C1 3789   2.619   4.134  13.483 -0.0886 -1.0558 -0.0612
  250MPD2    C2 3790   2.488   4.098  13.476 -0.4110 -0.0920  0.4951
  250MPD2    C3 3791   2.448   3.968  13.511 -0.6895  0.2022  0.2711
  250MPD2    C4 3792   2.538   3.878  13.567 -0.8964  0.0514 -0.3271
  250MPD2    C5 3793   2.666   3.928  13.586 -0.0456 -0.1101 -0.5109
  250MPD2     H 3794   2.423   4.171  13.430 -0.3606 -0.6045 -0.3755
  250MPD2    H1 3795   2.509   3.777  13.594 -1.9941 -0.1845 -2.4529
  250MPD2    H2 3796   2.812   4.091  13.563  0.9473 -0.5881 -1.6907
  250MPD2    H3 3797   2.736   3.853  13.623  2.2792  1.5499 -1.5472
  250MPD2     N 3798   2.314   3.917  13.492  0.3791 -1.0863 -0.2325
  250MPD2    H5 3799   2.300   3.821  13.523  1.1833 -0.9061  0.6883
  250MPD2    N1 3800   2.666   4.253  13.440  0.4862 -0.2005  0.0041
  250MPD2    H7 3801   2.755   4.285  13.479  0.6964 -0.0247 -0.6124
  251TMC3    C1 3802   2.672   4.474  13.351  0.7654 -0.4809  0.5136
  251TMC3    C2 3803   2.598   4.587  13.345  1.1585 -0.2691  1.1326
  251TMC3    C3 3804   2.639   4.682  13.258 -0.0547 -0.0739  0.3401
  251TMC3    C4 3805   2.789   4.458  13.275  0.7100 -0.4044 -0.1722
  251TMC3    C5 3806   2.817   4.557  13.184 -0.1232  0.0107 -0.5028
  251TMC3    C6 3807   2.756   4.679  13.181 -0.6160  0.2318  0.8650
  251TMC3     C 3808   2.598   4.353  13.371  0.1105 -0.2421 -0.2620
  251TMC3     O 3809   2.487   4.359  13.322  0.1382 -0.1464 -0.1749
  251TMC3     H 3810   2.493   4.583  13.374  0.5414  2.8913 -0.7016
  251TMC3    H1 3811   2.847   4.367  13.285 -0.2617 -1.2005 -1.7797
  251TMC3    H2 3812   2.800   0.046  13.149  3.4115 -1.0553  2.6666
  251TMC3    C7 3813   2.930   4.541  13.108  0.1032  0.7087 -0.8267
  251TMC3    C8 3814   2.555   0.071  13.245  0.6972  0.0360  0.1730
  251TMC3    O1 3815   2.998   4.444  13.140 -0.3017  0.0723 -0.7427
  251TMC3    O2 3816   2.477   0.098  13.335  0.0974 -0.3825 -0.2377
  252TMC3    C1 3817   2.092   1.120   9.802 -0.6750 -0.9582 -0.4889
  252TMC3    C2 3818   2.202   1.134   9.724  0.8254  0.2987 -0.5016
  252TMC3    C3 3819   2.308   1.042   9.747  0.0412 -0.0338  0.3160
  252TMC3    C4 3820   2.075   1.020   9.895 -0.3377  0.0524  0.5416
  252TMC3    C5 3821   2.173   0.919   9.893  0.2750  0.3540  0.1082
  252TMC3    C6 3822   2.286   0.923   9.813 -0.0729 -0.7170 -0.2717
  252TMC3     C 3823   1.979   1.209   9.783  0.3616 -0.4612  0.2495
  252TMC3     O 3824   1.971   1.273   9.678  0.0140 -0.3828 -0.6468
  252TMC3     H 3825   2.213   1.226   9.667  1.0591 -0.4998 -1.7362
  252TMC3    H1 3826   1.984   0.982   9.940  0.2780 -0.7620  1.0963
  252TMC3    H2 3827   2.366   0.852   9.832 -1.7719 -2.0986  1.8385
  252TMC3    C7 3828   2.124   0.791   9.938  0.4417  0.1344  0.1222
  252TMC3    C8 3829   2.422   1.059   9.661 -0.1786  0.2835  0.1081
  252TMC3    O1 3830   2.012   0.776   9.987 -0.2058  0.2698 -0.6433
  252TMC3    O2 3831   2.409   1.144   9.572 -0.9742 -0.2408  0.0412
  253MPD2     C 3832   3.946   4.405  15.402  0.3136  0.7927  0.1148
  253MPD2    C1 3833   3.809   4.379  15.399 -0.4093  0.1695 -1.0934
  253MPD2    C2 3834   3.733   4.364  15.509  0.0747 -0.8232  0.3621
  253MPD2    C3 3835   3.791   4.385  15.634  0.1134 -0.1664 -0.0360
  253MPD2    C4 3836   3.925   4.416  15.650 -0.5640 -0.0197 -0.3207
  253MPD2    C5 3837   4.002   4.417  15.534  0.9224  0.2684 -1.1252
  253MPD2     H 3838   3.625   4.357  15.499 -0.0075 -0.5094  0.9755
  253MPD2    H1 3839   3.967   4.443  15.746 -0.7670 -2.4893  0.4422
  253MPD2    H2 3840   4.014   4.413  15.318  0.1173  0.5337 -0.0682
  253MPD2    H3 3841   4.106   4.445  15.545  0.9452 -0.4230  0.3596
  253MPD2     N 3842   3.716   4.372  15.756  0.0829  0.9455 -0.3341
  253MPD2    H5 3843   3.770   4.386  15.841  1.4694  1.3164 -1.2810
  253MPD2    N1 3844   3.743   4.376  15.276  0.2155 -0.0049  0.3649
  253MPD2    H7 3845   3.643   4.366  15.289  0.6940 -1.5691  2.6207
  254TMC3    C1 3846   3.542   4.304  15.907 -0.4542  0.4085  0.1187
  254TMC3    C2 3847   3.417   4.344  15.940 -0.3992 -0.4990 -0.9663
  254TMC3    C3 3848   3.376   4.332  16.068  0.3455  0.7416  0.0885
  254TMC3    C4 3849   3.634   4.274  16.004 -0.2886 -0.0209  0.4740
  254TMC3    C5 3850   3.591   4.262  16.132  0.3244  0.4535  0.0496
  254TMC3    C6 3851   3.462   4.284  16.162 -0.3551  0.5042  0.4930
  254TMC3     C 3852   3.582   4.340  15.767  0.8399 -0.7428  0.4285
  254TMC3     O 3853   3.495   4.342  15.681 -0.4949  0.4998  0.0609
  254TMC3     H 3854   3.369   4.401  15.862 -0.6699 -0.3772 -0.7136
  254TMC3    H1 3855   3.740   4.266  15.983 -0.1557  1.0309  0.7067
  254TMC3    H2 3856   3.428   4.292  16.265  0.3367 -0.0654  0.7656
  254TMC3    C7 3857   3.688   4.256  16.242 -0.4138  0.0500  0.4075
  254TMC3    C8 3858   3.274   4.423  16.132  0.1371 -0.8060  0.2358
  254TMC3    O1 3859   3.648   4.219  16.352  0.0598 -0.8758  0.2736
  254TMC3    O2 3860   3.262   4.435  16.252 -0.7778 -0.2301  0.6972
  255MPD2     C 3861   1.877   1.714  10.382 -0.7914  0.6182  0.4509
  255MPD2    C1 3862   1.907   1.850  10.383  0.6806 -0.2992 -0.2095
  255MPD2    C2 3863   2.021   1.890  10.321  0.4997 -0.4148  0.2496
  255MPD2    C3 3864   2.105   1.791  10.264 -0.1370 -0.1588  0.2657
  255MPD2    C4 3865   2.076   1.657  10.268  0.3848 -0.6093 -0.4855
  255MPD2    C5 3866   1.959   1.616  10.332 -0.0718  0.5772  0.0096
  255MPD2     H 3867   2.057   1.992  10.335  0.0568 -0.6191  2.9667
  255MPD2    H1 3868   2.142   1.580  10.230  1.6605  0.2434 -0.0034
  255MPD2    H2 3869   1.783   1.686  10.428 -0.8436  0.7911  0.4496
  255MPD2    H3 3870   1.935   1.512  10.353 -1.1729  0.4426 -1.9097
  255MPD2     N 3871   2.211   1.833  10.181  0.4686  0.5219  0.3526
  255MPD2    H5 3872   2.203   1.932  10.158 -1.1080  0.3659  0.2778
  255MPD2    N1 3873   1.840   1.950  10.454  0.0509 -0.4384 -0.4625
  255MPD2    H7 3874   1.890   2.038  10.464 -1.3270  0.8146 -4.7681
  256TMC3    C1 3875   1.672   2.066  10.555  0.1224  0.0256 -0.4742
  256TMC3    C2 3876   1.773   2.142  10.599 -0.2210 -0.1638  0.3760
  256TMC3    C3 3877   1.760   2.276  10.566 -0.7650 -0.4168  0.4460
  256TMC3    C4 3878   1.549   2.115  10.517  0.0797  0.1116  0.3709
  256TMC3    C5 3879   1.537   2.252  10.503 -0.6545 -0.6499 -0.6987
  256TMC3    C6 3880   1.643   2.335  10.534 -0.8230  0.5351 -0.2808
  256TMC3     C 3881   1.712   1.940  10.498  0.2844  0.2793  0.1916
  256TMC3     O 3882   1.621   1.857  10.474 -0.1782  0.2065  0.0432
  256TMC3     H 3883   1.869   2.103  10.632 -0.2957 -1.4875 -0.9552
  256TMC3    H1 3884   1.470   2.048  10.484  1.0256 -0.3303 -1.0074
  256TMC3    H2 3885   1.638   2.442  10.521 -1.8752  0.5981  0.6611
  256TMC3    C7 3886   1.481   2.282  10.368  0.0431  0.5039  0.0479
  256TMC3    C8 3887   1.862   2.300  10.461  0.5393 -0.4281  0.3228
  256TMC3    O1 3888   1.457   2.186  10.290 -0.1966 -0.5482 -0.2488
  256TMC3    O2 3889   1.938   2.206  10.434 -0.1289 -0.0797 -0.3595
  257MPD2     C 3890   1.262   4.596  13.638 -0.3233 -0.1223  0.4136
  257MPD2    C1 3891   1.243   4.535  13.515  0.5683  0.3078 -0.2164
  257MPD2    C2 3892   1.267   4.401  13.505 -0.9667  0.2987 -0.5318
  257MPD2    C3 3893   1.294   4.322  13.621 -0.4581  0.4831  0.1242
  257MPD2    C4 3894   1.317   4.390  13.741  0.8864 -0.2120  0.0456
  257MPD2    C5 3895   1.304   4.530  13.750  0.6486  0.2110  0.3177
  257MPD2     H 3896   1.274   4.353  13.408  1.3890  0.9991 -0.6993
  257MPD2    H1 3897   1.349   4.333  13.828  3.6668  2.1476  0.5790
  257MPD2    H2 3898   1.253   4.704  13.643 -0.5429 -0.1487  0.5707
  257MPD2    H3 3899   1.327   4.586  13.839 -1.4229 -0.9227  1.5677
  257MPD2     N 3900   1.308   4.186  13.620  0.4669 -0.2331  0.3034
  257MPD2    H5 3901   1.339   4.152  13.710  0.9357 -1.1678 -0.2033
  257MPD2    N1 3902   1.208   4.611  13.400  0.8038 -0.5728  0.0656
  257MPD2    H7 3903   1.207   4.712  13.402 -0.9374 -0.5639 -1.3041
  258TMC3    C1 3904   1.345   3.964  13.547 -0.1940  0.4895  0.5360
  258TMC3    C2 3905   1.396   3.891  13.445 -0.2682 -1.0473 -0.0362
  258TMC3    C3 3906   1.459   3.772  13.475 -0.0205 -0.2306  0.2324
  258TMC3    C4 3907   1.342   3.918  13.680  0.0884 -0.1746 -1.1770
  258TMC3    C5 3908   1.407   3.800  13.702  0.2880 -0.1001 -0.1331
  258TMC3    C6 3909   1.473   3.728  13.611 -0.2988 -0.3821 -0.5924
  258TMC3     C 3910   1.286   4.100  13.511 -0.9100  0.8068 -0.0021
  258TMC3     O 3911   1.236   4.112  13.402 -0.1581 -0.1035  0.1924
  258TMC3     H 3912   1.379   3.919  13.342  1.0042 -0.3458 -0.0548
  258TMC3    H1 3913   1.272   3.960  13.751 -0.5936 -2.8624 -0.2620
  258TMC3    H2 3914   1.523   3.634  13.629  0.6686  0.5224  1.4488
  258TMC3    C7 3915   1.390   3.750  13.832  0.4322 -0.2832  0.6129
  258TMC3    C8 3916   1.518   3.690  13.371 -0.0302 -0.1992 -0.2586
  258TMC3    O1 3917   1.279   3.776  13.876 -0.4210  0.0276  0.2180
  258TMC3    O2 3918   1.604   3.605  13.400  0.8717 -0.3626  0.0769
  259MPD2     C 3919   0.079   0.960   0.950 -0.2188 -0.1290 -0.3004
  259MPD2    C1 3920   0.156   1.070   0.975 -0.8305  0.4201  0.0974
  259MPD2    C2 3921   0.287   1.076   0.936  0.2691  0.4669  0.0886
  259MPD2    C3 3922   0.340   0.962   0.868  0.6813 -0.3016  0.4712
  259MPD2    C4 3923   0.260   0.854   0.840 -0.7806 -0.5200  0.0792
  259MPD2    C5 3924   0.131   0.853   0.877  0.4060 -1.2808 -0.4356
  259MPD2     H 3925   0.349   1.164   0.952  0.8996 -0.1009  0.7509
  259MPD2    H1 3926   0.295   0.765   0.790  2.9461  1.5098 -0.9395
  259MPD2    H2 3927   4.701   0.944   0.976 -0.4098  2.2440  0.3411
  259MPD2    H3 3928   0.079   0.770   0.831 -0.3283 -0.9529 -0.1984
  259MPD2     N 3929   0.477   0.962   0.819  0.0598  0.5138 -0.2021
  259MPD2    H5 3930   0.529   1.048   0.830 -0.3745  0.4766  2.1737
  259MPD2    N1 3931   0.100   1.169   1.060  0.4184  0.2714 -0.1908
  259MPD2    H7 3932   0.002   1.161   1.084  0.5273 -2.6428 -0.7749
  260TMC3    C1 3933   0.670   0.896   0.689 -0.5641  0.5191 -0.1531
  260TMC3    C2 3934   0.694   1.027   0.660  0.3992  0.6996  0.0997
  260TMC3    C3 3935   0.793   1.050   0.573  0.1760 -0.0483  0.4920
  260TMC3    C4 3936   0.746   0.787   0.635  0.0990 -1.1276 -0.0841
  260TMC3    C5 3937   0.851   0.821   0.551  0.5214 -0.0763 -0.1274
  260TMC3    C6 3938   0.870   0.954   0.514 -0.4022 -0.0286 -0.4587
  260TMC3     C 3939   0.546   0.866   0.753  0.0113 -0.0893 -0.8616
  260TMC3     O 3940   0.517   0.748   0.730 -0.0177  0.2559 -0.1121
  260TMC3     H 3941   0.624   1.105   0.691 -0.7840 -0.8273  1.3028
  260TMC3    H1 3942   0.720   0.682   0.642 -0.7819 -0.8820  0.2713
  260TMC3    H2 3943   0.955   0.964   0.448 -0.2498  1.4082 -0.0352
  260TMC3    C7 3944   0.943   0.724   0.501 -0.2004  0.1332  0.1283
  260TMC3    C8 3945   0.834   1.189   0.564  0.7271  0.1249  0.7267
  260TMC3    O1 3946   0.995   0.744   0.389 -0.1923 -0.1447 -0.3213
  260TMC3    O2 3947   0.770   1.268   0.631 -0.1664  0.2616  0.0391
  261MPD2     C 3948   1.722   4.119  12.964 -0.3584  0.8407 -0.3831
  261MPD2    C1 3949   1.856   4.111  12.991  0.3686  0.2309 -0.0791
  261MPD2    C2 3950   1.937   4.213  12.938 -0.1899  0.0981 -0.6470
  261MPD2    C3 3951   1.890   4.316  12.869 -0.7587  0.3989  0.8284
  261MPD2    C4 3952   1.757   4.313  12.836  0.0039 -0.3742 -0.0229
  261MPD2    C5 3953   1.671   4.223  12.886 -0.3820  0.0304  0.3158
  261MPD2     H 3954   2.043   4.213  12.960  0.0590 -1.4794 -1.8159
  261MPD2    H1 3955   1.711   4.396  12.782  1.3173  0.5450  0.2625
  261MPD2    H2 3956   1.642   4.054  12.999 -1.3692  1.7970 -0.9147
  261MPD2    H3 3957   1.568   4.225  12.853 -1.7012 -3.7249  4.1095
  261MPD2     N 3958   1.981   4.409  12.823  0.7059  0.0054  0.1135
  261MPD2    H5 3959   2.080   4.388  12.827  0.3664 -2.0272 -2.5410
  261MPD2    N1 3960   1.911   4.013  13.075 -0.1113  0.2240  0.7223
  261MPD2    H7 3961   2.010   4.016  13.100  0.2665 -2.7669 -0.4092
  262TMC3    C1 3962   2.051   4.571  12.670  0.4403 -0.2192 -0.1271
  262TMC3    C2 3963   2.007   4.673  12.595  0.2263 -0.1408 -0.2119
  262TMC3    C3 3964   2.036   4.671  12.459 -0.1654  0.6566 -0.3050
  262TMC3    C4 3965   2.125   4.467  12.622  0.0324 -0.9890 -0.8473
  262TMC3    C5 3966   2.148   4.467  12.488  0.0045 -0.3857  0.0466
  262TMC3    C6 3967   2.109   4.570  12.400 -0.3868 -0.3863 -0.0594
  262TMC3     C 3968   1.948   4.529  12.770 -0.1981  0.4795  0.0780
  262TMC3     O 3969   1.848   4.597  12.789  0.1507  0.0118  0.5933
  262TMC3     H 3970   1.944   0.022  12.641 -0.0052 -0.7676  0.4949
  262TMC3    H1 3971   2.181   4.399  12.685  0.7391  1.2856  0.9433
  262TMC3    H2 3972   2.137   4.559  12.296 -0.1707 -0.2468 -0.0162
  262TMC3    C7 3973   2.187   4.340  12.435 -0.4711 -0.2098  0.1032
  262TMC3    C8 3974   1.985   0.039  12.360  0.1744  0.4880  0.2147
  262TMC3    O1 3975   2.195   4.247  12.518 -0.3625 -0.5716  0.0543
  262TMC3    O2 3976   2.001   0.015  12.242 -0.0430  0.6344  0.3723
  263MPD2     C 3977   2.822   3.261  11.919  0.8521  0.6466  0.3256
  263MPD2    C1 3978   2.936   3.205  11.859  0.2449 -0.3379  0.2682
  263MPD2    C2 3979   2.972   3.243  11.727 -0.5125  0.0700  0.1162
  263MPD2    C3 3980   2.884   3.335  11.658 -0.3343  0.2949  0.5657
  263MPD2    C4 3981   2.775   3.376  11.720 -0.0604 -0.1290 -0.2761
  263MPD2    C5 3982   2.742   3.341  11.848 -0.1236  0.0540  0.5017
  263MPD2     H 3983   3.047   3.191  11.669  0.1972  0.9733  0.2280
  263MPD2    H1 3984   2.699   3.441  11.676 -1.5879 -1.0269  1.0466
  263MPD2    H2 3985   2.808   3.242  12.025 -0.0898 -1.6087 -0.2128
  263MPD2    H3 3986   2.655   3.383  11.897 -0.3551  1.0308 -0.7564
  263MPD2     N 3987   2.931   3.391  11.538 -0.3818 -0.1890 -0.3272
  263MPD2    H5 3988   3.002   3.345  11.482 -1.9027 -1.0893 -1.5510
  263MPD2    N1 3989   3.020   3.128  11.947 -0.2285 -0.2486 -0.0121
  263MPD2    H7 3990   2.999   3.128  12.046 -1.1730 -0.1471 -0.2087
  264TMC3    C1 3991   2.921   3.529  11.341  0.7268 -0.3559 -0.1195
  264TMC3    C2 3992   2.826   3.540  11.241 -0.0235 -0.0964  0.2625
  264TMC3    C3 3993   2.867   3.520  11.112 -0.4741 -0.8082 -0.2548
  264TMC3    C4 3994   3.060   3.512  11.313  0.4325 -0.4357  0.1888
  264TMC3    C5 3995   3.100   3.489  11.183 -0.7666 -0.6445  0.0258
  264TMC3    C6 3996   3.005   3.505  11.082 -0.2508  0.6924 -0.1546
  264TMC3     C 3997   2.867   3.495  11.472  0.2766  0.0874  0.1240
  264TMC3     O 3998   2.774   3.566  11.506  0.2215 -0.0960  0.4537
  264TMC3     H 3999   2.723   3.542  11.272  0.1255  0.8935  0.6943
  264TMC3    H1 4000   3.127   3.497  11.396  4.5521  2.1432 -2.6918
  264TMC3    H2 4001   3.043   3.527  10.983  1.5993  0.2637  0.4621
  264TMC3    C7 4002   3.232   3.543  11.142  0.0494  0.4126 -0.3747
  264TMC3    C8 4003   2.818   3.627  11.021  0.7881 -0.2234 -0.0470
  264TMC3    O1 4004   3.279   3.508  11.032 -0.0896  0.3569 -0.2600
  264TMC3    O2 4005   2.857   3.623  10.908 -0.4285  0.0057 -0.0728
  265MPD2     C 4006   0.497   3.645  15.559 -0.1367 -0.4186 -0.2020
  265MPD2    C1 4007   0.508   3.758  15.480  0.3319  0.4290  0.3699
  265MPD2    C2 4008   0.568   3.744  15.356 -0.5803 -0.4067  0.0458
  265MPD2    C3 4009   0.629   3.625  15.316 -0.0862  0.0309  1.1760
  265MPD2    C4 4010   0.617   3.519  15.401  0.7194 -0.0380 -0.2775
  265MPD2    C5 4011   0.560   3.528  15.523  0.4719  0.6765 -0.0575
  265MPD2     H 4012   0.577   3.833  15.294  3.4940  0.0632  1.3159
  265MPD2    H1 4013   0.662   3.425  15.370  1.3091 -0.7437  2.6781
  265MPD2    H2 4014   0.434   3.635  15.647  1.9944  0.2655  1.4158
  265MPD2    H3 4015   0.561   3.434  15.576 -0.0597  0.5738 -0.2306
  265MPD2     N 4016   0.678   3.604  15.178 -0.5739 -0.1783  0.1706
  265MPD2    H5 4017   0.702   3.510  15.149 -0.2961  0.1104 -0.5259
  265MPD2    N1 4018   0.449   3.879  15.519 -0.5476 -0.6177  0.2001
  265MPD2    H7 4019   0.442   3.953  15.450  1.7963  0.3230  0.9603
  266TMC3    C1 4020   0.328   4.021  15.672 -0.6003  0.1755  0.0924
  266TMC3    C2 4021   0.313   4.056  15.806  0.7972 -0.2518  0.0347
  266TMC3    C3 4022   0.266   4.182  15.840  0.0782  0.1483 -0.1394
  266TMC3    C4 4023   0.287   4.108  15.574  1.2097  0.4948 -0.1736
  266TMC3    C5 4024   0.230   4.222  15.621  0.3713 -0.3588 -0.0037
  266TMC3    C6 4025   0.218   4.262  15.749  0.0965  0.4547 -0.2627
  266TMC3     C 4026   0.406   3.902  15.653 -0.1853  0.3326 -0.1534
  266TMC3     O 4027   0.442   3.841  15.750  0.4171  0.7406  0.7096
  266TMC3     H 4028   0.346   3.996  15.890  2.6365  0.4916 -0.1509
  266TMC3    H1 4029   0.303   4.090  15.468 -0.6463  1.2522 -0.5888
  266TMC3    H2 4030   0.151   4.342  15.781 -0.0223  0.8103 -1.4240
  266TMC3    C7 4031   0.217   4.311  15.511  0.0928 -0.4138  0.2417
  266TMC3    C8 4032   0.256   4.198  15.978 -0.2280  0.2028  0.3343
  266TMC3    O1 4033   0.216   4.272  15.392  0.9176  0.0328 -0.1186
  266TMC3    O2 4034   0.230   4.100  16.049 -0.3430 -0.0826 -0.1823
  267MPD2     C 4035   2.431   1.612   0.721  0.2189 -0.4525  1.1302
  267MPD2    C1 4036   2.416   1.547   0.603 -0.0886  0.3242  0.3824
  267MPD2    C2 4037   2.384   1.622   0.486  0.2283 -0.2676 -0.7084
  267MPD2    C3 4038   2.359   1.760   0.487 -0.3135 -0.0594  0.5867
  267MPD2    C4 4039   2.390   1.828   0.604 -0.4455  0.1971 -0.8100
  267MPD2    C5 4040   2.425   1.753   0.718  0.1041 -0.0243  0.2924
  267MPD2     H 4041   2.373   1.562   0.397 -1.0004 -1.1085  0.0059
  267MPD2    H1 4042   2.395   1.936   0.617 -0.8328  0.0269  0.6923
  267MPD2    H2 4043   2.443   1.562   0.816 -1.6288  0.7748  2.0048
  267MPD2    H3 4044   2.449   1.812   0.805  2.8057  0.7017 -0.9166
  267MPD2     N 4045   2.329   1.840   0.375 -0.2093 -0.6012  0.8274
  267MPD2    H5 4046   2.326   1.938   0.401  0.7228  0.4539 -3.0933
  267MPD2    N1 4047   2.440   1.407   0.600 -0.0179 -0.5214 -0.2357
  267MPD2    H7 4048   2.461   1.359   0.687  0.5231 -0.2273 -0.2031
  268TMC3    C1 4049   2.513   1.198   0.515  0.0236 -0.5989 -0.0490
  268TMC3    C2 4050   2.608   1.160   0.420  0.1912  0.0044 -0.2269
  268TMC3    C3 4051   2.673   1.044   0.440 -0.0717 -0.4665  0.3207
  268TMC3    C4 4052   2.501   1.143   0.637 -0.0107 -0.3005 -0.6148
  268TMC3    C5 4053   2.585   1.032   0.658  0.2225  0.4474  0.1779
  268TMC3    C6 4054   2.666   0.982   0.562 -0.6117  0.3993 -1.3343
  268TMC3     C 4055   2.461   1.334   0.486  0.3248  0.1978  1.1153
  268TMC3     O 4056   2.439   1.359   0.369  0.0537 -0.1359 -0.0279
  268TMC3     H 4057   2.617   1.224   0.333 -1.5874  0.2171 -0.2525
  268TMC3    H1 4058   2.429   1.175   0.711  0.4930 -2.2649  0.7386
  268TMC3    H2 4059   2.746   0.911   0.582  0.8248  2.4505  0.2180
  268TMC3    C7 4060   2.601   0.970   0.790  0.6571  0.0587  0.0852
  268TMC3    C8 4061   2.804   1.036   0.370 -0.2241 -0.1390 -0.8329
  268TMC3    O1 4062   2.649   0.857   0.806  0.0587 -0.2442 -0.0305
  268TMC3    O2 4063   2.903   1.002   0.434 -0.7799  0.5084 -0.0707
  269MPD2     C 4064   3.150   0.110  15.261  0.2171 -0.4485  0.2020
  269MPD2    C1 4065   3.041   0.154  15.347 -0.0850  0.3004  0.1385
  269MPD2    C2 4066   2.993   0.281  15.334 -0.3597 -0.1502  0.8286
  269MPD2    C3 4067   3.062   0.382  15.264  0.1548 -0.3836  0.3423
  269MPD2    C4 4068   3.164   0.343  15.188  0.5399  0.3476 -0.2443
  269MPD2    C5 4069   3.208   0.209  15.183 -0.1532  0.7936  0.6250
  269MPD2     H 4070   2.910   0.309  15.399 -0.0116 -0.8043  1.5628
  269MPD2    H1 4071   3.217   0.409  15.120  0.9253  0.1933 -0.0883
  269MPD2    H2 4072   3.185   0.010  15.240  0.7033 -0.1046 -0.5931
  269MPD2    H3 4073   3.289   0.181  15.116 -1.1399  1.9441 -1.0715
  269MPD2     N 4074   3.009   0.511  15.271  0.2243  0.4168  0.5926
  269MPD2    H5 4075   2.922   0.527  15.320 -0.0511  1.4785 -0.2293
  269MPD2    N1 4076   2.978   0.066  15.431  0.3877  0.3103  0.1477
  269MPD2    H7 4077   3.001   4.694  15.419 -1.7482 -0.2963  0.9025
  270TMC3    C1 4078   2.826   4.699  15.575 -0.6939  0.3430  0.1084
  270TMC3    C2 4079   2.690   4.702  15.562  0.1834  0.5676 -0.2526
  270TMC3    C3 4080   2.619   4.589  15.559  1.4815  0.2223  0.1821
  270TMC3    C4 4081   2.896   4.580  15.561 -0.7570 -0.1052 -0.4779
  270TMC3    C5 4082   2.817   4.466  15.553  0.2148  0.5454 -0.6958
  270TMC3    C6 4083   2.677   4.468  15.555  0.4078  0.8842  0.2477
  270TMC3     C 4084   2.887   0.096  15.535 -0.0858 -0.2151  0.9736
  270TMC3     O 4085   2.848   0.200  15.587  0.3503 -0.0783 -0.0961
  270TMC3     H 4086   2.640   0.072  15.567 -0.4690  0.2728 -1.1044
  270TMC3    H1 4087   3.004   4.580  15.552 -0.6165  1.9916  1.1921
  270TMC3    H2 4088   2.621   4.375  15.559 -0.0563  1.1167 -0.8091
  270TMC3    C7 4089   2.888   4.346  15.537  0.8870 -0.0504 -0.6453
  270TMC3    C8 4090   2.499   4.599  15.483  0.1837 -0.0377 -0.5380
  270TMC3    O1 4091   3.001   4.365  15.492 -0.0643 -0.0798 -0.5014
  270TMC3    O2 4092   2.411   4.680  15.505  0.3512 -0.0665 -0.5580
  271MPD2     C 4093   1.933   4.325  13.688  0.1313 -0.3450  0.2999
  271MPD2    C1 4094   1.889   4.379  13.812  0.8006 -0.2432 -0.0214
  271MPD2    C2 4095   1.804   4.491  13.815  0.5513  0.1334  0.1678
  271MPD2    C3 4096   1.768   4.549  13.694  0.7196 -0.1980  0.5934
  271MPD2    C4 4097   1.827   4.505  13.581 -0.0907  0.1828 -0.3796
  271MPD2    C5 4098   1.907   4.395  13.572 -0.7144 -0.6412 -0.4677
  271MPD2     H 4099   1.755   4.514  13.908 -0.8416  2.3356 -1.1020
  271MPD2    H1 4100   1.814   4.564  13.491  0.1320 -1.9741 -1.8248
  271MPD2    H2 4101   1.997   4.238  13.682 -0.6461 -0.7242 -2.5246
  271MPD2    H3 4102   1.953   4.379  13.475  1.1336  1.3063  0.0829
  271MPD2     N 4103   1.677   4.661  13.685  0.2120 -0.0918  0.0105
  271MPD2    H5 4104   1.664   4.703  13.593  2.6482  0.8666  0.1216
  271MPD2    N1 4105   1.931   4.326  13.936  0.0288  0.2266 -0.8950
  271MPD2    H7 4106   1.916   4.390  14.013  1.7965  0.6299 -0.8910
  272TMC3    C1 4107   2.082   4.225  14.079  0.0734 -0.5491  0.1613
  272TMC3    C2 4108   2.186   4.136  14.091  0.2140 -0.1889  0.5256
  272TMC3    C3 4109   2.247   4.127  14.208  0.5246  0.6454  0.3853
  272TMC3    C4 4110   2.038   4.301  14.182  0.0877 -0.1112 -0.4198
  272TMC3    C5 4111   2.106   4.282  14.299  0.1640  0.6315  0.2238
  272TMC3    C6 4112   2.208   4.192  14.323  0.0860  0.1560 -0.5673
  272TMC3     C 4113   2.021   4.227  13.951 -0.2019  0.3075  0.5736
  272TMC3     O 4114   2.042   4.134  13.872  0.5766 -0.2358 -0.4062
  272TMC3     H 4115   2.230   4.097  14.000 -0.3357  1.9694 -0.6674
  272TMC3    H1 4116   1.957   4.372  14.172  0.1310 -0.1763 -1.2175
  272TMC3    H2 4117   2.247   4.160  14.419 -2.6216 -1.7521 -0.0932
  272TMC3    C7 4118   2.038   4.338  14.409  0.2473  0.8729  1.0933
  272TMC3    C8 4119   2.384   4.082  14.210  0.1863 -1.2898 -1.2885
  272TMC3    O1 4120   1.920   4.369  14.389  0.4679 -0.3496  0.5336
  272TMC3    O2 4121   2.422   4.064  14.097 -0.2367 -0.2961 -0.3141
  273MPD2     C 4122   3.359   2.196  11.869 -0.3249  0.7715  0.5191
  273MPD2    C1 4123   3.484   2.256  11.868 -0.0230 -0.5743 -0.1744
  273MPD2    C2 4124   3.570   2.243  11.758  0.2794  0.0426 -0.7894
  273MPD2    C3 4125   3.536   2.171  11.644 -0.2053  0.5234  0.6646
  273MPD2    C4 4126   3.407   2.116  11.647  0.6852  0.2693 -0.1502
  273MPD2    C5 4127   3.322   2.136  11.754  0.2336 -1.0817  0.9168
  273MPD2     H 4128   3.667   2.290  11.769  1.1548 -1.5314 -1.7309
  273MPD2    H1 4129   3.363   2.066  11.561 -1.6616  0.8978  0.6967
  273MPD2    H2 4130   3.293   2.206  11.954 -0.9056  1.7340 -0.0448
  273MPD2    H3 4131   3.219   2.104  11.747 -0.3640  0.4596  2.8548
  273MPD2     N 4132   3.616   2.167  11.527  0.3294 -0.3011  0.2321
  273MPD2    H5 4133   3.570   2.142  11.440 -0.5843  0.4166  0.5128
  273MPD2    N1 4134   3.512   2.349  11.975  0.0936 -0.2403  0.4962
  273MPD2    H7 4135   3.446   2.346  12.051 -0.5650  1.9172 -0.0097
  274TMC3    C1 4136   3.761   2.307  11.436  0.2224  0.0185 -0.1262
  274TMC3    C2 4137   3.672   2.318  11.335 -0.0618 -0.3027  0.2221
  274TMC3    C3 4138   3.660   2.447  11.282 -0.6410 -0.3400  0.5494
  274TMC3    C4 4139   3.840   2.413  11.482  0.4424  0.6444  0.1605
  274TMC3    C5 4140   3.814   2.537  11.433  0.0389 -0.5225  0.5122
  274TMC3    C6 4141   3.736   2.549  11.322  0.2573 -0.2932 -0.7325
  274TMC3     C 4142   3.747   2.192  11.520 -0.0667 -0.2161  0.2810
  274TMC3     O 4143   3.829   2.178  11.611  0.1074  0.1366  0.0875
  274TMC3     H 4144   3.611   2.235  11.303  0.1083 -0.7410  1.0456
  274TMC3    H1 4145   3.902   2.401  11.570  0.1273  1.9649  0.5594
  274TMC3    H2 4146   3.698   2.649  11.307  0.9815  0.3622  1.8098
  274TMC3    C7 4147   3.773   2.616  11.538 -0.0821  0.4273  0.2374
  274TMC3    C8 4148   3.579   2.457  11.160  0.4663 -0.3661 -0.0798
  274TMC3    O1 4149   3.653   2.631  11.537  0.1823 -0.6630 -0.4341
  274TMC3    O2 4150   3.497   2.372  11.143  1.0283 -0.0484  0.1533
  275MPD2     C 4151   3.353   0.514  13.850 -0.0660 -0.4819 -0.7257
  275MPD2    C1 4152   3.354   0.505  13.988 -0.5776 -0.3849  0.4769
  275MPD2    C2 4153   3.229   0.512  14.052  0.3873 -0.1757 -0.0512
  275MPD2    C3 4154   3.115   0.517  13.978  0.1199  0.0422  0.2181
  275MPD2    C4 4155   3.118   0.511  13.840  0.8106  0.2578 -0.5409
  275MPD2    C5 4156   3.235   0.509  13.779 -0.1929  0.6700  0.1799
  275MPD2     H 4157   3.226   0.496  14.159  1.8836 -0.1395 -0.0063
  275MPD2    H1 4158   3.032   0.492  13.777  1.2895 -2.6068 -0.3495
  275MPD2    H2 4159   3.447   0.505  13.798 -0.1922 -0.2364 -0.9977
  275MPD2    H3 4160   3.242   0.498  13.671 -0.3034 -1.9024  0.4251
  275MPD2     N 4161   2.987   0.504  14.034 -0.6872  0.0652  0.2528
  275MPD2    H5 4162   2.912   0.507  13.966 -0.2391 -0.4150 -0.2609
  275MPD2    N1 4163   3.477   0.493  14.067 -0.1121 -0.4394 -0.4282
  275MPD2    H7 4164   3.478   0.471  14.166  3.0436  2.3435  0.1737
  276TMC3    C1 4165   3.688   0.488  14.143 -0.6790  0.6407  0.1244
  276TMC3    C2 4166   3.652   0.374  14.201 -0.3410  0.3560 -0.5411
  276TMC3    C3 4167   3.714   0.341  14.316 -0.5985  0.1745  0.2336
  276TMC3    C4 4168   3.785   0.573  14.191 -0.1178  0.0771 -0.1069
  276TMC3    C5 4169   3.843   0.548  14.318 -0.2255 -0.2403  0.2375
  276TMC3    C6 4170   3.803   0.428  14.377 -0.3404  0.2195 -0.1221
  276TMC3     C 4171   3.603   0.534  14.032  0.2662  0.4799  0.2043
  276TMC3     O 4172   3.642   0.607  13.944  0.1371  0.3816  0.4494
  276TMC3     H 4173   3.595   0.304  14.140 -2.8234  1.4890  0.4471
  276TMC3    H1 4174   3.836   0.648  14.131  1.3729  0.7762  2.0505
  276TMC3    H2 4175   3.861   0.385  14.458 -1.8976  0.2697  1.0068
  276TMC3    C7 4176   3.926   0.634  14.397  0.3091 -0.6033  0.6393
  276TMC3    C8 4177   3.700   0.203  14.366  0.4349 -0.0194 -0.0639
  276TMC3    O1 4178   3.957   0.586  14.508 -0.3975 -0.0698 -0.6954
  276TMC3    O2 4179   3.770   0.173  14.464 -0.5413  0.1703 -0.5190
  277MPD2     C 4180   0.575   4.681  13.701  0.3596  0.4240  0.3593
  277MPD2    C1 4181   0.461   4.710  13.774  0.2026  0.0864  0.1980
  277MPD2    C2 4182   0.430   4.632  13.880 -0.3719  0.2697  0.2339
  277MPD2    C3 4183   0.510   4.528  13.918 -0.9709  0.3915 -0.0231
  277MPD2    C4 4184   0.615   4.487  13.839  0.3875  0.1424 -0.5943
  277MPD2    C5 4185   0.645   4.570  13.736  0.3650 -0.5043 -0.2380
  277MPD2     H 4186   0.343   4.660  13.938 -0.6231  0.3607 -0.1836
  277MPD2    H1 4187   0.665   4.393  13.856  1.6318  0.6507 -1.4463
  277MPD2    H2 4188   0.610   0.022  13.624  1.1796  1.5810  1.7498
  277MPD2    H3 4189   0.726   4.530  13.676 -0.0621 -0.0845 -1.0967
  277MPD2     N 4190   0.471   4.451  14.028  0.4453  0.0519  0.0062
  277MPD2    H5 4191   0.507   4.356  14.025  2.3000  0.8098 -1.8616
  277MPD2    N1 4192   0.380   0.091  13.725 -0.0733  0.6215 -0.1271
  277MPD2    H7 4193   0.412   0.139  13.641 -0.4589 -2.0441 -1.7878
  278TMC3    C1 4194   0.268   4.388  14.128  0.0351 -0.0730  0.5880
  278TMC3    C2 4195   0.278   4.278  14.043  0.2856  0.2382  0.3145
  278TMC3    C3 4196   0.160   4.208  14.018  0.2584  0.0198 -0.4739
  278TMC3    C4 4197   0.146   4.420  14.187 -0.0483 -0.2312  0.3657
  278TMC3    C5 4198   0.038   4.347  14.166 -0.1444  0.2088 -0.1741
  278TMC3    C6 4199   0.037   4.235  14.078  0.2664  0.3814  0.3612
  278TMC3     C 4200   0.367   4.494  14.111 -0.8048 -0.1435  0.2542
  278TMC3     O 4201   0.341   4.607  14.154  0.0507  0.8109  1.0278
  278TMC3     H 4202   0.361   4.240  13.985  1.3850 -1.1393  2.7665
  278TMC3    H1 4203   0.140   4.509  14.249  0.8527 -0.4187  0.7227
  278TMC3    H2 4204   4.675   4.173  14.060  0.5479  0.0795  0.0156
  278TMC3    C7 4205   4.637   4.394  14.227 -0.5756  0.2964  0.1426
  278TMC3    C8 4206   0.167   4.107  13.908 -0.7559  0.0781 -0.0084
  278TMC3    O1 4207   4.644   4.476  14.319  0.0873  0.3005  0.6004
  278TMC3    O2 4208   0.271   4.045  13.900  0.6443  0.8253  0.0066
  279MPD2     C 4209   0.311   0.561   0.052  0.1115  0.3848  0.3211
  279MPD2    C1 4210   0.202   0.493   0.008  0.3669 -0.1789  0.3676
  279MPD2    C2 4211   0.222   0.404  17.608  0.1190  0.5000  0.3447
  279MPD2    C3 4212   0.350   0.388  17.555  0.1530 -0.4348  0.1058
  279MPD2    C4 4213   0.456   0.465  17.590 -0.2215  0.0223  0.4707
  279MPD2    C5 4214   0.433   0.551  17.692 -0.0430  0.5452 -0.4019
  279MPD2     H 4215   0.138   0.345  17.573  0.4436 -0.0038  0.4106
  279MPD2    H1 4216   0.554   0.450  17.545 -0.6066  0.0243 -0.3651
  279MPD2    H2 4217   0.320   0.634   0.132  0.3757  2.3481 -1.4979
  279MPD2    H3 4218   0.510   0.614   0.031 -0.6053  0.9736 -0.0466
  279MPD2     N 4219   0.374   0.286  17.456  0.0570 -0.2427 -0.3343
  279MPD2    H5 4220   0.468   0.279  17.419 -0.7385 -1.1382 -2.1735
  279MPD2    N1 4221   0.079   0.509   0.079  0.3235 -0.0674  0.2104
  279MPD2    H7 4222   0.075   0.577   0.155 -0.7486 -0.3947  0.4455
  280TMC3    C1 4223   4.583   0.477   0.138  0.1969  0.0097  0.1307
  280TMC3    C2 4224   4.468   0.399   0.115  0.2347  0.1581  0.5323
  280TMC3    C3 4225   4.347   0.442   0.159  0.0609 -0.2859 -0.1900
  280TMC3    C4 4226   4.580   0.607   0.174  0.0251 -0.1382  0.1501
  280TMC3    C5 4227   4.448   0.650   0.193 -1.4019 -0.1057  0.3429
  280TMC3    C6 4228   4.332   0.575   0.187 -0.1979 -0.0830  0.2747
  280TMC3     C 4229   4.695   0.431   0.063  0.0876 -0.0372  0.0963
  280TMC3     O 4230   4.671   0.347  17.685 -0.2012 -0.1073  0.8908
  280TMC3     H 4231   4.473   0.291   0.113 -1.1391  0.0819  2.1304
  280TMC3    H1 4232   4.662   0.679   0.171  2.0479 -2.5022 -0.9298
  280TMC3    H2 4233   4.238   0.590   0.240 -1.1788  0.9199 -1.7587
  280TMC3    C7 4234   4.436   0.792   0.191 -0.0180 -0.1083 -0.2831
  280TMC3    C8 4235   4.225   0.374   0.124 -1.1912 -0.5074 -0.3430
  280TMC3    O1 4236   4.537   0.865   0.197 -0.6190 -0.8456 -0.0032
  280TMC3    O2 4237   4.123   0.445   0.128 -0.0342  0.3445 -0.1702
  281TMC3    C1 4238   3.294   4.363  13.268  0.1226  0.1173  0.4058
  281TMC3    C2 4239   3.348   4.430  13.161 -0.5673  0.0056  0.3374
  281TMC3    C3 4240   3.357   4.357  13.044  0.2139 -0.2653 -0.2471
  281TMC3    C4 4241   3.267   4.226  13.262  0.4312 -0.1613  0.1893
  281TMC3    C5 4242   3.289   4.158  13.147 -0.6589 -0.1284  0.1012
  281TMC3    C6 4243   3.340   4.221  13.041  0.3645  0.1735 -0.7285
  281TMC3     C 4244   3.221   4.445  13.362 -0.8736  0.8835  0.5325
  281TMC3     O 4245   3.170   4.390  13.460 -0.3578  0.4509 -0.0712
  281TMC3     H 4246   3.384   4.532  13.159 -2.0369  0.5507  1.2483
  281TMC3    H1 4247   3.215   4.176  13.343  1.2824 -0.4981  0.5309
  281TMC3    H2 4248   3.355   4.170  12.946 -1.8037 -1.4675 -0.1732
  281TMC3    C7 4249   3.273   4.015  13.132 -1.0901  0.4081  0.3989
  281TMC3    C8 4250   3.450   4.410  12.943  0.2119 -0.1147  0.2300
  281TMC3    O1 4251   3.361   3.962  13.065  0.0185  0.1935  0.0786
  281TMC3    O2 4252   3.543   4.342  12.905 -0.0896 -0.0668  0.3889
  282MPD2     C 4253   0.535   1.397  14.915  0.4165 -0.1728  0.0878
  282MPD2    C1 4254   0.422   1.323  14.898 -0.3279  0.1657  0.4226
  282MPD2    C2 4255   0.355   1.323  14.773  0.0481  0.3717 -0.2165
  282MPD2    C3 4256   0.393   1.414  14.674 -0.0317 -1.1770 -0.3199
  282MPD2    C4 4257   0.506   1.489  14.693 -0.3174 -0.2670 -0.4348
  282MPD2    C5 4258   0.574   1.477  14.811 -0.9963  0.1850  0.4021
  282MPD2     H 4259   0.272   1.257  14.750  1.0700 -0.5510 -1.2698
  282MPD2    H1 4260   0.542   1.557  14.617  0.1209  0.5641  0.5116
  282MPD2    H2 4261   0.592   1.401  15.007  1.0819  1.0220 -0.3644
  282MPD2    H3 4262   0.669   1.530  14.824 -0.1991 -1.0819 -0.2942
  282MPD2     N 4263   0.313   1.417  14.560  0.6722 -0.3527  0.2623
  282MPD2    H5 4264   0.235   1.352  14.559 -0.7247  1.3190 -0.1292
  282MPD2    N1 4265   0.377   1.244  15.010  0.5263 -0.4696  0.3325
  282MPD2    H7 4266   0.437   1.256  15.091  0.2776 -0.3048  0.4935
  283TMC3    C1 4267   0.238   1.141  15.153 -0.6553  0.6193 -0.5318
  283TMC3    C2 4268   0.236   1.255  15.232 -0.2347  0.8821  0.6695
  283TMC3    C3 4269   0.156   1.250  15.339  0.3278 -0.1669  0.0234
  283TMC3    C4 4270   0.170   1.031  15.185  0.1374  0.1082  0.4808
  283TMC3    C5 4271   0.105   1.025  15.305 -0.4908  1.0973 -0.2269
  283TMC3    C6 4272   0.086   1.142  15.379 -0.4489  0.0150 -0.1844
  283TMC3     C 4273   0.267   1.159  15.012 -0.8696  1.0084 -0.3383
  283TMC3     O 4274   0.182   1.124  14.934 -0.6375  0.0439  0.0811
  283TMC3     H 4275   0.266   1.350  15.190 -0.4678 -0.1864 -1.9049
  283TMC3    H1 4276   0.166   0.949  15.115 -3.3721  1.3260 -0.7214
  283TMC3    H2 4277   0.032   1.139  15.473 -1.8590 -0.2865 -1.0118
  283TMC3    C7 4278   0.023   0.902  15.322 -0.0485 -0.0757  0.2461
  283TMC3    C8 4279   0.153   1.371  15.422  0.6714  0.8459  0.4560
  283TMC3    O1 4280   0.049   0.805  15.249 -0.1891 -0.0647 -0.0403
  283TMC3    O2 4281   0.176   1.356  15.542  0.1554 -0.4789  0.5785
  284MPD2     C 4282   3.050   0.009  12.116  0.2102  0.0383 -0.0228
  284MPD2    C1 4283   3.055   4.683  11.983 -0.2516 -0.4160  0.3106
  284MPD2    C2 4284   2.952   4.595  11.943 -0.2289 -0.2134 -0.0138
  284MPD2    C3 4285   2.850   4.557  12.028 -0.2755  0.1757  0.2333
  284MPD2    C4 4286   2.854   4.594  12.163  0.5330 -0.8661  0.2649
  284MPD2    C5 4287   2.957   4.687  12.204  0.0150 -0.4102 -0.3032
  284MPD2     H 4288   2.960   4.560  11.841  1.7754  1.3911 -0.4068
  284MPD2    H1 4289   2.783   4.557  12.236  1.5024 -1.0930  1.1034
  284MPD2    H2 4290   3.119   0.080  12.161 -1.9575  1.2824  1.3876
  284MPD2    H3 4291   2.965   0.001  12.304  1.6344 -2.4364  0.3740
  284MPD2     N 4292   2.761   4.456  11.996  0.4062 -0.1870  0.4595
  284MPD2    H5 4293   2.701   4.414  12.066  1.8664 -0.7716  1.3642
  284MPD2    N1 4294   3.164   4.709  11.886 -0.0268 -0.2077 -0.1345
  284MPD2    H7 4295   3.160   4.656  11.799 -0.5161  0.1009 -0.2976
  285TMC3    C1 4296   3.368   0.071  11.792  0.5689  0.8199 -0.1621
  285TMC3    C2 4297   3.339   0.035  11.665 -0.6356  0.8595  0.3266
  285TMC3    C3 4298   3.397   0.093  11.554 -0.3568  0.1904  0.0066
  285TMC3    C4 4299   3.465   0.161  11.812 -0.0740 -0.4473 -0.0750
  285TMC3    C5 4300   3.516   0.221  11.702  0.0948 -0.5572  0.3189
  285TMC3    C6 4301   3.495   0.184  11.578 -0.2938  0.5102  0.4670
  285TMC3     C 4302   3.283   0.058  11.906 -0.3794  0.6940  0.8467
  285TMC3     O 4303   3.311   0.114  12.014  0.2675 -0.0006 -0.4081
  285TMC3     H 4304   3.257   4.696  11.639  1.8850 -1.4160 -1.9326
  285TMC3    H1 4305   3.473   0.210  11.909  0.8943 -0.2495 -0.2575
  285TMC3    H2 4306   3.571   0.227  11.513 -0.2309  1.6508  1.2971
  285TMC3    C7 4307   3.535   0.365  11.710  0.2878 -0.3005  0.2937
  285TMC3    C8 4308   3.408   0.015  11.436  0.2454  0.8607 -0.3284
  285TMC3    O1 4309   3.493   0.426  11.611  0.3606 -0.0509 -0.0321
  285TMC3    O2 4310   3.354   4.633  11.440  0.2614 -0.4471  0.2415
  286MPD2     C 4311   3.688   4.275   1.866  0.9492 -0.4900 -0.9327
  286MPD2    C1 4312   3.654   4.242   1.737 -0.5056 -0.0194  0.9842
  286MPD2    C2 4313   3.751   4.203   1.653  0.7535  0.9314  0.1417
  286MPD2    C3 4314   3.886   4.200   1.694  0.6705  0.4625  0.2589
  286MPD2    C4 4315   3.920   4.224   1.829 -0.2667  0.4950 -0.5506
  286MPD2    C5 4316   3.815   4.256   1.917  0.0976 -0.3301  0.4100
  286MPD2     H 4317   3.729   4.158   1.557  0.5419 -0.1217  0.6843
  286MPD2    H1 4318   4.019   4.207   1.870 -0.4213 -1.0991 -0.8374
  286MPD2    H2 4319   3.620   4.311   1.942  2.5337  0.6204 -0.0467
  286MPD2    H3 4320   3.829   4.267   2.024  0.1276  0.6560  0.3076
  286MPD2     N 4321   4.001   4.157   1.612 -0.0074  0.1809 -0.6644
  286MPD2    H5 4322   4.086   4.135   1.664 -1.2132 -0.6145  0.9557
  286MPD2    N1 4323   3.517   4.247   1.692 -0.5470  0.3646 -0.2084
  286MPD2    H7 4324   3.504   4.223   1.594  2.9399  0.1498 -0.6232
  287TMC3    C1 4325   4.128   4.115   1.411 -0.4024 -0.0118  0.0853
  287TMC3    C2 4326   4.119   4.095   1.273  0.1686 -0.7370 -0.0359
  287TMC3    C3 4327   4.235   4.044   1.215  0.4798  0.1594 -0.0078
  287TMC3    C4 4328   4.240   4.070   1.475 -0.5314  0.0349  0.3843
  287TMC3    C5 4329   4.346   4.015   1.411  0.2442  0.8612  0.0699
  287TMC3    C6 4330   4.349   4.014   1.277  0.4378 -0.1384  0.6952
  287TMC3     C 4331   3.998   4.155   1.473  0.0588 -0.2081  0.3150
  287TMC3     O 4332   3.911   4.200   1.407  0.2049 -0.5709  0.3199
  287TMC3     H 4333   4.040   4.145   1.218 -0.3457 -0.9206  0.5343
  287TMC3    H1 4334   4.247   4.074   1.584 -1.1860 -0.4926  0.4492
  287TMC3    H2 4335   4.446   3.991   1.234  1.1124  0.0355  2.1152
  287TMC3    C7 4336   4.471   4.003   1.492 -0.6447  0.3526 -0.8694
  287TMC3    C8 4337   4.242   4.004   1.073  0.4900  0.3402  0.1483
  287TMC3    O1 4338   4.487   4.087   1.578 -0.1499  0.4110 -0.1081
  287TMC3    O2 4339   4.348   3.952   1.037 -0.7148 -0.4498  0.3104
  288TMC3    C1 4340   0.571   3.942  14.597 -0.4875  0.0880  0.2835
  288TMC3    C2 4341   0.551   3.867  14.703 -0.2945  0.2391 -0.6134
  288TMC3    C3 4342   0.453   3.780  14.694  0.1387  0.2723 -0.7661
  288TMC3    C4 4343   0.498   3.933  14.481 -0.5155  0.4526  0.2240
  288TMC3    C5 4344   0.416   3.831  14.474  0.5461  0.5529 -0.0179
  288TMC3    C6 4345   0.394   3.747  14.576  0.1893 -0.1501 -0.4241
  288TMC3     C 4346   0.670   4.045  14.612 -0.2340 -0.7096  0.4388
  288TMC3     O 4347   0.737   4.049  14.713  0.4737  0.1300 -0.4541
  288TMC3     H 4348   0.591   3.893  14.800 -0.4237  0.7372 -0.6974
  288TMC3    H1 4349   0.516   3.993  14.393  0.0534  1.1674  0.8305
  288TMC3    H2 4350   0.328   3.662  14.565 -0.0213 -0.1024  0.4545
  288TMC3    C7 4351   0.335   3.825  14.356 -0.4282  0.1061  0.4298
  288TMC3    C8 4352   0.417   3.717  14.817  0.2852 -0.3754  0.7824
  288TMC3    O1 4353   0.315   3.933  14.301  0.4211  0.1408 -0.0215
  288TMC3    O2 4354   0.450   3.775  14.918 -0.0001  0.1008  0.0523
  289MPD2     C 4355   0.403   2.793  14.614  0.4969 -0.4837  0.2952
  289MPD2    C1 4356   0.446   2.903  14.549  0.0092  0.0263 -0.1061
  289MPD2    C2 4357   0.358   2.963  14.460  0.8290  1.5168  0.3560
  289MPD2    C3 4358   0.230   2.915  14.436 -0.3172 -0.2298 -1.1129
  289MPD2    C4 4359   0.190   2.793  14.488  0.1215  0.6063  0.3987
  289MPD2    C5 4360   0.275   2.745  14.582 -0.4664  0.0773 -0.5239
  289MPD2     H 4361   0.378   3.066  14.431  1.5991  1.4255  0.5645
  289MPD2    H1 4362   0.097   2.743  14.463  0.3212  0.7829 -0.6782
  289MPD2    H2 4363   0.459   2.746  14.694  0.9023  1.6574  1.2869
  289MPD2    H3 4364   0.256   2.655  14.640 -1.2248  1.4940  1.4447
  289MPD2     N 4365   0.132   2.976  14.355 -0.3974 -0.0517 -0.2730
  289MPD2    H5 4366   0.044   2.925  14.349 -0.5169  0.0881  0.2358
  289MPD2    N1 4367   0.572   2.961  14.572 -0.0445  0.2873 -0.3245
  289MPD2    H7 4368   0.630   2.927  14.648 -1.3355 -1.1209  0.0231
  290TMC3    C1 4369   4.725   3.142  14.259 -0.4310 -0.1879  0.2536
  290TMC3    C2 4370   4.696   3.276  14.257  0.5625  0.0276  0.6113
  290TMC3    C3 4371   4.571   3.317  14.207  0.4821 -0.5002 -0.1675
  290TMC3    C4 4372   4.632   3.049  14.217  0.1309 -0.0066  0.0506
  290TMC3    C5 4373   4.506   3.089  14.174  0.8502  0.2982 -0.8583
  290TMC3    C6 4374   4.476   3.221  14.171  0.0971 -0.2603 -0.2244
  290TMC3     C 4375   0.134   3.105  14.303  0.2481  0.5767 -0.2978
  290TMC3     O 4376   0.222   3.189  14.318 -0.0316 -0.4588  0.0818
  290TMC3     H 4377   0.048   3.351  14.264  2.0911 -1.6186  1.0285
  290TMC3    H1 4378   4.672   2.948  14.218 -0.0537 -0.0713  0.8382
  290TMC3    H2 4379   4.377   3.250  14.140 -0.5324 -2.8380 -0.6216
  290TMC3    C7 4380   4.392   2.995  14.195  0.1243  0.3873 -1.0142
  290TMC3    C8 4381   4.528   3.453  14.183 -0.2307 -0.6602  0.7075
  290TMC3    O1 4382   4.291   3.052  14.234  0.1446  0.8481 -0.2264
  290TMC3    O2 4383   4.444   3.476  14.099  0.5364  0.0633  0.2093
  291MPD2     C 4384   4.576   2.615   0.435 -0.5483 -0.3545  0.0137
  291MPD2    C1 4385   4.530   2.591   0.307  0.8130 -0.8845 -0.2521
  291MPD2    C2 4386   4.577   2.667   0.204 -0.2875 -0.0633  0.7051
  291MPD2    C3 4387   4.645   2.789   0.227 -0.8626 -1.0242 -0.1912
  291MPD2    C4 4388   4.661   2.824   0.364  0.2267 -0.6326  0.3442
  291MPD2    C5 4389   4.635   2.734   0.466 -0.0060  0.0310  0.2942
  291MPD2     H 4390   4.540   2.636   0.107 -0.2404 -2.1263  1.3481
  291MPD2    H1 4391   4.716   2.911   0.397 -1.1653  1.0225 -1.7543
  291MPD2    H2 4392   4.557   2.545   0.515 -1.6645  0.8815  0.8385
  291MPD2    H3 4393   4.664   2.757   0.567  0.5885 -0.1964  0.1796
  291MPD2     N 4394   4.690   2.889   0.134  0.7018  0.6343  0.1245
  291MPD2    H5 4395   4.712   2.979   0.176  1.5193  0.7030 -0.4322
  291MPD2    N1 4396   4.430   2.494   0.279  0.2474  0.2553 -0.6924
  291MPD2    H7 4397   4.416   2.482   0.179  1.7445 -0.5684 -0.8028
  292TMC3    C1 4398   4.245   2.355   0.304 -0.0436 -0.2338 -0.5244
  292TMC3    C2 4399   4.117   2.364   0.356  0.0130  0.2417  0.6592
  292TMC3    C3 4400   4.008   2.335   0.276  1.1844 -0.2068  0.6314
  292TMC3    C4 4401   4.261   2.320   0.167 -0.4785 -0.3167 -0.2072
  292TMC3    C5 4402   4.150   2.298   0.093 -0.2580  0.7259 -0.0969
  292TMC3    C6 4403   4.026   2.299   0.144 -0.5906  1.0006  0.0739
  292TMC3     C 4404   4.345   2.428   0.374 -0.1375  0.1374  0.8807
  292TMC3     O 4405   4.329   2.443   0.494 -0.0402 -0.0143 -0.3662
  292TMC3     H 4406   4.102   2.360   0.464 -1.6635  1.7599  0.4909
  292TMC3    H1 4407   4.358   2.318   0.118 -0.0135  0.6690  0.6739
  292TMC3    H2 4408   3.940   2.257   0.093 -1.2051 -0.5276  2.3616
  292TMC3    C7 4409   4.161   2.291  17.651  0.6840  0.1644 -0.7154
  292TMC3    C8 4410   3.872   2.356   0.331 -0.2001 -0.1302  0.3211
  292TMC3    O1 4411   4.273   2.287  17.600 -0.2227  0.6274  0.6908
  292TMC3    O2 4412   3.860   2.418   0.432  0.4388  0.4065 -0.1685
  293MPD2     C 4413   1.096   4.689  12.548 -0.1959  0.3642  0.2295
  293MPD2    C1 4414   1.064   4.570  12.607 -0.1814 -0.4938 -0.0341
  293MPD2    C2 4415   1.127   4.521  12.719  0.4369  0.7295 -0.2459
  293MPD2    C3 4416   1.242   4.588  12.768 -0.5147 -0.3565 -0.0836
  293MPD2    C4 4417   1.282   4.701  12.692  0.2570 -0.2201 -0.5349
  293MPD2    C5 4418   1.216   0.021  12.582 -0.1644  0.4550  0.3853
  293MPD2     H 4419   1.090   4.436  12.775  0.3191  2.2870  2.0670
  293MPD2    H1 4420   1.377   0.019  12.720  0.0273  0.6413 -1.1244
  293MPD2    H2 4421   1.035   4.714  12.463 -1.6788 -0.1510  1.1408
  293MPD2    H3 4422   1.260   0.104  12.528  0.2058 -0.3155 -0.4970
  293MPD2     N 4423   1.327   4.531  12.873 -0.1848 -0.2045 -0.0382
  293MPD2    H5 4424   1.293   4.465  12.942  1.1900 -0.2545  0.6118
  293MPD2    N1 4425   0.951   4.516  12.550 -0.3429 -1.3159  0.0488
  293MPD2    H7 4426   0.895   4.585  12.502 -0.4300 -1.4128  0.0109
  294TMC3    C1 4427   0.789   4.359  12.493 -0.3829  0.3960 -0.9793
  294TMC3    C2 4428   0.779   4.240  12.425 -0.4899  0.1750  0.2959
  294TMC3    C3 4429   0.684   4.228  12.326  0.5243  0.0114 -0.0883
  294TMC3    C4 4430   0.712   4.470  12.455 -0.2567 -0.2496 -0.5950
  294TMC3    C5 4431   0.629   4.455  12.346  0.5009 -0.2344 -0.3778
  294TMC3    C6 4432   0.606   4.336  12.284  0.1669  0.4066  0.7158
  294TMC3     C 4433   0.914   4.384  12.564 -0.6914 -0.3883  0.5088
  294TMC3     O 4434   0.975   4.285  12.603  0.2568  0.2075 -0.5463
  294TMC3     H 4435   0.845   4.157  12.447  0.9207  1.1903 -0.0822
  294TMC3    H1 4436   0.719   4.565  12.507 -2.5326  0.2461 -1.1999
  294TMC3    H2 4437   0.537   4.340  12.200  1.6773 -2.0914 -0.6445
  294TMC3    C7 4438   0.582   4.580  12.288 -0.5784 -0.4590  0.0414
  294TMC3    C8 4439   0.706   4.123  12.230  0.2940 -0.3685 -0.1983
  294TMC3    O1 4440   0.563   4.678  12.358  0.0396 -0.1008 -0.1677
  294TMC3    O2 4441   0.797   4.046  12.256  0.4617 -0.0309  0.3897
  295MPD2     C 4442   2.490   3.210   0.808 -0.1989 -0.6826 -0.5511
  295MPD2    C1 4443   2.478   3.121   0.704  0.5368  0.0150 -0.1665
  295MPD2    C2 4444   2.456   2.989   0.727  0.0310  0.2332  0.4756
  295MPD2    C3 4445   2.449   2.945   0.859 -0.6677 -0.3845 -0.6794
  295MPD2    C4 4446   2.458   3.030   0.962 -0.0370 -0.1284  0.3135
  295MPD2    C5 4447   2.473   3.167   0.938  0.0246 -0.7372  0.4224
  295MPD2     H 4448   2.437   2.919   0.646 -1.5857  0.7204  0.4300
  295MPD2    H1 4449   2.463   3.001   1.066  1.3902  1.9338  0.8113
  295MPD2    H2 4450   2.519   3.313   0.789 -1.7722 -0.3880 -1.3858
  295MPD2    H3 4451   2.473   3.248   1.009 -1.1144  0.1896 -0.6350
  295MPD2     N 4452   2.403   2.818   0.899  0.3820 -0.2523 -0.3808
  295MPD2    H5 4453   2.388   2.803   0.998  1.4789 -0.4853 -0.2546
  295MPD2    N1 4454   2.477   3.162   0.566 -0.3192 -0.5033 -0.2180
  295MPD2    H7 4455   2.449   3.089   0.501 -1.8899 -0.1336  0.0487
  296TMC3    C1 4456   2.321   2.603   0.876  0.9994  0.5272 -0.5536
  296TMC3    C2 4457   2.355   2.577   1.001  0.3980  0.0375 -0.9585
  296TMC3    C3 4458   2.298   2.470   1.061 -0.2737  0.6543  0.3360
  296TMC3    C4 4459   2.239   2.517   0.804 -0.1176  0.6309  0.0672
  296TMC3    C5 4460   2.186   2.404   0.869 -0.4779  0.0843 -0.0422
  296TMC3    C6 4461   2.206   2.391   1.001  0.2103  0.2873  0.4917
  296TMC3     C 4462   2.363   2.723   0.805 -0.5332 -0.2511  0.5862
  296TMC3     O 4463   2.339   2.728   0.685 -0.0544 -0.0330  0.2263
  296TMC3     H 4464   2.446   2.625   1.036 -1.1630  2.7892 -0.6670
  296TMC3    H1 4465   2.221   2.524   0.697  0.0333  0.4277  0.0290
  296TMC3    H2 4466   2.152   2.319   1.061 -0.6689 -0.3382 -1.0653
  296TMC3    C7 4467   2.059   2.368   0.816  0.5246  0.1669  0.8639
  296TMC3    C8 4468   2.294   2.460   1.206  0.6633 -0.1728 -0.4168
  296TMC3    O1 4469   2.057   2.375   0.694 -0.3148  0.0673 -0.0625
  296TMC3    O2 4470   2.188   2.419   1.250 -0.0462 -0.8781  0.1516
  297MPD2     C 4471   4.171   0.099  16.260  0.3586 -0.3423 -0.3104
  297MPD2    C1 4472   4.082   0.202  16.228 -0.8607  0.2268 -0.4807
  297MPD2    C2 4473   4.138   0.302  16.157  0.0426 -0.0482 -0.6577
  297MPD2    C3 4474   4.273   0.314  16.124  0.3954  1.1844 -0.6138
  297MPD2    C4 4475   4.359   0.205  16.159  0.9087 -0.6173  0.0601
  297MPD2    C5 4476   4.302   0.106  16.232 -0.2942 -0.4983  0.0992
  297MPD2     H 4477   4.083   0.386  16.117  1.0884  1.4996  1.1332
  297MPD2    H1 4478   4.461   0.196  16.125  0.2038  1.8148 -2.6596
  297MPD2    H2 4479   4.143   0.015  16.322 -1.4923  0.2910 -0.2949
  297MPD2    H3 4480   4.363   0.018  16.250 -1.9070 -1.9265 -1.4137
  297MPD2     N 4481   4.312   0.426  16.048  0.5293 -0.2269  0.0205
  297MPD2    H5 4482   4.266   0.516  16.049 -1.2249 -1.1450  2.6483
  297MPD2    N1 4483   3.941   0.205  16.263 -0.1009 -0.2511 -0.1377
  297MPD2    H7 4484   3.891   0.290  16.240 -1.1922 -0.2711  2.2293
  298TMC3    C1 4485   3.734   0.123  16.318 -0.3012  0.2594 -0.5316
  298TMC3    C2 4486   3.672   0.044  16.227  0.1580 -0.1508  0.0242
  298TMC3    C3 4487   3.568   0.088  16.158  0.5751 -0.7111  0.7122
  298TMC3    C4 4488   3.686   0.246  16.347  0.0170  0.2538 -0.9310
  298TMC3    C5 4489   3.570   0.279  16.285  0.0998 -0.7444 -0.3504
  298TMC3    C6 4490   3.512   0.211  16.187  0.1000  0.4686 -0.2044
  298TMC3     C 4491   3.877   0.103  16.325  0.2590 -0.3171  0.2347
  298TMC3     O 4492   3.910   4.708  16.332  0.4398  0.0327 -0.2475
  298TMC3     H 4493   3.695   4.664  16.216 -0.2404 -0.2008 -0.3420
  298TMC3    H1 4494   3.747   0.313  16.407 -1.9343  0.0704  1.2350
  298TMC3    H2 4495   3.417   0.247  16.147 -1.1597 -0.3482  2.0265
  298TMC3    C7 4496   3.520   0.409  16.324 -0.5171 -0.4152  0.5161
  298TMC3    C8 4497   3.529   0.012  16.035  0.0921 -0.1556 -1.1350
  298TMC3    O1 4498   3.555   0.456  16.431  0.3088  0.0122 -0.0881
  298TMC3    O2 4499   3.594   4.640  15.998  0.2008  0.6854 -0.1995
  299MPD2     C 4500   4.383   4.612  10.650 -0.2691 -0.0838 -0.2236
  299MPD2    C1 4501   4.349   0.025  10.640  0.2569  0.1267  0.9418
  299MPD2    C2 4502   4.251   0.059  10.549  0.0566  0.0996  0.7459
  299MPD2    C3 4503   4.194   4.688  10.463  0.2049  0.6185  0.1480
  299MPD2    C4 4504   4.229   4.559  10.479  0.7784 -0.7091 -0.0873
  299MPD2    C5 4505   4.324   4.525  10.569 -0.2804 -0.4257  0.3407
  299MPD2     H 4506   4.215   0.162  10.544  1.1395  0.3653 -1.3499
  299MPD2    H1 4507   4.186   4.478  10.421 -0.7506  1.1315 -1.5278
  299MPD2    H2 4508   4.464   4.575  10.713  1.4184 -0.4977 -2.6335
  299MPD2    H3 4509   4.354   4.421  10.564  1.2549 -0.0625  1.7332
  299MPD2     N 4510   4.088   4.703  10.373 -0.1732  1.2365 -0.1633
  299MPD2    H5 4511   4.048   4.617  10.336 -1.1310  1.1368  1.0878
  299MPD2    N1 4512   4.412   0.115  10.733 -0.2725 -0.2945 -0.1697
  299MPD2    H7 4513   4.457   0.061  10.806 -1.5706 -0.9484  0.1375
  300TMC3    C1 4514   3.889   0.076  10.281 -0.0050 -0.3807 -0.2297
  300TMC3    C2 4515   3.808   0.179  10.291  0.1863 -0.9044 -0.4961
  300TMC3    C3 4516   3.679   0.157  10.270  0.0970 -0.1529  0.1954
  300TMC3    C4 4517   3.851   4.671  10.242 -0.2972 -0.6345 -0.4443
  300TMC3    C5 4518   3.718   4.655  10.210 -0.0203  0.2625  0.3537
  300TMC3    C6 4519   3.631   0.032  10.229 -0.5153  0.1127  0.3201
  300TMC3     C 4520   4.027   0.091  10.337 -0.7760  0.4837  1.2333
  300TMC3     O 4521   4.062   0.206  10.357 -0.6192  0.4234  0.4692
  300TMC3     H 4522   3.840   0.281  10.305 -0.6847 -0.6826 -0.1105
  300TMC3    H1 4523   3.921   4.589  10.244  0.1503 -0.2349  0.9710
  300TMC3    H2 4524   3.525   0.015  10.218 -0.3890  1.3595 -2.6702
  300TMC3    C7 4525   3.662   4.540  10.271  0.3083 -1.2604  0.8853
  300TMC3    C8 4526   3.596   0.233  10.351  0.3972  0.1076  0.0890
  300TMC3    O1 4527   3.574   4.566  10.353  0.0982 -0.2352  0.4054
  300TMC3    O2 4528   3.481   0.242  10.316  0.6296  0.0371 -0.3912
  301MPD2     C 4529   1.323   1.211   1.487 -0.1613 -0.2435 -0.2862
  301MPD2    C1 4530   1.379   1.239   1.368  0.1724 -0.0516 -0.6030
  301MPD2    C2 4531   1.493   1.174   1.324  0.2621 -0.0300 -0.1237
  301MPD2    C3 4532   1.560   1.079   1.408  0.6845  0.8193  0.0420
  301MPD2    C4 4533   1.499   1.050   1.527 -0.6298 -0.3928  0.1772
  301MPD2    C5 4534   1.381   1.114   1.565 -0.1519  0.0454  0.6431
  301MPD2     H 4535   1.526   1.205   1.226 -2.6219  1.5846 -0.5816
  301MPD2    H1 4536   1.532   0.974   1.597  0.6584  1.1243  1.2086
  301MPD2    H2 4537   1.230   1.256   1.520  0.4132  1.3466 -0.8215
  301MPD2    H3 4538   1.334   1.084   1.658 -0.6460  3.6884  1.5641
  301MPD2     N 4539   1.686   1.012   1.377  0.1084 -0.3864  0.1356
  301MPD2    H5 4540   1.705   0.945   1.451  1.6103 -0.9332 -0.7369
  301MPD2    N1 4541   1.334   1.345   1.285 -0.6200  0.1779 -0.6859
  301MPD2    H7 4542   1.387   1.350   1.198  1.5903 -0.2032  0.6525
  302TMC3    C1 4543   1.890   0.973   1.264  0.8317  0.4974  0.1758
  302TMC3    C2 4544   1.929   0.890   1.365  0.7992  0.3410 -0.1568
  302TMC3    C3 4545   2.061   0.856   1.367 -0.3351  0.5186 -0.1424
  302TMC3    C4 4546   1.975   1.019   1.173 -0.1077  0.8422  0.5785
  302TMC3    C5 4547   2.107   0.988   1.172 -0.2419  0.0212  0.3424
  302TMC3    C6 4548   2.147   0.888   1.258  0.1500  0.7415 -0.5558
  302TMC3     C 4549   1.754   1.029   1.257 -0.1243  0.2959  0.0897
  302TMC3     O 4550   1.715   1.085   1.155 -0.5026 -0.2202 -0.4383
  302TMC3     H 4551   1.855   0.856   1.436  0.1880 -0.7346 -1.3087
  302TMC3    H1 4552   1.919   1.082   1.105  0.1599 -0.7506 -1.1219
  302TMC3    H2 4553   2.247   0.846   1.252 -0.6482 -1.4287  1.3384
  302TMC3    C7 4554   2.171   0.992   1.041  0.2376  1.0779  0.0471
  302TMC3    C8 4555   2.092   0.737   1.444 -0.2255 -0.0256 -0.2131
  302TMC3    O1 4556   2.249   0.904   1.004 -0.4937 -0.0417 -0.0882
  302TMC3    O2 4557   2.176   0.666   1.396 -0.5377  0.0387 -0.3022
  303MPD2     C 4558   1.609   0.002  10.397  0.8060  0.1369  0.2268
  303MPD2    C1 4559   1.517   0.006  10.289  0.7236  0.4240 -0.4377
  303MPD2    C2 4560   1.545   4.667  10.171 -0.3454 -0.1271  0.4171
  303MPD2    C3 4561   1.647   4.572  10.167 -0.3454  0.2580  0.3673
  303MPD2    C4 4562   1.731   4.560  10.280  0.2020 -0.3190  0.1055
  303MPD2    C5 4563   1.710   4.638  10.394  0.9725 -0.2583 -0.5220
  303MPD2     H 4564   1.477   4.676  10.088 -1.2829 -0.0321  1.1943
  303MPD2    H1 4565   1.806   4.482  10.281  0.8584  0.3598  2.9970
  303MPD2    H2 4566   1.606   0.075  10.477  2.6223 -1.7048  1.9905
  303MPD2    H3 4567   1.775   4.634  10.481  3.2216 -0.3869 -2.2155
  303MPD2     N 4568   1.665   4.482  10.062  0.1624 -0.5708  0.4455
  303MPD2    H5 4569   1.748   4.423  10.065  1.3025  0.8839 -2.9770
  303MPD2    N1 4570   1.400   0.087  10.304 -0.5947 -0.0090 -0.0701
  303MPD2    H7 4571   1.388   0.142  10.389 -2.0645 -0.0705 -0.2384
  304TMC3    C1 4572   1.176   0.121  10.280 -0.4079 -0.1431  0.6591
  304TMC3    C2 4573   1.074   0.192  10.215  0.2687  0.2917  0.0010
  304TMC3    C3 4574   0.949   0.198  10.267 -0.1297  0.0153  0.0334
  304TMC3    C4 4575   1.150   0.035  10.386  0.6272 -0.3057 -0.3787
  304TMC3    C5 4576   1.023   0.040  10.430 -0.4097  0.8190 -0.6586
  304TMC3    C6 4577   0.923   0.123  10.375 -0.3444  0.0421  0.2275
  304TMC3     C 4578   1.300   0.105  10.212 -0.4796 -0.3445 -0.3509
  304TMC3     O 4579   1.304   0.093  10.088  0.1520  0.5732  0.1054
  304TMC3     H 4580   1.094   0.242  10.122  0.5451 -0.8670 -0.5638
  304TMC3    H1 4581   1.222   4.687  10.419  1.3443  1.7588  2.6379
  304TMC3    H2 4582   0.827   0.136  10.424  0.2229  2.2716  0.7300
  304TMC3    C7 4583   0.956   4.646  10.483 -0.2168  0.2240 -0.9191
  304TMC3    C8 4584   0.855   0.183  10.155  0.0712  0.4454 -0.0671
  304TMC3    O1 4585   0.845   4.622  10.442 -0.5571 -0.4011  0.2230
  304TMC3    O2 4586   0.868   0.243  10.050  0.4050  0.2418 -0.4026
  305MPD2     C 4587   1.084   1.816  14.043 -0.4224  0.2862  0.2780
  305MPD2    C1 4588   0.948   1.823  14.079 -0.1328  0.0130  0.4833
  305MPD2    C2 4589   0.853   1.865  13.988 -0.2101  0.6209  0.7395
  305MPD2    C3 4590   0.895   1.912  13.864 -0.4234  0.7232 -0.5983
  305MPD2    C4 4591   1.031   1.913  13.834 -0.7157 -0.2683  0.2965
  305MPD2    C5 4592   1.124   1.863  13.919 -0.4914  0.9969  0.3668
  305MPD2     H 4593   0.749   1.865  14.016 -0.1668  0.5771  0.9011
  305MPD2    H1 4594   1.069   1.951  13.740  2.1895 -0.5481  1.3444
  305MPD2    H2 4595   1.156   1.785  14.118  0.3427 -0.5927 -0.8317
  305MPD2    H3 4596   1.231   1.867  13.900 -0.7620 -3.5279 -1.9181
  305MPD2     N 4597   0.809   1.957  13.756  0.0263  0.7654 -0.2215
  305MPD2    H5 4598   0.855   1.985  13.669  1.4781 -1.5357 -0.1871
  305MPD2    N1 4599   0.916   1.794  14.215  0.2526 -0.1919  0.7589
  305MPD2    H7 4600   1.001   1.781  14.269 -0.4165 -1.8650  1.4133
  306TMC3    C1 4601   0.793   1.774  14.417  0.3200  0.1043  0.7744
  306TMC3    C2 4602   0.887   1.687  14.465 -0.0667  0.5142 -0.0620
  306TMC3    C3 4603   0.912   1.677  14.600 -0.8179 -0.2074 -0.4020
  306TMC3    C4 4604   0.712   1.853  14.501 -0.9668  0.2930  0.2367
  306TMC3    C5 4605   0.750   1.847  14.637  0.2246  0.4426  0.2402
  306TMC3    C6 4606   0.850   1.761  14.687 -1.0314 -0.3915 -0.4333
  306TMC3     C 4607   0.796   1.807  14.279  0.3577  1.0345  0.6989
  306TMC3     O 4608   0.686   1.845  14.227  0.0110 -0.1117  0.2611
  306TMC3     H 4609   0.958   1.644  14.396  1.0194  1.9494  0.1627
  306TMC3    H1 4610   0.626   1.906  14.461  0.2330  0.6898 -1.7847
  306TMC3    H2 4611   0.900   1.777  14.782 -0.2019  0.0480 -0.9362
  306TMC3    C7 4612   0.716   1.957  14.729 -0.1875  0.0480 -0.7075
  306TMC3    C8 4613   0.966   1.553  14.642 -0.3896 -0.4501 -0.1429
  306TMC3    O1 4614   0.668   2.055  14.670  0.3195  0.0402 -0.0372
  306TMC3    O2 4615   1.008   1.472  14.560  0.3922  0.1860 -0.1765
  307MPD2     C 4616   2.436   3.171   1.309 -0.1428 -0.3998  0.5052
  307MPD2    C1 4617   2.451   3.315   1.298  0.6244 -0.1255 -0.5123
  307MPD2    C2 4618   2.342   3.397   1.309  0.3213  0.0341 -0.2953
  307MPD2    C3 4619   2.222   3.342   1.333  0.1780  0.2028  0.1685
  307MPD2    C4 4620   2.209   3.207   1.346  0.3311 -0.1893 -0.7872
  307MPD2    C5 4621   2.313   3.128   1.329  0.4377 -0.3464  0.2798
  307MPD2     H 4622   2.359   3.504   1.305  1.6184 -0.1375  0.9174
  307MPD2    H1 4623   2.111   3.166   1.365 -0.6131  2.4892  0.2248
  307MPD2    H2 4624   2.520   3.104   1.301 -0.2972 -0.6048  0.6179
  307MPD2    H3 4625   2.290   3.023   1.337  0.7958 -0.5838 -1.6827
  307MPD2     N 4626   2.121   3.439   1.328  0.1966  0.6239 -0.2517
  307MPD2    H5 4627   2.151   3.531   1.299 -1.1419  1.6871  1.7162
  307MPD2    N1 4628   2.580   3.380   1.286  0.4339 -0.5429  0.6265
  307MPD2    H7 4629   2.577   3.479   1.264 -1.7786 -0.5281  1.0124
  308TMC3    C1 4630   1.806   3.630   1.135  0.8194  0.7703 -0.3771
  308TMC3    C2 4631   1.865   3.751   1.174  0.0003  0.7433  0.7322
  308TMC3    C3 4632   1.941   3.753   1.287 -0.4669  0.2289  0.9438
  308TMC3    C4 4633   1.818   3.520   1.210  0.5194  0.7323 -0.5162
  308TMC3    C5 4634   1.902   3.525   1.318  0.8927  0.0942 -0.4906
  308TMC3    C6 4635   1.969   3.638   1.361  0.3584 -0.0503  0.2582
  308TMC3     C 4636   1.801   3.605   0.989  0.1621  0.3751 -0.4496
  308TMC3     O 4637   1.817   3.489   0.948 -0.1417  0.3679 -0.3000
  308TMC3     H 4638   1.852   3.843   1.118 -0.8949 -1.2881 -2.3563
  308TMC3    H1 4639   1.782   3.420   1.190 -0.2566  1.1828 -1.3482
  308TMC3    H2 4640   2.028   3.654   1.450  1.2216  0.4754 -0.4010
  308TMC3    C7 4641   1.985   3.410   1.330  0.4064  0.1424 -0.2697
  308TMC3    C8 4642   2.013   3.874   1.328  0.3066 -0.1189 -0.0324
  308TMC3    O1 4643   1.936   3.298   1.318  0.4629 -0.0011 -1.0407
  308TMC3    O2 4644   2.036   3.889   1.442 -0.4902 -0.3811 -0.1219
  309MPD2     C 4645   2.289   4.550  17.330  0.7387  0.8257 -0.2390
  309MPD2    C1 4646   2.260   4.661  17.242  0.2935 -0.1494  0.2791
  309MPD2    C2 4647   2.169   0.030  17.280 -0.5262  0.4234  0.6336
  309MPD2    C3 4648   2.096   0.014  17.388 -0.2467 -1.6026  0.1092
  309MPD2    C4 4649   2.118   4.628  17.470  0.6535 -0.1043 -0.2838
  309MPD2    C5 4650   2.213   4.542  17.446  0.3944  1.1979  0.2232
  309MPD2     H 4651   2.135   0.108  17.213  0.8215  0.3293 -0.1607
  309MPD2    H1 4652   2.062   4.612  17.561  2.1384 -0.0366  0.6539
  309MPD2    H2 4653   2.365   4.474  17.313 -0.0780  0.1914 -0.9994
  309MPD2    H3 4654   2.229   4.461  17.516 -0.2868  1.1437  0.3122
  309MPD2     N 4655   1.989   0.105  17.429 -1.0108 -0.4237  0.1086
  309MPD2    H5 4656   1.927   0.073  17.503 -0.1413 -2.9210 -0.2186
  309MPD2    N1 4657   2.325   4.679  17.120 -0.7023 -0.0168  0.5265
  309MPD2    H7 4658   2.291   0.023  17.056 -1.7607 -1.3857 -0.4121
  310TMC3    C1 4659   2.472   4.639  16.936 -0.3223  0.4297  0.8504
  310TMC3    C2 4660   2.393   4.705  16.845 -0.1092 -0.8522 -0.3765
  310TMC3    C3 4661   2.447   4.714  16.715 -0.4205 -0.4458 -0.0774
  310TMC3    C4 4662   2.585   4.574  16.903  0.4431  0.1338 -0.4474
  310TMC3    C5 4663   2.634   4.592  16.776 -0.0065  0.0342 -0.1873
  310TMC3    C6 4664   2.570   4.667  16.682  0.1310 -0.4284 -0.3626
  310TMC3     C 4665   2.418   4.595  17.065  0.4189  1.1759  0.7269
  310TMC3     O 4666   2.482   4.503  17.115 -0.4176  0.4779  0.2199
  310TMC3     H 4667   2.290   4.719  16.875 -0.0014 -0.2244 -0.3069
  310TMC3    H1 4668   2.650   4.524  16.974  0.1309  0.6574  0.2036
  310TMC3    H2 4669   2.605   4.666  16.580  1.9443  1.4764  0.2374
  310TMC3    C7 4670   2.734   4.502  16.742 -0.2348 -0.1912  0.6957
  310TMC3    C8 4671   2.357   0.045  16.612 -0.0079  0.1591 -0.4460
  310TMC3    O1 4672   2.722   4.389  16.788 -0.4528  0.1459 -0.3981
  310TMC3    O2 4673   2.397   0.042  16.497  0.4024 -0.2814 -0.5427
  311MPD2     C 4674   4.049   1.794  12.594  0.5283  0.1335 -0.5785
  311MPD2    C1 4675   4.116   1.706  12.678  0.8082  0.6672  0.2366
  311MPD2    C2 4676   4.052   1.590  12.716 -0.0038  0.1505 -0.3104
  311MPD2    C3 4677   3.932   1.553  12.659 -0.1714  0.0551  0.1131
  311MPD2    C4 4678   3.870   1.636  12.569 -0.6614  0.3355 -0.4660
  311MPD2    C5 4679   3.929   1.756  12.545 -0.6514 -0.3481  0.0559
  311MPD2     H 4680   4.096   1.533  12.797 -1.1681  0.2286  0.3792
  311MPD2    H1 4681   3.780   1.611  12.514 -1.1772  0.1166  0.4828
  311MPD2    H2 4682   4.104   1.880  12.557 -1.0889  1.5658  0.3536
  311MPD2    H3 4683   3.885   1.813  12.464 -1.3969  0.9701  1.3820
  311MPD2     N 4684   3.868   1.429  12.690 -0.3525  0.2336 -0.2489
  311MPD2    H5 4685   3.907   1.382  12.771 -0.0807  1.2432  0.2132
  311MPD2    N1 4686   4.246   1.751  12.718 -0.0254 -0.4407  0.1514
  311MPD2    H7 4687   4.271   1.850  12.715 -1.2984 -0.1388 -0.2868
  312TMC3    C1 4688   3.686   1.274  12.715  0.3036  0.1801  0.2303
  312TMC3    C2 4689   3.593   1.192  12.650  0.5826  0.5056  0.0089
  312TMC3    C3 4690   3.500   1.119  12.722  0.0408 -0.6124  0.2186
  312TMC3    C4 4691   3.678   1.295  12.851  0.1889 -1.0023 -1.3853
  312TMC3    C5 4692   3.581   1.217  12.915 -0.0912  0.0232  0.6056
  312TMC3    C6 4693   3.484   1.143  12.855 -0.1086 -0.3155  0.4515
  312TMC3     C 4694   3.754   1.377  12.631  0.1231 -0.3290 -0.3740
  312TMC3     O 4695   3.702   1.403  12.525  0.2678 -0.5426  0.5938
  312TMC3     H 4696   3.597   1.202  12.542 -1.9439  0.9142 -0.0610
  312TMC3    H1 4697   3.734   1.377  12.894 -1.1577 -0.0868 -1.3765
  312TMC3    H2 4698   3.432   1.081  12.926  0.2620  0.2892  1.2514
  312TMC3    C7 4699   3.551   1.269  13.048 -1.0619  0.8561 -0.3552
  312TMC3    C8 4700   3.374   1.093  12.651  0.1534  1.0122 -0.1308
  312TMC3    O1 4701   3.441   1.318  13.077 -0.3150  0.0678  0.4154
  312TMC3    O2 4702   3.299   1.014  12.702  0.8197  0.6851  0.5944
  313MPD2     C 4703   3.191   0.318  11.276 -0.3061 -0.6206 -0.1451
  313MPD2    C1 4704   3.220   0.385  11.161 -0.6801 -0.6915  0.5042
  313MPD2    C2 4705   3.223   0.312  11.038  0.0125  0.3080 -0.5509
  313MPD2    C3 4706   3.201   0.178  11.035 -0.2789 -0.0243 -0.1907
  313MPD2    C4 4707   3.156   0.115  11.151  0.8566  0.1414 -0.3196
  313MPD2    C5 4708   3.154   0.189  11.265 -0.4995  0.6120 -0.7138
  313MPD2     H 4709   3.254   0.362  10.947  0.7467  3.5313  1.4453
  313MPD2    H1 4710   3.118   0.013  11.151 -1.0379  0.8449  1.8941
  313MPD2    H2 4711   3.174   0.370  11.369 -1.0912 -0.7018 -0.2467
  313MPD2    H3 4712   3.115   0.133  11.349 -2.4601  0.8225 -1.4827
  313MPD2     N 4713   3.223   0.111  10.909 -0.2686  0.2109  0.2394
  313MPD2    H5 4714   3.282   0.165  10.845  0.9298 -1.0040  0.3080
  313MPD2    N1 4715   3.247   0.522  11.152 -0.3292 -0.4933 -0.2634
  313MPD2    H7 4716   3.264   0.572  11.065  1.6134  0.4873  0.6795
  314TMC3    C1 4717   3.293   0.733  11.232  0.0740 -0.3962  0.5138
  314TMC3    C2 4718   3.409   0.792  11.281 -0.6000  0.4858 -0.2010
  314TMC3    C3 4719   3.460   0.905  11.220  0.2769 -0.5739  0.7570
  314TMC3    C4 4720   3.229   0.779  11.126 -0.7716 -0.1363  0.4605
  314TMC3    C5 4721   3.279   0.892  11.069 -0.1592 -0.3772  0.1528
  314TMC3    C6 4722   3.389   0.958  11.122 -0.1882 -0.4554  0.1297
  314TMC3     C 4723   3.269   0.599  11.267 -0.4492 -0.0651 -0.2916
  314TMC3     O 4724   3.295   0.565  11.382 -0.5463  0.3284 -0.1264
  314TMC3     H 4725   3.452   0.739  11.365 -2.2820  1.2317  1.1353
  314TMC3    H1 4726   3.145   0.727  11.081  1.0192 -1.8414 -0.9139
  314TMC3    H2 4727   3.425   1.048  11.075 -0.5703 -0.9320 -1.0914
  314TMC3    C7 4728   3.178   0.960  10.988 -0.1903 -0.9139 -0.4337
  314TMC3    C8 4729   3.586   0.954  11.249  0.5440 -0.4881  0.1021
  314TMC3    O1 4730   3.065   0.958  11.034  0.2775  0.1305 -0.1070
  314TMC3    O2 4731   3.624   1.037  11.163  0.0452  0.2916 -0.0222
  315MPD2     C 4732   3.435   0.545   0.394  0.2922  0.7175 -0.4248
  315MPD2    C1 4733   3.561   0.541   0.337  0.2079  1.0705 -0.4223
  315MPD2    C2 4734   3.598   0.647   0.255 -0.1892  0.3707 -0.3643
  315MPD2    C3 4735   3.510   0.752   0.225 -0.1120 -0.1753 -0.5214
  315MPD2    C4 4736   3.385   0.748   0.279  0.3034  0.6731  0.4917
  315MPD2    C5 4737   3.354   0.652   0.368 -0.4280 -0.2077  0.1373
  315MPD2     H 4738   3.693   0.649   0.203 -0.3015  1.0559 -0.5326
  315MPD2    H1 4739   3.311   0.827   0.264 -0.8698 -0.4427  0.4241
  315MPD2    H2 4740   3.402   0.481   0.474 -0.1037  0.9969 -0.3631
  315MPD2    H3 4741   3.259   0.648   0.420  0.2481 -2.4124  1.2053
  315MPD2     N 4742   3.552   0.848   0.130  0.0029 -0.1936 -0.4340
  315MPD2    H5 4743   3.647   0.849   0.094 -0.6191 -1.7651 -2.0978
  315MPD2    N1 4744   3.650   0.434   0.366 -0.4197 -0.7220  0.2176
  315MPD2    H7 4745   3.731   0.432   0.304 -1.7867 -2.8527 -1.4989
  316TMC3    C1 4746   3.552   1.028  17.700  0.2940 -0.9562  0.0033
  316TMC3    C2 4747   3.672   1.073   0.029  0.2003  0.2938  0.0149
  316TMC3    C3 4748   3.723   1.185  17.681 -0.3471  0.3684  0.8170
  316TMC3    C4 4749   3.476   1.089  17.604 -0.4079 -0.0164 -0.2025
  316TMC3    C5 4750   3.541   1.197  17.543 -1.1839 -0.1952  0.0186
  316TMC3    C6 4751   3.658   1.252  17.576  0.8207 -0.4861 -0.2696
  316TMC3     C 4752   3.468   0.942   0.080  0.2460 -0.6830 -0.2505
  316TMC3     O 4753   3.345   0.942   0.080  0.0735 -0.0438  0.2333
  316TMC3     H 4754   3.719   1.028   0.116  0.4137  3.4059  1.5357
  316TMC3    H1 4755   3.373   1.062  17.584 -0.6903  0.3236  0.7576
  316TMC3    H2 4756   3.691   1.343  17.528  1.0041 -0.8735 -0.8811
  316TMC3    C7 4757   3.481   1.250  17.426  0.0009 -0.3343  0.0413
  316TMC3    C8 4758   3.870   1.204  17.685 -0.3036  0.9765 -0.4009
  316TMC3    O1 4759   3.497   1.367  17.398 -0.3047 -0.9252  0.0395
  316TMC3    O2 4760   3.913   1.306  17.627 -0.4447 -0.3888  0.3650
  317MPD2     C 4761   0.602   3.558  13.000 -0.5132  0.2006 -0.1426
  317MPD2    C1 4762   0.587   3.444  12.922 -0.0517 -0.3316  0.2641
  317MPD2    C2 4763   0.613   3.325  12.984 -0.9627  0.3695  0.8194
  317MPD2    C3 4764   0.664   3.316  13.115  0.0856 -0.0020  0.5014
  317MPD2    C4 4765   0.689   3.431  13.186  0.4773  0.3614 -0.3095
  317MPD2    C5 4766   0.656   3.554  13.128 -0.4060  0.9570 -0.4665
  317MPD2     H 4767   0.605   3.237  12.921 -1.5446 -0.8663  2.6117
  317MPD2    H1 4768   0.745   3.435  13.278 -0.7264  0.8549  0.3992
  317MPD2    H2 4769   0.626   3.654  12.957 -1.0932  0.7788  0.8295
  317MPD2    H3 4770   0.666   3.648  13.182 -0.5137  0.2815  0.7268
  317MPD2     N 4771   0.692   3.191  13.182  0.0768  0.4847  0.6388
  317MPD2    H5 4772   0.730   3.196  13.276  0.7924  1.0775  0.3129
  317MPD2    N1 4773   0.555   3.441  12.787 -0.0818  0.4755 -0.1269
  317MPD2    H7 4774   0.549   3.349  12.746  2.0906  1.0581 -1.7113
  318TMC3    C1 4775   0.636   2.973  13.236  0.0685  0.1640 -0.2042
  318TMC3    C2 4776   0.509   2.929  13.259 -0.6296 -0.2746 -0.7290
  318TMC3    C3 4777   0.487   2.861  13.377  0.1941  0.2566 -0.3985
  318TMC3    C4 4778   0.741   2.951  13.321  0.4047 -0.7480 -0.0460
  318TMC3    C5 4779   0.719   2.879  13.438 -0.6354  1.0569  0.7686
  318TMC3    C6 4780   0.590   2.840  13.468 -0.1356 -0.2487  0.1608
  318TMC3     C 4781   0.645   3.071  13.131  0.0581  0.0011  0.3284
  318TMC3     O 4782   0.574   3.051  13.032  0.6728  0.0517  0.2815
  318TMC3     H 4783   0.428   2.936  13.188  1.3155  1.0330 -2.8259
  318TMC3    H1 4784   0.844   2.974  13.295  1.1235 -2.1990  1.5189
  318TMC3    H2 4785   0.562   2.783  13.555  0.5587 -1.5823 -0.4931
  318TMC3    C7 4786   0.834   2.839  13.521  0.4450  0.5701 -0.8144
  318TMC3    C8 4787   0.371   2.769  13.396  0.1581 -0.1921 -0.7784
  318TMC3    O1 4788   0.944   2.854  13.466 -0.2904  0.2665 -0.0999
  318TMC3    O2 4789   0.381   2.684  13.486  0.2654 -0.0017 -0.1243
  319MPD2     C 4790   1.262   4.600  16.287  0.0133  0.1254  0.0908
  319MPD2    C1 4791   1.201   4.542  16.396  0.3038 -0.2570 -0.0089
  319MPD2    C2 4792   1.079   4.475  16.375  0.8386  0.0393  0.4993
  319MPD2    C3 4793   1.021   4.471  16.249  0.1516  0.8626  0.1326
  319MPD2    C4 4794   1.091   4.521  16.140  0.5711  0.1698  0.5375
  319MPD2    C5 4795   1.208   4.587  16.158 -0.0383 -0.0593 -0.5932
  319MPD2     H 4796   1.033   4.432  16.463  1.1632  1.0083  1.1457
  319MPD2    H1 4797   1.059   4.504  16.038  3.8558  1.3416 -0.6709
  319MPD2    H2 4798   1.355   4.655  16.292 -0.8257  1.4783  0.6233
  319MPD2    H3 4799   1.253   4.638  16.073 -0.0102  0.5432 -0.2199
  319MPD2     N 4800   0.903   4.396  16.220 -0.4192  0.9878 -0.0299
  319MPD2    H5 4801   0.879   4.396  16.121 -0.0620  2.8834 -0.1138
  319MPD2    N1 4802   1.268   4.531  16.520  0.4155 -0.3117  1.1286
  319MPD2    H7 4803   1.211   4.498  16.597 -1.1415  0.6128  0.3870
  320TMC3    C1 4804   0.716   4.263  16.255  0.1754 -0.0716  0.8588
  320TMC3    C2 4805   0.657   4.318  16.145 -0.7245 -0.1366 -1.0972
  320TMC3    C3 4806   0.626   4.235  16.039 -0.2137 -0.2777 -0.1188
  320TMC3    C4 4807   0.708   4.129  16.277 -0.1903 -0.2451 -0.5735
  320TMC3    C5 4808   0.665   4.048  16.178  0.0986 -0.1717  0.8415
  320TMC3    C6 4809   0.639   4.097  16.054  0.2616  0.3854  0.2493
  320TMC3     C 4810   0.832   4.322  16.312  0.1193  0.3196 -0.2850
  320TMC3     O 4811   0.852   4.307  16.432  0.3678 -0.3355 -0.2526
  320TMC3     H 4812   0.648   4.426  16.139 -0.3230 -0.0192  0.2912
  320TMC3    H1 4813   0.761   4.087  16.361  1.2041  1.1591 -0.7476
  320TMC3    H2 4814   0.610   4.022  15.982  0.9278  1.3233 -0.9999
  320TMC3    C7 4815   0.679   3.903  16.197  0.4205 -0.1067  0.4482
  320TMC3    C8 4816   0.616   4.302  15.910  0.7926  0.1136  0.7669
  320TMC3    O1 4817   0.659   3.828  16.102 -0.2240 -0.1413  0.7644
  320TMC3    O2 4818   0.594   4.423  15.909 -0.0368 -0.4487 -0.1800
  321TMC3    C1 4819   1.452   4.533  16.687  0.0547  0.6904 -0.5038
  321TMC3    C2 4820   1.364   4.525  16.783 -0.3966 -0.4464 -0.5816
  321TMC3    C3 4821   1.393   4.563  16.913 -0.2178 -0.6067  0.0127
  321TMC3    C4 4822   1.575   4.598  16.708  0.0987 -0.5534 -0.1890
  321TMC3    C5 4823   1.606   4.648  16.830 -0.0040  0.2095  0.4071
  321TMC3    C6 4824   1.514   4.632  16.932  0.0153  1.0381  0.5966
  321TMC3     C 4825   1.408   4.544  16.543 -0.6437  0.0655 -0.5507
  321TMC3     O 4826   1.503   4.554  16.464  0.6412 -0.6352 -0.4046
  321TMC3     H 4827   1.279   4.460  16.766 -0.8189 -0.2424  0.7838
  321TMC3    H1 4828   1.640   4.610  16.623 -0.2947  2.2406 -0.0898
  321TMC3    H2 4829   1.531   4.678  17.029 -1.5756 -0.4706  1.5849
  321TMC3    C7 4830   1.733   4.613  16.880 -0.2104 -0.1963 -0.3261
  321TMC3    C8 4831   1.376   4.461  17.016 -1.0747 -0.2690 -0.0267
  321TMC3    O1 4832   1.736   4.575  16.994  0.0145  0.3168  0.2592
  321TMC3    O2 4833   1.269   4.402  17.014 -0.4379  0.0640  0.0310
  322MPD2     C 4834   4.705   0.861  14.246 -0.1787 -0.2100 -0.0035
  322MPD2    C1 4835   0.096   0.827  14.313 -0.1606 -0.5887  0.1642
  322MPD2    C2 4836   0.158   0.704  14.295 -0.8307  0.0014 -0.3975
  322MPD2    C3 4837   0.114   0.617  14.197  0.2920 -0.0049  0.3006
  322MPD2    C4 4838   0.001   0.657  14.125 -0.0067  0.5764  0.4270
  322MPD2    C5 4839   4.658   0.776  14.149  0.9118  0.6940  0.5294
  322MPD2     H 4840   0.254   0.684  14.340 -1.5191  0.2262  1.1465
  322MPD2    H1 4841   4.678   0.579  14.067  2.7202 -1.4922  0.8845
  322MPD2    H2 4842   4.647   0.949  14.273 -1.0492 -1.1587  1.1779
  322MPD2    H3 4843   4.562   0.802  14.108  0.4664 -0.9663  0.5093
  322MPD2     N 4844   0.199   0.512  14.170 -0.5385 -0.6231 -0.5847
  322MPD2    H5 4845   0.274   0.497  14.237 -2.1853 -1.2712  1.1035
  322MPD2    N1 4846   0.165   0.934  14.375  0.2531  0.1949 -0.0537
  322MPD2    H7 4847   0.156   1.033  14.354  0.7178 -0.2078 -2.1437
  323TMC3    C1 4848   0.357   1.026  14.475  0.0259 -0.3356 -0.2910
  323TMC3    C2 4849   0.418   1.051  14.361  0.1664  0.5136 -0.0895
  323TMC3    C3 4850   0.552   1.054  14.363  0.2998 -0.6073 -0.0040
  323TMC3    C4 4851   0.430   1.016  14.595  0.6016  0.3913  0.3265
  323TMC3    C5 4852   0.562   1.022  14.595 -0.9270  0.7820 -0.6482
  323TMC3    C6 4853   0.634   1.051  14.475  1.0999  0.3393 -0.3968
  323TMC3     C 4854   0.267   0.915  14.472 -0.5790  0.0632  0.4788
  323TMC3     O 4855   0.278   0.817  14.545  0.3320 -0.5110 -0.2425
  323TMC3     H 4856   0.363   1.008  14.277 -0.1634  1.5536 -0.4051
  323TMC3    H1 4857   0.383   0.972  14.683 -0.5865 -0.3957 -0.7061
  323TMC3    H2 4858   0.741   1.040  14.479  1.0911  0.0514 -0.9705
  323TMC3    C7 4859   0.626   0.922  14.674  0.7568 -0.3242  0.4471
  323TMC3    C8 4860   0.621   1.079  14.236 -0.0842  0.0722  0.5405
  323TMC3    O1 4861   0.565   0.818  14.688 -0.5222  0.7063  0.1740
  323TMC3    O2 4862   0.744   1.061  14.235 -0.5018 -0.6532  0.0602
  324MPD2     C 4863   2.284   1.402  14.208 -0.0908 -1.3073  0.6070
  324MPD2    C1 4864   2.273   1.531  14.164 -0.1686  0.1577  0.1977
  324MPD2    C2 4865   2.157   1.586  14.109 -1.0641  0.4756  0.4767
  324MPD2    C3 4866   2.040   1.507  14.109 -0.0200  0.1553 -0.2454
  324MPD2    C4 4867   2.052   1.376  14.152 -0.1407 -0.1611  0.7034
  324MPD2    C5 4868   2.174   1.326  14.184  0.1526  0.3961  0.0686
  324MPD2     H 4869   2.158   1.687  14.069 -0.8896  0.2949  0.0301
  324MPD2    H1 4870   1.975   1.303  14.129  0.0119 -0.6223  1.6396
  324MPD2    H2 4871   2.374   1.354  14.246  0.2812  1.0661  2.7595
  324MPD2    H3 4872   2.176   1.222  14.214 -2.7086 -0.1120 -1.5190
  324MPD2     N 4873   1.910   1.549  14.072 -0.6777 -0.2433  0.6878
  324MPD2    H5 4874   1.841   1.475  14.081  0.0269 -0.8326  1.2589
  324MPD2    N1 4875   2.388   1.622  14.167 -0.7724 -0.8199  0.1111
  324MPD2    H7 4876   2.382   1.702  14.105  2.0471  0.8340  1.9780
  325TMC3    C1 4877   1.726   1.699  14.040  0.4424 -0.5483  0.1712
  325TMC3    C2 4878   1.634   1.594  14.059 -0.2104  0.1618  0.1474
  325TMC3    C3 4879   1.510   1.615  14.119 -0.6396  0.1621 -0.7812
  325TMC3    C4 4880   1.692   1.821  14.088  0.1963 -0.0594 -0.0971
  325TMC3    C5 4881   1.565   1.839  14.145  0.3312  0.4906 -0.8180
  325TMC3    C6 4882   1.477   1.736  14.174  0.4982 -0.0931  0.4258
  325TMC3     C 4883   1.872   1.675  14.037  0.4820 -0.6334 -0.4142
  325TMC3     O 4884   1.945   1.777  14.035 -0.3491  0.1171 -0.3996
  325TMC3     H 4885   1.641   1.494  14.017 -0.2142  0.2876 -0.1529
  325TMC3    H1 4886   1.756   1.907  14.070  0.7622 -0.6963 -1.0899
  325TMC3    H2 4887   1.373   1.754  14.199  0.5855  0.3065  0.5038
  325TMC3    C7 4888   1.497   1.963  14.102 -0.0194 -1.0203 -1.8144
  325TMC3    C8 4889   1.401   1.541  14.058 -0.2066  0.2614 -0.0125
  325TMC3    O1 4890   1.528   2.001  13.985 -0.4036 -0.1933  0.0029
  325TMC3    O2 4891   1.423   1.509  13.946  0.5655 -0.2929  0.3242
  326MPD2     C 4892   3.143   2.381  11.294  0.2294 -0.3369  0.2391
  326MPD2    C1 4893   3.132   2.490  11.221 -0.6660 -0.4156 -0.9266
  326MPD2    C2 4894   3.220   2.591  11.249  0.1251  0.8612  0.3177
  326MPD2    C3 4895   3.305   2.585  11.357 -0.4165  0.7276 -0.4469
  326MPD2    C4 4896   3.306   2.468  11.432  0.8978  0.5298 -0.0292
  326MPD2    C5 4897   3.224   2.365  11.404  0.3363 -0.6042  0.2678
  326MPD2     H 4898   3.234   2.674  11.181 -0.2612  2.3002  1.9881
  326MPD2    H1 4899   3.362   2.469  11.525  1.4430 -0.7755 -0.3380
  326MPD2    H2 4900   3.063   2.308  11.286 -0.4555  0.1016  2.9477
  326MPD2    H3 4901   3.208   2.288  11.478 -1.0934 -0.6946 -0.1446
  326MPD2     N 4902   3.396   2.684  11.402 -0.0036 -0.2067  0.1099
  326MPD2    H5 4903   3.460   2.665  11.479  0.2529 -0.5241 -0.1789
  326MPD2    N1 4904   3.052   2.497  11.104 -0.3196  0.3381 -0.2790
  326MPD2    H7 4905   3.074   2.574  11.041  4.0049  0.0035  0.7665
  327TMC3    C1 4906   2.905   2.446  10.933  0.1142 -0.0276  0.2240
  327TMC3    C2 4907   2.787   2.502  10.889 -0.3491 -0.8448 -0.4710
  327TMC3    C3 4908   2.789   2.561  10.761 -0.3018 -0.2009 -0.1375
  327TMC3    C4 4909   3.011   2.430  10.853 -0.1237 -0.5448 -0.5153
  327TMC3    C5 4910   3.017   2.485  10.732 -0.2594 -0.1100  0.3593
  327TMC3    C6 4911   2.906   2.556  10.691 -0.5274 -0.4001 -0.2316
  327TMC3     C 4912   2.939   2.425  11.075 -0.2442 -1.1913 -0.1540
  327TMC3     O 4913   2.858   2.361  11.144 -0.3493 -0.9387  0.4766
  327TMC3     H 4914   2.702   2.508  10.956  1.2815  0.3167  1.5111
  327TMC3    H1 4915   3.090   2.373  10.900  0.1804  1.0844  0.9460
  327TMC3    H2 4916   2.908   2.598  10.592 -0.2781 -0.3546 -0.2069
  327TMC3    C7 4917   3.140   2.561  10.710 -0.2595 -0.0069 -0.5203
  327TMC3    C8 4918   2.720   2.687  10.737 -0.1292 -0.0691 -0.4446
  327TMC3    O1 4919   3.134   2.645  10.621  0.0780 -0.4220  0.2112
  327TMC3    O2 4920   2.739   2.747  10.630 -0.3384 -0.2395 -0.5969
  328MPD2     C 4921   0.878   2.577  16.989  0.1383 -0.1813 -0.3564
  328MPD2    C1 4922   0.813   2.609  16.874  0.1292  0.1849  0.6185
  328MPD2    C2 4923   0.810   2.743  16.832  0.0912 -0.1593  0.1221
  328MPD2    C3 4924   0.857   2.844  16.908  0.2029 -0.2599 -0.4180
  328MPD2    C4 4925   0.918   2.804  17.029 -0.6258 -0.3995 -1.0207
  328MPD2    C5 4926   0.933   2.675  17.067  0.0092  0.4997 -0.6178
  328MPD2     H 4927   0.755   2.753  16.740 -0.0753  0.3962  0.2881
  328MPD2    H1 4928   0.974   2.877  17.085  2.8044 -2.3572 -1.8806
  328MPD2    H2 4929   0.892   2.472  17.014 -0.7775 -0.1623  0.2092
  328MPD2    H3 4930   0.967   2.658  17.168  0.8936 -1.1248 -1.1953
  328MPD2     N 4931   0.833   2.983  16.878 -0.2659 -0.0588  0.1087
  328MPD2    H5 4932   0.835   3.035  16.965 -0.3693  1.3897 -0.7630
  328MPD2    N1 4933   0.757   2.498  16.804  0.2488  0.0830 -0.0955
  328MPD2    H7 4934   0.747   2.420  16.868 -0.0649 -0.3619 -0.6942
  329TMC3    C1 4935   0.580   2.407  16.673 -0.7412 -0.6139 -0.1072
  329TMC3    C2 4936   0.469   2.488  16.636  0.1338 -0.0098  0.3195
  329TMC3    C3 4937   0.374   2.489  16.729 -0.1466  0.0691 -0.7170
  329TMC3    C4 4938   0.570   2.317  16.774 -0.2614 -0.1691  0.0631
  329TMC3    C5 4939   0.453   2.306  16.838 -0.2319 -0.7750  0.6036
  329TMC3    C6 4940   0.357   2.395  16.818 -0.7255  0.2691 -0.0673
  329TMC3     C 4941   0.699   2.503  16.681  0.1434  0.4552  0.0684
  329TMC3     O 4942   0.717   2.581  16.589  0.6532  0.3132  0.0160
  329TMC3     H 4943   0.479   2.573  16.570  0.1975  0.1985  0.5943
  329TMC3    H1 4944   0.657   2.264  16.810  0.6346  0.4133 -1.2675
  329TMC3    H2 4945   0.262   2.395  16.871 -1.2254  1.6108 -0.9611
  329TMC3    C7 4946   0.434   2.205  16.940 -0.3244  0.5957 -0.0991
  329TMC3    C8 4947   0.296   2.610  16.749  0.7650 -0.0334  0.9368
  329TMC3    O1 4948   0.336   2.225  17.012 -0.1505  0.5655 -0.5504
  329TMC3    O2 4949   0.277   2.671  16.644  0.1004  0.2065  0.4532
  330TMC3    C1 4950   3.479   1.831  10.031 -0.2257  0.2109 -1.0181
  330TMC3    C2 4951   3.401   1.733   9.979 -0.3851  0.8561  0.1327
  330TMC3    C3 4952   3.457   1.615   9.949  0.3220 -0.1588 -0.4822
  330TMC3    C4 4953   3.610   1.816  10.062 -0.5326 -0.3085  1.0130
  330TMC3    C5 4954   3.670   1.700  10.024  0.1276 -0.0237  0.4323
  330TMC3    C6 4955   3.597   1.595   9.963  0.4970  0.0514  0.9912
  330TMC3     C 4956   3.427   1.964  10.039 -0.4642 -0.1708  0.1460
  330TMC3     O 4957   3.481   2.034  10.124 -0.6062 -0.0953 -0.5627
  330TMC3     H 4958   3.295   1.749   9.961 -1.1208 -2.5496  1.4230
  330TMC3    H1 4959   3.675   1.891  10.104 -0.5232  0.7230 -0.8525
  330TMC3    H2 4960   3.641   1.496   9.951  2.7837  1.3170 -0.9108
  330TMC3    C7 4961   3.816   1.700  10.017 -0.8769 -0.0203  0.0589
  330TMC3    C8 4962   3.394   1.519   9.861 -0.4941  0.3460  0.0371
  330TMC3    O1 4963   3.873   1.750  10.111 -0.4947 -0.5169  0.9762
  330TMC3    O2 4964   3.457   1.456   9.778 -0.1357  0.0170  0.0900
  331MPD2     C 4965   1.328   1.466  12.226 -0.1382 -0.0338  0.7305
  331MPD2    C1 4966   1.391   1.426  12.108  0.7039 -0.4813 -1.1246
  331MPD2    C2 4967   1.412   1.292  12.090 -0.3733 -0.2440  0.3472
  331MPD2    C3 4968   1.384   1.205  12.192 -0.2188  0.3757  0.2588
  331MPD2    C4 4969   1.310   1.243  12.304  0.3178  0.0825 -0.1262
  331MPD2    C5 4970   1.277   1.376  12.314  0.2755 -0.3127  0.6777
  331MPD2     H 4971   1.468   1.260  12.003 -2.5118 -2.3991 -0.2516
  331MPD2    H1 4972   1.291   1.175  12.386  3.2320 -1.2637 -0.5596
  331MPD2    H2 4973   1.331   1.570  12.256 -0.0139 -0.4977  2.2958
  331MPD2    H3 4974   1.237   1.422  12.404  2.0797  0.4489  1.0800
  331MPD2     N 4975   1.436   1.070  12.168 -0.1860 -0.3567 -0.1474
  331MPD2    H5 4976   1.490   1.048  12.085  0.2278 -0.9991  0.2983
  331MPD2    N1 4977   1.436   1.517  12.014 -0.4966 -0.7861 -0.2843
  331MPD2    H7 4978   1.411   1.615  12.022 -1.9368 -1.0599 -1.5041
  332TMC3    C1 4979   1.531   0.861  12.216  0.3099 -0.0055 -0.3510
  332TMC3    C2 4980   1.602   0.868  12.099  0.5694 -0.3620  0.2059
  332TMC3    C3 4981   1.730   0.811  12.094 -0.1972  0.5622  0.0148
  332TMC3    C4 4982   1.591   0.795  12.324  0.3372  0.5890  0.1021
  332TMC3    C5 4983   1.719   0.746  12.319 -0.9476 -0.0733  0.6633
  332TMC3    C6 4984   1.791   0.750  12.202  0.4927 -0.1834 -0.0362
  332TMC3     C 4985   1.434   0.965  12.256 -0.3670  0.0381 -0.4103
  332TMC3     O 4986   1.378   0.959  12.364  0.7394 -0.0828 -0.1569
  332TMC3     H 4987   1.552   0.906  12.010  1.1582  2.1501  0.9480
  332TMC3    H1 4988   1.539   0.798  12.419  2.6055  0.3921  1.3542
  332TMC3    H2 4989   1.894   0.717  12.189  0.2559 -0.4833 -1.1849
  332TMC3    C7 4990   1.782   0.738  12.450 -0.0199  0.2464 -0.4077
  332TMC3    C8 4991   1.806   0.818  11.971  1.0837  0.4072  0.0963
  332TMC3    O1 4992   1.716   0.748  12.553 -0.2913  0.3704  0.9520
  332TMC3    O2 4993   1.929   0.838  11.988  0.2959 -0.2727  0.5629
  333MPD2     C 4994   1.490   1.888  11.345 -0.3528 -0.1229  0.1919
  333MPD2    C1 4995   1.556   1.765  11.310  0.2026 -0.0720  0.2670
  333MPD2    C2 4996   1.524   1.651  11.382 -0.2629 -0.0666 -0.9096
  333MPD2    C3 4997   1.422   1.651  11.476  0.5660  0.3040  0.0084
  333MPD2    C4 4998   1.360   1.766  11.503  0.1532 -0.2461 -1.0538
  333MPD2    C5 4999   1.388   1.882  11.438 -0.4608  0.0586 -0.3266
  333MPD2     H 5000   1.573   1.558  11.354 -1.0817 -1.4469  2.1864
  333MPD2    H1 5001   1.270   1.766  11.563  0.2877 -0.0352 -0.8492
  333MPD2    H2 5002   1.513   1.981  11.294 -0.8841 -0.1097 -0.0261
  333MPD2    H3 5003   1.324   1.968  11.452 -0.4612 -0.2229  1.3540
  333MPD2     N 5004   1.383   1.530  11.528  0.5915  0.3523  0.1206
  333MPD2    H5 5005   1.435   1.450  11.493 -0.5408 -0.0312 -0.6686
  333MPD2    N1 5006   1.653   1.765  11.208  0.4359  0.3419  1.4356
  333MPD2    H7 5007   1.689   1.857  11.187 -0.6789  0.4885  0.1626
  334TMC3    C1 5008   1.842   1.680  11.091 -0.7641  0.1183  0.7139
  334TMC3    C2 5009   1.926   1.570  11.078  0.3114  0.1804  0.2195
  334TMC3    C3 5010   2.030   1.573  11.000  0.1745  0.7654 -0.0007
  334TMC3    C4 5011   1.861   1.793  11.017  0.3929 -0.2956  0.7635
  334TMC3    C5 5012   1.968   1.790  10.930  0.1636 -0.5412 -0.3607
  334TMC3    C6 5013   2.053   1.679  10.921  0.7923 -0.1282  0.2864
  334TMC3     C 5014   1.716   1.655  11.157  0.1716  0.2586 -0.1980
  334TMC3     O 5015   1.674   1.538  11.155  0.1010  0.2868  0.0575
  334TMC3     H 5016   1.918   1.487  11.148  1.8279 -0.4909 -0.3929
  334TMC3    H1 5017   1.796   1.879  11.012  0.5072 -0.3005 -0.7796
  334TMC3    H2 5018   2.140   1.665  10.857 -0.1769 -0.0766 -1.0300
  334TMC3    C7 5019   1.997   1.909  10.844 -0.6564  0.4568 -0.8965
  334TMC3    C8 5020   2.120   1.463  11.013 -0.8274 -0.4906 -0.1343
  334TMC3    O1 5021   1.920   2.003  10.859  0.0280 -0.3069  0.3790
  334TMC3    O2 5022   2.061   1.362  11.044  0.5599 -0.3406  0.3340
  335TMC3    C1 5023   1.542   2.673  17.680 -0.0835 -0.4998  0.1866
  335TMC3    C2 5024   1.483   2.614  17.574  0.2389  0.3111  0.0029
  335TMC3    C3 5025   1.517   2.675  17.458 -0.6301  0.0613 -0.1600
  335TMC3    C4 5026   1.632   2.771  17.675  0.0482 -0.8286  0.4171
  335TMC3    C5 5027   1.662   2.827  17.556  0.1691 -0.0671  0.6906
  335TMC3    C6 5028   1.598   2.781  17.449  0.2315  0.3618  0.0705
  335TMC3     C 5029   1.501   2.623   0.095 -1.1423 -0.5600  0.8777
  335TMC3     O 5030   1.508   2.692   0.193  0.1613  0.0391 -0.0672
  335TMC3     H 5031   1.390   2.562  17.589  0.6748 -0.9997 -1.7570
  335TMC3    H1 5032   1.674   2.808   0.063 -0.4278  0.5527  0.0739
  335TMC3    H2 5033   1.604   2.828  17.351 -1.2707  1.3046  0.4313
  335TMC3    C7 5034   1.784   2.898  17.531 -0.1747  0.3249  0.2764
  335TMC3    C8 5035   1.442   2.643  17.341 -0.8108  0.3282  0.8202
  335TMC3    O1 5036   1.828   2.885  17.419 -0.7221  0.2736  0.0331
  335TMC3    O2 5037   1.387   2.736  17.280  0.3269  0.1490 -0.2534
  336MPD2     C 5038   0.968   0.683  16.013 -0.2163  0.0228  0.1797
  336MPD2    C1 5039   1.101   0.717  16.011  0.1650 -0.7129  0.6948
  336MPD2    C2 5040   1.185   0.641  16.094  0.2419 -0.4098 -0.1615
  336MPD2    C3 5041   1.134   0.533  16.173  0.2359 -0.6246 -0.4170
  336MPD2    C4 5042   0.996   0.502  16.163 -0.1385  0.6208 -0.2407
  336MPD2    C5 5043   0.917   0.575  16.083  0.0767 -0.5668 -0.5223
  336MPD2     H 5044   1.288   0.670  16.103  0.5699 -2.0889  1.5449
  336MPD2    H1 5045   0.963   0.420  16.225 -1.8830  1.3161 -0.2664
  336MPD2    H2 5046   0.897   0.742  15.955  0.9344 -1.2566 -2.5245
  336MPD2    H3 5047   0.812   0.551  16.071 -0.3581  0.8504  0.3531
  336MPD2     N 5048   1.216   0.452  16.254 -0.4338 -0.8074  0.1941
  336MPD2    H5 5049   1.168   0.383  16.310  1.2042  0.1185  2.7109
  336MPD2    N1 5050   1.154   0.827  15.937  0.1461  0.3661 -0.2161
  336MPD2    H7 5051   1.249   0.861  15.945 -0.6064  2.8337 -1.8714
  337TMC3    C1 5052   1.161   0.967  15.743  0.2267  0.4352 -0.8350
  337TMC3    C2 5053   1.114   0.981  15.612 -0.1562  0.4559 -0.4116
  337TMC3    C3 5054   1.134   1.100  15.549  0.1111 -0.1221 -0.2330
  337TMC3    C4 5055   1.214   1.074  15.806 -0.0701  0.0249 -1.0871
  337TMC3    C5 5056   1.218   1.193  15.742 -0.5197 -0.0395 -0.7160
  337TMC3    C6 5057   1.189   1.208  15.614  0.2157 -0.4051  0.0742
  337TMC3     C 5058   1.089   0.861  15.817 -0.1955  0.3253 -0.0098
  337TMC3     O 5059   1.003   0.804  15.751  0.0081  0.1014 -0.0784
  337TMC3     H 5060   1.084   0.889  15.564  1.5325  0.1070 -0.7928
  337TMC3    H1 5061   1.235   1.062  15.912  0.4487 -0.1711 -1.2111
  337TMC3    H2 5062   1.180   1.308  15.572  0.1912 -0.2683  0.4027
  337TMC3    C7 5063   1.212   1.305  15.828 -0.1271  0.3392 -0.7470
  337TMC3    C8 5064   1.051   1.126  15.432 -0.2363  0.6189  0.2809
  337TMC3    O1 5065   1.182   1.281  15.944 -0.4258  0.2956  0.3240
  337TMC3    O2 5066   1.059   1.235  15.375 -0.4845 -0.6171 -0.2840
  338MPD2     C 5067   1.898   4.491   1.148  0.6756  0.5182 -0.5224
  338MPD2    C1 5068   1.948   4.586   1.053 -0.1507  0.4339  0.9456
  338MPD2    C2 5069   1.960   4.719   1.081  0.9671 -0.0742  0.2650
  338MPD2    C3 5070   1.921   0.036   1.206 -0.4102 -0.4685 -0.4108
  338MPD2    C4 5071   1.896   4.671   1.306 -0.7349  0.0038  0.7398
  338MPD2    C5 5072   1.887   4.539   1.274 -0.1213  0.5347  0.5517
  338MPD2     H 5073   1.983   0.064   1.003 -1.5439  0.5446  0.1244
  338MPD2    H1 5074   1.877   4.691   1.411  0.4300  1.0189  0.7497
  338MPD2    H2 5075   1.883   4.386   1.125 -0.7980  0.2721  1.6514
  338MPD2    H3 5076   1.864   4.471   1.356 -1.0836  0.3484  0.1253
  338MPD2     N 5077   1.913   0.177   1.219 -0.4776 -0.0481 -0.5076
  338MPD2    H5 5078   1.947   0.228   1.138  2.9340 -0.9619  0.3708
  338MPD2    N1 5079   1.977   4.546   0.920  0.0570  0.1211 -0.0490
  338MPD2    H7 5080   2.003   4.622   0.859 -1.6396  0.3610 -0.4552
  339TMC3    C1 5081   1.842   0.384   1.331 -0.2283 -0.4110  0.1885
  339TMC3    C2 5082   1.751   0.427   1.424 -0.0901 -0.0188  0.0429
  339TMC3    C3 5083   1.683   0.545   1.400 -0.0861  0.1098 -0.2014
  339TMC3    C4 5084   1.875   0.461   1.218  0.6687  0.1118  0.0617
  339TMC3    C5 5085   1.810   0.583   1.208  0.0120 -0.0130  0.3900
  339TMC3    C6 5086   1.707   0.627   1.293 -1.4242  0.2789 -0.8647
  339TMC3     C 5087   1.855   0.239   1.330 -0.1014 -0.2164 -0.2084
  339TMC3     O 5088   1.776   0.182   1.409 -0.1699 -0.5330  0.5442
  339TMC3     H 5089   1.741   0.365   1.512  1.7271  1.2208  1.1179
  339TMC3    H1 5090   1.937   0.419   1.140 -1.3284 -0.7010 -1.0995
  339TMC3    H2 5091   1.662   0.725   1.290 -2.0959 -0.0197 -0.3802
  339TMC3    C7 5092   1.833   0.670   1.090 -0.2320  0.8612  0.1160
  339TMC3    C8 5093   1.613   0.602   1.513 -0.2567 -0.3531 -0.3950
  339TMC3    O1 5094   1.750   0.760   1.071  0.3592  0.9091  0.2251
  339TMC3    O2 5095   1.627   0.727   1.522  0.5698  0.1871 -0.2937
  340MPD2     C 5096   1.476   2.612   9.978  0.3381 -0.0657  0.5306
  340MPD2    C1 5097   1.500   2.479   9.979 -0.4085  0.4615 -0.0834
  340MPD2    C2 5098   1.500   2.410  10.101  0.1510  1.6067  0.4528
  340MPD2    C3 5099   1.487   2.483  10.223  0.4606 -0.0810  0.2801
  340MPD2    C4 5100   1.485   2.626  10.218  0.2585 -0.1250 -0.4582
  340MPD2    C5 5101   1.480   2.689  10.094  1.0878  0.7238 -0.2388
  340MPD2     H 5102   1.517   2.303  10.101 -2.7520  1.1262 -1.2707
  340MPD2    H1 5103   1.482   2.682  10.311  0.1082 -1.4544  0.3394
  340MPD2    H2 5104   1.466   2.667   9.885 -0.3942 -0.0755  0.5996
  340MPD2    H3 5105   1.475   2.797  10.089 -1.0099  0.5889 -1.2704
  340MPD2     N 5106   1.492   2.416  10.350  0.3422 -0.3250  0.1967
  340MPD2    H5 5107   1.500   2.474  10.433 -1.3326  0.5680 -0.2581
  340MPD2    N1 5108   1.504   2.401   9.864 -0.0744  0.1292 -0.4738
  340MPD2    H7 5109   1.510   2.301   9.879 -1.1581  0.4687  2.3095
  341TMC3    C1 5110   1.484   2.330   9.641 -0.3362  0.0989  0.2166
  341TMC3    C2 5111   1.411   2.220   9.676  0.1949 -0.1399  0.8012
  341TMC3    C3 5112   1.415   2.106   9.601  0.3591  0.2041 -0.5261
  341TMC3    C4 5113   1.560   2.334   9.527  0.0432 -0.1010  0.5518
  341TMC3    C5 5114   1.552   2.220   9.449  0.0051  0.1991 -0.8335
  341TMC3    C6 5115   1.485   2.106   9.482  0.0662  0.4857  0.9232
  341TMC3     C 5116   1.501   2.440   9.731 -0.1593 -0.1452  0.4356
  341TMC3     O 5117   1.501   2.556   9.682  0.3841  0.1974  0.4880
  341TMC3     H 5118   1.340   2.221   9.758  0.0780 -1.6772  0.7202
  341TMC3    H1 5119   1.616   2.424   9.505 -1.0232  0.5733  0.6302
  341TMC3    H2 5120   1.492   2.023   9.412  1.0026  0.4238  1.0930
  341TMC3    C7 5121   1.650   2.202   9.343 -0.0591 -0.1370 -0.4536
  341TMC3    C8 5122   1.329   1.991   9.627 -0.0501 -0.0072  0.5937
  341TMC3    O1 5123   1.700   2.095   9.314 -0.1398  0.0292  0.0538
  341TMC3    O2 5124   1.292   1.966   9.742 -0.2416  0.4850 -0.0803
  342MPD2     C 5125   3.902   0.994  17.416  0.2102 -0.3432  0.1235
  342MPD2    C1 5126   4.046   1.009  17.416 -0.0188 -0.6358 -0.1815
  342MPD2    C2 5127   4.103   1.121  17.364  0.2619 -0.1443  0.1766
  342MPD2    C3 5128   4.021   1.213  17.309  0.2787 -0.1612  0.3346
  342MPD2    C4 5129   3.879   1.194  17.309  0.5804  0.7759  0.7661
  342MPD2    C5 5130   3.817   1.088  17.365 -0.0397 -0.0873  0.9236
  342MPD2     H 5131   4.211   1.131  17.371  0.1450  0.9163  0.3794
  342MPD2    H1 5132   3.817   1.269  17.260  1.0885  0.8428  0.2121
  342MPD2    H2 5133   3.851   0.903  17.443 -1.1466  0.9226  1.8331
  342MPD2    H3 5134   3.712   1.067  17.345  0.4545 -0.6059 -1.0489
  342MPD2     N 5135   4.067   1.332  17.256  0.1543 -0.1312  0.3326
  342MPD2    H5 5136   3.996   1.402  17.238  0.3535  0.0254  0.1485
  342MPD2    N1 5137   4.143   0.911  17.459 -0.1355 -0.1191  0.3829
  342MPD2    H7 5138   4.237   0.947  17.450 -0.0357 -0.2454  0.9323
  343TMC3    C1 5139   4.225   0.720  17.553 -0.0182 -0.6750 -0.7113
  343TMC3    C2 5140   4.352   0.772  17.557  0.1172  0.6521  0.0119
  343TMC3    C3 5141   4.465   0.695  17.542  0.4886  0.6038  0.2060
  343TMC3    C4 5142   4.212   0.588  17.544 -0.9847 -0.6352 -0.4390
  343TMC3    C5 5143   4.325   0.514  17.531  0.3010  0.3482 -0.0120
  343TMC3    C6 5144   4.455   0.560  17.526 -0.6021 -0.2413  0.0221
  343TMC3     C 5145   4.109   0.791  17.518  0.0110  0.1916 -0.6493
  343TMC3     O 5146   3.999   0.737  17.524 -0.1900  0.2642  0.7246
  343TMC3     H 5147   4.363   0.879  17.573  1.5591  0.5644 -0.3910
  343TMC3    H1 5148   4.113   0.544  17.534 -1.9624  1.6918 -0.8743
  343TMC3    H2 5149   4.544   0.501  17.512 -0.7642 -0.4893  0.0358
  343TMC3    C7 5150   4.298   0.373  17.485 -0.3896  0.0237 -0.0363
  343TMC3    C8 5151   4.593   0.764  17.518  0.1409 -0.0350  0.4588
  343TMC3    O1 5152   4.194   0.357  17.426 -0.1034  0.0910  0.1532
  343TMC3    O2 5153   4.612   0.879  17.558 -0.0419  0.4005  0.4808
  344MPD2     C 5154   0.063   0.863  10.911  0.0294 -0.1659  0.2612
  344MPD2    C1 5155   0.015   0.791  10.805  0.8673 -0.0979  0.2904
  344MPD2    C2 5156   0.047   0.839  10.679 -0.6935 -0.1322  0.1563
  344MPD2    C3 5157   0.149   0.938  10.661  0.0398  1.2622 -0.2269
  344MPD2    C4 5158   0.198   1.002  10.774  0.7805  0.4362 -0.0145
  344MPD2    C5 5159   0.152   0.967  10.896 -0.3194 -0.1421 -0.3419
  344MPD2     H 5160   0.009   0.795  10.588  0.1830  1.7583 -1.1036
  344MPD2    H1 5161   0.261   1.090  10.771 -0.9552  1.6457 -0.9484
  344MPD2    H2 5162   0.041   0.860  11.017  1.7379  1.2152  0.6466
  344MPD2    H3 5163   0.194   1.019  10.982  1.2822 -2.1141  0.0861
  344MPD2     N 5164   0.189   0.987  10.539 -0.5394 -0.4614 -0.4633
  344MPD2    H5 5165   0.275   1.041  10.531 -1.3549  0.4777 -2.8996
  344MPD2    N1 5166   4.658   0.679  10.825 -0.1113 -0.0628 -0.6165
  344MPD2    H7 5167   4.638   0.619  10.746  1.2547  0.5395 -1.4288
  345TMC3    C1 5168   0.200   1.039  10.325  0.6125 -0.8365 -0.3860
  345TMC3    C2 5169   0.335   1.020  10.336 -0.1015 -0.2563 -0.4423
  345TMC3    C3 5170   0.425   1.114  10.304 -0.2182  0.5469  0.6811
  345TMC3    C4 5171   0.149   1.155  10.280  0.1634 -0.0412  0.0990
  345TMC3    C5 5172   0.245   1.245  10.231  0.2460 -0.3895  0.2237
  345TMC3    C6 5173   0.376   1.234  10.256 -0.5134  0.2418  0.0250
  345TMC3     C 5174   0.125   0.966  10.424 -0.2792 -0.4476 -0.0200
  345TMC3     O 5175   0.008   0.936  10.408  0.0908  0.2672 -0.1464
  345TMC3     H 5176   0.360   0.921  10.372  4.7158  0.5564 -1.5477
  345TMC3    H1 5177   0.042   1.171  10.281  0.4662  2.1647 -0.8861
  345TMC3    H2 5178   0.448   1.313  10.235  0.0997 -1.0417 -2.7918
  345TMC3    C7 5179   0.205   1.358  10.142  1.0863 -0.1646  0.3549
  345TMC3    C8 5180   0.511   1.148  10.408  0.3448 -0.1349  0.4426
  345TMC3    O1 5181   0.282   1.439  10.097  0.4834  0.3940  0.1978
  345TMC3    O2 5182   0.466   1.122  10.518 -0.2259  0.1527  0.0347
  346MPD2     C 5183   0.142   2.452  14.371 -0.0958  0.8928 -0.0677
  346MPD2    C1 5184   0.241   2.459  14.276 -0.0948 -0.0038 -0.2983
  346MPD2    C2 5185   0.373   2.460  14.323  0.7574 -0.1435  0.0561
  346MPD2    C3 5186   0.404   2.435  14.454  0.4752 -0.1982  0.3936
  346MPD2    C4 5187   0.303   2.427  14.546  0.4566  0.2391 -0.4321
  346MPD2    C5 5188   0.175   2.442  14.503  0.1745  0.8268  0.2417
  346MPD2     H 5189   0.455   2.471  14.253  1.3769  1.1593  0.9866
  346MPD2    H1 5190   0.327   2.414  14.650 -0.2078 -1.7277 -0.5334
  346MPD2    H2 5191   0.034   2.445  14.359  0.1566  1.0112 -2.3509
  346MPD2    H3 5192   0.097   2.444  14.579 -1.2499 -0.5597 -1.1860
  346MPD2     N 5193   0.543   2.417  14.477 -0.1542 -0.6079  0.0713
  346MPD2    H5 5194   0.602   2.436  14.397  1.4407  1.4821  1.7315
  346MPD2    N1 5195   0.215   2.447  14.137 -0.2837  0.0456  0.0764
  346MPD2    H7 5196   0.298   2.443  14.079 -0.6852  2.9746 -0.7267
  347TMC3    C1 5197   0.744   2.396  14.609  0.0264 -0.2563  0.9883
  347TMC3    C2 5198   0.792   2.302  14.523  0.6691 -0.8149 -1.4219
  347TMC3    C3 5199   0.901   2.239  14.563 -0.4986  0.5235 -0.4991
  347TMC3    C4 5200   0.806   2.434  14.723  0.4114  0.0484  0.4206
  347TMC3    C5 5201   0.925   2.375  14.761  0.4389  0.4385  0.2690
  347TMC3    C6 5202   0.970   2.275  14.677 -0.0858  0.2490 -0.1177
  347TMC3     C 5203   0.597   2.404  14.603 -0.9747  0.7068  0.0150
  347TMC3     O 5204   0.549   2.411  14.715  0.0777  0.2309 -0.2587
  347TMC3     H 5205   0.732   2.268  14.440 -3.0128  2.3778 -0.0615
  347TMC3    H1 5206   0.775   2.520  14.781 -1.6227 -0.2233 -0.2568
  347TMC3    H2 5207   1.064   2.226  14.702 -0.7878 -0.5306  1.0134
  347TMC3    C7 5208   0.996   2.416  14.880  0.1284 -0.2050 -0.3403
  347TMC3    C8 5209   0.981   2.162  14.467 -0.6030  0.0764 -0.5007
  347TMC3    O1 5210   0.993   2.531  14.915  0.0139 -0.2902 -0.4601
  347TMC3    O2 5211   1.051   2.075  14.517  0.1940 -0.6248  0.3912
  348MPD2     C 5212   4.181   2.047  12.058 -0.0952  0.2099  0.0888
  348MPD2    C1 5213   4.116   1.954  11.984  0.2234 -0.4307  0.7956
  348MPD2    C2 5214   4.111   1.974  11.843 -0.3724 -0.2131  0.3050
  348MPD2    C3 5215   4.162   2.086  11.779 -0.1601 -0.0082 -0.2452
  348MPD2    C4 5216   4.234   2.177  11.856  0.1737 -0.3935  0.2255
  348MPD2    C5 5217   4.242   2.151  11.990 -0.2440  0.5541 -0.0566
  348MPD2     H 5218   4.060   1.896  11.788  2.1148  0.1012 -2.4056
  348MPD2    H1 5219   4.278   2.269  11.820  0.4438 -1.6460 -2.6046
  348MPD2    H2 5220   4.193   2.044  12.166  1.3922  0.7019 -0.0598
  348MPD2    H3 5221   4.296   2.217  12.056 -0.4508 -1.4596  2.0890
  348MPD2     N 5222   4.121   2.110  11.646 -0.0342  0.4802 -0.1834
  348MPD2    H5 5223   4.070   2.041  11.592 -0.9700  0.3668  0.8536
  348MPD2    N1 5224   4.060   1.839  12.045 -0.2714  0.1308 -0.1150
  348MPD2    H7 5225   4.028   1.769  11.980 -2.2656 -0.1306  1.1572
  349TMC3    C1 5226   4.026   1.670  12.190 -0.2362  0.1418  0.1611
  349TMC3    C2 5227   4.082   1.598  12.298 -0.4274 -0.3121  0.7912
  349TMC3    C3 5228   4.066   1.464  12.305  0.4820  0.0781 -0.6634
  349TMC3    C4 5229   3.960   1.604  12.091  0.1474  0.5748  0.3811
  349TMC3    C5 5230   3.942   1.468  12.107  0.0547 -0.2077 -0.2981
  349TMC3    C6 5231   3.990   1.397  12.216  0.4416 -0.6841  0.4330
  349TMC3     C 5232   4.072   1.804  12.178 -0.4521 -0.7948  0.7023
  349TMC3     O 5233   4.142   1.849  12.266  0.0954  0.2117 -0.5888
  349TMC3     H 5234   4.132   1.647  12.381  0.1239 -0.3130  0.4596
  349TMC3    H1 5235   3.903   1.658  12.016  0.9598  1.6231  0.5183
  349TMC3    H2 5236   3.991   1.289  12.204 -1.4077 -0.9855  3.0067
  349TMC3    C7 5237   3.883   1.387  12.002  0.1393 -0.0430  0.4756
  349TMC3    C8 5238   4.148   1.396  12.396 -0.2567  0.1472 -0.0152
  349TMC3    O1 5239   3.822   1.281  12.020  0.1057 -1.0324  0.2607
  349TMC3    O2 5240   4.247   1.458  12.427  0.1155 -0.0949 -0.1933
  350MPD2     C 5241   2.709   0.013  10.250  0.5384 -0.2183  0.6033
  350MPD2    C1 5242   2.757   4.612  10.279  0.0913  0.3902  0.0477
  350MPD2    C2 5243   2.897   4.603  10.304  0.2776 -0.2897  0.6471
  350MPD2    C3 5244   2.973   4.714  10.322  0.5133  0.1998 -0.4659
  350MPD2    C4 5245   2.916   0.114  10.307 -0.8622 -0.3221 -0.2393
  350MPD2    C5 5246   2.784   0.128  10.274  0.3667 -0.0240  0.0935
  350MPD2     H 5247   2.944   4.506  10.303  1.1828  0.1539 -2.1830
  350MPD2    H1 5248   2.966   0.207  10.334 -2.0149  0.4189 -0.6663
  350MPD2    H2 5249   2.604   0.018  10.224  0.5777  0.0306  0.4945
  350MPD2    H3 5250   2.738   0.227  10.274  0.6682  0.1158 -0.2368
  350MPD2     N 5251   3.106   4.693  10.366  0.0052 -0.3417  0.0325
  350MPD2    H5 5252   3.141   4.598  10.378  0.6057  0.4368  4.5064
  350MPD2    N1 5253   2.690   4.488  10.267 -0.5798  0.3734  0.3943
  350MPD2    H7 5254   2.741   4.402  10.280  1.0991  1.5304  1.3176
  351TMC3    C1 5255   2.504   4.341  10.240 -0.1929  0.0012  0.2227
  351TMC3    C2 5256   2.590   4.235  10.229  0.8443 -0.3569  0.1155
  351TMC3    C3 5257   2.530   4.112  10.217 -0.3512 -0.8926  0.4837
  351TMC3    C4 5258   2.368   4.324  10.244  0.5281  0.6271  0.4872
  351TMC3    C5 5259   2.314   4.200  10.231 -0.1154 -0.6650  0.0501
  351TMC3    C6 5260   2.395   4.092  10.203 -0.5102 -0.4727 -0.1800
  351TMC3     C 5261   2.552   4.481  10.245 -0.6704 -0.1945 -0.4433
  351TMC3     O 5262   2.470   4.570  10.232  0.2214  0.6311 -0.1673
  351TMC3     H 5263   2.697   4.238  10.211  0.6247  1.3923 -0.9241
  351TMC3    H1 5264   2.303   4.407  10.269 -1.6969 -0.4979 -1.5398
  351TMC3    H2 5265   2.351   3.993  10.195 -0.2328 -0.5230 -1.1999
  351TMC3    C7 5266   2.165   4.195  10.209  0.1374  0.2124 -0.3658
  351TMC3    C8 5267   2.623   4.020  10.162 -0.2448 -0.0315  0.5381
  351TMC3    O1 5268   2.105   4.300  10.192 -0.3476  0.0514  0.1147
  351TMC3    O2 5269   2.702   4.058  10.075  0.0574 -0.0460  0.0332
  352MPD2     C 5270   0.615   2.036   1.134  0.7021  0.2775  0.0052
  352MPD2    C1 5271   0.728   2.096   1.074 -0.7096  0.3156 -0.2982
  352MPD2    C2 5272   0.849   2.031   1.099 -0.2135  0.5407  0.4428
  352MPD2    C3 5273   0.865   1.920   1.184  0.2971 -0.2389  0.6092
  352MPD2    C4 5274   0.753   1.877   1.248  0.6774 -0.1201  0.9541
  352MPD2    C5 5275   0.629   1.927   1.216 -0.4492  0.0192 -0.3118
  352MPD2     H 5276   0.934   2.071   1.044 -2.3267  4.6911  0.1685
  352MPD2    H1 5277   0.764   1.805   1.328  0.9302 -1.4714 -0.3082
  352MPD2    H2 5278   0.512   2.063   1.116  0.3587  0.2931  1.9764
  352MPD2    H3 5279   0.541   1.889   1.268 -0.3779 -0.5623 -0.6128
  352MPD2     N 5280   0.989   1.859   1.215  0.3361 -0.4013  0.0434
  352MPD2    H5 5281   0.988   1.788   1.288 -1.3577  0.0521  0.4385
  352MPD2    N1 5282   0.709   2.203   0.985 -0.4965 -0.2755  0.1576
  352MPD2    H7 5283   0.618   2.248   0.993 -0.8837 -1.1958  0.9884
  353TMC3    C1 5284   1.202   1.778   1.193 -0.1480  0.4895  0.6026
  353TMC3    C2 5285   1.168   1.659   1.248 -0.6385 -0.5304 -0.2941
  353TMC3    C3 5286   1.262   1.558   1.251  0.0466  0.6211  0.0700
  353TMC3    C4 5287   1.333   1.811   1.164  0.1898 -0.0767  0.3755
  353TMC3    C5 5288   1.429   1.718   1.191  0.4305 -0.4151 -0.7021
  353TMC3    C6 5289   1.396   1.589   1.232 -0.0739 -0.4896  0.0231
  353TMC3     C 5290   1.106   1.872   1.146 -0.1843  0.1394  1.2585
  353TMC3     O 5291   1.132   1.936   1.045  0.8229  0.0030  0.2618
  353TMC3     H 5292   1.070   1.623   1.280 -1.0123  2.0804  1.5601
  353TMC3    H1 5293   1.349   1.908   1.118  0.5652  1.0685  2.8833
  353TMC3    H2 5294   1.475   1.519   1.254  0.7776  0.6793  0.6602
  353TMC3    C7 5295   1.555   1.731   1.137  0.4254  0.2855  0.0068
  353TMC3    C8 5296   1.245   1.445   1.327  0.3616 -0.1479  1.1516
  353TMC3    O1 5297   1.615   1.632   1.100 -0.7364  0.3785 -0.2204
  353TMC3    O2 5298   1.178   1.456   1.432  0.0866 -0.3376  0.3207
  354TMC3    C1 5299   2.708   2.908  14.049 -0.2359 -0.3717  0.6506
  354TMC3    C2 5300   2.739   3.025  13.975 -0.1762  0.2615  1.0202
  354TMC3    C3 5301   2.672   3.023  13.849 -0.4318  0.2313 -0.1892
  354TMC3    C4 5302   2.635   2.803  14.000 -0.4267 -0.9056 -0.1860
  354TMC3    C5 5303   2.584   2.806  13.877 -0.2111 -0.1089 -0.8599
  354TMC3    C6 5304   2.577   2.928  13.812 -0.1117  0.3423  0.4291
  354TMC3     C 5305   2.728   2.906  14.192 -0.3039  0.0527  0.2163
  354TMC3     O 5306   2.715   2.793  14.247 -0.3586 -0.5646 -0.5746
  354TMC3     H 5307   2.816   3.095  14.007  2.2437 -1.9024 -0.0828
  354TMC3    H1 5308   2.658   2.706  14.043  1.6092 -1.1816 -1.8612
  354TMC3    H2 5309   2.543   2.932  13.709 -2.4190  0.3501  1.1966
  354TMC3    C7 5310   2.629   2.691  13.801 -0.1351 -0.0795  0.1936
  354TMC3    C8 5311   2.745   3.076  13.731 -0.3506  0.5868 -0.2771
  354TMC3    O1 5312   2.604   2.579  13.854 -0.1633  0.2150  0.3088
  354TMC3    O2 5313   2.691   3.063  13.621 -0.3441 -0.6050 -0.0689
  355MPD2     C 5314   3.575   3.305  12.378  0.2090  0.0510 -0.7346
  355MPD2    C1 5315   3.501   3.339  12.266 -0.5413  0.1916 -0.0844
  355MPD2    C2 5316   3.563   3.400  12.158  0.4075 -0.0944  1.5347
  355MPD2    C3 5317   3.690   3.444  12.184  0.3496  0.3226 -0.0777
  355MPD2    C4 5318   3.769   3.403  12.287 -0.1766 -0.4920 -0.5297
  355MPD2    C5 5319   3.706   3.327  12.379 -0.7055 -0.9101  0.2744
  355MPD2     H 5320   3.510   3.426  12.068  0.4970  1.6860  1.9881
  355MPD2    H1 5321   3.871   3.438  12.299 -0.0075 -0.6805 -1.4444
  355MPD2    H2 5322   3.531   3.252  12.462  0.1956 -2.0616 -2.0756
  355MPD2    H3 5323   3.761   3.286  12.463  1.9802 -0.6338 -1.3604
  355MPD2     N 5324   3.737   3.563  12.121  0.1460  0.8949 -0.6145
  355MPD2    H5 5325   3.827   3.596  12.156 -0.3721  0.5904  0.9908
  355MPD2    N1 5326   3.360   3.336  12.276  0.2146 -0.0633 -0.2260
  355MPD2    H7 5327   3.315   3.337  12.366  2.1888 -0.2590  0.7670
  356TMC3    C1 5328   3.704   3.776  12.031  0.0439  0.2715 -0.3164
  356TMC3    C2 5329   3.708   3.854  11.920  0.5891 -0.6450  0.2068
  356TMC3    C3 5330   3.739   3.988  11.937  0.9932  0.1037  0.5238
  356TMC3    C4 5331   3.707   3.827  12.158 -0.4281 -0.1151 -0.4567
  356TMC3    C5 5332   3.742   3.959  12.167  0.2712 -0.1219 -0.7898
  356TMC3    C6 5333   3.760   4.041  12.062 -0.2864 -0.2501  0.5857
  356TMC3     C 5334   3.673   3.635  12.022  0.1450  0.0634  0.0649
  356TMC3     O 5335   3.598   3.594  11.930  0.5219  0.1467  0.0113
  356TMC3     H 5336   3.678   3.807  11.827  1.5135 -1.4212  0.2965
  356TMC3    H1 5337   3.705   3.770  12.250  0.2823 -0.8239 -0.8861
  356TMC3    H2 5338   3.757   4.148  12.081  1.0055  0.0254 -0.7830
  356TMC3    C7 5339   3.769   4.000  12.302 -0.5348 -0.1890  0.1033
  356TMC3    C8 5340   3.773   4.055  11.812 -0.5219 -0.2655 -0.0080
  356TMC3    O1 5341   3.782   3.908  12.382  0.2575  0.6629 -0.3552
  356TMC3    O2 5342   3.729   4.004  11.712 -0.8939 -0.2892  0.2623
  357MPD2     C 5343   3.354   4.006   0.951  0.4195 -0.6941  0.2220
  357MPD2    C1 5344   3.426   3.973   1.069  0.0180  0.7273 -0.0058
  357MPD2    C2 5345   3.364   3.971   1.194  0.2134 -1.0570  0.7854
  357MPD2    C3 5346   3.225   3.977   1.197 -0.8912  0.0579  0.1676
  357MPD2    C4 5347   3.158   4.014   1.085 -0.4874 -0.9700  0.3570
  357MPD2    C5 5348   3.219   4.022   0.964  0.0006  0.5050  1.1376
  357MPD2     H 5349   3.423   3.956   1.284  2.2392 -0.3274 -0.4411
  357MPD2    H1 5350   3.053   4.041   1.089  0.1760  1.5055  1.1907
  357MPD2    H2 5351   3.408   4.015   0.857  1.4076  0.1826  0.8735
  357MPD2    H3 5352   3.166   4.050   0.874 -1.3732 -0.2478  1.7235
  357MPD2     N 5353   3.148   3.950   1.312 -0.2927 -0.5066  0.0125
  357MPD2    H5 5354   3.048   3.944   1.297 -0.4452  0.7623  0.4308
  357MPD2    N1 5355   3.563   3.943   1.048 -0.5816 -0.3208  0.5140
  357MPD2    H7 5356   3.596   3.927   0.953 -0.6686  4.9607 -0.4081
  358TMC3    C1 5357   3.788   3.880   1.096  0.0731  0.5511 -0.3646
  358TMC3    C2 5358   3.792   3.805   0.987 -0.1132 -0.4872 -0.4586
  358TMC3    C3 5359   3.904   3.724   0.966  0.4248  0.4922 -0.2633
  358TMC3    C4 5360   3.887   3.871   1.189  0.1622 -0.0208  0.3680
  358TMC3    C5 5361   3.985   3.774   1.172 -0.3856 -0.8698  0.2068
  358TMC3    C6 5362   3.998   3.698   1.063  0.0663 -0.2538  0.2598
  358TMC3     C 5363   3.658   3.931   1.150 -0.1026  0.6752  0.5037
  358TMC3     O 5364   3.654   3.965   1.266 -0.0073 -0.4464 -0.0107
  358TMC3     H 5365   3.709   3.798   0.918 -1.6877 -3.1575  1.6909
  358TMC3    H1 5366   3.875   3.934   1.276 -1.2693  0.0924  0.0933
  358TMC3    H2 5367   4.093   3.654   1.037 -0.1683 -0.3720 -0.4157
  358TMC3    C7 5368   4.075   3.742   1.280  0.3470  0.1990 -0.3430
  358TMC3    C8 5369   3.875   3.612   0.869 -0.3716  0.5811 -0.2939
  358TMC3    O1 5370   4.183   3.694   1.243 -0.1669  0.7625  0.4874
  358TMC3    O2 5371   3.784   3.632   0.787  0.1078  0.0365 -0.0355
  359MPD2     C 5372   3.126   2.611  12.440 -0.8897 -0.1360 -0.0755
  359MPD2    C1 5373   3.202   2.503  12.411 -0.6566 -0.0053  0.7636
  359MPD2    C2 5374   3.139   2.381  12.415 -0.0563 -0.7177  1.6066
  359MPD2    C3 5375   3.009   2.359  12.444  0.4579  0.8820  0.5378
  359MPD2    C4 5376   2.940   2.463  12.486  0.6719 -0.4672 -0.4410
  359MPD2    C5 5377   2.995   2.590  12.478 -0.2859 -0.1602 -0.0788
  359MPD2     H 5378   3.187   2.294  12.372  1.1076 -0.6414  2.7201
  359MPD2    H1 5379   2.835   2.459  12.513  0.6627  0.4262 -0.3645
  359MPD2    H2 5380   3.166   2.712  12.441  0.2002 -0.5593 -0.3736
  359MPD2    H3 5381   2.935   2.676  12.506 -0.0330 -0.0693  0.1809
  359MPD2     N 5382   2.935   2.243  12.436 -0.5678 -0.5169  0.1936
  359MPD2    H5 5383   2.834   2.257  12.446 -0.3159  0.6419  1.1739
  359MPD2    N1 5384   3.337   2.508  12.358 -0.5192  0.4498  0.1128
  359MPD2    H7 5385   3.383   2.430  12.313 -0.1104  0.1027  1.1289
  360TMC3    C1 5386   3.530   2.615  12.275  0.5441 -0.5551  0.5588
  360TMC3    C2 5387   3.649   2.672  12.320  0.1440 -0.3443  0.3998
  360TMC3    C3 5388   3.767   2.620  12.257 -0.0881  0.1338 -1.0572
  360TMC3    C4 5389   3.521   2.524  12.179  0.2245 -0.5046 -0.1492
  360TMC3    C5 5390   3.642   2.485  12.117  0.2539 -0.0746  0.0221
  360TMC3    C6 5391   3.766   2.527  12.160 -1.0892  0.3325 -0.7034
  360TMC3     C 5392   3.414   2.623  12.356 -1.2973 -0.9209  0.1163
  360TMC3     O 5393   3.392   2.741  12.390  0.0061 -0.0940 -0.7546
  360TMC3     H 5394   3.636   2.724  12.415  0.4424  0.0917  0.1996
  360TMC3    H1 5395   3.429   2.504  12.126 -0.1919  1.2498 -0.0982
  360TMC3    H2 5396   3.853   2.485  12.110 -0.4351  0.6341  0.1825
  360TMC3    C7 5397   3.633   2.415  11.995  0.1896 -0.7716  0.4402
  360TMC3    C8 5398   3.875   2.701  12.300 -0.4840 -0.4614  0.0539
  360TMC3    O1 5399   3.738   2.410  11.932 -0.1621 -0.2564  0.1651
  360TMC3    O2 5400   3.868   2.772  12.402 -0.4674  0.2222  0.3607
  361MPD2     C 5401   0.327   1.331  16.767 -0.3485  0.2647 -0.3513
  361MPD2    C1 5402   0.375   1.422  16.860 -0.6822  0.6586 -0.0826
  361MPD2    C2 5403   0.493   1.396  16.935  0.1634 -0.8990  0.2763
  361MPD2    C3 5404   0.559   1.272  16.913 -0.2500  0.3588  0.3086
  361MPD2    C4 5405   0.511   1.184  16.813  0.5927  0.2381 -0.7114
  361MPD2    C5 5406   0.399   1.221  16.746 -0.4707  0.1981 -0.2019
  361MPD2     H 5407   0.528   1.475  17.000  0.5666 -0.0875 -0.9181
  361MPD2    H1 5408   0.556   1.089  16.786 -2.1855 -1.0804 -0.7262
  361MPD2    H2 5409   0.229   1.349  16.723 -1.6423 -0.5280  2.1747
  361MPD2    H3 5410   0.369   1.153  16.666  3.1145  1.2458 -2.4599
  361MPD2     N 5411   0.685   1.247  16.969 -0.1290  0.4695  0.5620
  361MPD2    H5 5412   0.734   1.173  16.920  0.3245  0.2472  1.3526
  361MPD2    N1 5413   0.298   1.539  16.904 -0.1925 -0.2032  0.3227
  361MPD2    H7 5414   0.347   1.611  16.955  0.6133 -0.8596  0.4661
  362TMC3    C1 5415   0.100   1.678  16.910 -0.2912 -0.7801  0.0818
  362TMC3    C2 5416   4.692   1.687  16.939  0.4799  0.0986 -0.1168
  362TMC3    C3 5417   4.638   1.816  16.962 -0.3947  0.6949  0.3860
  362TMC3    C4 5418   0.175   1.792  16.891 -0.0464  0.2738  0.0711
  362TMC3    C5 5419   0.117   1.918  16.896 -0.0910  0.1048 -0.4457
  362TMC3    C6 5420   4.708   1.932  16.942 -0.2756  0.2576 -0.2763
  362TMC3     C 5421   0.156   1.546  16.884  0.1270  0.5694  0.8905
  362TMC3     O 5422   0.084   1.449  16.853 -0.0075  0.3766  0.3928
  362TMC3     H 5423   4.630   1.604  16.970 -0.3193  0.3060 -1.1636
  362TMC3    H1 5424   0.281   1.779  16.872 -0.4672  1.1629 -2.9461
  362TMC3    H2 5425   4.666   2.032  16.948 -0.6982  0.0668 -0.0960
  362TMC3    C7 5426   0.156   2.026  16.808  0.3336  0.3213 -0.5030
  362TMC3    C8 5427   4.489   1.828  16.942  1.1242  0.4897  0.2402
  362TMC3    O1 5428   0.097   2.131  16.818  0.2224  0.0993 -0.5671
  362TMC3    O2 5429   4.422   1.736  16.899 -0.1258  0.1624  0.2647
  363TMC3    C1 5430   3.487   4.337   9.768 -0.0764 -0.8514 -0.3259
  363TMC3    C2 5431   3.509   4.224   9.844  0.4161  0.0501  0.3250
  363TMC3    C3 5432   3.396   4.162   9.889  0.0292  0.0431 -0.2894
  363TMC3    C4 5433   3.363   4.385   9.733 -0.4968  0.0499 -0.1826
  363TMC3    C5 5434   3.258   4.322   9.789 -0.4128 -0.0603  0.0010
  363TMC3    C6 5435   3.269   4.200   9.864  0.1290 -0.3032 -0.3594
  363TMC3     C 5436   3.605   4.410   9.730 -0.1189  0.0514 -0.5720
  363TMC3     O 5437   3.709   4.367   9.780 -0.2590  0.3970 -0.3051
  363TMC3     H 5438   3.607   4.193   9.880  0.5418  0.0787  0.0054
  363TMC3    H1 5439   3.353   4.483   9.688  0.5368  0.4801  0.5156
  363TMC3    H2 5440   3.179   4.148   9.892  0.4128 -0.0423  1.0081
  363TMC3    C7 5441   3.124   4.372   9.769 -0.0703  0.1280 -0.5021
  363TMC3    C8 5442   3.411   4.048   9.978 -0.8043 -0.6248  0.6167
  363TMC3    O1 5443   3.042   4.302   9.829 -0.4550 -0.5252  0.4175
  363TMC3    O2 5444   3.310   4.024  10.045 -0.2460  0.6526  0.5335
  364MPD2     C 5445   2.473   3.082  10.929  0.0979 -0.3507  0.1959
  364MPD2    C1 5446   2.504   3.060  10.796 -0.1753  0.4386  0.3688
  364MPD2    C2 5447   2.557   2.940  10.761  0.7551 -0.4052  0.2103
  364MPD2    C3 5448   2.585   2.847  10.862  0.3765 -0.4179 -0.6019
  364MPD2    C4 5449   2.549   2.869  10.988 -0.7830  1.0006  0.4726
  364MPD2    C5 5450   2.480   2.982  11.020 -0.0031  0.2059  0.2727
  364MPD2     H 5451   2.591   2.919  10.660  0.9289 -0.3302  0.2551
  364MPD2    H1 5452   2.573   2.792  11.060 -0.9396 -1.7739 -2.3937
  364MPD2    H2 5453   2.440   3.180  10.963  1.1880  0.4774 -1.1539
  364MPD2    H3 5454   2.458   2.993  11.125 -0.6342  1.6575 -0.0188
  364MPD2     N 5455   2.651   2.728  10.845  0.3982 -0.9196 -0.4594
  364MPD2    H5 5456   2.653   2.669  10.927 -1.2642 -0.5131 -0.1291
  364MPD2    N1 5457   2.496   3.170  10.715  0.4416  0.8667 -0.2605
  364MPD2    H7 5458   2.473   3.259  10.757  0.5486  1.8849 -2.3709
  365TMC3    C1 5459   2.498   3.315  10.524 -0.0481 -0.5101  0.1746
  365TMC3    C2 5460   2.534   3.337  10.395 -0.4341 -0.3909  0.2637
  365TMC3    C3 5461   2.514   3.466  10.344 -0.6991  0.0561 -0.4309
  365TMC3    C4 5462   2.442   3.413  10.601  1.0013 -0.3356  0.3393
  365TMC3    C5 5463   2.428   3.544  10.555 -0.3185 -0.3898  0.5639
  365TMC3    C6 5464   2.471   3.571  10.420  0.5720  0.0561  0.0987
  365TMC3     C 5465   2.522   3.180  10.576 -0.1489 -0.7893 -0.2787
  365TMC3     O 5466   2.555   3.092  10.497  0.3459 -0.0216 -0.4873
  365TMC3     H 5467   2.591   3.265  10.337 -0.6892  2.2168 -3.2858
  365TMC3    H1 5468   2.407   3.394  10.701  0.6359  0.3515  0.3415
  365TMC3    H2 5469   2.460   3.673  10.385  0.6632  0.5593  1.5397
  365TMC3    C7 5470   2.358   3.634  10.634  0.3091 -0.9364 -0.6838
  365TMC3    C8 5471   2.526   3.497  10.205 -0.4242 -0.6917  0.6560
  365TMC3    O1 5472   2.307   3.726  10.572  0.4557 -0.4751  0.3413
  365TMC3    O2 5473   2.467   3.600  10.172 -0.0084  0.0240 -0.2223
  366MPD2     C 5474   1.518   4.160  15.146  0.4680  0.6138 -0.0846
  366MPD2    C1 5475   1.536   4.238  15.263 -0.0929  0.1195 -0.3955
  366MPD2    C2 5476   1.667   4.258  15.313 -0.0777  0.5036 -0.0542
  366MPD2    C3 5477   1.777   4.219  15.239  0.1695  0.0533  0.1165
  366MPD2    C4 5478   1.758   4.134  15.139 -0.3793  0.7753 -1.0485
  366MPD2    C5 5479   1.633   4.105  15.095  0.0818 -0.4769 -0.3577
  366MPD2     H 5480   1.674   4.324  15.399  0.9205  1.4843 -0.8981
  366MPD2    H1 5481   1.836   4.085  15.082  0.3831  1.7666 -0.8597
  366MPD2    H2 5482   1.422   4.140  15.099  0.1333 -0.3074  0.9908
  366MPD2    H3 5483   1.625   4.044  15.005  0.6847 -0.9905 -0.0694
  366MPD2     N 5484   1.912   4.237  15.283 -0.0803  0.6491  0.4787
  366MPD2    H5 5485   1.982   4.178  15.238 -0.1651  1.7547 -1.1181
  366MPD2    N1 5486   1.438   4.319  15.318  0.1780  0.1400 -0.7120
  366MPD2    H7 5487   1.455   4.354  15.411 -2.3455 -1.2360  0.2697
  367TMC3    C1 5488   1.256   4.481  15.306 -0.6231  0.6583  0.3282
  367TMC3    C2 5489   1.333   4.555  15.389 -0.2071  0.5513  0.5877
  367TMC3    C3 5490   1.285   4.680  15.418 -0.3007  0.1375  0.5211
  367TMC3    C4 5491   1.149   4.532  15.238 -0.3606  0.0320  0.3800
  367TMC3    C5 5492   1.120   4.664  15.247 -0.6005 -0.0366  0.2042
  367TMC3    C6 5493   1.189   0.012  15.336 -0.0576  0.5064  0.8083
  367TMC3     C 5494   1.320   4.362  15.253  0.5666 -1.0100  0.2954
  367TMC3     O 5495   1.287   4.340  15.137  0.4016  0.1083  0.2269
  367TMC3     H 5496   1.437   4.535  15.413  0.2929  0.7285 -1.4062
  367TMC3    H1 5497   1.110   4.472  15.156 -0.2385 -2.3409  2.0603
  367TMC3    H2 5498   1.183   0.121  15.340 -2.8211  0.3852 -0.7326
  367TMC3    C7 5499   0.994   4.722  15.203 -0.0066  0.2826  0.3471
  367TMC3    C8 5500   1.360   0.033  15.511 -0.1729 -0.9615 -1.0855
  367TMC3    O1 5501   0.978   0.116  15.223 -0.0072  0.0828 -0.1716
  367TMC3    O2 5502   1.460   4.708  15.559 -0.2913 -0.7337  0.0780
  368MPD2     C 5503   1.281   1.384  12.734 -0.1846 -0.0268 -0.0103
  368MPD2    C1 5504   1.306   1.513  12.690 -0.3800  0.4811 -0.1105
  368MPD2    C2 5505   1.430   1.564  12.727 -0.1990  0.7648  0.3697
  368MPD2    C3 5506   1.525   1.487  12.797  0.3512 -0.1318  0.6552
  368MPD2    C4 5507   1.499   1.357  12.822  0.2404 -0.2355 -0.2351
  368MPD2    C5 5508   1.379   1.309  12.789 -0.3500  0.1922  0.0717
  368MPD2     H 5509   1.448   1.666  12.695 -3.3434  1.4233  0.7583
  368MPD2    H1 5510   1.572   1.296  12.875  0.1337  0.8915  1.1985
  368MPD2    H2 5511   1.188   1.331  12.716  0.0625 -0.7443  0.8747
  368MPD2    H3 5512   1.361   1.209  12.826  0.7341  0.9416  2.6162
  368MPD2     N 5513   1.655   1.541  12.830  0.1831 -0.0454 -0.3890
  368MPD2    H5 5514   1.717   1.471  12.870  1.6823 -0.2942 -3.1656
  368MPD2    N1 5515   1.202   1.592  12.631  0.1487 -0.5382  0.3265
  368MPD2    H7 5516   1.112   1.549  12.617  1.1946 -2.4421 -0.6116
  369TMC3    C1 5517   1.093   1.788  12.531 -0.7266  0.1961  0.0243
  369TMC3    C2 5518   1.129   1.919  12.501  0.0897  0.0705 -0.0124
  369TMC3    C3 5519   1.058   2.022  12.556  0.6054 -0.3550  0.1187
  369TMC3    C4 5520   0.976   1.766  12.593 -0.1790  0.5854  0.2306
  369TMC3    C5 5521   0.902   1.868  12.649  0.2451  0.4412 -0.1564
  369TMC3    C6 5522   0.941   2.000  12.631 -0.3005 -0.2635  0.2633
  369TMC3     C 5523   1.221   1.720  12.569 -0.1514  0.6053 -0.4828
  369TMC3     O 5524   1.324   1.790  12.564 -0.5492  0.3261 -0.1562
  369TMC3     H 5525   1.216   1.946  12.443 -0.3897 -0.2241 -0.8671
  369TMC3    H1 5526   0.953   1.664  12.621 -2.6788  0.8278 -0.9849
  369TMC3    H2 5527   0.886   2.082  12.676 -0.1230  0.7709 -1.3749
  369TMC3    C7 5528   0.835   1.834  12.768  0.9333 -0.5658  0.4643
  369TMC3    C8 5529   1.090   2.156  12.523  0.4795 -0.6805 -0.1980
  369TMC3    O1 5530   0.876   1.729  12.818 -0.0341 -0.3646  0.0537
  369TMC3    O2 5531   0.997   2.237  12.529  0.1837 -0.0158  0.2180
  370TMC3    C1 5532   1.702   2.367  16.294  0.4483 -0.8408 -0.2619
  370TMC3    C2 5533   1.608   2.278  16.344  0.3290  0.9484 -0.6378
  370TMC3    C3 5534   1.612   2.149  16.294 -0.1809 -0.0621 -0.4295
  370TMC3    C4 5535   1.787   2.334  16.192  1.0400 -0.2317  1.2278
  370TMC3    C5 5536   1.783   2.201  16.145 -0.0355  0.0564  0.1096
  370TMC3    C6 5537   1.696   2.109  16.194  0.0321 -0.0989  0.6986
  370TMC3     C 5538   1.758   2.440  16.397 -0.2258 -0.1204 -0.3096
  370TMC3     O 5539   1.737   2.391  16.507  0.0906 -1.0010 -0.0257
  370TMC3     H 5540   1.537   2.309  16.419 -0.6185  0.1431 -1.2017
  370TMC3    H1 5541   1.868   2.403  16.170  0.7006 -1.1450 -2.8106
  370TMC3    H2 5542   1.706   2.003  16.172  2.7947  0.2635  0.1450
  370TMC3    C7 5543   1.861   2.166  16.017 -0.4440  0.5637 -0.2230
  370TMC3    C8 5544   1.592   2.040  16.389 -0.6398  0.1660  0.3575
  370TMC3    O1 5545   1.910   2.260  15.958 -1.1354 -0.0040 -0.4736
  370TMC3    O2 5546   1.592   1.925  16.352 -0.0543  0.1960 -0.2409
  371TMC3    C1 5547   2.983   0.739  15.272 -0.4676 -0.2290  0.6745
  371TMC3    C2 5548   2.846   0.719  15.277  0.4050  0.4775 -0.0115
  371TMC3    C3 5549   2.762   0.826  15.288  0.0475 -0.4646 -0.3636
  371TMC3    C4 5550   3.035   0.860  15.264 -0.0724 -0.4165  0.5728
  371TMC3    C5 5551   2.947   0.965  15.278 -0.4925 -0.4930  0.6155
  371TMC3    C6 5552   2.813   0.956  15.293 -0.5261 -0.3737 -0.5353
  371TMC3     C 5553   3.073   0.631  15.244  0.3950 -0.7056  0.1655
  371TMC3     O 5554   3.191   0.661  15.213  0.5399 -0.4564 -0.1174
  371TMC3     H 5555   2.796   0.623  15.280  1.3240  0.0671  2.1335
  371TMC3    H1 5556   3.141   0.882  15.266 -0.0751 -0.3887  0.3760
  371TMC3    H2 5557   2.749   1.044  15.300  3.1099  2.2004  0.2411
  371TMC3    C7 5558   3.002   1.097  15.257  0.4567  0.5636 -0.9209
  371TMC3    C8 5559   2.627   0.794  15.326 -0.4005  0.0811  0.0075
  371TMC3    O1 5560   2.971   1.189  15.328  0.4090  0.2466  0.2657
  371TMC3    O2 5561   2.597   0.678  15.302 -0.2465  0.0639 -0.6072
  372MPD2     C 5562   2.638   1.893  12.977  0.3733  0.2759 -0.1779
  372MPD2    C1 5563   2.722   1.805  13.051 -0.1458 -0.3503 -0.0617
  372MPD2    C2 5564   2.660   1.702  13.121 -0.0858 -0.3884  0.4070
  372MPD2    C3 5565   2.520   1.688  13.127 -0.4017  0.2915  0.4025
  372MPD2    C4 5566   2.444   1.779  13.060  0.5761  0.2602 -0.0690
  372MPD2    C5 5567   2.503   1.876  12.979 -0.2531  0.2852  0.0011
  372MPD2     H 5568   2.725   1.633  13.173  0.8636 -0.4474 -0.8551
  372MPD2    H1 5569   2.336   1.771  13.060  0.4944  1.3727  0.9379
  372MPD2    H2 5570   2.681   1.965  12.908 -2.6994  0.9962 -1.3291
  372MPD2    H3 5571   2.441   1.923  12.903  0.7666  0.6520 -0.6118
  372MPD2     N 5572   2.452   1.586  13.201 -0.1360 -0.6908 -0.0459
  372MPD2    H5 5573   2.510   1.523  13.257  1.5671  1.4231  0.5469
  372MPD2    N1 5574   2.862   1.822  13.055  0.0306 -0.7172 -0.2349
  372MPD2    H7 5575   2.917   1.753  13.106 -3.2072 -2.4610  0.9084
  373TMC3    C1 5576   2.310   1.473  13.322  0.3654 -0.1480 -0.2878
  373TMC3    C2 5577   2.249   1.490  13.439 -0.1361  0.7119  0.3796
  373TMC3    C3 5578   2.230   1.385  13.530 -0.0200  0.1906  0.6436
  373TMC3    C4 5579   2.361   1.357  13.277  0.0413  0.3004 -0.5829
  373TMC3    C5 5580   2.327   1.251  13.353 -0.9747 -0.5764  0.1026
  373TMC3    C6 5581   2.270   1.263  13.479  0.1693  0.0514  0.0025
  373TMC3     C 5582   2.325   1.583  13.241 -0.5690  0.0151 -0.0630
  373TMC3     O 5583   2.222   1.648  13.212  0.1847 -0.0193  0.5024
  373TMC3     H 5584   2.228   1.593  13.465  3.0727  1.1419  1.3030
  373TMC3    H1 5585   2.411   1.343  13.181 -0.7390 -2.9206 -0.5077
  373TMC3    H2 5586   2.241   1.173  13.532 -0.3050  0.2335  0.0567
  373TMC3    C7 5587   2.405   1.135  13.316  0.3501 -0.6439  0.3144
  373TMC3    C8 5588   2.262   1.414  13.674  0.0408 -0.2826  0.3932
  373TMC3    O1 5589   2.449   1.115  13.202  0.3561  0.9404 -0.3670
  373TMC3    O2 5590   2.330   1.514  13.694 -0.1371  0.0546  0.1754
  374TMC3    C1 5591   2.525   1.457  10.390  0.2271  0.9148  0.3818
  374TMC3    C2 5592   2.605   1.565  10.378 -0.9106 -0.3115  0.0905
  374TMC3    C3 5593   2.546   1.679  10.421  0.0867 -0.2524  0.1556
  374TMC3    C4 5594   2.397   1.453  10.429 -0.1428 -0.2149  0.9016
  374TMC3    C5 5595   2.342   1.570  10.479 -0.2116  0.1058 -0.2105
  374TMC3    C6 5596   2.429   1.680  10.486 -0.3466  0.2929 -0.5651
  374TMC3     C 5597   2.591   1.331  10.359 -0.1864  0.0557 -0.0200
  374TMC3     O 5598   2.708   1.335  10.326  0.3990  0.0176  0.4777
  374TMC3     H 5599   2.699   1.566  10.324 -0.0972  0.3167  1.5234
  374TMC3    H1 5600   2.328   1.375  10.401 -0.7528  0.2079  1.2297
  374TMC3    H2 5601   2.405   1.776  10.529  0.7599  1.0667 -1.6471
  374TMC3    C7 5602   2.231   1.574  10.578  0.2180 -1.2767  0.4633
  374TMC3    C8 5603   2.613   1.813  10.394 -0.6530 -0.4290  0.3425
  374TMC3    O1 5604   2.207   1.677  10.634  0.1371  0.2200  0.1701
  374TMC3    O2 5605   2.544   1.913  10.381  0.5313 -0.0387  0.2292
  375MPD2     C 5606   3.013   3.031  17.052 -0.6625  0.5322 -0.5507
  375MPD2    C1 5607   2.909   2.962  16.993 -0.5340  0.0251  0.1336
  375MPD2    C2 5608   2.931   2.874  16.890 -0.4163 -0.2582 -0.4233
  375MPD2    C3 5609   3.056   2.853  16.845  0.3945  0.7965  0.6757
  375MPD2    C4 5610   3.160   2.931  16.897 -0.6897  0.5279 -0.1909
  375MPD2    C5 5611   3.136   3.012  17.001 -0.1265  0.1967  0.3074
  375MPD2     H 5612   2.842   2.821  16.859  0.6080 -1.0602 -2.0195
  375MPD2    H1 5613   3.261   2.923  16.859  0.1501  1.0504  1.9624
  375MPD2    H2 5614   3.005   3.115  17.121 -1.5446 -1.0069  1.2204
  375MPD2    H3 5615   3.210   3.089  17.019  0.2877 -0.1458  0.0493
  375MPD2     N 5616   3.095   2.761  16.744  0.3408  0.6129 -0.2107
  375MPD2    H5 5617   3.196   2.755  16.742  0.3565  0.2498  1.6356
  375MPD2    N1 5618   2.774   2.987  17.025 -0.5074  0.3296 -0.6695
  375MPD2    H7 5619   2.705   2.927  16.980 -0.5839 -2.3248  2.9322
  376TMC3    C1 5620   3.076   2.604  16.571  0.2517  0.7093 -0.0912
  376TMC3    C2 5621   3.181   2.532  16.612 -0.0192 -0.2180  0.5735
  376TMC3    C3 5622   3.235   2.448  16.522  0.7139  0.1360  0.7008
  376TMC3    C4 5623   3.017   2.598  16.446 -0.3580 -0.5136  0.0429
  376TMC3    C5 5624   3.078   2.512  16.357  0.7366 -0.7092  0.2963
  376TMC3    C6 5625   3.193   2.443  16.395  0.2785  0.2253  1.6814
  376TMC3     C 5626   3.011   2.692  16.660 -0.4044 -0.2142 -0.0303
  376TMC3     O 5627   2.891   2.700  16.655  0.2906 -0.3089 -0.4105
  376TMC3     H 5628   3.213   2.533  16.715  2.1014 -0.3097 -0.0989
  376TMC3    H1 5629   2.934   2.663  16.425 -1.6789 -1.1816  3.1363
  376TMC3    H2 5630   3.248   2.376  16.330  1.0803  1.0868  1.4614
  376TMC3    C7 5631   3.051   2.533  16.218  0.0829  0.3019  0.2469
  376TMC3    C8 5632   3.366   2.416  16.553 -0.4001 -0.2732  0.0145
  376TMC3    O1 5633   3.009   2.643  16.186  0.2046 -0.1544  0.5699
  376TMC3    O2 5634   3.449   2.421  16.462 -0.4288 -0.1796 -0.4011
  377MPD2     C 5635   0.667   2.421  11.888 -0.4146  0.2740  0.5334
  377MPD2    C1 5636   0.731   2.386  12.007  0.1210  0.3745  0.5330
  377MPD2    C2 5637   0.662   2.412  12.123  0.0521  0.1328  0.2024
  377MPD2    C3 5638   0.543   2.482  12.122  0.1235 -0.5011  0.1238
  377MPD2    C4 5639   0.488   2.521  12.002  0.0515 -0.2945 -0.4130
  377MPD2    C5 5640   0.549   2.492  11.887 -0.5153 -0.8068 -0.3034
  377MPD2     H 5641   0.703   2.383  12.219 -1.6292 -0.0530  0.8527
  377MPD2    H1 5642   0.391   2.565  11.982  0.4446 -0.3048 -2.3063
  377MPD2    H2 5643   0.716   2.391  11.796  1.8575 -0.4970  1.9698
  377MPD2    H3 5644   0.495   2.533  11.802 -0.3986 -3.8416 -1.8586
  377MPD2     N 5645   0.469   2.521  12.235  0.2897 -0.2380 -0.4048
  377MPD2    H5 5646   0.391   2.584  12.220  0.0430 -1.1638 -3.0311
  377MPD2    N1 5647   0.845   2.303  11.997  0.0329  0.1836  0.6046
  377MPD2    H7 5648   0.900   2.299  11.912  0.0405 -2.8951  0.7489
  378TMC3    C1 5649   1.239   2.304  12.028  0.1814  0.9702  0.0770
  378TMC3    C2 5650   1.105   2.306  12.040 -0.1859  0.2589 -0.4471
  378TMC3    C3 5651   1.033   2.200  12.089  0.2423  0.0083 -0.5990
  378TMC3    C4 5652   1.303   2.189  12.066  0.0920  0.4417 -0.1134
  378TMC3    C5 5653   1.226   2.085  12.121  0.1429 -0.2777 -0.4326
  378TMC3    C6 5654   1.092   2.089  12.144 -0.5720  0.2490 -0.6880
  378TMC3     C 5655   1.308   2.416  11.972 -0.5206 -0.5040 -0.0433
  378TMC3     O 5656   1.240   2.516  11.949 -0.0644  0.0584 -0.1106
  378TMC3     H 5657   1.058   2.399  12.013 -0.4219  0.4847  0.7331
  378TMC3    H1 5658   1.409   2.182  12.043 -0.1509 -0.0654 -1.1030
  378TMC3    H2 5659   1.031   2.015  12.194  2.5878 -0.8817  1.4846
  378TMC3    C7 5660   1.290   1.964  12.155  1.0301 -0.9896  0.6119
  378TMC3    C8 5661   0.893   2.224  12.102 -0.1022  0.7681 -0.2743
  378TMC3    O1 5662   1.227   1.875  12.214  0.2500  0.4483  0.8214
  378TMC3    O2 5663   0.850   2.199  12.214 -0.0201 -0.4545  0.0613
  379MPD2     C 5664   1.924   0.277  16.489  0.1549  0.4642  0.1854
  379MPD2    C1 5665   2.028   0.248  16.407 -0.4964 -0.4502  0.2613
  379MPD2    C2 5666   2.141   0.180  16.454 -0.3297  0.3450  0.3744
  379MPD2    C3 5667   2.138   0.157  16.591 -0.1825 -0.0260 -0.1087
  379MPD2    C4 5668   2.028   0.177  16.671  0.0206  1.0544  0.6790
  379MPD2    C5 5669   1.919   0.242  16.623  0.0545 -0.0479 -0.1713
  379MPD2     H 5670   2.235   0.171  16.400 -0.4218  3.8907 -0.4069
  379MPD2    H1 5671   2.021   0.143  16.774 -1.1330  0.6968  0.4834
  379MPD2    H2 5672   1.831   0.318  16.451  0.3266 -0.6973 -1.4918
  379MPD2    H3 5673   1.829   0.258  16.680 -0.8019 -1.2576 -1.1830
  379MPD2     N 5674   2.242   0.093  16.661 -0.2862 -0.2894  0.2306
  379MPD2    H5 5675   2.214   0.078  16.757 -0.6674 -1.5319 -0.0615
  379MPD2    N1 5676   2.023   0.302  16.273  0.5997  0.7701  0.0218
  379MPD2    H7 5677   1.930   0.336  16.249  0.8407  0.7069 -1.0030
  380TMC3    C1 5678   2.057   0.318  16.042  0.0158  0.2364  0.2001
  380TMC3    C2 5679   2.125   0.259  15.942  0.0900 -0.3908  0.4619
  380TMC3    C3 5680   2.059   0.238  15.826  0.9708 -0.2807  1.4605
  380TMC3    C4 5681   1.930   0.362  16.031 -0.2124 -0.5923  0.1191
  380TMC3    C5 5682   1.863   0.332  15.918 -0.5083 -0.7257  0.2573
  380TMC3    C6 5683   1.921   0.256  15.824 -0.7830 -0.7389  0.9141
  380TMC3     C 5684   2.116   0.288  16.174  0.3049  0.2256 -0.0684
  380TMC3     O 5685   2.231   0.247  16.181  0.0359  0.3348  0.7253
  380TMC3     H 5686   2.231   0.237  15.955  0.3889  2.2634  2.7164
  380TMC3    H1 5687   1.891   0.422  16.113 -0.9103  0.6169 -1.1003
  380TMC3    H2 5688   1.873   0.249  15.727 -1.8152 -0.0976  1.3763
  380TMC3    C7 5689   1.731   0.388  15.884 -0.1212  0.4468 -0.3882
  380TMC3    C8 5690   2.121   0.251  15.693  0.7365  0.3485 -0.4647
  380TMC3    O1 5691   1.701   0.496  15.941 -0.0908 -0.4751  0.1270
  380TMC3    O2 5692   2.052   0.249  15.592  0.3283  0.4420  0.1608
  381TMC3    C1 5693   1.637   1.327  15.989 -0.2740  0.2465 -0.5610
  381TMC3    C2 5694   1.742   1.408  16.015  0.2055 -0.2401 -0.1113
  381TMC3    C3 5695   1.741   1.467  16.138 -0.4199 -0.2349 -0.1782
  381TMC3    C4 5696   1.526   1.313  16.068 -0.2041  0.0784 -0.0469
  381TMC3    C5 5697   1.529   1.381  16.183  0.2611 -0.0869 -0.4427
  381TMC3    C6 5698   1.628   1.458  16.222 -0.3035 -0.4237 -0.3992
  381TMC3     C 5699   1.644   1.232  15.876 -0.2302  0.6022  0.1070
  381TMC3     O 5700   1.568   1.135  15.877 -0.6718  0.1373  0.0647
  381TMC3     H 5701   1.825   1.423  15.947  0.4743  1.1975  0.5206
  381TMC3    H1 5702   1.448   1.241  16.047 -1.0165  0.6880  0.8538
  381TMC3    H2 5703   1.622   1.497  16.323  0.7239  1.9128 -1.2417
  381TMC3    C7 5704   1.444   1.332  16.293 -0.2496 -0.1313 -0.1138
  381TMC3    C8 5705   1.847   1.559  16.164  0.1466  0.3293 -0.3104
  381TMC3    O1 5706   1.423   1.212  16.286 -0.4399 -0.3301  0.2865
  381TMC3    O2 5707   1.919   1.587  16.070  0.3790 -0.2749 -0.5609
  382MPD2     C 5708   1.169   3.841  17.432 -0.8717 -0.4134 -0.5261
  382MPD2    C1 5709   1.187   3.785  17.559 -0.0009 -0.0151  0.9943
  382MPD2    C2 5710   1.080   3.709  17.603  0.0611  0.6375 -0.1992
  382MPD2    C3 5711   0.960   3.701  17.524 -0.2597  0.0098 -0.7362
  382MPD2    C4 5712   0.951   3.761  17.406 -0.3016  0.2490  0.2823
  382MPD2    C5 5713   1.052   3.833  17.357 -0.2081 -0.2439  0.3224
  382MPD2     H 5714   1.102   3.664  17.700 -1.4347 -1.9023 -1.0232
  382MPD2    H1 5715   0.865   3.740  17.343 -0.4519  1.7370 -0.0030
  382MPD2    H2 5716   1.247   3.898  17.383  0.4124  0.0625  2.0599
  382MPD2    H3 5717   1.052   3.877  17.258 -0.1291 -1.1487 -0.0835
  382MPD2     N 5718   0.852   3.626  17.565 -0.1721 -0.2223 -0.2965
  382MPD2    H5 5719   0.778   3.611  17.497  0.7622  1.1406 -1.6180
  382MPD2    N1 5720   1.299   3.805  17.644 -0.1101 -0.0731  0.0448
  382MPD2    H7 5721   1.309   3.755   0.027  1.5816  0.5684  0.2190
  383TMC3    C1 5722   0.700   3.512  17.682 -0.1527  0.5925  0.2797
  383TMC3    C2 5723   0.661   3.444  17.570  0.8717 -0.1631 -0.0188
  383TMC3    C3 5724   0.530   3.400  17.565  0.4168  0.0044 -0.8192
  383TMC3    C4 5725   0.621   3.526   0.088  0.4051  0.3130 -0.0195
  383TMC3    C5 5726   0.495   3.487   0.079  0.0492  0.5883 -0.5001
  383TMC3    C6 5727   0.450   3.417  17.675 -0.2756  0.1695 -0.0679
  383TMC3     C 5728   0.828   3.578  17.689  0.2585 -0.4593 -0.3118
  383TMC3     O 5729   0.875   3.601   0.092 -0.1465 -0.5677  0.7227
  383TMC3     H 5730   0.728   3.438  17.485  1.4554  0.7806  0.3709
  383TMC3    H1 5731   0.646   3.584   0.177 -0.5592 -1.1033  1.1626
  383TMC3    H2 5732   0.354   3.369  17.663  0.0698 -0.1759 -1.4768
  383TMC3    C7 5733   0.409   3.504   0.190  0.1945 -0.5570  0.3416
  383TMC3    C8 5734   0.476   3.359  17.437 -0.9882  0.6528 -0.5302
  383TMC3    O1 5735   0.354   3.408   0.244  0.0964 -0.0292  0.2764
  383TMC3    O2 5736   0.356   3.355  17.429  0.7730  0.1152  0.0799
  384MPD2     C 5737   2.324   0.148  12.281  1.1472 -0.2006 -0.7423
  384MPD2    C1 5738   2.322   0.111  12.412  0.1590  0.0999 -0.2092
  384MPD2    C2 5739   2.384   4.717  12.453  0.2366 -0.1695 -0.1110
  384MPD2    C3 5740   2.438   4.626  12.358  0.6853 -0.1720  0.4597
  384MPD2    C4 5741   2.434   4.666  12.224 -0.4282 -0.4145 -0.2797
  384MPD2    C5 5742   2.380   0.061  12.185  0.1690  0.0245 -0.3370
  384MPD2     H 5743   2.379   4.689  12.558 -1.0613  1.6134  0.3173
  384MPD2    H1 5744   2.473   4.606  12.142 -0.4645 -1.4055  0.4416
  384MPD2    H2 5745   2.283   0.237  12.235 -1.5903 -0.8684  0.3658
  384MPD2    H3 5746   2.388   0.099  12.084  2.5017  0.7477  0.1156
  384MPD2     N 5747   2.499   4.506  12.405 -0.0863  0.0750  0.7518
  384MPD2    H5 5748   2.487   4.499  12.506  0.0618 -0.7942  0.7147
  384MPD2    N1 5749   2.264   0.195  12.517  0.0426 -0.7390  0.3991
  384MPD2    H7 5750   2.292   0.165  12.610  2.1058 -1.8309 -0.5829
  385TMC3    C1 5751   2.603   4.294  12.411  0.7747  0.2897  0.9479
  385TMC3    C2 5752   2.538   4.182  12.373 -0.5164 -0.3612  0.0109
  385TMC3    C3 5753   2.487   4.104  12.473 -0.4590 -0.0188 -0.6433
  385TMC3    C4 5754   2.618   4.324  12.541  0.2438 -0.2630  0.1522
  385TMC3    C5 5755   2.552   4.255  12.645 -0.0600  0.4751  0.0400
  385TMC3    C6 5756   2.481   4.143  12.608  0.6724 -0.0589 -0.4055
  385TMC3     C 5757   2.561   4.404  12.332  1.0157  0.5382 -0.2092
  385TMC3     O 5758   2.589   4.404  12.212 -0.7247 -0.2480  0.0606
  385TMC3     H 5759   2.523   4.148  12.271  0.2726  2.6237 -1.0758
  385TMC3    H1 5760   2.668   4.418  12.563  1.3232  0.0781 -3.6381
  385TMC3    H2 5761   2.427   4.089  12.685  2.1345 -1.4600 -0.3672
  385TMC3    C7 5762   2.484   4.350  12.724  0.5744  0.2019 -0.2843
  385TMC3    C8 5763   2.434   3.967  12.445  0.6275 -0.1143 -0.4494
  385TMC3    O1 5764   2.481   4.459  12.671 -0.1727 -0.1589  0.3141
  385TMC3    O2 5765   2.373   3.911  12.536  0.6144  0.3309 -0.2627
  386TMC3    C1 5766   2.028   2.884  11.969  0.7796 -0.4726  0.0268
  386TMC3    C2 5767   2.108   2.871  11.855 -0.4150  0.2644 -0.4887
  386TMC3    C3 5768   2.069   2.931  11.740 -0.2936  0.4970 -0.1845
  386TMC3    C4 5769   1.916   2.956  11.958 -0.2023 -0.2924  0.0658
  386TMC3    C5 5770   1.876   3.019  11.841  0.4358  0.3171  0.1332
  386TMC3    C6 5771   1.948   2.995  11.729 -0.8147  0.4016 -0.3627
  386TMC3     C 5772   2.029   2.781  12.071  0.4839  0.0943  0.0676
  386TMC3     O 5773   1.998   2.817  12.187  0.1355 -0.3271 -0.3003
  386TMC3     H 5774   2.197   2.809  11.860  0.1586  1.1033 -0.1680
  386TMC3    H1 5775   1.864   2.972  12.052 -0.3369  0.1130 -0.0759
  386TMC3    H2 5776   1.915   3.044  11.638  2.3937  1.3767 -1.0148
  386TMC3    C7 5777   1.731   3.038  11.841  0.0665  0.0207 -0.5994
  386TMC3    C8 5778   2.135   2.904  11.617  0.2099  0.6305  0.0290
  386TMC3    O1 5779   1.667   3.011  11.944  0.2412  0.3206 -0.0307
  386TMC3    O2 5780   2.095   2.972  11.527  0.0836 -0.0108  0.3683
  387MPD2     C 5781   4.722   2.832   9.849  0.1043  0.8268 -0.1783
  387MPD2    C1 5782   0.051   2.759   9.944  0.6192 -0.9302  0.7791
  387MPD2    C2 5783   0.051   2.621   9.929 -0.7158 -0.4737 -0.4039
  387MPD2    C3 5784   4.715   2.560   9.823 -0.6752  0.0756 -0.3693
  387MPD2    C4 5785   4.668   2.629   9.716  0.5929 -0.0238  0.5254
  387MPD2    C5 5786   4.669   2.768   9.738  0.1168 -0.0438 -0.4525
  387MPD2     H 5787   0.101   2.565  10.008  0.3969  3.3922  1.6559
  387MPD2    H1 5788   4.625   2.587   9.626  0.4757  0.6113  0.2852
  387MPD2    H2 5789   4.717   2.940   9.846 -0.1563  0.8693  1.5423
  387MPD2    H3 5790   4.631   2.838   9.665  4.3714  0.6331 -2.0387
  387MPD2     N 5791   4.705   2.421   9.829  0.4610 -0.0030  0.3557
  387MPD2    H5 5792   0.017   2.377   9.912  1.2573  1.9043  0.9990
  387MPD2    N1 5793   0.114   2.818  10.063  0.2543 -0.7316 -0.6531
  387MPD2    H7 5794   0.137   2.758  10.142  2.0080  1.3901  0.4436
  388TMC3    C1 5795   0.233   2.980  10.192  0.2049 -0.6254 -0.1983
  388TMC3    C2 5796   0.299   3.094  10.169 -0.5070 -0.5964 -0.4015
  388TMC3    C3 5797   0.425   3.102  10.229 -0.4178 -0.2791  0.1402
  388TMC3    C4 5798   0.294   2.872  10.256 -0.6661  0.3508 -0.6318
  388TMC3    C5 5799   0.419   2.887  10.314 -0.5538  0.2263  0.6105
  388TMC3    C6 5800   0.488   3.001  10.298 -0.2725  0.1208  0.2341
  388TMC3     C 5801   0.127   2.952  10.091  0.1647 -0.0663 -0.2154
  388TMC3     O 5802   0.090   3.040  10.014 -0.0061  0.1465 -0.0334
  388TMC3     H 5803   0.262   3.156  10.089 -1.6151 -0.6057  0.1082
  388TMC3    H1 5804   0.227   2.789  10.276 -1.6835  1.2006 -0.5046
  388TMC3    H2 5805   0.578   3.015  10.356  0.5082 -1.8879 -0.5021
  388TMC3    C7 5806   0.480   2.765  10.324  0.4695  0.3067  0.6846
  388TMC3    C8 5807   0.514   3.208  10.196 -0.1773 -0.1135 -0.1463
  388TMC3    O1 5808   0.565   2.758  10.410  0.0301  0.0339 -0.6672
  388TMC3    O2 5809   0.629   3.193  10.228 -0.1091 -0.4832 -0.5335
  389MPD2     C 5810   3.934   0.394  11.702  0.5702 -0.2830  0.6805
  389MPD2    C1 5811   3.900   0.338  11.582 -0.5593 -0.5303 -0.3905
  389MPD2    C2 5812   3.846   0.211  11.585  0.3700  0.3470 -0.2201
  389MPD2    C3 5813   3.844   0.136  11.702  0.4461  0.2246 -0.4660
  389MPD2    C4 5814   3.893   0.192  11.818  0.6690  0.6694 -0.0304
  389MPD2    C5 5815   3.928   0.317  11.814  0.6670  0.0482 -0.0069
  389MPD2     H 5816   3.818   0.173  11.487  1.0919  0.5877 -0.5217
  389MPD2    H1 5817   3.877   0.139  11.912 -1.1898  1.2813 -0.0055
  389MPD2    H2 5818   3.971   0.496  11.716 -0.2037 -0.0223  0.8257
  389MPD2    H3 5819   3.961   0.360  11.908  1.2030 -1.2684  0.4098
  389MPD2     N 5820   3.801   0.004  11.713 -0.9772  0.4928  0.1793
  389MPD2    H5 5821   3.804   4.704  11.812 -3.4613 -1.7793 -0.3458
  389MPD2    N1 5822   3.905   0.416  11.457  0.5504 -0.3650  0.1600
  389MPD2    H7 5823   3.870   0.369  11.374 -1.7587  2.4163 -0.4250
  390TMC3    C1 5824   3.667   4.533  11.644 -0.0664 -0.2040  1.0924
  390TMC3    C2 5825   3.638   4.498  11.774  0.7661  0.0792 -0.2787
  390TMC3    C3 5826   3.560   4.391  11.799  0.0473  0.2119 -0.0695
  390TMC3    C4 5827   3.612   4.467  11.537 -0.2632  1.2179  0.7440
  390TMC3    C5 5828   3.533   4.363  11.573 -0.2936 -0.0609  0.0968
  390TMC3    C6 5829   3.510   4.313  11.699  0.0466 -0.3968 -0.1641
  390TMC3     C 5830   3.737   4.661  11.614 -0.0792 -0.3410  0.0157
  390TMC3     O 5831   3.713   4.708  11.502 -0.2119 -0.1410  0.2581
  390TMC3     H 5832   3.671   4.560  11.856 -0.7027  1.3142 -0.6249
  390TMC3    H1 5833   3.608   4.506  11.436 -3.3808 -1.4174 -0.1473
  390TMC3    H2 5834   3.460   4.218  11.712  0.3648 -0.7134 -1.2930
  390TMC3    C7 5835   3.424   4.339  11.477 -0.8267 -0.5355 -0.2267
  390TMC3    C8 5836   3.541   4.344  11.940 -0.0455  0.0331 -0.2075
  390TMC3    O1 5837   3.471   4.311  11.366  0.0322  0.2545 -0.1120
  390TMC3    O2 5838   3.594   4.422  12.023  0.7413 -0.0973 -0.1507
  391MPD2     C 5839   3.724   1.738  11.295  0.2525  0.5649 -0.0711
  391MPD2    C1 5840   3.814   1.794  11.207 -0.3413  0.0275  0.9139
  391MPD2    C2 5841   3.783   1.796  11.070 -0.0118 -0.2550  0.1156
  391MPD2    C3 5842   3.667   1.750  11.023  0.6781 -0.4742 -0.0910
  391MPD2    C4 5843   3.577   1.688  11.118 -0.1208  1.2714  0.3544
  391MPD2    C5 5844   3.609   1.678  11.255 -0.0290 -0.0821  0.3716
  391MPD2     H 5845   3.845   1.843  10.994 -1.1590  1.2250  0.0955
  391MPD2    H1 5846   3.482   1.648  11.085 -0.0723  2.2259 -0.9694
  391MPD2    H2 5847   3.741   1.740  11.402 -1.4795  2.5259  0.1819
  391MPD2    H3 5848   3.540   1.620  11.315 -0.9309  0.8751  0.2707
  391MPD2     N 5849   3.644   1.778  10.890  0.1344 -0.1802  0.8304
  391MPD2    H5 5850   3.720   1.815  10.835  0.4202  2.6626  3.0839
  391MPD2    N1 5851   3.913   1.883  11.265 -0.0146 -0.3771 -0.0271
  391MPD2    H7 5852   3.926   1.891  11.365 -2.3502  0.8565  0.1745
  392TMC3    C1 5853   3.518   1.802  10.697  0.0420  0.2654  0.3896
  392TMC3    C2 5854   3.410   1.778  10.617  0.3313 -0.6079 -0.0267
  392TMC3    C3 5855   3.401   1.826  10.490  0.0039  0.5448  0.1479
  392TMC3    C4 5856   3.607   1.898  10.650 -0.1221 -0.8144  0.2235
  392TMC3    C5 5857   3.593   1.948  10.522 -0.8028 -0.4036 -0.3349
  392TMC3    C6 5858   3.482   1.922  10.439  0.5097  0.5001 -0.3985
  392TMC3     C 5859   3.515   1.760  10.832  0.4675 -0.2273 -0.1486
  392TMC3     O 5860   3.411   1.746  10.889  0.5554  0.1062  0.1323
  392TMC3     H 5861   3.343   1.697  10.644 -1.3121  1.2339  1.4144
  392TMC3    H1 5862   3.698   1.919  10.705  0.2887 -3.7110  0.6450
  392TMC3    H2 5863   3.467   1.957  10.338  2.3919  0.2559 -0.7536
  392TMC3    C7 5864   3.674   2.068  10.487  0.6209  1.0396  0.0025
  392TMC3    C8 5865   3.271   1.805  10.425 -0.5115  0.3496 -0.6801
  392TMC3    O1 5866   3.747   2.109  10.577 -0.1297 -0.7650 -0.1765
  392TMC3    O2 5867   3.217   1.700  10.464  0.2756 -0.3204  0.4241
  393TMC3    C1 5868   2.277   4.331  10.584 -0.4047 -0.4086  0.3158
  393TMC3    C2 5869   2.161   4.258  10.590 -0.4586  0.6165  0.2522
  393TMC3    C3 5870   2.177   4.125  10.590  0.4136  0.0893  0.4906
  393TMC3    C4 5871   2.395   4.268  10.561 -0.5922  0.3622  0.6742
  393TMC3    C5 5872   2.407   4.133  10.583 -0.3904 -0.5492  0.7396
  393TMC3    C6 5873   2.293   4.054  10.581  0.1596 -0.6171 -0.6196
  393TMC3     C 5874   2.257   4.476  10.572  0.4437 -0.3907  0.3841
  393TMC3     O 5875   2.155   4.523  10.526 -0.1481 -0.2795  0.4048
  393TMC3     H 5876   2.063   4.303  10.602  0.3714  2.3818  0.3761
  393TMC3    H1 5877   2.482   4.330  10.543 -1.9263  1.3417 -2.4429
  393TMC3    H2 5878   2.305   3.948  10.599 -1.3201 -0.6185  0.3355
  393TMC3    C7 5879   2.539   4.067  10.577  0.4963  0.0016  0.6192
  393TMC3    C8 5880   2.061   4.055  10.635 -0.3857 -0.3815 -0.0332
  393TMC3    O1 5881   2.546   3.959  10.521  0.0025 -0.6226  0.1146
  393TMC3    O2 5882   1.967   4.113  10.690 -0.0663 -0.0569  0.0289
  394TMC3    C1 5883   3.900   0.604  11.309  0.4583 -0.2172 -0.0404
  394TMC3    C2 5884   3.802   0.541  11.239 -0.4807  0.0502 -0.3916
  394TMC3    C3 5885   3.785   0.557  11.105  1.0855 -0.0951  0.4969
  394TMC3    C4 5886   3.981   0.686  11.245  0.0093 -0.0580  0.7707
  394TMC3    C5 5887   3.967   0.709  11.111 -0.5681  0.3284 -0.1337
  394TMC3    C6 5888   3.874   0.638  11.039 -0.4008  0.4604  0.0858
  394TMC3     C 5889   3.941   0.551  11.438 -0.1401 -0.9879  0.1406
  394TMC3     O 5890   3.986   0.631  11.516  0.1038 -0.0500  0.2732
  394TMC3     H 5891   3.733   0.470  11.283 -0.5737 -1.2503 -2.6631
  394TMC3    H1 5892   4.049   0.746  11.305 -1.3539  2.2795 -0.0111
  394TMC3    H2 5893   3.845   0.676  10.942 -1.6199 -1.0776 -0.1371
  394TMC3    C7 5894   4.084   0.760  11.034  0.1081  0.3363 -0.0480
  394TMC3    C8 5895   3.667   0.515  11.039  0.8364  0.1564 -0.6014
  394TMC3    O1 5896   4.170   0.822  11.094  0.5792  0.3154 -0.1787
  394TMC3    O2 5897   3.554   0.517  11.090  0.9137  0.4002 -0.0763
  395TMC3    C1 5898   3.957   2.096  14.849 -0.5053 -0.1921 -1.0960
  395TMC3    C2 5899   3.973   1.992  14.762 -0.0988 -0.2942  0.5367
  395TMC3    C3 5900   4.087   1.979  14.686 -0.0196 -0.1847  0.1524
  395TMC3    C4 5901   4.053   2.193  14.854 -0.8250  0.8125 -0.4496
  395TMC3    C5 5902   4.162   2.180  14.773 -0.0430 -0.2465  0.1711
  395TMC3    C6 5903   4.186   2.075  14.697 -0.2675  0.5388 -0.5620
  395TMC3     C 5904   3.848   2.115  14.944  1.0527 -0.1614  1.0623
  395TMC3     O 5905   3.814   2.231  14.966  0.0241  0.5050 -0.4364
  395TMC3     H 5906   3.896   1.916  14.773 -0.3754  0.0750  1.1961
  395TMC3    H1 5907   4.045   2.275  14.924  0.5894  0.0292  0.6188
  395TMC3    H2 5908   4.275   2.073  14.635 -0.1237 -1.5329 -0.2886
  395TMC3    C7 5909   4.250   2.295  14.775 -0.0482 -0.4720 -0.4548
  395TMC3    C8 5910   4.120   1.843  14.640 -0.1251  0.0268 -0.6225
  395TMC3    O1 5911   4.245   2.362  14.879 -0.1340  0.0678  0.1170
  395TMC3    O2 5912   4.240   1.821  14.612  0.9026 -0.0623 -0.3410
  396MPD2     C 5913   4.058   3.705  17.490  0.3107 -0.2717 -0.0893
  396MPD2    C1 5914   4.134   3.673  17.378  0.6460  0.0730 -0.1069
  396MPD2    C2 5915   4.143   3.756  17.268  0.0707  0.5128  0.2219
  396MPD2    C3 5916   4.071   3.874  17.273 -0.7267 -0.0202  0.6586
  396MPD2    C4 5917   3.989   3.900  17.386  0.1902  0.6308  0.7587
  396MPD2    C5 5918   3.988   3.824  17.496  0.7546  0.2299  0.2918
  396MPD2     H 5919   4.202   3.734  17.180 -0.4383  0.3044 -0.0682
  396MPD2    H1 5920   3.927   3.988  17.393  1.7846  1.3290  6.2656
  396MPD2    H2 5921   4.035   3.631  17.567  0.2937  0.1299  0.2898
  396MPD2    H3 5922   3.921   3.850  17.578 -0.2141  1.2868 -0.8432
  396MPD2     N 5923   4.102   3.967  17.174 -0.6300  0.0057  0.0335
  396MPD2    H5 5924   4.167   3.933  17.103  0.8473 -1.4817  2.1031
  396MPD2    N1 5925   4.193   3.541  17.372 -0.3290 -0.4772 -0.1691
  396MPD2    H7 5926   4.179   3.486  17.456 -3.3825  0.6916  0.1270
  397TMC3    C1 5927   4.245   3.350  17.251 -0.1345  0.5257 -0.1456
  397TMC3    C2 5928   4.208   3.319  17.124  0.2552  0.2140 -0.3219
  397TMC3    C3 5929   4.089   3.247  17.100 -0.0003  0.3415 -0.2600
  397TMC3    C4 5930   4.168   3.295  17.354 -0.0532 -0.5439  0.1519
  397TMC3    C5 5931   4.048   3.232  17.330 -0.0140  0.0567 -0.1249
  397TMC3    C6 5932   4.006   3.205  17.201 -0.3875  0.8067 -0.1822
  397TMC3     C 5933   4.253   3.490  17.260 -0.9234  0.5798  0.6879
  397TMC3     O 5934   4.295   3.545  17.162 -0.0294 -0.2982  0.7396
  397TMC3     H 5935   4.264   3.361  17.041  0.5207  0.1659 -0.1676
  397TMC3    H1 5936   4.215   3.302  17.452  1.1976 -0.8141 -0.4353
  397TMC3    H2 5937   3.915   3.148  17.188  1.0964 -1.7010  0.2585
  397TMC3    C7 5938   3.991   3.153  17.439 -0.0774  0.1293  0.0394
  397TMC3    C8 5939   4.022   3.262  16.974 -0.6412  0.8782  0.0655
  397TMC3    O1 5940   3.930   3.050  17.413  0.2662  0.4097  0.1968
  397TMC3    O2 5941   4.056   3.357  16.904 -0.0347  0.5954 -0.5239
  398MPD2     C 5942   2.196   4.355   0.076 -0.4383 -0.7388 -1.1689
  398MPD2    C1 5943   2.185   4.254   0.177  0.2621  0.1026  0.0989
  398MPD2    C2 5944   2.253   4.267   0.298 -0.1496 -0.1176  0.1085
  398MPD2    C3 5945   2.322   4.380   0.333  0.0554 -0.4632 -0.0724
  398MPD2    C4 5946   2.335   4.478   0.240  0.3790  0.9457  0.0168
  398MPD2    C5 5947   2.265   4.465   0.118 -0.0895  0.5055  0.1020
  398MPD2     H 5948   2.249   4.182   0.365 -1.8793  0.3066  0.5417
  398MPD2    H1 5949   2.393   4.568   0.254  1.0659  0.6870 -1.2192
  398MPD2    H2 5950   2.136   4.353  17.691  0.1374  0.7107 -1.5740
  398MPD2    H3 5951   2.282   4.547   0.050 -1.7973  0.3427 -0.5035
  398MPD2     N 5952   2.362   4.394   0.470  0.2964 -0.5631 -0.5414
  398MPD2    H5 5953   2.343   4.320   0.536  0.3264 -0.7965 -0.7917
  398MPD2    N1 5954   2.115   4.126   0.161 -0.3548 -0.2911 -0.0264
  398MPD2    H7 5955   2.108   4.065   0.241 -1.1648 -1.3549 -0.9057
  399TMC3    C1 5956   2.021   3.933   0.069 -0.1613 -0.4838 -0.0328
  399TMC3    C2 5957   2.070   3.858   0.176  0.3681  0.1135 -0.2092
  399TMC3    C3 5958   2.067   3.721   0.167  0.6229 -0.2242 -0.0846
  399TMC3    C4 5959   1.956   3.871  17.675  0.4508 -0.5163 -0.5003
  399TMC3    C5 5960   1.951   3.730  17.676  0.0037  0.4286 -0.6620
  399TMC3    C6 5961   2.019   3.653   0.059  0.2701  0.4450 -0.0701
  399TMC3     C 5962   2.062   4.076   0.045 -0.1720 -0.6811 -0.0794
  399TMC3     O 5963   2.037   4.127  17.643  0.3449 -0.4847 -0.0178
  399TMC3     H 5964   2.110   3.900   0.267 -0.7565 -1.0222  0.8083
  399TMC3    H1 5965   1.907   3.927  17.597  0.1017  0.1245  0.1741
  399TMC3    H2 5966   2.019   3.545   0.047  0.6802  0.5483 -0.9828
  399TMC3    C7 5967   1.839   3.663  17.605  0.4331  0.2259 -0.3225
  399TMC3    C8 5968   2.115   3.644   0.286 -0.0798  0.4846  0.5162
  399TMC3    O1 5969   1.812   3.550  17.649 -0.2304  0.6816 -0.2505
  399TMC3    O2 5970   2.190   3.698   0.366 -1.2739 -0.6836 -0.1473
  400TMC3    C1 5971   0.717   3.164  16.764  0.3796 -0.3302  0.6556
  400TMC3    C2 5972   0.616   3.186  16.670 -0.3877  0.1468 -1.0493
  400TMC3    C3 5973   0.543   3.299  16.669 -0.0776 -0.6565 -0.2742
  400TMC3    C4 5974   0.753   3.255  16.854  0.8345 -0.1463 -0.5543
  400TMC3    C5 5975   0.668   3.370  16.860  0.3874 -0.1568  0.0775
  400TMC3    C6 5976   0.558   3.387  16.775  0.7694 -0.3222  0.4050
  400TMC3     C 5977   0.779   3.029  16.758 -0.2731 -0.3465  0.6164
  400TMC3     O 5978   0.751   2.971  16.652  0.5710  0.1310  0.3064
  400TMC3     H 5979   0.599   3.121  16.585  1.6630 -0.0779 -1.2873
  400TMC3    H1 5980   0.839   3.248  16.920  0.3124  1.9345  0.3543
  400TMC3    H2 5981   0.499   3.478  16.770  2.2978  0.4659 -3.0272
  400TMC3    C7 5982   0.701   3.476  16.953 -0.0121 -0.3334  0.3878
  400TMC3    C8 5983   0.408   3.291  16.614  0.6522  0.1820  0.4328
  400TMC3    O1 5984   0.817   3.497  16.983  0.5352 -0.2837 -0.1166
  400TMC3    O2 5985   0.339   3.393  16.619 -0.1693 -0.5197  0.7630
  401MPD2     C 5986   2.844   1.564   0.414  0.2334 -0.1051 -0.1969
  401MPD2    C1 5987   2.963   1.498   0.400 -0.2398  0.1527  0.6328
  401MPD2    C2 5988   2.979   1.390   0.484 -0.1559  0.1989  0.0883
  401MPD2    C3 5989   2.895   1.352   0.587 -0.7816  0.2267 -1.0263
  401MPD2    C4 5990   2.781   1.432   0.606 -0.2402 -0.1242  0.0058
  401MPD2    C5 5991   2.752   1.532   0.517 -0.8186  0.1634  0.5157
  401MPD2     H 5992   3.069   1.330   0.481  0.9739  1.8594  0.8947
  401MPD2    H1 5993   2.709   1.407   0.683 -1.0705  1.8962 -0.1377
  401MPD2    H2 5994   2.824   1.648   0.349  0.0796  0.4944  0.6257
  401MPD2    H3 5995   2.664   1.592   0.536 -0.2220  0.7749  1.3529
  401MPD2     N 5996   2.921   1.240   0.663  0.1333  0.2402  0.1064
  401MPD2    H5 5997   2.997   1.175   0.642  1.6359  1.4355  1.8447
  401MPD2    N1 5998   3.072   1.538   0.314  0.0181 -0.4879 -0.0748
  401MPD2    H7 5999   3.155   1.479   0.317  0.8505  0.6448 -1.1137
  402TMC3    C1 6000   2.941   1.112   0.854  0.0852  0.0982  0.3213
  402TMC3    C2 6001   2.965   1.116   0.985 -0.2411  0.1264 -0.0096
  402TMC3    C3 6002   3.029   1.008   1.042 -0.3118  0.2204  0.0239
  402TMC3    C4 6003   2.966   0.997   0.781 -0.4826  0.0048 -0.4775
  402TMC3    C5 6004   3.020   0.886   0.840 -0.4870 -0.0061 -0.3643
  402TMC3    C6 6005   3.060   0.893   0.970 -0.2173  0.2978  0.7422
  402TMC3     C 6006   2.875   1.220   0.792 -0.2816 -0.1291 -0.5124
  402TMC3     O 6007   2.807   1.293   0.864  0.0974 -0.1033 -0.4254
  402TMC3     H 6008   2.934   1.204   1.040 -0.0219  0.8361 -1.0230
  402TMC3    H1 6009   2.926   0.986   0.681 -3.3711  2.7457  0.3778
  402TMC3    H2 6010   3.103   0.804   1.014 -1.3080  0.4428  2.1157
  402TMC3    C7 6011   3.022   0.767   0.763 -0.6422  0.1574  0.0401
  402TMC3    C8 6012   3.100   1.004   1.164 -0.2728 -0.2632 -0.7491
  402TMC3    O1 6013   2.960   0.756   0.654  0.9054 -0.5385  0.1522
  402TMC3    O2 6014   3.178   0.917   1.197 -0.2342  0.1623 -0.2610
  403MPD2     C 6015   1.881   0.297  13.182 -0.0449 -0.3646  0.1991
  403MPD2    C1 6016   1.901   0.168  13.223  0.0886  1.0868  0.4807
  403MPD2    C2 6017   1.999   0.150  13.315  0.2277  0.2338  0.0542
  403MPD2    C3 6018   2.077   0.248  13.363  0.1562  0.9186  0.6277
  403MPD2    C4 6019   2.036   0.379  13.336  0.0065 -0.1386 -0.4541
  403MPD2    C5 6020   1.946   0.397  13.236 -0.1379 -0.2400  0.0742
  403MPD2     H 6021   2.021   0.049  13.350 -2.0328 -0.9766 -1.9829
  403MPD2    H1 6022   2.078   0.466  13.385  1.8453 -0.7633 -0.9350
  403MPD2    H2 6023   1.797   0.316  13.116 -0.5041  0.2986  0.9692
  403MPD2    H3 6024   1.928   0.496  13.198  1.0343  0.8367  2.3082
  403MPD2     N 6025   2.181   0.215  13.456 -0.5756 -0.9423  0.1807
  403MPD2    H5 6026   2.191   0.118  13.484  0.0525 -0.0235  3.1970
  403MPD2    N1 6027   1.836   0.065  13.151  0.1477 -0.0325  0.3318
  403MPD2    H7 6028   1.772   0.098  13.079  0.2938 -1.3184 -0.3960
  404TMC3    C1 6029   1.718   4.583  13.152 -0.0710  0.9210 -0.2040
  404TMC3    C2 6030   1.675   4.487  13.237  0.3433 -0.1482 -0.0271
  404TMC3    C3 6031   1.562   4.408  13.201  0.1333  0.1958 -0.3485
  404TMC3    C4 6032   1.652   4.609  13.034  0.0220  0.4557  0.3417
  404TMC3    C5 6033   1.532   4.532  13.007 -0.5516 -0.0577  0.5004
  404TMC3    C6 6034   1.487   4.430  13.089  0.3571 -0.0161  1.0467
  404TMC3     C 6035   1.838   4.658  13.195  1.3208 -0.1228  0.1505
  404TMC3     O 6036   1.909   4.610  13.283  0.3953  0.3748  0.0047
  404TMC3     H 6037   1.737   4.453  13.320 -2.5799 -3.7412  0.6485
  404TMC3    H1 6038   1.695   4.672  12.956  1.0216 -0.3144  0.2642
  404TMC3    H2 6039   1.396   4.372  13.082  1.6877 -1.5601 -3.1164
  404TMC3    C7 6040   1.466   4.552  12.881  0.5882 -0.6076 -0.4356
  404TMC3    C8 6041   1.555   4.271  13.257  0.6927 -0.5417  0.1524
  404TMC3    O1 6042   1.529   4.602  12.793  0.3136 -0.1853  0.5318
  404TMC3    O2 6043   1.526   4.180  13.181  0.3032 -0.4789  0.0399
  405MPD2     C 6044   2.239   0.596  14.536  0.3006 -1.0675  0.6206
  405MPD2    C1 6045   2.206   0.509  14.434 -0.3207  0.4140  0.0727
  405MPD2    C2 6046   2.150   0.561  14.320 -0.0070 -0.0379 -0.2018
  405MPD2    C3 6047   2.133   0.697  14.305  0.0398  0.5520  0.1244
  405MPD2    C4 6048   2.171   0.786  14.406 -0.1063 -0.2132  0.2004
  405MPD2    C5 6049   2.229   0.728  14.514  0.2538 -0.2583 -0.4411
  405MPD2     H 6050   2.109   0.497  14.243 -1.2535 -0.1285  0.5446
  405MPD2    H1 6051   2.164   0.893  14.399 -5.0327 -0.5627 -0.3723
  405MPD2    H2 6052   2.300   0.564  14.620  1.7283 -0.2154 -0.1021
  405MPD2    H3 6053   2.260   0.781  14.603  0.7931 -2.6931  0.8116
  405MPD2     N 6054   2.080   0.738  14.182 -0.3044 -0.0905 -0.4187
  405MPD2    H5 6055   2.027   0.673  14.125 -2.6077 -0.6723  2.4230
  405MPD2    N1 6056   2.210   0.370  14.453 -0.2368 -0.1285 -0.2338
  405MPD2    H7 6057   2.219   0.336  14.548  0.2452  0.1135 -0.1889
  406TMC3    C1 6058   1.826   0.947  13.865  0.3365  0.2393 -0.0100
  406TMC3    C2 6059   1.825   0.832  13.794  0.0211 -0.3530  0.1306
  406TMC3    C3 6060   1.931   0.744  13.810 -0.6600 -0.4381  0.0056
  406TMC3    C4 6061   1.908   0.968  13.971 -0.6076 -0.1612  0.7100
  406TMC3    C5 6062   1.997   0.864  14.003  0.0445  0.0387 -0.5225
  406TMC3    C6 6063   2.014   0.757  13.920 -0.2601  0.2877 -0.6765
  406TMC3     C 6064   1.701   1.010  13.887  0.2427 -0.1508 -0.1970
  406TMC3     O 6065   1.671   1.112  13.825  0.4770  0.6396 -0.0839
  406TMC3     H 6066   1.761   0.831  13.706 -0.2754 -1.0083  0.3502
  406TMC3    H1 6067   1.887   1.053  14.035  3.2976  0.2161  1.5224
  406TMC3    H2 6068   2.099   0.691  13.933  0.5149  1.2840 -0.7061
  406TMC3    C7 6069   2.057   0.868  14.134 -0.1315 -0.3321 -0.1314
  406TMC3    C8 6070   1.901   0.610  13.750  0.5797  0.5041 -0.4795
  406TMC3    O1 6071   2.079   0.976  14.187  0.6526  0.6784  0.2940
  406TMC3    O2 6072   1.842   0.605  13.643 -0.0321 -0.3127 -0.5715
  407MPD2     C 6073   4.189   1.913   9.466 -0.1048  0.1022 -0.2797
  407MPD2    C1 6074   4.309   1.910   9.537  0.0656  0.2107 -0.0629
  407MPD2    C2 6075   4.326   1.987   9.653 -0.0297  0.4210 -0.2119
  407MPD2    C3 6076   4.223   2.062   9.705  0.8361 -0.2507  0.4309
  407MPD2    C4 6077   4.094   2.058   9.646  0.7206  0.3545  0.2453
  407MPD2    C5 6078   4.084   1.988   9.527  0.1784 -0.2463 -0.1871
  407MPD2     H 6079   4.425   1.973   9.696 -0.6886 -1.4934  0.6702
  407MPD2    H1 6080   4.013   2.122   9.680  0.2898 -0.2793  0.3983
  407MPD2    H2 6081   4.168   1.855   9.377  2.6055 -1.8586  0.3393
  407MPD2    H3 6082   3.996   1.983   9.464 -0.7081  0.6414  0.9864
  407MPD2     N 6083   4.240   2.140   9.823 -0.7113  0.6336 -0.3508
  407MPD2    H5 6084   4.175   2.217   9.834 -0.7929  0.2749  1.7158
  407MPD2    N1 6085   4.422   1.840   9.490  0.0723  0.8052  0.0643
  407MPD2    H7 6086   4.496   1.828   9.558 -1.7773  0.6599  2.0538
  408TMC3    C1 6087   4.559   1.721   9.344 -0.0063  0.4458  0.2711
  408TMC3    C2 6088   4.612   1.635   9.436 -0.5378 -0.2371  0.2082
  408TMC3    C3 6089   0.019   1.615   9.403  0.1730  0.5123  0.4527
  408TMC3    C4 6090   4.633   1.781   9.242  0.3428 -0.4311  1.0991
  408TMC3    C5 6091   0.035   1.754   9.216 -0.1587 -0.5145  0.2750
  408TMC3    C6 6092   0.086   1.657   9.297  0.6235 -0.4190  0.5669
  408TMC3     C 6093   4.432   1.786   9.363 -0.5938 -0.1377  1.0191
  408TMC3     O 6094   4.371   1.812   9.265  0.1122 -0.3930  0.2374
  408TMC3     H 6095   4.578   1.621   9.538 -3.5450 -0.1145 -0.7683
  408TMC3    H1 6096   4.581   1.859   9.186 -2.5937 -1.2801  2.6305
  408TMC3    H2 6097   0.184   1.619   9.270  0.7809 -0.2071  0.8487
  408TMC3    C7 6098   0.121   1.866   9.203 -0.3053  0.4001  0.4801
  408TMC3    C8 6099   0.103   1.607   9.526  1.1074 -0.0719  0.1634
  408TMC3    O1 6100   0.217   1.854   9.278 -0.5249 -0.2256 -0.1644
  408TMC3    O2 6101   0.070   1.527   9.614 -0.3935  0.6822  0.1185
  409MPD2     C 6102   4.107   2.966  16.771  0.5721 -0.1541 -0.1860
  409MPD2    C1 6103   4.194   2.972  16.876 -0.9310 -0.6818 -0.5974
  409MPD2    C2 6104   4.289   3.068  16.879  0.2664 -0.1354 -0.4910
  409MPD2    C3 6105   4.316   3.158  16.780 -0.4851 -0.0249  0.1024
  409MPD2    C4 6106   4.227   3.147  16.672 -0.1548  0.4526  0.4506
  409MPD2    C5 6107   4.125   3.055  16.670 -0.2075 -0.1141  0.6743
  409MPD2     H 6108   4.346   3.063  16.971 -2.0445  1.0559  0.9850
  409MPD2    H1 6109   4.236   3.214  16.587  1.1320  2.0502  1.8574
  409MPD2    H2 6110   4.021   2.901  16.768  0.6134 -0.1394 -1.6518
  409MPD2    H3 6111   4.048   3.059  16.594  0.4692  1.9558  0.1058
  409MPD2     N 6112   4.426   3.248  16.778  0.4799 -0.3331 -0.2523
  409MPD2    H5 6113   4.438   3.300  16.691  0.9429  0.3768  0.2325
  409MPD2    N1 6114   4.181   2.877  16.976 -0.2216 -0.7860  0.4294
  409MPD2    H7 6115   4.268   2.876  17.029  0.8508 -0.9620 -1.3351
  410TMC3    C1 6116   4.635   3.340  16.838  0.0128 -0.5511 -0.8558
  410TMC3    C2 6117   0.025   3.303  16.899 -0.1834 -0.4907 -0.1780
  410TMC3    C3 6118   0.132   3.394  16.885  0.1405 -0.3578  0.3616
  410TMC3    C4 6119   4.625   3.439  16.744  0.1164  0.0209  0.0903
  410TMC3    C5 6120   0.009   3.516  16.727 -0.8283 -0.0104 -0.0025
  410TMC3    C6 6121   0.128   3.498  16.797 -0.1411  1.0146 -0.0753
  410TMC3     C 6122   4.516   3.257  16.875  0.9458 -0.4677  0.1086
  410TMC3     O 6123   4.523   3.199  16.983  0.0441  0.4039 -0.0797
  410TMC3     H 6124   0.028   3.218  16.966 -2.0932 -0.0578  0.4631
  410TMC3    H1 6125   4.528   3.462  16.701  0.3540 -0.3713 -0.6549
  410TMC3    H2 6126   0.214   3.562  16.783  1.4851 -0.9943  0.7537
  410TMC3    C7 6127   0.009   3.577  16.594 -0.2068  0.3355 -0.1504
  410TMC3    C8 6128   0.255   3.359  16.947 -0.6640  0.3469  0.2767
  410TMC3    O1 6129   4.624   3.616  16.555 -0.8601 -0.1106 -0.2207
  410TMC3    O2 6130   0.343   3.446  16.954 -0.3858 -0.2449 -0.1140
  411MPD2     C 6131   4.599   3.383  14.631  0.1210 -0.0357 -0.1730
  411MPD2    C1 6132   4.498   3.470  14.623 -0.1391  0.0047 -0.6066
  411MPD2    C2 6133   4.384   3.423  14.563 -0.2182 -0.2579  0.6390
  411MPD2    C3 6134   4.372   3.289  14.520 -0.4867 -0.3240 -0.4271
  411MPD2    C4 6135   4.478   3.210  14.532  0.5886  0.1489 -0.3722
  411MPD2    C5 6136   4.594   3.256  14.582 -0.1001  0.0713  0.0068
  411MPD2     H 6137   4.292   3.479  14.558  1.6873  2.6418 -2.2907
  411MPD2    H1 6138   4.477   3.105  14.503  0.3586  0.6307 -2.0649
  411MPD2    H2 6139   4.691   3.412  14.683 -0.1580 -0.5412  0.6107
  411MPD2    H3 6140   4.671   3.181  14.591 -0.7959 -0.4830  1.3710
  411MPD2     N 6141   4.260   3.243  14.438 -0.4531  0.7550  0.6594
  411MPD2    H5 6142   4.289   3.164  14.381 -0.8168  1.1893 -0.1096
  411MPD2    N1 6143   4.508   3.601  14.670 -0.4787 -0.8703 -0.6164
  411MPD2    H7 6144   4.585   3.628  14.731 -1.7285  1.4092 -0.0637
  412TMC3    C1 6145   4.046   3.240  14.359 -0.1754 -0.8298 -0.3544
  412TMC3    C2 6146   3.919   3.199  14.395 -0.3036 -0.2726 -0.1029
  412TMC3    C3 6147   3.821   3.158  14.306  0.2120  0.2957  0.4171
  412TMC3    C4 6148   4.078   3.240  14.226 -0.6707  0.3784 -0.0547
  412TMC3    C5 6149   3.984   3.194  14.137  0.6740  0.4078  0.0824
  412TMC3    C6 6150   3.856   3.164  14.177  0.6498  0.3822 -0.2601
  412TMC3     C 6151   4.134   3.286  14.456 -0.1213  0.5163  0.2492
  412TMC3     O 6152   4.085   3.335  14.559  0.5586  0.3800  0.3471
  412TMC3     H 6153   3.907   3.202  14.502  0.9657  2.1363 -0.0213
  412TMC3    H1 6154   4.178   3.263  14.191 -0.2089  0.9561  1.6479
  412TMC3    H2 6155   3.785   3.135  14.101  1.5133  0.9587 -1.2991
  412TMC3    C7 6156   4.030   3.105  14.035  0.2826 -0.9248 -0.3503
  412TMC3    C8 6157   3.767   3.026  14.328  0.1820 -0.4657 -0.3330
  412TMC3    O1 6158   3.961   3.010  14.001  0.2843  0.0348  0.4857
  412TMC3    O2 6159   3.730   2.999  14.439 -0.3341 -0.3465  0.0198
  413MPD2     C 6160   1.496   1.980  15.689 -0.1263  0.1836  0.7560
  413MPD2    C1 6161   1.421   1.934  15.586 -0.1847 -0.0319 -0.0979
  413MPD2    C2 6162   1.475   1.882  15.467 -0.0971  0.4416 -0.0169
  413MPD2    C3 6163   1.606   1.851  15.476  0.1714 -0.1462  0.2291
  413MPD2    C4 6164   1.686   1.887  15.584  0.4125  0.4471  0.4591
  413MPD2    C5 6165   1.632   1.965  15.686 -0.7626  0.5405  0.5946
  413MPD2     H 6166   1.416   1.847  15.383 -1.1299  0.6273  0.6305
  413MPD2    H1 6167   1.793   1.873  15.578  0.3620 -0.4973  1.9001
  413MPD2    H2 6168   1.445   2.014  15.778  0.3970  1.1861  0.6726
  413MPD2    H3 6169   1.696   2.006  15.763  0.4052 -1.7730  0.8690
  413MPD2     N 6170   1.664   1.797  15.358  0.2928 -0.1744  0.4908
  413MPD2    H5 6171   1.608   1.789  15.274  0.6258  0.9900  0.1592
  413MPD2    N1 6172   1.285   1.933  15.621  0.2275  0.5450 -0.3513
  413MPD2    H7 6173   1.261   1.965  15.714  0.4241 -0.6409  0.1123
  414TMC3    C1 6174   1.789   1.658  15.238  0.2997 -0.2372  0.3767
  414TMC3    C2 6175   1.830   1.527  15.243 -0.0929  0.0586  0.1757
  414TMC3    C3 6176   1.827   1.453  15.134  0.0240  0.1788  0.3506
  414TMC3    C4 6177   1.772   1.716  15.116 -0.3336  0.0864  0.1639
  414TMC3    C5 6178   1.765   1.632  15.006 -0.3563 -0.4894  0.5391
  414TMC3    C6 6179   1.793   1.496  15.011  0.2490 -0.2971 -0.3625
  414TMC3     C 6180   1.779   1.731  15.358  0.5779 -0.7056  0.7641
  414TMC3     O 6181   1.854   1.693  15.445  0.4452 -0.1114  0.2289
  414TMC3     H 6182   1.833   1.476  15.339 -3.5322 -0.6105 -0.0843
  414TMC3    H1 6183   1.756   1.822  15.101 -1.8318 -0.1079  0.3479
  414TMC3    H2 6184   1.785   1.435  14.922  0.7238 -3.1784  1.5668
  414TMC3    C7 6185   1.717   1.690  14.885 -0.0226  0.3991 -0.4587
  414TMC3    C8 6186   1.919   1.340  15.129 -0.5116  0.6177  0.2470
  414TMC3    O1 6187   1.642   1.779  14.921  0.1256  0.3753  0.4922
  414TMC3    O2 6188   1.896   1.256  15.041 -0.0236  0.2769 -0.0170
  415TMC3    C1 6189   1.617   4.343   9.883 -0.9591 -0.3445  0.5978
  415TMC3    C2 6190   1.752   4.314   9.874 -0.6761  0.5373 -0.2939
  415TMC3    C3 6191   1.784   4.182   9.854  0.4839 -0.1591 -0.4047
  415TMC3    C4 6192   1.525   4.242   9.881 -0.8385 -0.1174  0.8240
  415TMC3    C5 6193   1.558   4.111   9.863  0.5217  0.1696  0.0817
  415TMC3    C6 6194   1.691   4.083   9.841  0.2404  0.0874 -0.3319
  415TMC3     C 6195   1.576   4.457   9.957  0.1426  0.6312 -0.6254
  415TMC3     O 6196   1.458   4.489   9.952 -0.3099 -0.1404 -0.6685
  415TMC3     H 6197   1.815   4.401   9.859  0.4591 -0.0191  1.2327
  415TMC3    H1 6198   1.421   4.273   9.883 -0.7145  0.5078 -2.0076
  415TMC3    H2 6199   1.718   3.978   9.843  2.1550  0.5996  0.1880
  415TMC3    C7 6200   1.452   4.017   9.822  0.1400 -0.5065  0.5280
  415TMC3    C8 6201   1.924   4.132   9.868 -0.6495 -0.3034 -0.1675
  415TMC3    O1 6202   1.481   3.936   9.738  0.2642 -0.4197  0.2316
  415TMC3    O2 6203   1.940   4.011   9.850  0.2367  0.0467  0.0040
  416MPD2     C 6204   3.839   2.863  11.982 -0.0826  0.2370  0.3419
  416MPD2    C1 6205   3.720   2.842  11.909  0.2178  0.9135 -0.2690
  416MPD2    C2 6206   3.737   2.768  11.792  1.1327  0.6857  0.0263
  416MPD2    C3 6207   3.863   2.720  11.747 -0.2018  0.2174 -0.2828
  416MPD2    C4 6208   3.973   2.743  11.825 -0.5102 -0.7200 -0.4173
  416MPD2    C5 6209   3.957   2.818  11.936 -0.0594  0.2769  0.2369
  416MPD2     H 6210   3.648   2.770  11.730  2.3684 -1.5177 -1.8207
  416MPD2    H1 6211   4.074   2.718  11.796 -0.4432  0.1720 -0.9645
  416MPD2    H2 6212   3.834   2.910  12.080  3.9572  1.3299  0.0065
  416MPD2    H3 6213   4.045   2.845  11.993 -0.1900  1.9022 -0.3065
  416MPD2     N 6214   3.880   2.653  11.627  0.2791  0.8812  0.1437
  416MPD2    H5 6215   3.975   2.637  11.596 -0.2488  0.0076 -1.0178
  416MPD2    N1 6216   3.590   2.893  11.941  0.0482 -0.1005 -0.3550
  416MPD2    H7 6217   3.523   2.870  11.869 -0.4770  1.5763 -0.3956
  417TMC3    C1 6218   3.428   2.979  12.089  0.2841 -0.0600 -0.8250
  417TMC3    C2 6219   3.389   2.993  12.215 -0.1374  0.1801  0.2065
  417TMC3    C3 6220   3.257   3.023  12.250  0.2083  0.3294  0.5183
  417TMC3    C4 6221   3.341   3.001  11.989 -0.0913  0.2745 -0.1647
  417TMC3    C5 6222   3.211   3.022  12.017 -0.1631 -0.0350  0.6338
  417TMC3    C6 6223   3.169   3.046  12.145  0.1396 -0.2370  0.6230
  417TMC3     C 6224   3.565   2.954  12.061 -0.4721 -0.6717 -0.4049
  417TMC3     O 6225   3.636   2.962  12.163 -0.3042 -0.1296  0.4022
  417TMC3     H 6226   3.462   2.976  12.294  2.2219  2.1426 -1.5846
  417TMC3    H1 6227   3.372   2.983  11.886  1.7334  1.6879  0.1191
  417TMC3    H2 6228   3.066   3.064  12.174  0.4887  0.3931  1.4783
  417TMC3    C7 6229   3.123   3.047  11.905  0.9358 -0.4290 -0.2799
  417TMC3    C8 6230   3.204   3.045  12.382 -0.6624  0.3817  0.0325
  417TMC3    O1 6231   3.155   3.010  11.793 -0.1770 -0.1356 -0.1531
  417TMC3    O2 6232   3.114   3.127  12.389 -0.3059 -0.0823 -0.4188
  418TMC3    C1 6233   2.623   4.331   0.743 -0.0520 -0.6607 -0.0903
  418TMC3    C2 6234   2.594   4.433   0.658 -0.2794 -0.0223 -0.2352
  418TMC3    C3 6235   2.469   4.476   0.652  0.3896 -0.6238  0.1474
  418TMC3    C4 6236   2.530   4.299   0.843  0.2143 -0.1652  0.2745
  418TMC3    C5 6237   2.406   4.350   0.827 -0.4401  0.3080  0.1412
  418TMC3    C6 6238   2.371   4.435   0.731 -0.2994 -0.2947 -1.3613
  418TMC3     C 6239   2.736   4.248   0.707  0.0529 -0.7078  0.3786
  418TMC3     O 6240   2.831   4.296   0.646  0.3324  0.1845  0.2712
  418TMC3     H 6241   2.659   4.455   0.574  0.0604 -0.3959 -0.0719
  418TMC3    H1 6242   2.548   4.228   0.923  0.6749 -0.8638 -0.4451
  418TMC3    H2 6243   2.275   4.485   0.730 -1.8167 -3.1325  1.2462
  418TMC3    C7 6244   2.296   4.293   0.910  0.4710 -0.3581 -0.1496
  418TMC3    C8 6245   2.425   4.507   0.519 -0.6883  0.3402  0.3532
  418TMC3    O1 6246   2.198   4.244   0.852  0.0673 -0.8457  0.4215
  418TMC3    O2 6247   2.475   4.606   0.466  0.3408 -0.8375  0.3091
  419MPD2     C 6248   0.952   3.146  12.201  0.1137  0.0375 -0.0012
  419MPD2    C1 6249   0.947   3.287  12.195 -0.2583  0.6619 -0.2075
  419MPD2    C2 6250   0.942   3.359  12.307  0.5885  0.6371 -0.5617
  419MPD2    C3 6251   0.949   3.295  12.432 -0.2792 -0.8962  0.3031
  419MPD2    C4 6252   0.953   3.158  12.441 -0.0412  0.2749 -0.5034
  419MPD2    C5 6253   0.947   3.083  12.324  0.3764 -1.3630  0.3781
  419MPD2     H 6254   0.944   3.467  12.312  0.0874  0.5556  1.2656
  419MPD2    H1 6255   0.963   3.108  12.537  0.1956  0.6083 -0.3511
  419MPD2    H2 6256   0.951   3.080  12.115  1.7646  0.4659 -0.3422
  419MPD2    H3 6257   0.955   2.975  12.331 -1.2744 -1.6215 -1.8375
  419MPD2     N 6258   0.953   3.378  12.543  0.1616 -0.6494 -0.5480
  419MPD2    H5 6259   0.982   3.473  12.523  0.0061 -0.2902  0.9873
  419MPD2    N1 6260   0.956   3.357  12.077 -0.3112 -0.3374  0.4346
  419MPD2    H7 6261   0.943   3.458  12.078 -0.3677 -0.3379 -1.7375
  420TMC3    C1 6262   0.920   3.464  12.759  0.1522  0.1885 -0.5778
  420TMC3    C2 6263   0.920   3.592  12.697  0.8117  0.4018 -0.0250
  420TMC3    C3 6264   0.945   3.699  12.774 -0.5334  0.5075 -0.3355
  420TMC3    C4 6265   0.953   3.443  12.883 -0.2491 -0.9406 -0.6709
  420TMC3    C5 6266   0.976   3.562  12.950 -0.7001 -0.3635 -0.8705
  420TMC3    C6 6267   0.978   3.685  12.900  0.0521  0.6011 -0.2820
  420TMC3     C 6268   0.906   3.349  12.669  0.5199  0.2212 -0.3192
  420TMC3     O 6269   0.857   3.247  12.713  0.8003 -0.3026  0.0699
  420TMC3     H 6270   0.866   3.608  12.605 -2.0870 -0.5995  1.5262
  420TMC3    H1 6271   0.926   3.347  12.926  0.5862 -1.3390 -1.0398
  420TMC3    H2 6272   0.988   3.767  12.970  0.3294 -0.1762  0.5857
  420TMC3    C7 6273   1.003   3.539  13.087  0.1950 -0.0389  0.0263
  420TMC3    C8 6274   0.885   3.823  12.729  0.8585  0.5598  0.2671
  420TMC3    O1 6275   1.014   3.425  13.129  0.4869 -0.3260 -0.4787
  420TMC3    O2 6276   0.786   3.815  12.656 -0.1922 -0.2364  0.0064
  421TMC3    C1 6277   2.347   0.272  13.629 -0.0550 -0.2689 -0.3830
  421TMC3    C2 6278   2.411   0.373  13.690 -0.3264  0.3965 -0.0710
  421TMC3    C3 6279   2.542   0.360  13.732  0.4943 -0.2890 -0.3719
  421TMC3    C4 6280   2.402   0.150  13.622  0.3575 -0.0711 -0.1652
  421TMC3    C5 6281   2.534   0.133  13.660 -0.5494 -0.1309  0.3837
  421TMC3    C6 6282   2.608   0.239  13.715  0.4838  0.0219 -0.2910
  421TMC3     C 6283   2.258   0.310  13.518  1.0899 -0.3376 -0.0164
  421TMC3     O 6284   2.252   0.432  13.500  0.0040  0.0038 -0.0155
  421TMC3     H 6285   2.364   0.469  13.706 -1.0898 -0.0809  0.6049
  421TMC3    H1 6286   2.365   0.075  13.553  1.7900 -0.5142 -0.4481
  421TMC3    H2 6287   2.708   0.226  13.756  0.0429 -1.8120  0.2085
  421TMC3    C7 6288   2.571   4.720  13.698  0.3906 -0.4174 -0.2820
  421TMC3    C8 6289   2.612   0.478  13.788  0.1309 -0.5142  0.7915
  421TMC3    O1 6290   2.680   4.705  13.746 -0.1289 -0.4276 -0.2035
  421TMC3    O2 6291   2.734   0.479  13.766 -0.1238 -0.5815  0.0505
  422TMC3    C1 6292   4.645   1.837  12.658  0.7174  0.0538 -0.0213
  422TMC3    C2 6293   4.617   1.963  12.693 -0.6202  0.3753  0.1094
  422TMC3    C3 6294   4.515   1.990  12.776  0.3786  0.1021 -0.6673
  422TMC3    C4 6295   4.563   1.735  12.697 -0.0756  0.0800 -0.3257
  422TMC3    C5 6296   4.460   1.763  12.785  0.0235  0.5544 -0.2086
  422TMC3    C6 6297   4.431   1.891  12.820  0.3886  0.5602 -0.7503
  422TMC3     C 6298   4.721   1.828  12.533  0.1211 -0.0069 -0.2658
  422TMC3     O 6299   4.710   1.925  12.464 -0.0864 -0.0811  0.1370
  422TMC3     H 6300   4.682   2.044  12.659 -0.9622 -0.1806 -1.8938
  422TMC3    H1 6301   4.587   1.636  12.660 -1.6787 -0.3435 -0.1892
  422TMC3    H2 6302   4.344   1.913  12.880 -0.1703  0.1916 -1.4217
  422TMC3    C7 6303   4.349   1.674  12.760  0.2355  0.5080 -0.3002
  422TMC3    C8 6304   4.468   2.128  12.771  0.5806 -0.3803  0.6453
  422TMC3    O1 6305   4.363   1.551  12.764 -0.4819  0.0890  0.1405
  422TMC3    O2 6306   4.466   2.195  12.873  0.7085  0.0396 -0.2409
  423MPD2     C 6307   0.998   2.631   0.302  0.1171  0.2593 -0.5230
  423MPD2    C1 6308   0.981   2.501   0.352  0.6406  0.6535  0.2533
  423MPD2    C2 6309   1.035   2.395   0.277  0.5942  0.5182 -0.9063
  423MPD2    C3 6310   1.092   2.416   0.153 -0.0883 -0.8404 -0.3479
  423MPD2    C4 6311   1.102   2.547   0.108  0.3307  0.0127  0.4276
  423MPD2    C5 6312   1.061   2.649   0.184 -0.6655 -0.4777  0.1138
  423MPD2     H 6313   1.023   2.292   0.309 -1.5587  1.1495  0.3385
  423MPD2    H1 6314   1.153   2.573   0.016  1.2435 -2.4718  0.2303
  423MPD2    H2 6315   0.975   2.724   0.354 -2.3747  0.2141 -1.5301
  423MPD2    H3 6316   1.087   2.753   0.167 -2.1051 -0.3348 -1.2423
  423MPD2     N 6317   1.140   2.325   0.055  0.2060  0.2303  0.2809
  423MPD2    H5 6318   1.162   2.365  17.669 -1.8646 -2.5994 -1.4802
  423MPD2    N1 6319   0.924   2.472   0.473 -0.3761  0.2722 -0.3137
  423MPD2    H7 6320   0.925   2.376   0.506 -3.5602  0.8194  1.4262
  424TMC3    C1 6321   0.805   2.536   0.671 -0.1673 -0.4271  0.5985
  424TMC3    C2 6322   0.842   2.418   0.727  0.6604  0.6823  0.2723
  424TMC3    C3 6323   0.767   2.379   0.838  0.2980 -0.2833 -0.3190
  424TMC3    C4 6324   0.715   2.620   0.727 -0.3327 -0.5593 -0.0124
  424TMC3    C5 6325   0.655   2.587   0.847  0.1830 -0.1586  0.1833
  424TMC3    C6 6326   0.682   2.463   0.902  0.3406 -0.2797 -0.3155
  424TMC3     C 6327   0.843   2.561   0.536 -0.4779 -0.2524 -0.1532
  424TMC3     O 6328   0.799   2.669   0.504 -0.1294  0.3599  0.4879
  424TMC3     H 6329   0.928   2.361   0.691 -1.6944 -0.7862 -3.0337
  424TMC3    H1 6330   0.705   2.721   0.688 -0.9922  0.0809  1.7737
  424TMC3    H2 6331   0.634   2.431   0.993  0.3754 -0.4288 -0.3493
  424TMC3    C7 6332   0.556   2.679   0.897  0.1088  0.7826 -0.3192
  424TMC3    C8 6333   0.805   2.251   0.893 -0.3131 -0.1799 -0.4775
  424TMC3    O1 6334   0.500   2.755   0.817  0.2126 -0.1830 -0.0513
  424TMC3    O2 6335   0.907   2.193   0.852 -0.1667  0.3786  0.1476
  425MPD2     C 6336   0.314   1.502  17.381 -0.1113  0.0628 -0.4761
  425MPD2    C1 6337   0.254   1.410  17.302  0.4617  0.0441  0.9580
  425MPD2    C2 6338   0.127   1.441  17.256 -0.0966 -0.5276 -0.2499
  425MPD2    C3 6339   0.062   1.560  17.285  0.6173 -0.3695  0.1217
  425MPD2    C4 6340   0.121   1.648  17.371  0.0111  0.5020  0.0645
  425MPD2    C5 6341   0.245   1.613  17.420  0.4888  0.4747 -0.0564
  425MPD2     H 6342   0.069   1.375  17.193 -1.1785 -0.8021  1.0344
  425MPD2    H1 6343   0.084   1.744  17.404 -2.4332 -0.6973  0.8182
  425MPD2    H2 6344   0.405   1.485  17.438 -1.6033 -3.2514  0.9253
  425MPD2    H3 6345   0.298   1.676  17.490  0.2297  0.2871  0.3107
  425MPD2     N 6346   4.658   1.568  17.243 -0.5703 -0.1308  0.0573
  425MPD2    H5 6347   4.625   1.486  17.195  0.1199  0.1994 -0.9643
  425MPD2    N1 6348   0.326   1.296  17.266 -0.1990 -0.0856 -0.5248
  425MPD2    H7 6349   0.423   1.300  17.296  0.0533  0.6450 -1.4349
  426TMC3    C1 6350   0.375   1.078  17.163  0.6705 -0.0848 -0.7992
  426TMC3    C2 6351   0.332   1.000  17.058  0.1386  0.0585  0.4094
  426TMC3    C3 6352   0.415   0.900  17.024  0.0143  0.2365  0.2219
  426TMC3    C4 6353   0.496   1.061  17.233  0.1843  0.3025 -0.0058
  426TMC3    C5 6354   0.575   0.961  17.196 -0.6150  0.2521 -0.5064
  426TMC3    C6 6355   0.536   0.877  17.095  0.5268  0.2721 -0.7839
  426TMC3     C 6356   0.283   1.191  17.187 -0.2793 -0.2024  0.6925
  426TMC3     O 6357   0.176   1.189  17.130  0.1427  0.1080 -0.0955
  426TMC3     H 6358   0.260   1.035  16.986 -0.4095  1.8118  1.8153
  426TMC3    H1 6359   0.534   1.129  17.308 -0.4186  1.1764 -0.4978
  426TMC3    H2 6360   0.594   0.790  17.068 -0.3539 -0.7827  0.7161
  426TMC3    C7 6361   0.660   0.907  17.303  0.1844  0.0087 -0.3969
  426TMC3    C8 6362   0.382   0.806  16.917  0.1258  0.1800  0.0684
  426TMC3    O1 6363   0.726   0.807  17.272  0.2690 -0.1410 -0.6541
  426TMC3    O2 6364   0.469   0.725  16.889  0.5444 -0.5477  0.1619
  427MPD2     C 6365   3.602   3.698  14.762  0.3010 -0.6308 -0.1143
  427MPD2    C1 6366   3.544   3.586  14.824 -0.5523 -0.1790  0.1945
  427MPD2    C2 6367   3.408   3.586  14.841  0.2430  0.4731 -0.8379
  427MPD2    C3 6368   3.334   3.702  14.824 -0.1354 -0.1265 -0.4115
  427MPD2    C4 6369   3.400   3.820  14.785  0.2434 -0.2564  0.2140
  427MPD2    C5 6370   3.532   3.814  14.753  0.7946  0.1168  0.4965
  427MPD2     H 6371   3.364   3.492  14.872 -0.4565  0.8828 -0.5773
  427MPD2    H1 6372   3.343   3.911  14.770  1.8358  0.8265  0.8085
  427MPD2    H2 6373   3.708   3.714  14.749  0.0793  1.4773  0.6001
  427MPD2    H3 6374   3.578   3.908  14.725 -0.8508  0.2398 -1.7770
  427MPD2     N 6375   3.195   3.715  14.843  0.5123 -0.1504 -0.1901
  427MPD2    H5 6376   3.163   3.811  14.837 -0.7178 -0.4810  1.1043
  427MPD2    N1 6377   3.626   3.472  14.845  0.2632 -0.2588  0.8109
  427MPD2    H7 6378   3.579   3.396  14.891 -0.3184  0.4614  1.4063
  428TMC3    C1 6379   3.812   3.347  14.898  0.9627  0.0944  0.4268
  428TMC3    C2 6380   3.723   3.242  14.894 -0.1631 -0.4889  0.7136
  428TMC3    C3 6381   3.777   3.120  14.937  0.9984  0.3316 -0.0587
  428TMC3    C4 6382   3.935   3.341  14.952 -0.1576  0.1081 -0.2602
  428TMC3    C5 6383   3.978   3.221  14.993  0.4546  0.0251  0.0838
  428TMC3    C6 6384   3.905   3.111  14.981  0.5431  0.7506  0.3094
  428TMC3     C 6385   3.765   3.473  14.851 -1.0593  0.1406  0.1603
  428TMC3     O 6386   3.850   3.560  14.840 -0.4509  0.0348  0.5288
  428TMC3     H 6387   3.622   3.242  14.856  0.2885  0.0304 -0.5037
  428TMC3    H1 6388   3.988   3.435  14.960  0.0097  0.0147 -0.2847
  428TMC3    H2 6389   3.938   3.013  15.015 -2.4116 -0.9171 -1.5985
  428TMC3    C7 6390   4.108   3.201  15.059  0.1704 -0.0518  0.9526
  428TMC3    C8 6391   3.702   3.000  14.915 -0.2080 -0.0281  0.1304
  428TMC3    O1 6392   4.126   3.111  15.137  0.4551  0.0386 -0.1595
  428TMC3    O2 6393   3.732   2.903  14.981 -0.0630  0.6745  0.1398
  429MPD2     C 6394   4.337   3.800   0.095  0.0285  0.5601 -0.0714
  429MPD2    C1 6395   4.410   3.703   0.029  0.0532  0.6547  0.5383
  429MPD2    C2 6396   4.450   3.715  17.598 -0.8500  0.2897  0.4474
  429MPD2    C3 6397   4.430   3.840  17.536 -0.4495  0.5627  0.3375
  429MPD2    C4 6398   4.360   3.941  17.602 -0.1120 -0.2163  0.2075
  429MPD2    C5 6399   4.313   3.915   0.029 -0.1996  0.2818  0.2253
  429MPD2     H 6400   4.509   3.634  17.557 -1.5547 -0.2166  0.4286
  429MPD2    H1 6401   4.341   4.038  17.557 -0.2203 -0.9981 -1.4652
  429MPD2    H2 6402   4.292   3.787   0.193  0.9363 -0.3849  0.2242
  429MPD2    H3 6403   4.258   3.991   0.084  0.7148  0.8720  0.3219
  429MPD2     N 6404   4.500   3.859  17.412  0.2426 -0.3155  0.1031
  429MPD2    H5 6405   4.554   3.779  17.380  1.9604  0.2017  1.7297
  429MPD2    N1 6406   4.452   3.581   0.085  0.5994  0.0284 -0.2032
  429MPD2    H7 6407   4.506   3.525   0.019 -0.7646 -1.7702  0.1966
  430TMC3    C1 6408   4.587   3.967  17.224 -0.1385  0.6583 -0.4804
  430TMC3    C2 6409   4.573   4.060  17.129  0.7504 -0.2463  0.3649
  430TMC3    C3 6410   4.687   4.113  17.074  0.6469  0.5075  0.0875
  430TMC3    C4 6411   4.713   3.926  17.265 -0.0272  0.4925 -0.5790
  430TMC3    C5 6412   0.095   3.975  17.196  0.3993  0.3237  0.4523
  430TMC3    C6 6413   0.085   4.064  17.098 -0.4292  0.2525  0.6329
  430TMC3     C 6414   4.491   3.973  17.334  0.0850 -0.8345 -0.1310
  430TMC3     O 6415   4.436   4.079  17.344  0.1201 -0.4320 -0.1241
  430TMC3     H 6416   4.479   4.113  17.116  1.7532  0.7595 -2.7372
  430TMC3    H1 6417   0.001   3.848  17.339  0.6614 -2.0019 -3.3489
  430TMC3    H2 6418   0.168   4.089  17.032 -0.7204 -2.0821 -0.6059
  430TMC3    C7 6419   0.196   3.870  17.175 -1.0141 -0.4445  0.6679
  430TMC3    C8 6420   4.672   4.181  16.942 -0.3204  0.4378  0.0467
  430TMC3    O1 6421   0.170   3.752  17.160 -0.2050 -0.2634  0.1655
  430TMC3    O2 6422   4.567   4.159  16.885  0.5491 -0.1441  0.4266
  431MPD2     C 6423   0.564   4.098  11.886 -0.4733 -0.3273  0.0777
  431MPD2    C1 6424   0.634   4.048  11.998 -0.5853  0.0711 -0.2939
  431MPD2    C2 6425   0.721   3.941  11.984 -0.6867  0.1033 -0.1336
  431MPD2    C3 6426   0.745   3.889  11.864 -0.1374 -0.2659  0.0842
  431MPD2    C4 6427   0.689   3.939  11.746 -0.1995 -0.2850 -0.2090
  431MPD2    C5 6428   0.597   4.044  11.763 -0.1632 -0.1334 -0.1296
  431MPD2     H 6429   0.780   3.904  12.067  0.5079  0.7125 -0.7136
  431MPD2    H1 6430   0.694   3.892  11.648  0.8799  0.0164 -0.3070
  431MPD2    H2 6431   0.491   4.177  11.901 -0.0340  0.1587 -0.3930
  431MPD2    H3 6432   0.556   4.088  11.673  1.9862  0.7880 -0.6554
  431MPD2     N 6433   0.828   3.776  11.861  0.5474 -0.9274 -0.0007
  431MPD2    H5 6434   0.840   3.720  11.945 -1.0376  1.1218  1.5895
  431MPD2    N1 6435   0.620   4.128  12.117  0.3338 -0.0285  0.4687
  431MPD2    H7 6436   0.541   4.192  12.120  1.1733  0.9943  0.9133
  432TMC3    C1 6437   0.967   3.618  11.765 -0.6471  0.4197  0.3020
  432TMC3    C2 6438   1.064   3.594  11.663 -0.7116 -0.1411 -1.0255
  432TMC3    C3 6439   1.150   3.489  11.678 -0.0521  0.3803 -0.2263
  432TMC3    C4 6440   0.938   3.527  11.858 -0.1262 -0.0566 -0.1941
  432TMC3    C5 6441   1.007   3.411  11.852  0.4149  0.0431 -0.1277
  432TMC3    C6 6442   1.118   3.395  11.773  0.0726  0.1534  0.7558
  432TMC3     C 6443   0.888   3.734  11.747  0.1866 -0.4821  0.5771
  432TMC3     O 6444   0.928   3.806  11.656  0.1554  0.5222 -0.3334
  432TMC3     H 6445   1.091   3.663  11.584 -0.4092 -1.5987 -2.2007
  432TMC3    H1 6446   0.859   3.550  11.929  1.2613 -0.5571  1.5204
  432TMC3    H2 6447   1.168   3.299  11.773  2.0054  1.1702 -0.8694
  432TMC3    C7 6448   0.984   3.305  11.951 -0.6838  0.0551 -0.6409
  432TMC3    C8 6449   1.290   3.512  11.640 -0.2736 -0.1602  0.0832
  432TMC3    O1 6450   1.027   3.192  11.930  0.0510  0.1832  0.3037
  432TMC3    O2 6451   1.301   3.583  11.541 -0.2765  0.2983  0.0419
  433MPD2     C 6452   4.452   2.697  11.059  0.3858  0.2203  0.1068
  433MPD2    C1 6453   4.420   2.566  11.079 -0.1699 -0.4406 -0.2170
  433MPD2    C2 6454   4.431   2.513  11.207  0.3140 -0.4753 -0.0677
  433MPD2    C3 6455   4.457   2.601  11.312  0.2325 -0.2900  0.1409
  433MPD2    C4 6456   4.498   2.731  11.285 -0.6772  0.4669  0.3295
  433MPD2    C5 6457   4.493   2.781  11.154  0.2099  0.0326 -0.9879
  433MPD2     H 6458   4.416   2.407  11.221  0.6717 -0.4663  0.3775
  433MPD2    H1 6459   4.539   2.801  11.357  0.5987  2.0986 -1.9867
  433MPD2    H2 6460   4.424   2.730  10.959  0.7403 -0.0176 -0.0706
  433MPD2    H3 6461   4.530   2.880  11.133  0.0541  0.4097  0.4980
  433MPD2     N 6462   4.467   2.540  11.442  0.2176 -0.9873  0.0739
  433MPD2    H5 6463   4.449   2.441  11.453  1.6767 -1.3827 -1.0636
  433MPD2    N1 6464   4.379   2.492  10.965  0.0304 -0.3355 -0.1339
  433MPD2    H7 6465   4.388   2.534  10.873 -1.2218  0.5232  0.1269
  434TMC3    C1 6466   4.338   2.288  10.852  0.5559  0.0703  0.4688
  434TMC3    C2 6467   4.375   2.163  10.871  0.4542 -0.5574 -0.1643
  434TMC3    C3 6468   4.452   2.116  10.771  0.3459 -0.1455  0.0197
  434TMC3    C4 6469   4.358   2.353  10.737 -0.3969  0.0733  0.7892
  434TMC3    C5 6470   4.438   2.307  10.634 -0.0186  0.8154 -0.3804
  434TMC3    C6 6471   4.486   2.184  10.658  0.3813 -0.1974  0.5871
  434TMC3     C 6472   4.319   2.373  10.972  0.1081 -0.0658  0.9073
  434TMC3     O 6473   4.296   2.302  11.070  0.1066 -0.0612 -0.1089
  434TMC3     H 6474   4.360   2.118  10.968  2.9944 -0.9574  0.0415
  434TMC3    H1 6475   4.301   2.443  10.715 -0.4319 -0.8289 -2.8625
  434TMC3    H2 6476   4.556   2.132  10.593  0.3796 -0.4816  0.8148
  434TMC3    C7 6477   4.371   2.307  10.507 -0.6786  0.2279  0.0426
  434TMC3    C8 6478   4.556   2.040  10.828  0.7367  0.1620 -0.1498
  434TMC3    O1 6479   4.341   2.409  10.448  0.4675  0.6735 -0.1157
  434TMC3    O2 6480   4.587   2.065  10.945 -0.0421  0.5585  0.1009
  435MPD2     C 6481   1.933   2.513  15.453  0.1474 -0.7010 -0.5044
  435MPD2    C1 6482   1.875   2.462  15.569  0.4274  0.4964  0.2286
  435MPD2    C2 6483   1.964   2.405  15.661  0.3509 -0.3683 -0.3304
  435MPD2    C3 6484   2.101   2.389  15.642  0.2595 -0.1077  0.7567
  435MPD2    C4 6485   2.145   2.432  15.523 -0.3712  0.0236  0.7597
  435MPD2    C5 6486   2.067   2.484  15.428  0.2297 -0.2505 -0.0714
  435MPD2     H 6487   1.923   2.362  15.752  0.5454  0.5117  0.1685
  435MPD2    H1 6488   2.243   2.425  15.477 -0.6689 -1.5640  0.3598
  435MPD2    H2 6489   1.877   2.555  15.370  0.5516 -2.0931 -1.4814
  435MPD2    H3 6490   2.107   2.520  15.334 -0.0457 -1.5910 -0.6901
  435MPD2     N 6491   2.167   2.320  15.749 -0.1746  0.0737  0.2553
  435MPD2    H5 6492   2.114   2.280  15.826 -0.6804 -1.7413 -1.0329
  435MPD2    N1 6493   1.740   2.481  15.595 -0.3055 -0.7063 -0.1022
  435MPD2    H7 6494   1.703   2.429  15.673 -2.2708 -0.2377 -0.7130
  436TMC3    C1 6495   1.353   2.422  15.696 -0.4535  0.0223 -0.5003
  436TMC3    C2 6496   1.483   2.422  15.647 -0.0636  0.0034 -1.0455
  436TMC3    C3 6497   1.508   2.530  15.565  0.0720 -0.0307  0.0053
  436TMC3    C4 6498   1.258   2.509  15.657 -0.1994  0.6411  0.4677
  436TMC3    C5 6499   1.289   2.611  15.568  0.3556  0.5841 -0.5311
  436TMC3    C6 6500   1.415   2.614  15.515 -0.2181  0.3905  0.8992
  436TMC3     C 6501   1.340   2.362  15.826 -0.2105  0.4924  0.3495
  436TMC3     O 6502   1.420   2.267  15.851 -0.3061 -0.0268  0.3802
  436TMC3     H 6503   1.554   2.346  15.680 -0.4633  0.0120 -0.1494
  436TMC3    H1 6504   1.154   2.491  15.686  0.1116  0.3474  1.4110
  436TMC3    H2 6505   1.442   2.690  15.442  1.7526 -0.3635  0.8289
  436TMC3    C7 6506   1.185   2.671  15.485  0.2169  0.2373  0.6112
  436TMC3    C8 6507   1.644   2.545  15.515 -0.6993 -0.1966  0.4667
  436TMC3    O1 6508   1.208   2.736  15.386 -0.0235  0.7916 -0.6454
  436TMC3    O2 6509   1.666   2.620  15.421 -0.0606  0.2709 -0.0791
  437TMC3    C1 6510   0.059   0.100  13.245  0.3683  0.7505 -0.0478
  437TMC3    C2 6511   4.664   0.161  13.235 -0.3889 -0.2459  0.1198
  437TMC3    C3 6512   4.641   0.236  13.122  0.2661 -0.5306 -0.1746
  437TMC3    C4 6513   0.155   0.108  13.143 -0.1034 -0.2505  0.3049
  437TMC3    C5 6514   0.124   0.178  13.034  0.0292  0.4354  0.3199
  437TMC3    C6 6515   0.008   0.249  13.021 -0.5083 -0.2207  0.1320
  437TMC3     C 6516   0.087   0.011  13.362  0.0245 -0.4607 -0.7457
  437TMC3     O 6517   4.706   4.710  13.413  1.1647  0.4340 -0.5678
  437TMC3     H 6518   4.588   0.162  13.313  1.8236  0.1170  2.2661
  437TMC3    H1 6519   0.235   0.035  13.152 -0.0619 -0.1975  0.3655
  437TMC3    H2 6520   0.004   0.328  12.947 -0.4909 -1.1991 -0.9083
  437TMC3    C7 6521   0.224   0.200  12.925  0.6166  0.9488 -0.2254
  437TMC3    C8 6522   4.531   0.336  13.135  0.0259  0.5269  0.4634
  437TMC3    O1 6523   0.191   0.274  12.834  0.3790 -0.1001  0.6978
  437TMC3    O2 6524   4.481   0.347  13.244  0.0557 -0.1533 -0.0834
  438MPD2     C 6525   2.649   0.252  16.839 -0.1055 -0.1335  0.2196
  438MPD2    C1 6526   2.761   0.188  16.885 -0.1477  0.2723  0.1728
  438MPD2    C2 6527   2.768   0.154  17.020 -0.7173 -0.2521  0.8339
  438MPD2    C3 6528   2.663   0.188  17.107 -0.1697 -0.3605  0.1136
  438MPD2    C4 6529   2.553   0.259  17.055  0.7014 -0.5441  0.6723
  438MPD2    C5 6530   2.543   0.279  16.921  0.1109 -1.2610  0.1332
  438MPD2     H 6531   2.854   0.096  17.053 -0.1096 -0.3302 -0.9058
  438MPD2    H1 6532   2.467   0.277  17.119  1.2575  0.6747  1.0721
  438MPD2    H2 6533   2.639   0.282  16.736  1.4655  0.8486  0.3528
  438MPD2    H3 6534   2.450   0.318  16.883  0.5541  1.8560  2.2331
  438MPD2     N 6535   2.648   0.132  17.236  0.0715  0.2074 -0.0261
  438MPD2    H5 6536   2.564   0.149  17.289 -0.7381 -1.2225 -0.8191
  438MPD2    N1 6537   2.877   0.162  16.803  0.6849 -0.5532  0.1000
  438MPD2    H7 6538   2.955   0.111  16.842  1.2575  0.3108  0.0789
  439TMC3    C1 6539   3.032   0.235  16.643 -0.0896  0.0543  0.9939
  439TMC3    C2 6540   3.056   0.271  16.515 -0.1680  0.3485 -0.2323
  439TMC3    C3 6541   3.181   0.276  16.461 -0.3472 -0.9497  0.4633
  439TMC3    C4 6542   3.138   0.231  16.731  0.1880  0.4754  0.4710
  439TMC3    C5 6543   3.261   0.235  16.676 -0.0953  0.9489 -0.3682
  439TMC3    C6 6544   3.283   0.264  16.547 -0.4695  0.3627  0.3291
  439TMC3     C 6545   2.897   0.222  16.679 -0.2324 -0.8324 -0.1636
  439TMC3     O 6546   2.810   0.256  16.599  0.1211 -0.0165  0.0061
  439TMC3     H 6547   2.982   0.288  16.437 -2.4134 -0.9259  1.6305
  439TMC3    H1 6548   3.121   0.184  16.828  1.2585  0.7973  0.8155
  439TMC3    H2 6549   3.385   0.260  16.512 -1.1136 -1.2730 -1.3025
  439TMC3    C7 6550   3.363   0.133  16.719 -0.2661  0.3354  0.4758
  439TMC3    C8 6551   3.198   0.175  16.365 -0.2097 -0.0185  0.0514
  439TMC3    O1 6552   3.371   0.117  16.843  0.5379  0.7433  0.4442
  439TMC3    O2 6553   3.292   0.099  16.373  0.1036  0.3229 -0.2594
  440MPD2     C 6554   1.688   0.954  14.607 -0.1772  0.0848 -0.1056
  440MPD2    C1 6555   1.709   0.938  14.742  0.1468 -0.8348 -0.4512
  440MPD2    C2 6556   1.786   0.837  14.790  0.4971  0.4966 -0.9271
  440MPD2    C3 6557   1.858   0.762  14.694  0.1668  0.1275  0.1379
  440MPD2    C4 6558   1.837   0.780  14.555 -0.3606 -0.1140  0.4142
  440MPD2    C5 6559   1.750   0.880  14.514 -0.5972 -0.1686 -0.5894
  440MPD2     H 6560   1.811   0.842  14.895  1.4209 -0.3459 -1.1053
  440MPD2    H1 6561   1.888   0.720  14.481 -0.0270  0.6566  0.0216
  440MPD2    H2 6562   1.628   1.028  14.555 -2.4311 -1.3447  0.4584
  440MPD2    H3 6563   1.742   0.912  14.411 -2.6275  1.1659 -0.0049
  440MPD2     N 6564   1.958   0.678  14.744 -0.1678  0.1775  0.2137
  440MPD2    H5 6565   2.018   0.635  14.675 -0.2103 -0.7620  0.7556
  440MPD2    N1 6566   1.663   1.030  14.839  0.2478  0.3719  0.2371
  440MPD2    H7 6567   1.688   1.012  14.936  0.0395  0.4161  0.2990
  441TMC3    C1 6568   2.108   0.622  14.909 -0.9341  0.8466  0.2792
  441TMC3    C2 6569   2.168   0.747  14.921  0.4158 -0.0681 -0.0543
  441TMC3    C3 6570   2.274   0.749  15.008  0.6243 -0.0786 -0.3118
  441TMC3    C4 6571   2.141   0.511  14.988  0.5681  0.1106  0.3166
  441TMC3    C5 6572   2.257   0.523  15.066  0.1363 -0.3944  0.3112
  441TMC3    C6 6573   2.328   0.641  15.069 -0.1806  0.3189 -0.2526
  441TMC3     C 6574   1.970   0.629  14.875  0.2332  0.7683  0.4113
  441TMC3     O 6575   1.887   0.623  14.961 -0.5928  0.4132  0.2007
  441TMC3     H 6576   2.151   0.832  14.855 -0.7580  1.6684  2.5087
  441TMC3    H1 6577   2.072   0.427  14.981  0.5590  0.4531 -3.5518
  441TMC3    H2 6578   2.411   0.663  15.135 -0.8453  1.2228  0.2808
  441TMC3    C7 6579   2.260   0.429  15.177  0.8417 -0.2249  0.4017
  441TMC3    C8 6580   2.332   0.875  15.054  0.4270  0.4120  0.6964
  441TMC3    O1 6581   2.171   0.357  15.206 -0.0208  0.5135  0.5139
  441TMC3    O2 6582   2.451   0.870  15.081 -0.4876 -0.9139 -0.4916
  442MPD2     C 6583   0.160   1.098  16.431  0.4003 -0.5708  1.1969
  442MPD2    C1 6584   0.036   1.120  16.375  0.5125 -0.2614  0.0973
  442MPD2    C2 6585   4.708   1.036  16.281  0.5474  0.5344 -0.7792
  442MPD2    C3 6586   0.052   0.930  16.227 -0.0005  0.2029  0.4102
  442MPD2    C4 6587   0.181   0.912  16.276  0.5425  0.2176 -0.3666
  442MPD2    C5 6588   0.239   0.995  16.368  0.3061 -0.6636  0.3723
  442MPD2     H 6589   4.607   1.056  16.246  0.7079  3.3481  0.3098
  442MPD2    H1 6590   0.246   0.836  16.235 -0.3330 -0.5873 -0.2607
  442MPD2    H2 6591   0.205   1.163  16.505 -0.0565  1.3104 -0.1728
  442MPD2    H3 6592   0.338   0.984  16.410  0.3571  0.2122  0.4793
  442MPD2     N 6593   4.725   0.849  16.132 -0.4366 -0.1051 -0.2942
  442MPD2    H5 6594   0.067   0.791  16.084  0.3169 -0.2896  0.9826
  442MPD2    N1 6595   4.671   1.217  16.425  0.2622 -0.1420  0.1220
  442MPD2    H7 6596   4.589   1.236  16.367  0.5551 -0.6485 -0.4605
  443TMC3    C1 6597   4.574   1.376  16.568 -0.0361 -0.5561 -0.9912
  443TMC3    C2 6598   4.531   1.448  16.465 -0.1108  0.7505  0.5395
  443TMC3    C3 6599   4.452   1.555  16.489  0.0170 -0.0747  0.2683
  443TMC3    C4 6600   4.544   1.387  16.695  0.3020 -0.0443  0.0339
  443TMC3    C5 6601   4.457   1.485  16.726 -0.1075  1.0861 -0.2938
  443TMC3    C6 6602   4.407   1.574  16.622 -0.1284  0.4800  0.2409
  443TMC3     C 6603   4.680   1.277  16.544 -0.1243  0.0693  0.2622
  443TMC3     O 6604   0.037   1.247  16.631 -0.3256  0.5611 -0.1718
  443TMC3     H 6605   4.568   1.427  16.365 -2.1610 -3.1194  0.6162
  443TMC3    H1 6606   4.583   1.323  16.774 -0.3476 -0.9352 -0.3726
  443TMC3    H2 6607   4.332   1.650  16.643 -0.1974  0.8085 -1.1483
  443TMC3    C7 6608   4.348   1.430  16.814 -0.6231  0.1563 -0.9435
  443TMC3    C8 6609   4.354   1.604  16.391  0.1314 -0.3064  0.1839
  443TMC3    O1 6610   4.354   1.312  16.842  0.1108  0.1950  0.4348
  443TMC3    O2 6611   4.289   1.710  16.408  0.0248 -0.1511 -0.7756
  444MPD2     C 6612   0.161   0.796  17.478  0.2733 -0.3815 -0.3197
  444MPD2    C1 6613   0.087   0.705  17.413  0.8112  0.1371  0.0053
  444MPD2    C2 6614   0.148   0.625  17.318  0.5080 -0.0951  0.0702
  444MPD2    C3 6615   0.287   0.627  17.285  0.1523 -0.7430  0.2893
  444MPD2    C4 6616   0.363   0.718  17.360 -0.3094 -0.5127  0.4599
  444MPD2    C5 6617   0.297   0.795  17.451 -0.3601  1.0164  0.4252
  444MPD2     H 6618   0.088   0.558  17.258  0.5908 -1.3565  1.3831
  444MPD2    H1 6619   0.468   0.736  17.340 -0.6469  0.2201 -0.6962
  444MPD2    H2 6620   0.131   0.854  17.565  1.3194 -1.5217  0.7930
  444MPD2    H3 6621   0.365   0.857  17.510  0.2484 -1.1456  1.9928
  444MPD2     N 6622   0.329   0.551  17.179 -0.1091 -0.3950  0.2888
  444MPD2    H5 6623   0.257   0.513  17.118 -0.5424  0.2529  0.3992
  444MPD2    N1 6624   4.671   0.680  17.438  0.2658 -0.1808  0.1081
  444MPD2    H7 6625   4.632   0.594  17.401  1.9587 -0.5175 -0.8710
  445TMC3    C1 6626   0.487   0.427  17.037  0.0037 -0.3777 -0.4605
  445TMC3    C2 6627   0.377   0.376  16.971 -0.2895  0.2127  0.0272
  445TMC3    C3 6628   0.404   0.303  16.855  0.6664 -0.3648 -0.4556
  445TMC3    C4 6629   0.616   0.413  16.994 -0.1882 -0.1897 -0.9109
  445TMC3    C5 6630   0.634   0.348  16.874 -0.3230  0.8410 -0.0950
  445TMC3    C6 6631   0.534   0.292  16.804  0.0419 -0.1399  0.1469
  445TMC3     C 6632   0.463   0.528  17.142 -0.8307 -0.2213  0.3182
  445TMC3     O 6633   0.567   0.572  17.189 -0.0535  0.3332 -0.0273
  445TMC3     H 6634   0.285   0.367  17.028 -0.5934 -1.1579 -0.6891
  445TMC3    H1 6635   0.695   0.456  17.055  0.2556 -0.2970 -1.4072
  445TMC3    H2 6636   0.557   0.252  16.706  1.5038  0.8129  0.0870
  445TMC3    C7 6637   0.769   0.318  16.838 -0.2974 -0.1759  0.0615
  445TMC3    C8 6638   0.299   0.249  16.769 -0.0121 -0.2890 -0.0656
  445TMC3    O1 6639   0.793   0.300  16.724  0.3991  0.4808 -0.0549
  445TMC3    O2 6640   0.329   0.169  16.679 -0.5055 -0.0550 -0.5142
  446MPD2     C 6641   4.349   1.884  11.427  0.0387 -0.5782 -0.1858
  446MPD2    C1 6642   4.353   1.879  11.290 -0.5449  0.0791 -0.3792
  446MPD2    C2 6643   4.418   1.982  11.218  0.4427 -0.9636 -0.1339
  446MPD2    C3 6644   4.481   2.083  11.285  0.0159 -0.0126 -0.7182
  446MPD2    C4 6645   4.475   2.083  11.422 -0.5499  0.7520 -0.2990
  446MPD2    C5 6646   4.405   1.986  11.486  0.4897 -1.0199 -0.6382
  446MPD2     H 6647   4.429   1.978  11.110 -0.2394 -1.8819 -0.1721
  446MPD2    H1 6648   4.527   2.149  11.490  1.4248  0.4285 -1.4982
  446MPD2    H2 6649   4.298   1.809  11.487 -1.0702  0.8747  0.6835
  446MPD2    H3 6650   4.399   1.992  11.594 -0.7393  1.3980 -0.8339
  446MPD2     N 6651   4.577   2.164  11.213 -0.3351 -0.4320  0.0775
  446MPD2    H5 6652   4.591   2.147  11.114 -2.3553 -1.1583 -0.0880
  446MPD2    N1 6653   4.294   1.772  11.225  0.3803 -0.0281  0.2524
  446MPD2    H7 6654   4.309   1.775  11.124 -3.9715  0.9408 -0.3917
  447TMC3    C1 6655   4.725   2.347  11.181  0.2860  0.2763 -0.2820
  447TMC3    C2 6656   4.699   2.332  11.050  1.4582  0.3107 -0.0637
  447TMC3    C3 6657   0.081   2.353  10.964  0.0277 -0.6711 -0.1297
  447TMC3    C4 6658   0.120   2.396  11.230 -0.2836 -0.9047 -0.6663
  447TMC3    C5 6659   0.211   2.429  11.143  1.2570 -0.5921  0.4717
  447TMC3    C6 6660   0.203   2.394  11.014 -0.4866  0.0385 -0.4877
  447TMC3     C 6661   4.652   2.266  11.273 -1.1249 -0.4934  0.7787
  447TMC3     O 6662   4.676   2.283  11.388  0.0190 -0.6045  0.3265
  447TMC3     H 6663   4.603   2.307  11.005  1.9851 -1.0547 -0.4285
  447TMC3    H1 6664   0.140   2.387  11.337  0.2754  0.0466 -0.6955
  447TMC3    H2 6665   0.283   2.425  10.948 -0.4281  0.5997 -0.1487
  447TMC3    C7 6666   0.333   2.478  11.197  0.8266 -0.0163  0.0790
  447TMC3    C8 6667   0.058   2.368  10.821  0.4730 -0.3212 -0.7932
  447TMC3    O1 6668   0.431   2.473  11.129 -0.1011  0.2436  0.1751
  447TMC3    O2 6669   4.683   2.433  10.791  0.0867  0.6425 -0.2610
  448TMC3    C1 6670   3.037   1.749  17.296  0.1301 -0.7560  1.0133
  448TMC3    C2 6671   2.947   1.707  17.203 -0.4063  0.2999  0.6236
  448TMC3    C3 6672   2.859   1.611  17.249 -0.0353  0.0491  0.1934
  448TMC3    C4 6673   3.043   1.694  17.421 -0.7136 -0.6541  0.5551
  448TMC3    C5 6674   2.971   1.588  17.456  0.6044  0.1230 -0.5999
  448TMC3    C6 6675   2.871   1.550  17.370 -0.9398 -0.0918  0.9138
  448TMC3     C 6676   3.114   1.868  17.261 -0.6061 -0.0219  0.0446
  448TMC3     O 6677   3.056   1.946  17.188 -0.1097  0.0210  0.2470
  448TMC3     H 6678   2.941   1.743  17.101  1.6877 -0.8330  0.1157
  448TMC3    H1 6679   3.130   1.720  17.480 -0.4201 -0.3989 -0.0007
  448TMC3    H2 6680   2.806   1.467  17.395  0.0519 -0.5861  1.9010
  448TMC3    C7 6681   3.037   1.487  17.536 -0.2177  0.0629  0.2843
  448TMC3    C8 6682   2.781   1.546  17.140  0.3072  0.0543 -0.9708
  448TMC3    O1 6683   3.159   1.486  17.541 -0.3105  0.4554  0.4766
  448TMC3    O2 6684   2.741   1.433  17.172  0.3581 -0.1923 -0.0827
  449MPD2     C 6685   4.133   3.978  13.711  0.3496 -0.2767 -0.4329
  449MPD2    C1 6686   4.009   4.021  13.655  0.1483 -0.2040  0.1675
  449MPD2    C2 6687   3.932   3.931  13.593 -0.2434 -0.0996  0.0058
  449MPD2    C3 6688   3.971   3.802  13.585 -0.6072 -0.0797  0.3111
  449MPD2    C4 6689   4.098   3.759  13.624  0.2326 -0.0046 -0.4960
  449MPD2    C5 6690   4.176   3.845  13.700 -0.1532  0.0442 -0.3347
  449MPD2     H 6691   3.833   3.952  13.554  0.0893 -2.0909 -1.9382
  449MPD2    H1 6692   4.134   3.662  13.591 -0.0052 -0.3747  0.3304
  449MPD2    H2 6693   4.201   4.043  13.764 -0.9641  0.5238  0.2785
  449MPD2    H3 6694   4.278   3.817  13.723 -0.2294  0.9630  1.1399
  449MPD2     N 6695   3.883   3.721  13.514 -0.1343  0.1661 -0.2400
  449MPD2    H5 6696   3.804   3.769  13.473 -2.4472 -1.3298  2.3808
  449MPD2    N1 6697   3.964   4.153  13.669 -0.2410 -0.3900  0.2490
  449MPD2    H7 6698   3.871   4.167  13.630  0.0394  1.1832  0.1712
  450TMC3    C1 6699   3.943   4.372  13.728  0.7269  0.1027  0.3835
  450TMC3    C2 6700   3.994   4.490  13.678  0.5175  0.0608  0.2133
  450TMC3    C3 6701   3.898   4.572  13.616  0.0472  0.4121  0.8318
  450TMC3    C4 6702   3.809   4.339  13.733 -0.3003 -0.6778 -0.2124
  450TMC3    C5 6703   3.719   4.414  13.660  0.0991  0.1229  0.1265
  450TMC3    C6 6704   3.767   4.527  13.598 -0.8452  0.0351  0.0365
  450TMC3     C 6705   4.032   4.258  13.716 -0.3862  0.3113 -0.7562
  450TMC3     O 6706   4.153   4.281  13.732  0.2921 -0.1350 -0.1745
  450TMC3     H 6707   4.097   4.521  13.681 -0.2210  2.2410  3.6396
  450TMC3    H1 6708   3.775   4.249  13.783 -1.1615 -0.3853 -0.2806
  450TMC3    H2 6709   3.713   4.572  13.515 -1.0385  2.3324  1.3878
  450TMC3    C7 6710   3.657   4.315  13.569  0.0205  0.0280 -0.2858
  450TMC3    C8 6711   3.922   4.710  13.586  0.5705  0.5553  0.4145
  450TMC3    O1 6712   3.732   4.238  13.515  0.1102 -0.4922  0.2898
  450TMC3    O2 6713   3.833   0.033  13.515 -0.1362  0.0660 -0.2179
  451MPD2     C 6714   0.835   3.524   1.703 -0.1358 -0.5395 -0.2852
  451MPD2    C1 6715   0.918   3.600   1.621  0.0245  0.4825 -0.2016
  451MPD2    C2 6716   0.960   3.550   1.497  0.2871 -0.1567 -0.1721
  451MPD2    C3 6717   0.911   3.428   1.462  0.2586 -0.3026  0.1805
  451MPD2    C4 6718   0.834   3.350   1.546 -0.3527 -0.2095 -0.6840
  451MPD2    C5 6719   0.787   3.405   1.665 -0.1094 -0.4821 -0.0429
  451MPD2     H 6720   1.026   3.611   1.437 -1.0583  1.3059 -0.1584
  451MPD2    H1 6721   0.814   3.248   1.518  0.1832  0.2812 -2.8130
  451MPD2    H2 6722   0.810   3.554   1.805  0.1314 -1.5866  0.0934
  451MPD2    H3 6723   0.741   3.344   1.742  1.1756  0.2611  1.3108
  451MPD2     N 6724   0.965   3.363   1.352  0.4627 -0.2392 -0.8194
  451MPD2    H5 6725   0.961   3.262   1.354  2.1220 -0.2745  0.8701
  451MPD2    N1 6726   0.955   3.729   1.668 -0.5631 -0.3580  0.3074
  451MPD2    H7 6727   0.904   3.768   1.747 -0.4544 -0.2255  0.3128
  452TMC3    C1 6728   1.069   3.348   1.134  0.8715  0.1326  0.7097
  452TMC3    C2 6729   1.138   3.240   1.181  0.7319  0.0127 -0.2822
  452TMC3    C3 6730   1.177   3.148   1.087  0.0239  0.5469 -0.6513
  452TMC3    C4 6731   1.023   3.371   1.008  0.4678 -0.3743  0.3118
  452TMC3    C5 6732   1.071   3.275   0.916 -0.1791  0.3846 -0.0761
  452TMC3    C6 6733   1.140   3.168   0.951 -0.0055 -0.0918 -0.4952
  452TMC3     C 6734   1.013   3.428   1.242  0.3834 -0.8592  0.3673
  452TMC3     O 6735   1.017   3.547   1.212 -0.0682  0.4795 -0.9624
  452TMC3     H 6736   1.161   3.218   1.285  0.5469  2.3379  0.2511
  452TMC3    H1 6737   0.962   3.457   0.983  1.5824 -0.2743 -2.0563
  452TMC3    H2 6738   1.159   3.092   0.876 -0.3042  0.0838 -0.7484
  452TMC3    C7 6739   1.026   3.263   0.780 -0.6078 -0.5680  0.3566
  452TMC3    C8 6740   1.213   3.017   1.137 -0.1298  0.4042 -0.5333
  452TMC3    O1 6741   1.103   3.215   0.704 -0.0349  0.0452 -0.9514
  452TMC3    O2 6742   1.181   2.989   1.253 -0.2709 -0.0671 -0.1672
  453TMC3    C1 6743   2.129   0.577  11.754  0.9240 -0.0277  0.1820
  453TMC3    C2 6744   2.042   0.544  11.856 -0.3048  0.8635  0.4125
  453TMC3    C3 6745   1.914   0.511  11.806 -0.3570 -0.0212  0.9649
  453TMC3    C4 6746   2.104   0.559  11.623  0.3743 -0.0737 -0.3858
  453TMC3    C5 6747   1.977   0.514  11.584  0.1899 -0.0655  0.1357
  453TMC3    C6 6748   1.879   0.496  11.680 -0.1228  0.4276 -0.5131
  453TMC3     C 6749   2.270   0.608  11.788 -0.3546 -0.7755 -0.3942
  453TMC3     O 6750   2.334   0.679  11.713 -0.3918 -0.0997 -0.5092
  453TMC3     H 6751   2.069   0.563  11.959  0.2817 -3.2071  0.9817
  453TMC3    H1 6752   2.186   0.572  11.554  0.1308  0.4161 -0.5856
  453TMC3    H2 6753   1.777   0.473  11.650 -0.3289  1.2902 -0.4713
  453TMC3    C7 6754   1.952   0.450  11.454 -0.1446 -0.6224 -0.5112
  453TMC3    C8 6755   1.811   0.467  11.904 -0.1760 -0.4124  0.3127
  453TMC3    O1 6756   1.860   0.374  11.457  0.0064  0.1163  0.0598
  453TMC3    O2 6757   1.690   0.469  11.882 -0.0483 -0.8687  0.3347
  454MPD2     C 6758   1.058   0.165  15.858 -0.3631 -0.2958 -0.4805
  454MPD2    C1 6759   0.929   0.212  15.849 -0.1381  0.3367 -1.1765
  454MPD2    C2 6760   0.848   0.221  15.957  0.1309  0.1229  0.6074
  454MPD2    C3 6761   0.898   0.185  16.079  0.2108 -0.1821  1.0384
  454MPD2    C4 6762   1.029   0.148  16.094 -0.2336  0.7210  0.1418
  454MPD2    C5 6763   1.108   0.151  15.985  0.2216  0.0556  0.4664
  454MPD2     H 6764   0.743   0.245  15.945  0.1315 -0.0900  0.1491
  454MPD2    H1 6765   1.070   0.126  16.192 -1.1865  1.7854  0.7765
  454MPD2    H2 6766   1.125   0.161  15.773  2.8633  0.0787  2.0126
  454MPD2    H3 6767   1.207   0.105  15.983  0.2400  0.1585 -0.8832
  454MPD2     N 6768   0.820   0.193  16.195  0.0798  0.5652  0.0688
  454MPD2    H5 6769   0.854   0.145  16.278  0.8122  1.1317  0.0908
  454MPD2    N1 6770   0.865   0.217  15.721  0.3391 -0.1283 -0.1185
  454MPD2    H7 6771   0.773   0.261  15.725  0.9677  1.2369 -0.4960
  455TMC3    C1 6772   0.608   0.254  16.302 -0.1210 -0.1324  0.7907
  455TMC3    C2 6773   0.554   0.380  16.323  0.3377  0.0620 -0.4116
  455TMC3    C3 6774   0.424   0.389  16.359 -0.5285 -0.3348 -0.4265
  455TMC3    C4 6775   0.542   0.140  16.311 -0.6048  0.3194 -0.1815
  455TMC3    C5 6776   0.409   0.160  16.349  0.1252  0.7373  0.9904
  455TMC3    C6 6777   0.342   0.282  16.362  0.5544 -0.7147  0.4121
  455TMC3     C 6778   0.699   0.263  16.190  0.4595  0.2014  0.2857
  455TMC3     O 6779   0.667   0.357  16.114  0.3105 -0.3047 -0.0963
  455TMC3     H 6780   0.631   0.456  16.337  2.6895 -2.1464 -1.3655
  455TMC3    H1 6781   0.591   0.045  16.293 -2.0984 -0.2734 -1.0559
  455TMC3    H2 6782   0.235   0.286  16.381  0.2453 -0.8919 -1.2342
  455TMC3    C7 6783   0.325   0.048  16.321  0.6683  0.0601 -0.6015
  455TMC3    C8 6784   0.395   0.505  16.447  0.2385 -0.7709  0.1756
  455TMC3    O1 6785   0.215   0.066  16.268 -0.7307 -0.1490 -0.4772
  455TMC3    O2 6786   0.489   0.556  16.504  0.0783 -0.0524  0.0986
  456MPD2     C 6787   3.359   0.653  16.104 -0.5795 -0.1470 -0.0317
  456MPD2    C1 6788   3.399   0.603  16.226  0.7589 -0.2628 -0.6682
  456MPD2    C2 6789   3.350   0.657  16.341 -0.2459  0.3068 -0.3937
  456MPD2    C3 6790   3.275   0.772  16.340 -0.1493  0.4844 -0.1934
  456MPD2    C4 6791   3.244   0.834  16.223 -0.2037 -0.4385  0.6497
  456MPD2    C5 6792   3.282   0.771  16.108 -0.0570  0.0604 -0.0070
  456MPD2     H 6793   3.371   0.606  16.435  1.1679 -0.3917 -1.0787
  456MPD2    H1 6794   3.183   0.923  16.220 -1.5326 -1.3180  1.1213
  456MPD2    H2 6795   3.392   0.611  16.010  0.2073 -0.9026  0.5753
  456MPD2    H3 6796   3.237   0.797  16.013 -0.5329 -0.1691  0.1538
  456MPD2     N 6797   3.226   0.834  16.468 -0.2835 -0.0508 -0.0565
  456MPD2    H5 6798   3.261   0.783  16.548  3.2926  1.0257 -0.8918
  456MPD2    N1 6799   3.455   0.477  16.223  0.1755 -0.1153  0.3167
  456MPD2    H7 6800   3.446   0.432  16.132 -0.3113  0.1074  0.2560
  457TMC3    C1 6801   3.096   0.969  16.619 -0.5087 -0.1070 -0.0300
  457TMC3    C2 6802   2.982   1.039  16.629 -0.4811 -0.3589 -0.7605
  457TMC3    C3 6803   2.908   1.018  16.742  0.7247 -0.2320 -0.1444
  457TMC3    C4 6804   3.148   0.890  16.717 -0.1316  0.0643  0.0639
  457TMC3    C5 6805   3.076   0.874  16.829 -0.5355 -0.7690  0.8541
  457TMC3    C6 6806   2.953   0.922  16.836 -1.0891 -0.9111 -0.0316
  457TMC3     C 6807   3.159   0.952  16.489  0.3380  0.2280  0.5856
  457TMC3     O 6808   3.093   1.014  16.407 -0.6891 -0.5219 -0.3261
  457TMC3     H 6809   2.970   1.117  16.554 -0.8592 -0.6541 -1.0054
  457TMC3    H1 6810   3.246   0.845  16.709  1.1205  2.7178  0.2406
  457TMC3    H2 6811   2.893   0.904  16.924  0.4565  2.5385  1.7108
  457TMC3    C7 6812   3.148   0.911  16.948  0.0915 -0.6718  0.3338
  457TMC3    C8 6813   2.845   1.128  16.802  0.1260  0.0912  0.5109
  457TMC3    O1 6814   3.261   0.871  16.959  0.8027  0.4686  0.4444
  457TMC3    O2 6815   2.852   1.123  16.921  0.0255  0.0916 -0.0218
  458MPD2     C 6816   0.705   0.169  12.708 -0.0759  0.3355  0.3205
  458MPD2    C1 6817   0.700   0.106  12.827 -0.4089  0.4765  0.5743
  458MPD2    C2 6818   0.585   0.092  12.906 -0.0912  0.4845  0.2597
  458MPD2    C3 6819   0.466   0.146  12.858  0.1394 -0.1292  0.4784
  458MPD2    C4 6820   0.466   0.209  12.734 -0.3561 -0.3978 -0.1675
  458MPD2    C5 6821   0.588   0.219  12.661 -0.1493 -0.2022 -0.3397
  458MPD2     H 6822   0.587   0.036  12.998  1.7432  0.3294  0.1391
  458MPD2    H1 6823   0.374   0.258  12.703  0.5151  2.0969  1.1909
  458MPD2    H2 6824   0.793   0.168  12.645 -2.3722 -0.8326 -2.8513
  458MPD2    H3 6825   0.584   0.274  12.568  0.2482 -1.5339 -1.1509
  458MPD2     N 6826   0.345   0.135  12.940 -0.5197  0.3465 -0.1215
  458MPD2    H5 6827   0.356   0.083  13.027 -0.0327 -0.6003 -0.7485
  458MPD2    N1 6828   0.831   0.064  12.869 -1.1722  0.0690  0.1102
  458MPD2    H7 6829   0.913   0.108  12.829 -1.9029  0.0351 -1.4078
  459TMC3    C1 6830   0.989   4.710  13.009 -0.6443  0.1931 -0.0470
  459TMC3    C2 6831   1.083   0.073  12.958  0.7077  0.6315  0.1438
  459TMC3    C3 6832   1.203   0.086  13.030 -0.0628  0.7354  0.2146
  459TMC3    C4 6833   1.015   4.626  13.117  0.7276  0.8045  0.2960
  459TMC3    C5 6834   1.135   4.649  13.177  0.5534  0.1689 -1.0168
  459TMC3    C6 6835   1.229   0.009  13.142 -0.3835 -0.2658  0.2020
  459TMC3     C 6836   0.850   4.718  12.978 -0.2803 -0.6250 -0.0940
  459TMC3     O 6837   0.778   4.647  13.042  0.3814 -0.6296  0.4328
  459TMC3     H 6838   1.078   0.108  12.856  1.4625 -3.0860 -1.1504
  459TMC3    H1 6839   0.954   4.548  13.161 -2.0083  2.4413 -0.5703
  459TMC3    H2 6840   1.318   0.023  13.203 -0.1515 -1.7229  0.2012
  459TMC3    C7 6841   1.170   4.548  13.281 -0.4792 -0.2466 -0.4168
  459TMC3    C8 6842   1.312   0.171  12.982  0.1716  0.0545  0.0722
  459TMC3    O1 6843   1.126   4.437  13.251 -0.7896  0.4808 -0.6194
  459TMC3    O2 6844   1.421   0.151  13.020 -0.3972 -0.1819 -0.3850
  460MPD2     C 6845   0.224   2.177  10.551  0.3856  0.0946 -0.0303
  460MPD2    C1 6846   0.137   2.266  10.604  0.3166  0.1665  0.4018
  460MPD2    C2 6847   0.039   2.323  10.522 -0.8614 -0.7170  0.8809
  460MPD2    C3 6848   0.037   2.298  10.390  0.3954 -0.1784  0.2172
  460MPD2    C4 6849   0.128   2.210  10.336 -0.4081  0.2168  0.2183
  460MPD2    C5 6850   0.209   2.139  10.418  0.0535  0.3247  0.0682
  460MPD2     H 6851   4.692   2.389  10.568 -2.6579 -0.3762 -2.5322
  460MPD2    H1 6852   0.129   2.173  10.235  0.5530 -0.8560  0.6230
  460MPD2    H2 6853   0.297   2.118  10.606  1.4548  2.2178  0.8091
  460MPD2    H3 6854   0.279   2.067  10.378  0.6922  0.9241  0.1033
  460MPD2     N 6855   4.655   2.341  10.310 -0.3430  0.4138 -0.4579
  460MPD2    H5 6856   4.576   2.388  10.354  0.4295 -1.3381  2.7882
  460MPD2    N1 6857   0.139   2.287  10.743 -0.1938 -0.1628 -0.1715
  460MPD2    H7 6858   0.212   2.238  10.794 -0.4113 -0.1192  0.1831
  461TMC3    C1 6859   4.506   2.353  10.134  0.2028  0.2248  0.1093
  461TMC3    C2 6860   4.444   2.245  10.090  0.6858  0.3934  0.1382
  461TMC3    C3 6861   4.359   2.252   9.983  0.6570  0.7755 -0.5803
  461TMC3    C4 6862   4.488   2.474  10.077  0.3946 -0.3174 -0.3447
  461TMC3    C5 6863   4.406   2.479   9.966  0.2826  0.3039  0.1864
  461TMC3    C6 6864   4.349   2.369   9.916 -0.1007  0.0189 -0.2812
  461TMC3     C 6865   4.644   2.330  10.177 -0.6936  0.4545 -0.3105
  461TMC3     O 6866   0.008   2.318  10.095 -1.1482 -0.5848  0.4348
  461TMC3     H 6867   4.459   2.149  10.138 -1.1231 -0.3468 -0.7578
  461TMC3    H1 6868   4.563   2.551  10.092 -0.5430  0.6564 -0.6662
  461TMC3    H2 6869   4.285   2.389   9.831  0.5335  2.5125 -0.1759
  461TMC3    C7 6870   4.359   2.610   9.909 -0.3204  0.3404 -0.5826
  461TMC3    C8 6871   4.351   2.137   9.900  0.0896 -0.4212  0.4431
  461TMC3    O1 6872   4.256   2.602   9.847 -0.0447 -0.2915  0.1292
  461TMC3    O2 6873   4.438   2.050   9.919 -0.7834  0.3502  0.9904
  462TMC3    C1 6874   0.067   3.209  17.600  0.3513  0.7581  0.3581
  462TMC3    C2 6875   0.101   3.184  17.469  0.6512  0.0215  0.3087
  462TMC3    C3 6876   0.090   3.060  17.420 -0.0335  0.7462  0.7355
  462TMC3    C4 6877   0.021   3.107  17.687  0.0074 -0.2532 -0.3214
  462TMC3    C5 6878   0.026   2.982  17.631 -0.5846 -0.7757  0.0659
  462TMC3    C6 6879   0.063   2.954  17.500  0.1287  0.3765  0.8278
  462TMC3     C 6880   0.050   3.350  17.647 -0.2526 -0.6739  0.0873
  462TMC3     O 6881   4.718   3.363   0.049  0.8159 -0.5096 -0.5715
  462TMC3     H 6882   0.118   3.265  17.399  1.9912  0.0672  0.6773
  462TMC3    H1 6883   4.714   3.129   0.083  0.4798 -3.4377  0.5036
  462TMC3    H2 6884   0.028   2.865  17.449  0.0671  0.7777  0.1713
  462TMC3    C7 6885   4.705   2.868  17.704 -0.0431  0.3047 -0.6489
  462TMC3    C8 6886   0.055   3.041  17.279  0.2317 -0.0511 -0.0476
  462TMC3    O1 6887   4.680   2.767  17.641 -0.7937 -0.0674 -0.0176
  462TMC3    O2 6888   0.010   3.140  17.224  0.3340 -0.0902 -0.8359
  463MPD2     C 6889   0.601   2.331   1.642 -0.0622  0.1987  0.0459
  463MPD2    C1 6890   0.591   2.316   1.510  0.1741  0.1956 -0.6179
  463MPD2    C2 6891   0.706   2.303   1.436  0.9758 -0.0162 -0.6315
  463MPD2    C3 6892   0.826   2.276   1.501  0.2318 -0.6574  0.6888
  463MPD2    C4 6893   0.829   2.272   1.640 -0.5903  0.4868 -0.3175
  463MPD2    C5 6894   0.718   2.311   1.706  0.1253 -0.4077  0.3807
  463MPD2     H 6895   0.699   2.292   1.328  0.9299  1.5244 -0.7824
  463MPD2    H1 6896   0.915   2.268   1.706 -0.7861  1.1993 -0.0159
  463MPD2    H2 6897   0.519   2.343   1.712  2.0162  0.2044  2.4604
  463MPD2    H3 6898   0.715   2.317   1.815  1.9754  1.0942  0.3487
  463MPD2     N 6899   0.946   2.249   1.435 -0.1110  0.1079 -0.4144
  463MPD2    H5 6900   1.031   2.222   1.484 -0.2110  1.8428  0.6926
  463MPD2    N1 6901   0.476   2.334   1.435 -0.4967  0.1970 -0.0842
  463MPD2    H7 6902   0.477   2.334   1.334 -0.4589 -0.4185 -0.0884
  464TMC3    C1 6903   0.247   2.379   1.395  0.4797 -0.3835 -0.2217
  464TMC3    C2 6904   0.261   2.443   1.274  0.0190 -0.5628  0.4279
  464TMC3    C3 6905   0.144   2.469   1.209 -0.7968  0.3189 -0.3748
  464TMC3    C4 6906   0.116   2.363   1.444  0.4990 -0.2865  0.8991
  464TMC3    C5 6907   0.009   2.404   1.376 -0.1037  0.8946 -0.0823
  464TMC3    C6 6908   0.020   2.453   1.252 -0.0419 -0.6692 -0.0366
  464TMC3     C 6909   0.353   2.368   1.496  0.7122 -0.9960 -0.4266
  464TMC3     O 6910   0.319   2.369   1.611  0.2207  0.4512  0.2772
  464TMC3     H 6911   0.357   2.474   1.234 -0.8652  2.6110  0.7777
  464TMC3    H1 6912   0.103   2.300   1.531  2.6553 -1.4214  0.4142
  464TMC3    H2 6913   4.659   2.472   1.191 -0.2102  2.4445  1.1811
  464TMC3    C7 6914   4.616   2.325   1.388  0.2489  0.1945  0.1096
  464TMC3    C8 6915   0.153   2.542   1.088 -0.1493  0.2653  0.1437
  464TMC3    O1 6916   4.505   2.373   1.366 -0.4427  0.0836 -0.5649
  464TMC3    O2 6917   0.245   2.507   1.013  0.6560 -0.1166 -0.2625
  465MPD2     C 6918   3.013   0.572  16.660 -0.0540  0.2857  0.1529
  465MPD2    C1 6919   2.925   0.562  16.762 -0.4215 -0.8000  0.0943
  465MPD2    C2 6920   2.791   0.570  16.728  0.2349  0.1752  0.9814
  465MPD2    C3 6921   2.749   0.581  16.596  0.5730  0.0060 -0.1348
  465MPD2    C4 6922   2.842   0.610  16.499 -0.6573 -0.0594  0.1763
  465MPD2    C5 6923   2.974   0.610  16.535 -0.1838  0.5538  0.1856
  465MPD2     H 6924   2.715   0.562  16.805 -1.7423  1.1410 -0.8718
  465MPD2    H1 6925   2.815   0.638  16.398 -1.8391 -3.3396 -0.4041
  465MPD2    H2 6926   3.119   0.574  16.679  0.1584  0.3600 -1.0588
  465MPD2    H3 6927   3.046   0.627  16.456 -0.3229 -0.6415 -0.2004
  465MPD2     N 6928   2.610   0.570  16.565  0.1159  0.4823  0.1180
  465MPD2    H5 6929   2.549   0.563  16.646  0.5063  0.5252  0.4125
  465MPD2    N1 6930   2.957   0.550  16.893 -0.3899 -0.3167 -0.1071
  465MPD2    H7 6931   2.891   0.566  16.969 -0.4360 -0.4118 -0.1277
  466TMC3    C1 6932   2.219   0.497  16.602 -0.4684  0.0621  0.2651
  466TMC3    C2 6933   2.134   0.578  16.525  0.4517  0.1857 -0.1480
  466TMC3    C3 6934   2.186   0.651  16.414 -0.4897  0.3313  0.2961
  466TMC3    C4 6935   2.353   0.500  16.576  0.5189  0.1339 -1.3801
  466TMC3    C5 6936   2.397   0.571  16.460 -0.1762 -0.0032 -0.4843
  466TMC3    C6 6937   2.317   0.650  16.376  0.2294 -0.7547 -0.5239
  466TMC3     C 6938   2.176   0.499  16.740  0.7412  0.1430 -0.0274
  466TMC3     O 6939   2.259   0.476  16.824 -0.3557 -0.1713 -0.4272
  466TMC3     H 6940   2.026   0.578  16.534  0.5675 -1.3842  1.2217
  466TMC3    H1 6941   2.421   0.446  16.641  1.6127 -0.6033 -3.1632
  466TMC3    H2 6942   2.355   0.702  16.289 -0.9332 -0.8089 -1.0658
  466TMC3    C7 6943   2.544   0.584  16.446  0.0861 -0.5677  0.2670
  466TMC3    C8 6944   2.095   0.713  16.323 -0.0297 -0.2606 -0.0347
  466TMC3    O1 6945   2.593   0.621  16.336  0.2488  0.8014  0.0555
  466TMC3    O2 6946   2.122   0.730  16.204 -0.0926 -1.0546  0.0662
  467TMC3    C1 6947   3.108   3.376  13.866 -0.3079 -0.3354 -0.0708
  467TMC3    C2 6948   3.119   3.431  13.742  0.0549 -0.4088  0.0387
  467TMC3    C3 6949   3.004   3.494  13.695  0.4063  0.3793  0.1511
  467TMC3    C4 6950   2.995   3.385  13.946  0.0592  0.0454 -0.4444
  467TMC3    C5 6951   2.883   3.438  13.883 -0.3657 -0.4266  0.3585
  467TMC3    C6 6952   2.885   3.501  13.760 -0.5446  0.0892 -0.0379
  467TMC3     C 6953   3.240   3.368  13.942  0.9875 -0.6131  0.1799
  467TMC3     O 6954   3.252   3.406  14.059  0.4908 -0.1053 -0.4071
  467TMC3     H 6955   3.214   3.444  13.692  1.3384 -0.5592  2.4587
  467TMC3    H1 6956   2.983   3.319  14.031  1.0815  0.5137  0.0582
  467TMC3    H2 6957   2.798   3.545  13.710  1.7020  0.8209 -3.3422
  467TMC3    C7 6958   2.758   3.384  13.920 -0.1569 -0.3929 -0.2443
  467TMC3    C8 6959   3.018   3.597  13.596  0.0585  0.2571 -0.0918
  467TMC3    O1 6960   2.733   3.357  14.037 -0.1326 -0.3021 -0.5162
  467TMC3    O2 6961   2.951   3.698  13.613 -0.1531 -0.4262  0.2463
  468MPD2     C 6962   2.241   2.220  10.524 -0.5220  0.2068 -0.3665
  468MPD2    C1 6963   2.169   2.250  10.641 -0.4806 -0.0732 -0.8540
  468MPD2    C2 6964   2.137   2.143  10.721 -0.4820  0.2767 -0.1863
  468MPD2    C3 6965   2.152   2.009  10.685 -0.1560 -0.0427 -0.0107
  468MPD2    C4 6966   2.224   1.985  10.567  0.1403 -0.4497  0.2124
  468MPD2    C5 6967   2.268   2.093  10.499  0.1243 -0.3877  0.0806
  468MPD2     H 6968   2.067   2.164  10.801  0.0779  0.6933  0.1942
  468MPD2    H1 6969   2.243   1.890  10.519  2.9601 -0.0034  0.4689
  468MPD2    H2 6970   2.285   2.290  10.453  1.3785 -0.3759  0.2450
  468MPD2    H3 6971   2.320   2.073  10.406 -0.6917 -1.3123 -0.1866
  468MPD2     N 6972   2.101   1.902  10.762  0.1152  0.0388 -0.1665
  468MPD2    H5 6973   2.132   1.807  10.744  1.2999  0.4417 -0.2689
  468MPD2    N1 6974   2.134   2.380  10.685  0.7187 -0.1215 -0.4277
  468MPD2    H7 6975   2.090   2.390  10.776 -0.2918  1.5100 -1.1027
  469TMC3    C1 6976   2.166   2.614  10.719 -0.0202 -0.8507  0.0820
  469TMC3    C2 6977   2.197   2.598  10.849  0.1719  0.3532  0.9952
  469TMC3    C3 6978   2.208   2.706  10.923 -0.7587  0.4345  0.1063
  469TMC3    C4 6979   2.158   2.738  10.664  0.2712 -0.5792  0.0868
  469TMC3    C5 6980   2.181   2.850  10.746 -0.0954 -0.0750 -0.2354
  469TMC3    C6 6981   2.209   2.831  10.880  0.4819 -0.1268  0.1093
  469TMC3     C 6982   2.175   2.500  10.628  0.3427  0.7512 -0.2875
  469TMC3     O 6983   2.222   2.517  10.516  0.4792 -0.1717  0.1377
  469TMC3     H 6984   2.213   2.497  10.887 -3.4727 -0.1797  1.1161
  469TMC3    H1 6985   2.142   2.752  10.558  0.7079  0.0758  0.1060
  469TMC3    H2 6986   2.243   2.910  10.946  0.0143  0.8480 -0.8372
  469TMC3    C7 6987   2.185   2.986  10.699 -0.2520 -0.2536  0.7400
  469TMC3    C8 6988   2.300   2.672  11.029  0.3092 -0.0799  0.1261
  469TMC3    O1 6989   2.222   2.998  10.584 -0.1620 -0.0627 -0.7930
  469TMC3    O2 6990   2.381   2.588  11.009 -0.2698 -0.0841 -0.0180
  470TMC3    C1 6991   0.669   3.027   1.116  0.6654 -0.1204 -0.3630
  470TMC3    C2 6992   0.595   3.134   1.092  0.1541  0.5176 -0.0480
  470TMC3    C3 6993   0.522   3.183   1.196 -0.2971 -0.3314 -0.4054
  470TMC3    C4 6994   0.692   2.975   1.240  0.2211 -0.1715  0.4470
  470TMC3    C5 6995   0.625   3.036   1.341 -0.6454 -0.8605  0.6634
  470TMC3    C6 6996   0.538   3.141   1.321  0.5573  0.1767  0.2625
  470TMC3     C 6997   0.761   2.998   1.007  0.3429 -0.5654  0.5747
  470TMC3     O 6998   0.740   3.056   0.899  0.4297 -0.0570  0.3094
  470TMC3     H 6999   0.591   3.172   0.991 -0.7205  0.6546  0.0411
  470TMC3    H1 7000   0.743   2.880   1.254  1.6709  0.5327 -0.0931
  470TMC3    H2 7001   0.480   3.186   1.402 -0.1827 -0.0649 -0.1380
  470TMC3    C7 7002   0.677   3.011   1.477 -0.1084 -0.1361 -0.1329
  470TMC3    C8 7003   0.451   3.305   1.184  0.5720  0.1869  0.1342
  470TMC3    O1 7004   0.795   2.975   1.480  0.1669 -0.6940 -0.4633
  470TMC3    O2 7005   0.444   3.381   1.279  0.2308 -0.7544  0.1911
  471MPD2     C 7006   0.072   4.502  16.568 -0.2425 -0.1867  0.4172
  471MPD2    C1 7007   4.720   4.388  16.560 -0.3400 -0.1451  0.7445
  471MPD2    C2 7008   4.714   4.309  16.669  0.1565  0.4726 -0.3734
  471MPD2    C3 7009   0.049   4.342  16.788 -0.5498  0.5103  0.8202
  471MPD2    C4 7010   0.132   4.450  16.789 -0.0692  0.9073  0.2705
  471MPD2    C5 7011   0.142   4.529  16.681  0.5407 -0.6271  0.3313
  471MPD2     H 7012   4.665   4.212  16.667  2.6775 -0.8792  3.3733
  471MPD2    H1 7013   0.186   4.472  16.881  0.3923 -2.7975  0.8964
  471MPD2    H2 7014   0.085   4.564  16.479 -1.5163 -1.4408 -0.6462
  471MPD2    H3 7015   0.217   4.607  16.674 -0.2719  0.2743  1.6841
  471MPD2     N 7016   0.042   4.269  16.908  0.2898 -0.6553 -0.4110
  471MPD2    H5 7017   0.111   4.298  16.977 -0.4767  1.1366 -0.3942
  471MPD2    N1 7018   4.677   4.337  16.435  0.1225  0.7248 -0.1534
  471MPD2    H7 7019   4.657   4.238  16.435  0.1983  0.7078 -0.7479
  472TMC3    C1 7020   4.640   4.306  16.205 -0.2080  0.0809 -0.0225
  472TMC3    C2 7021   4.534   4.324  16.126 -0.3035 -0.1725 -0.0166
  472TMC3    C3 7022   4.461   4.213  16.079 -0.6152 -0.3997 -0.4024
  472TMC3    C4 7023   4.684   4.180  16.225  0.4161 -1.2649  0.3239
  472TMC3    C5 7024   4.624   4.071  16.169 -0.4826 -0.5386 -0.4286
  472TMC3    C6 7025   4.505   4.087  16.104  0.4776  1.0620 -0.1317
  472TMC3     C 7026   4.653   4.403  16.316 -0.1146 -0.3949  0.6486
  472TMC3     O 7027   4.621   4.518  16.300  0.9919 -0.1132  0.1289
  472TMC3     H 7028   4.494   4.425  16.117  2.4077  0.9485  0.5241
  472TMC3    H1 7029   0.044   4.160  16.287 -0.1964  1.0568  1.8854
  472TMC3    H2 7030   4.466   3.996  16.058  0.7650  2.0765 -2.3891
  472TMC3    C7 7031   4.656   3.938  16.215  0.1062 -0.5559  0.6893
  472TMC3    C8 7032   4.333   4.227  16.011  0.6689  0.1407 -0.2386
  472TMC3    O1 7033   4.556   3.882  16.268 -0.1824  0.5960 -0.4549
  472TMC3    O2 7034   4.310   4.316  15.937 -0.2269  0.3267 -0.8474
  473MPD2     C 7035   4.461   1.430  13.639 -0.4057 -0.6290  0.4849
  473MPD2    C1 7036   4.391   1.544  13.593 -0.9077  0.0111  0.0243
  473MPD2    C2 7037   4.386   1.651  13.676  0.7990 -0.2215  0.3426
  473MPD2    C3 7038   4.443   1.647  13.806 -0.6469 -0.4653  0.2376
  473MPD2    C4 7039   4.486   1.531  13.853 -0.8576 -0.1329 -0.0491
  473MPD2    C5 7040   4.521   1.431  13.768 -0.6064  0.1104  0.0427
  473MPD2     H 7041   4.346   1.745  13.638  0.1996  0.1859  1.9938
  473MPD2    H1 7042   4.528   1.523  13.952 -0.7757  0.7131 -0.0176
  473MPD2    H2 7043   4.471   1.339  13.581  1.3614  0.9342 -1.6997
  473MPD2    H3 7044   4.571   1.342  13.806  0.7055 -0.0736 -2.1043
  473MPD2     N 7045   4.441   1.756  13.890  0.7077  0.3669  0.7559
  473MPD2    H5 7046   4.502   1.751  13.971 -0.4775 -1.0227  1.5766
  473MPD2    N1 7047   4.315   1.553  13.476  0.1493 -0.1372  0.2632
  473MPD2    H7 7048   4.265   1.637  13.450 -1.4152  0.1728  4.2714
  474TMC3    C1 7049   4.421   1.982  13.963 -0.1510  0.4015  0.4211
  474TMC3    C2 7050   4.340   2.083  13.991 -0.0371 -0.2254  0.4509
  474TMC3    C3 7051   4.395   2.183  14.080  0.1911  0.4058  0.1778
  474TMC3    C4 7052   4.548   1.977  14.019 -0.7280 -0.4599 -0.0908
  474TMC3    C5 7053   4.592   2.070  14.106  0.6527  0.0737 -0.4780
  474TMC3    C6 7054   4.520   2.182  14.144 -0.4201 -0.2336  0.1581
  474TMC3     C 7055   4.369   1.874  13.881  0.0569  0.2979  0.2543
  474TMC3     O 7056   4.258   1.883  13.827 -0.1339  0.0746 -0.5658
  474TMC3     H 7057   4.236   2.101  13.965 -0.2368  0.9237  1.9882
  474TMC3    H1 7058   4.622   1.899  14.006  0.3738  0.2572  1.7307
  474TMC3    H2 7059   4.554   2.248  14.222 -0.1553 -0.8401  0.5500
  474TMC3    C7 7060   0.006   2.068  14.120 -0.8536 -0.0049 -0.0362
  474TMC3    C8 7061   4.300   2.281  14.118 -0.5987  0.2827 -1.1876
  474TMC3    O1 7062   0.070   2.068  14.018  0.5253 -0.3094 -1.2369
  474TMC3    O2 7063   4.182   2.254  14.117  0.1230 -0.3278  0.1017
  475MPD2     C 7064   3.037   4.137  10.511 -0.1285 -0.7125  0.8768
  475MPD2    C1 7065   2.992   4.243  10.576  0.5010  0.3915  0.2096
  475MPD2    C2 7066   2.867   4.241  10.626  0.3447 -0.2046 -0.5944
  475MPD2    C3 7067   2.782   4.142  10.586  0.1203 -0.0069 -0.2089
  475MPD2    C4 7068   2.829   4.036  10.513 -0.2366 -0.3932 -0.1850
  475MPD2    C5 7069   2.952   4.033  10.473  0.4483  0.7569  0.2172
  475MPD2     H 7070   2.828   4.321  10.688  1.2621 -0.5138  0.3779
  475MPD2    H1 7071   2.764   3.954  10.483 -1.3859  0.9663 -1.4396
  475MPD2    H2 7072   3.142   4.134  10.484 -0.6010  1.8779 -1.2902
  475MPD2    H3 7073   2.984   3.949  10.413  0.1819  2.5003 -2.3679
  475MPD2     N 7074   2.643   4.149  10.621  0.0158 -0.0059 -0.1730
  475MPD2    H5 7075   2.614   4.220  10.687 -1.7832 -0.8546 -0.0463
  475MPD2    N1 7076   3.076   4.357  10.602 -0.2993  0.2917 -0.2040
  475MPD2    H7 7077   3.042   4.433  10.661 -0.1229 -0.0154  0.2932
  476TMC3    C1 7078   3.247   4.498  10.579 -0.7371  0.3803  0.4198
  476TMC3    C2 7079   3.293   4.586  10.485 -0.2890  0.1947  0.1675
  476TMC3    C3 7080   3.285   4.721  10.512 -0.2075  0.2211  0.4961
  476TMC3    C4 7081   3.222   4.543  10.708  0.1729  0.4299 -0.0754
  476TMC3    C5 7082   3.234   4.671  10.737 -0.0045 -0.0155  0.0275
  476TMC3    C6 7083   3.257   0.040  10.636 -0.3073  0.5982 -0.6998
  476TMC3     C 7084   3.189   4.383  10.531 -0.4699 -0.0649  0.9798
  476TMC3     O 7085   3.213   4.353  10.415 -0.2681 -0.6674  0.3333
  476TMC3     H 7086   3.325   4.549  10.388 -0.3316  1.6155 -0.3889
  476TMC3    H1 7087   3.203   4.465  10.782 -3.6435  1.6048  0.1769
  476TMC3    H2 7088   3.239   0.146  10.643  0.6518  0.9783 -3.6849
  476TMC3    C7 7089   3.193   4.709  10.874 -0.5927  0.3849  0.3613
  476TMC3    C8 7090   3.193   0.061  10.414 -0.5598 -0.2339 -0.5756
  476TMC3    O1 7091   3.135   4.622  10.940 -0.1036  0.1953  0.0188
  476TMC3    O2 7092   3.176   0.182  10.412 -0.4938 -0.0330  0.0435
  477MPD2     C 7093   0.611   1.964  11.649  0.0450  0.1880 -0.2848
  477MPD2    C1 7094   0.575   1.836  11.670 -0.1309 -1.5415 -0.2684
  477MPD2    C2 7095   0.591   1.787  11.798 -0.3811  0.7737  0.3822
  477MPD2    C3 7096   0.617   1.870  11.903  0.1322  0.3782  0.2301
  477MPD2    C4 7097   0.643   2.001  11.883 -0.2352  0.1513  0.8401
  477MPD2    C5 7098   0.658   2.045  11.754 -0.1947  0.3601 -0.5990
  477MPD2     H 7099   0.587   1.681  11.822 -0.6025  0.2347 -2.0688
  477MPD2    H1 7100   0.675   2.062  11.966 -0.9735  0.9907  0.5198
  477MPD2    H2 7101   0.632   2.005  11.551  1.7601 -0.0333 -0.0157
  477MPD2    H3 7102   0.692   2.146  11.733  0.7662  0.0230 -0.6474
  477MPD2     N 7103   0.609   1.817  12.035  0.5357  0.0751 -0.2544
  477MPD2    H5 7104   0.611   1.716  12.046  0.6725  0.2056  0.9340
  477MPD2    N1 7105   0.529   1.758  11.566 -0.3452 -0.7052  0.8591
  477MPD2    H7 7106   0.511   1.806  11.478  1.2417 -0.4458  0.6816
  478TMC3    C1 7107   0.381   1.612  11.480 -1.1840 -0.7328 -0.1089
  478TMC3    C2 7108   0.261   1.577  11.536  0.5335  0.1460 -0.5998
  478TMC3    C3 7109   0.146   1.593  11.455 -0.4498 -0.1638 -0.3179
  478TMC3    C4 7110   0.387   1.661  11.353 -0.2916 -0.6100 -0.2717
  478TMC3    C5 7111   0.274   1.670  11.278  0.3364 -0.1990 -0.1553
  478TMC3    C6 7112   0.150   1.628  11.321 -1.1603  0.1578 -0.3567
  478TMC3     C 7113   0.489   1.631  11.572  0.5423  0.0720  0.2179
  478TMC3     O 7114   0.492   1.548  11.669 -0.0128 -0.4045  0.1032
  478TMC3     H 7115   0.262   1.558  11.642  0.2419 -1.6888 -0.9307
  478TMC3    H1 7116   0.481   1.680  11.302  0.9283  0.7333  2.4459
  478TMC3    H2 7117   0.059   1.630  11.264 -0.8415 -4.2098 -1.0332
  478TMC3    C7 7118   0.287   1.680  11.130  0.1401 -0.1624  0.0195
  478TMC3    C8 7119   0.022   1.606  11.519  0.0168  0.2064 -0.1552
  478TMC3    O1 7120   0.390   1.641  11.073  0.0693 -0.3063  0.4809
  478TMC3    O2 7121   4.663   1.519  11.508 -0.2299 -0.0686 -0.0770
  479MPD2     C 7122   4.396   3.432  15.000  0.2156  0.2769 -0.3959
  479MPD2    C1 7123   4.313   3.342  15.075 -0.0482 -0.1299  0.2829
  479MPD2    C2 7124   4.354   3.304  15.201  0.1877  0.2663  0.5270
  479MPD2    C3 7125   4.470   3.359  15.254  0.7479  0.6202  0.3081
  479MPD2    C4 7126   4.546   3.452  15.186  0.6933  0.0245  0.3204
  479MPD2    C5 7127   4.515   3.482  15.056 -0.1013 -0.0531  0.1445
  479MPD2     H 7128   4.282   3.251  15.262 -1.3499  1.1965 -0.4601
  479MPD2    H1 7129   4.639   3.487  15.230 -0.2894  2.3806  0.5769
  479MPD2    H2 7130   4.369   3.463  14.900  1.4413 -0.4442 -0.9536
  479MPD2    H3 7131   4.575   3.550  14.998  2.2483 -0.3667  2.2040
  479MPD2     N 7132   4.513   3.330  15.387  0.0268  0.1158 -0.4155
  479MPD2    H5 7133   4.582   3.392  15.429  0.9895 -0.3375 -1.3355
  479MPD2    N1 7134   4.193   3.300  15.017  0.1259  0.0923 -0.2095
  479MPD2    H7 7135   4.159   3.348  14.934 -1.3743 -4.2601 -2.0944
  480TMC3    C1 7136   4.324   3.280  15.816 -0.5794 -0.0473 -0.1085
  480TMC3    C2 7137   4.308   3.420  15.817  0.0087  0.3950 -0.3052
  480TMC3    C3 7138   4.353   3.494  15.707 -0.4749  0.5661  0.4223
  480TMC3    C4 7139   4.384   3.216  15.708  0.3935  0.0511 -0.2226
  480TMC3    C5 7140   4.445   3.296  15.618 -0.1992  0.3911  0.3902
  480TMC3    C6 7141   4.439   3.429  15.629 -0.3669  1.0239  0.4074
  480TMC3     C 7142   4.252   3.202  15.915  0.4843  0.2510 -0.4605
  480TMC3     O 7143   4.309   3.099  15.933 -0.9476 -0.5268  0.6288
  480TMC3     H 7144   4.246   3.466  15.892  1.5126 -1.3432  1.9908
  480TMC3    H1 7145   4.385   3.109  15.692 -1.8768  0.2013 -1.4449
  480TMC3    H2 7146   4.495   3.489  15.558 -1.9491  1.6365 -0.3034
  480TMC3    C7 7147   4.460   3.241  15.480  0.6374  0.1654  0.1320
  480TMC3    C8 7148   4.234   3.547  15.632  0.2834 -0.4535 -0.2293
  480TMC3    O1 7149   4.406   3.135  15.451  0.1806 -0.0474 -0.2059
  480TMC3    O2 7150   4.123   3.510  15.667  0.1977  0.0613 -0.1806
  481MPD2     C 7151   1.291   3.312  14.109  0.1598  0.4264 -0.2350
  481MPD2    C1 7152   1.174   3.237  14.123 -0.3178  0.5595 -0.3311
  481MPD2    C2 7153   1.160   3.154  14.232  0.0899 -0.6421 -0.2969
  481MPD2    C3 7154   1.249   3.155  14.338  0.0641  0.0273  0.4793
  481MPD2    C4 7155   1.365   3.234  14.326 -0.1485  0.2664  0.4810
  481MPD2    C5 7156   1.386   3.303  14.208  0.1413 -0.2125 -0.4935
  481MPD2     H 7157   1.065   3.103  14.245 -0.3093  0.1832  0.0068
  481MPD2    H1 7158   1.437   3.249  14.405 -0.1974  1.5593  0.2813
  481MPD2    H2 7159   1.311   3.370  14.019 -2.7555  0.9958 -0.5219
  481MPD2    H3 7160   1.471   3.370  14.203  1.5752 -2.0315 -0.4830
  481MPD2     N 7161   1.233   3.089  14.461  0.9605  0.4403  0.1663
  481MPD2    H5 7162   1.301   3.107  14.535  1.0033  1.7366 -0.1922
  481MPD2    N1 7163   1.080   3.231  14.014  0.4558  0.2226  0.0289
  481MPD2    H7 7164   1.079   3.305  13.944 -1.3080 -0.2993 -0.4829
  482TMC3    C1 7165   0.894   3.164  13.884 -0.1578  0.6292  0.3144
  482TMC3    C2 7166   0.764   3.115  13.879 -0.4472 -0.1601 -0.0400
  482TMC3    C3 7167   0.686   3.135  13.776  0.7206 -0.3624  0.0160
  482TMC3    C4 7168   0.947   3.234  13.779  0.4992 -0.0249  0.7119
  482TMC3    C5 7169   0.866   3.238  13.673  0.1739  0.2004  0.1062
  482TMC3    C6 7170   0.739   3.186  13.665  0.4619  0.7537 -0.1446
  482TMC3     C 7171   0.969   3.146  14.009 -0.3007  0.3199  0.0162
  482TMC3     O 7172   0.923   3.066  14.090 -0.3532 -0.5428 -0.0836
  482TMC3     H 7173   0.738   3.053  13.964 -0.8424  2.1421  1.5129
  482TMC3    H1 7174   1.053   3.257  13.776  0.4779  0.3858  2.8479
  482TMC3    H2 7175   0.681   3.200  13.574  0.1514 -1.0358 -0.2187
  482TMC3    C7 7176   0.903   3.311  13.552 -0.2187 -0.2243 -0.1988
  482TMC3    C8 7177   0.576   3.046  13.760  0.1302  0.7401 -0.2811
  482TMC3    O1 7178   0.853   3.275  13.449 -0.5985 -0.4099  0.4434
  482TMC3    O2 7179   0.585   2.931  13.800  0.3739  0.5387 -0.3671
  483TMC3    C1 7180   3.209   1.680   0.182 -0.5985 -0.3687 -0.5378
  483TMC3    C2 7181   3.240   1.804   0.147  0.2570  0.4571 -0.3580
  483TMC3    C3 7182   3.357   1.813   0.067 -0.0302 -0.3861  0.4108
  483TMC3    C4 7183   3.284   1.575   0.139  0.9422  0.5099  0.4034
  483TMC3    C5 7184   3.387   1.585   0.055 -0.1526  0.2403  0.7610
  483TMC3    C6 7185   3.430   1.708   0.014 -0.1325 -0.8529 -0.1788
  483TMC3     C 7186   3.075   1.660   0.241 -0.4155  0.4571 -0.7507
  483TMC3     O 7187   2.997   1.750   0.234  0.1498 -0.4400  0.5100
  483TMC3     H 7188   3.196   1.883   0.206  1.0559 -0.1513  1.0461
  483TMC3    H1 7189   3.240   1.477   0.156 -0.4103  1.0701  0.1638
  483TMC3    H2 7190   3.503   1.728  17.643  0.4140  0.2443  0.6249
  483TMC3    C7 7191   3.499   1.495   0.088 -0.3647 -0.7284 -0.1954
  483TMC3    C8 7192   3.443   1.925   0.102 -0.0121  0.0364 -0.1062
  483TMC3    O1 7193   3.473   1.381   0.124 -0.4040 -0.6004  0.1234
  483TMC3    O2 7194   3.562   1.900   0.078  1.0135  0.3625 -0.1293
  484MPD2     C 7195   1.320   0.413  12.701 -0.8341 -0.5442  0.6563
  484MPD2    C1 7196   1.369   0.328  12.797  0.5588  0.1525  0.6677
  484MPD2    C2 7197   1.515   0.312  12.787  0.4141 -0.0523 -0.3435
  484MPD2    C3 7198   1.600   0.363  12.698 -0.2432  0.6645 -0.0055
  484MPD2    C4 7199   1.536   0.434  12.599 -0.2352 -0.3689 -0.0168
  484MPD2    C5 7200   1.402   0.467  12.607 -0.6979 -0.4901  0.7624
  484MPD2     H 7201   1.557   0.247  12.864 -2.1915 -1.8615 -0.4213
  484MPD2    H1 7202   1.582   0.482  12.514 -0.0537 -1.1543 -0.3702
  484MPD2    H2 7203   1.214   0.432  12.708 -0.5382  0.9897  0.8573
  484MPD2    H3 7204   1.359   0.539  12.538 -0.1249 -0.0249  0.8933
  484MPD2     N 7205   1.744   0.354  12.688  0.7200  0.0126  0.0357
  484MPD2    H5 7206   1.796   0.404  12.616  1.3659 -0.0748  0.4440
  484MPD2    N1 7207   1.274   0.265  12.886 -0.6974 -0.0762  0.3921
  484MPD2    H7 7208   1.175   0.274  12.866 -0.5794 -0.5503 -0.4008
  485TMC3    C1 7209   1.964   0.282  12.755 -0.3987  0.2480  0.0448
  485TMC3    C2 7210   2.036   0.208  12.847 -0.1705  0.4761 -0.5123
  485TMC3    C3 7211   2.173   0.221  12.830 -0.6764  0.1731  0.6018
  485TMC3    C4 7212   2.015   0.355  12.647  0.2542 -0.1955  0.6092
  485TMC3    C5 7213   2.149   0.354  12.633 -0.4275  0.1193  0.3793
  485TMC3    C6 7214   2.228   0.301  12.732 -0.1700  0.6241  0.4381
  485TMC3     C 7215   1.820   0.281  12.779 -0.1625 -0.1982 -0.0010
  485TMC3     O 7216   1.782   0.214  12.872  0.0479  0.5378 -0.6846
  485TMC3     H 7217   1.983   0.152  12.923 -0.3400  0.0250 -0.9579
  485TMC3    H1 7218   1.952   0.398  12.570  0.4739 -1.8300 -0.4668
  485TMC3    H2 7219   2.334   0.303  12.709 -0.0153 -0.2401  1.0680
  485TMC3    C7 7220   2.190   0.307  12.502  0.1273 -0.1205  0.0860
  485TMC3    C8 7221   2.247   0.094  12.845 -0.1419  0.2654 -0.0585
  485TMC3    O1 7222   2.137   0.352  12.400  0.9429  0.2296  0.2558
  485TMC3    O2 7223   2.341   0.072  12.772 -0.5081  0.3784 -0.6175
  486MPD2     C 7224   3.583   3.244  12.863  0.1060 -0.1161 -1.0714
  486MPD2    C1 7225   3.472   3.238  12.939  0.0204 -0.7412 -0.0003
  486MPD2    C2 7226   3.390   3.353  12.941 -0.0232 -0.2993  0.7274
  486MPD2    C3 7227   3.428   3.469  12.867 -0.4010  0.0630 -0.2783
  486MPD2    C4 7228   3.538   3.461  12.788  0.0546  0.8174  0.2336
  486MPD2    C5 7229   3.617   3.347  12.786 -1.0197 -0.8489  0.7270
  486MPD2     H 7230   3.293   3.350  12.988  0.0520 -0.2212  0.8853
  486MPD2    H1 7231   3.554   3.547  12.723 -0.5785 -0.3880 -1.5214
  486MPD2    H2 7232   3.645   3.155  12.860 -0.8723 -0.8413  0.0382
  486MPD2    H3 7233   3.702   3.329  12.721  0.3904  0.0793  2.2975
  486MPD2     N 7234   3.338   3.576  12.865  0.0221 -0.6696 -0.3932
  486MPD2    H5 7235   3.239   3.560  12.884  0.2401 -2.3286 -0.6679
  486MPD2    N1 7236   3.443   3.114  13.003 -0.2117 -0.5425 -0.0087
  486MPD2    H7 7237   3.513   3.041  12.994 -0.0150 -0.5911  1.8572
  487TMC3    C1 7238   3.320   2.968  13.147  0.6732  0.1086 -0.3327
  487TMC3    C2 7239   3.197   2.948  13.204  0.3239  0.5555  0.8091
  487TMC3    C3 7240   3.155   2.821  13.219  0.5738  0.0893  0.1931
  487TMC3    C4 7241   3.412   2.873  13.121 -0.8684 -0.5928  0.1244
  487TMC3    C5 7242   3.365   2.744  13.157  1.0439 -0.3948  0.3623
  487TMC3    C6 7243   3.239   2.718  13.201  0.1944 -0.2880 -0.3484
  487TMC3     C 7244   3.349   3.105  13.101  0.7333 -0.2403  0.1694
  487TMC3     O 7245   3.280   3.188  13.151 -0.3341  0.9036  0.8599
  487TMC3     H 7246   3.131   3.030  13.229 -2.0588 -0.3493 -2.5660
  487TMC3    H1 7247   3.510   2.882  13.076 -1.4650 -0.0693 -1.0693
  487TMC3    H2 7248   3.199   2.619  13.180  0.7945  0.2840 -4.1739
  487TMC3    C7 7249   3.467   2.638  13.193 -0.1840 -0.2848  0.7388
  487TMC3    C8 7250   3.036   2.799  13.298 -0.6529 -0.3297  0.2483
  487TMC3    O1 7251   3.435   2.575  13.293  0.4676  0.2269 -0.2505
  487TMC3    O2 7252   2.953   2.888  13.324  0.6559 -0.0588  0.0809
  488MPD2     C 7253   4.023   0.575  16.371  0.3056  0.3707 -0.4502
  488MPD2    C1 7254   4.013   0.710  16.369 -0.1735  0.0390 -0.5917
  488MPD2    C2 7255   3.983   0.769  16.487 -0.8165 -0.3680 -0.7612
  488MPD2    C3 7256   3.953   0.695  16.608 -0.7797  0.4531 -0.0156
  488MPD2    C4 7257   3.973   0.552  16.605  0.2127 -0.5696 -0.0451
  488MPD2    C5 7258   4.010   0.500  16.484  1.0100 -0.0758 -0.1206
  488MPD2     H 7259   3.967   0.876  16.480  0.4201  0.0517  2.4648
  488MPD2    H1 7260   3.950   0.481  16.685  2.3629  1.4774  2.3808
  488MPD2    H2 7261   4.053   0.525  16.279  1.2598 -0.1276  0.1303
  488MPD2    H3 7262   4.006   0.391  16.483 -0.5648 -0.0557  2.3574
  488MPD2     N 7263   3.898   0.767  16.721 -0.5808  0.5569 -0.5005
  488MPD2    H5 7264   3.880   0.867  16.712 -2.0938  0.4862  1.6303
  488MPD2    N1 7265   4.033   0.795  16.250  0.4998 -0.1207 -0.9918
  488MPD2    H7 7266   4.002   0.892  16.255 -2.0444 -0.9950  0.2437
  489TMC3    C1 7267   3.810   0.811  16.929  0.0313  0.1228  0.2427
  489TMC3    C2 7268   3.804   0.945  16.892  0.7748  0.1668  0.0366
  489TMC3    C3 7269   3.731   1.026  16.968  0.3821  0.3145  0.6527
  489TMC3    C4 7270   3.733   0.763  17.030 -0.1179  0.0027  0.1290
  489TMC3    C5 7271   3.661   0.850  17.104  0.2941 -0.5573 -0.2354
  489TMC3    C6 7272   3.660   0.981  17.079 -0.4227  0.5512 -0.4556
  489TMC3     C 7273   3.846   0.712  16.829  0.9072  0.2852 -0.1287
  489TMC3     O 7274   3.847   0.590  16.861  0.1122  0.6618 -0.5790
  489TMC3     H 7275   3.869   0.985  16.814 -0.3057  0.1357 -0.8781
  489TMC3    H1 7276   3.733   0.656  17.046 -0.1357 -0.1398 -0.8259
  489TMC3    H2 7277   3.610   1.049  17.147 -1.1010 -0.3361 -0.0705
  489TMC3    C7 7278   3.596   0.807  17.227 -0.3864 -0.4449 -0.6673
  489TMC3    C8 7279   3.762   1.163  16.968 -0.2264 -0.3534  0.3557
  489TMC3    O1 7280   3.546   0.901  17.295 -0.0945  0.3479 -0.0934
  489TMC3    O2 7281   3.680   1.225  17.036  0.0890 -0.0774 -0.6151
  490MPD2     C 7282   0.907   4.627  17.115 -0.0822  0.4920  0.2626
  490MPD2    C1 7283   0.856   4.706  17.216 -0.4312 -0.7121 -0.1397
  490MPD2    C2 7284   0.935   0.046  17.305  0.1680  0.4264 -0.3094
  490MPD2    C3 7285   1.068   0.047  17.282  0.6010 -0.4374  1.4260
  490MPD2    C4 7286   1.122   4.704  17.179 -0.6406 -0.3390  0.1044
  490MPD2    C5 7287   1.043   4.630  17.096  0.5252 -1.0285 -0.8346
  490MPD2     H 7288   0.887   0.113  17.376 -1.3491 -1.5899  0.5770
  490MPD2    H1 7289   1.230   4.705  17.171 -0.6806  1.1845 -0.2692
  490MPD2    H2 7290   0.847   4.554  17.061 -1.8637  1.8476  0.4100
  490MPD2    H3 7291   1.089   4.565  17.023  0.2264 -0.5539 -1.4523
  490MPD2     N 7292   1.156   0.110  17.381 -0.6365  0.5169  0.6135
  490MPD2    H5 7293   1.256   0.091  17.376 -0.5068  0.7725  2.1544
  490MPD2    N1 7294   0.717   4.709  17.249 -0.0770 -0.0751  0.6395
  490MPD2    H7 7295   0.687   0.044  17.324 -0.6352 -2.3493  2.2455
  491TMC3    C1 7296   0.488   4.674  17.222  0.5375  0.4326  0.0204
  491TMC3    C2 7297   0.456   0.069  17.284 -0.0682  0.2923  0.1955
  491TMC3    C3 7298   0.322   0.092  17.324 -0.0895  0.7940 -0.6585
  491TMC3    C4 7299   0.384   4.583  17.198 -0.6634  0.3684  0.2402
  491TMC3    C5 7300   0.253   4.613  17.226  0.0840 -0.0118 -0.1985
  491TMC3    C6 7301   0.224   0.006  17.289  0.3082  0.1327  0.0221
  491TMC3     C 7302   0.618   4.652  17.172  0.2608  0.3299  0.2378
  491TMC3     O 7303   0.624   4.582  17.075 -0.2636 -0.3645  0.1035
  491TMC3     H 7304   0.527   0.150  17.300 -0.5048  0.2382  2.5401
  491TMC3    H1 7305   0.411   4.492  17.145 -3.8378  0.9819 -2.3742
  491TMC3    H2 7306   0.119   0.026  17.309  0.3350 -2.0602  2.3425
  491TMC3    C7 7307   0.146   4.570  17.134 -0.0573 -0.0023 -0.0660
  491TMC3    C8 7308   0.277   0.207  17.402 -0.4225  0.1881  0.6151
  491TMC3    O1 7309   0.119   4.450  17.131 -0.0577 -0.0340  0.1528
  491TMC3    O2 7310   0.156   0.211  17.415 -0.0242  0.1901 -0.2110
  492MPD2     C 7311   4.685   0.354  11.481  0.3387 -0.2491 -0.4699
  492MPD2    C1 7312   4.627   0.254  11.412  0.3187 -0.7684  0.5046
  492MPD2    C2 7313   4.597   0.130  11.469 -0.0533  0.0518 -0.3110
  492MPD2    C3 7314   4.618   0.116  11.605 -0.0384 -0.0327  0.6488
  492MPD2    C4 7315   4.679   0.220  11.681 -0.6947 -0.3033 -0.5815
  492MPD2    C5 7316   4.709   0.335  11.613 -0.2153  0.1366  0.2482
  492MPD2     H 7317   4.547   0.048  11.418 -0.4025  0.1100 -0.0642
  492MPD2    H1 7318   4.701   0.202  11.786 -0.7621 -0.5065 -0.6007
  492MPD2    H2 7319   0.002   0.442  11.434  1.0709  0.0229  0.7164
  492MPD2    H3 7320   0.037   0.410  11.670 -1.1963  2.5453 -2.0247
  492MPD2     N 7321   4.592   4.722  11.675  0.0390  0.2902 -0.7361
  492MPD2    H5 7322   4.599   0.004  11.776 -1.1162 -1.9441 -0.4865
  492MPD2    N1 7323   4.604   0.288  11.280  0.6509 -0.6544  0.2599
  492MPD2    H7 7324   4.619   0.386  11.257 -1.5043 -0.3997 -0.0588
  493TMC3    C1 7325   4.526   0.296  11.064  0.1166 -0.0042 -0.2644
  493TMC3    C2 7326   4.591   0.418  11.061 -0.1030  0.2692  0.5644
  493TMC3    C3 7327   4.569   0.494  10.944  0.7485  0.0731  0.5134
  493TMC3    C4 7328   4.454   0.243  10.959 -0.1951 -0.2942 -0.0150
  493TMC3    C5 7329   4.440   0.318  10.846  0.4509  0.5973  0.3060
  493TMC3    C6 7330   4.494   0.445  10.833 -0.9703  0.0393 -0.0838
  493TMC3     C 7331   4.542   0.218  11.184  1.2525  0.8200  0.5420
  493TMC3     O 7332   4.495   0.104  11.180 -0.8198 -0.2840 -0.2008
  493TMC3     H 7333   4.651   0.464  11.139  2.9882 -2.3817 -0.2650
  493TMC3    H1 7334   4.388   0.159  10.972 -0.2204 -0.0894  1.2271
  493TMC3    H2 7335   4.475   0.507  10.746  0.4170  1.9416  0.9684
  493TMC3    C7 7336   4.402   0.250  10.729 -0.5509 -0.2550  0.2471
  493TMC3    C8 7337   4.628   0.631  10.947  1.1398  0.3673  0.0471
  493TMC3    O1 7338   4.364   0.319  10.638  0.1156  0.1849  0.1149
  493TMC3    O2 7339   4.640   0.683  11.056  0.2894  0.0123 -0.2731
  494TMC3    C1 7340   0.895   1.972   0.432 -0.1086  0.1997 -0.1916
  494TMC3    C2 7341   1.026   1.992   0.419 -0.5031  0.3475 -0.8774
  494TMC3    C3 7342   1.097   1.892   0.354  0.0440  0.3437 -0.1624
  494TMC3    C4 7343   0.835   1.856   0.401  0.1013  0.1930 -0.3932
  494TMC3    C5 7344   0.903   1.763   0.336 -1.0138 -0.4997  0.5210
  494TMC3    C6 7345   1.032   1.781   0.308  0.5861  0.2010  0.0397
  494TMC3     C 7346   0.824   2.079   0.477 -0.8697  0.3579  0.0731
  494TMC3     O 7347   0.872   2.190   0.457  0.2513  0.0842 -0.0779
  494TMC3     H 7348   1.077   2.084   0.447  2.1111 -2.3626  3.3613
  494TMC3    H1 7349   0.729   1.842   0.418  0.1741 -0.5602 -0.5775
  494TMC3    H2 7350   1.085   1.702   0.256  1.0381  0.3230  0.3154
  494TMC3    C7 7351   0.820   1.692   0.240  1.1494  0.3442  0.3275
  494TMC3    C8 7352   1.239   1.883   0.385 -0.0412 -0.0751 -0.0499
  494TMC3    O1 7353   0.723   1.634   0.278 -0.2145  0.5126  0.6703
  494TMC3    O2 7354   1.307   1.811   0.308 -0.1831 -0.6024 -0.1887
  495TMC3    C1 7355   4.426   3.826  14.686  0.0510  0.6474  1.1146
  495TMC3    C2 7356   4.335   3.902  14.621 -0.1103  0.6747  0.0609
  495TMC3    C3 7357   4.226   3.951  14.691  1.2583 -0.0699 -0.2020
  495TMC3    C4 7358   4.432   3.814  14.821 -0.2935 -0.6031 -0.1882
  495TMC3    C5 7359   4.338   3.879  14.890 -0.5389 -0.4335  0.4200
  495TMC3    C6 7360   4.233   3.943  14.824 -0.5138  0.2524  0.3290
  495TMC3     C 7361   4.419   3.692  14.618 -0.5982  0.2823 -0.4874
  495TMC3     O 7362   4.356   3.685  14.516  0.2039  0.3059  0.2542
  495TMC3     H 7363   4.348   3.909  14.514  0.8350  0.1988  0.1440
  495TMC3    H1 7364   4.495   3.747  14.877 -1.5652 -0.5434  1.3138
  495TMC3    H2 7365   4.153   3.990  14.881 -0.2362  2.0624 -0.7559
  495TMC3    C7 7366   4.319   3.827  15.026 -0.5750 -1.2767 -0.2553
  495TMC3    C8 7367   4.098   3.925  14.629 -0.0074 -0.6209 -0.2251
  495TMC3    O1 7368   4.421   3.824  15.099  0.2439 -0.0358  0.7002
  495TMC3    O2 7369   3.991   3.960  14.680 -0.4236  0.1776  0.3056
  496MPD2     C 7370   1.912   4.147  15.738 -0.2175 -0.2270  0.0317
  496MPD2    C1 7371   1.793   4.081  15.699 -0.4377  0.3462 -0.5473
  496MPD2    C2 7372   1.676   4.125  15.761 -0.8031 -0.1763  0.1609
  496MPD2    C3 7373   1.671   4.241  15.841 -0.5707  0.4475  0.2146
  496MPD2    C4 7374   1.787   4.308  15.861 -0.3795 -0.3780 -0.1891
  496MPD2    C5 7375   1.904   4.254  15.820 -0.1239 -0.5463 -0.1263
  496MPD2     H 7376   1.583   4.071  15.743  0.0491 -1.5928 -0.0355
  496MPD2    H1 7377   1.797   4.393  15.926 -4.3572 -0.8828  1.0381
  496MPD2    H2 7378   2.005   4.109  15.696 -0.7018 -2.5013  0.9988
  496MPD2    H3 7379   1.991   4.315  15.842 -0.7625  0.0266  0.7924
  496MPD2     N 7380   1.555   4.288  15.906  0.1203  0.4644  0.4388
  496MPD2    H5 7381   1.570   4.348  15.986 -3.4727  0.2441  1.2816
  496MPD2    N1 7382   1.796   3.983  15.598  0.0758  0.4545  0.3359
  496MPD2    H7 7383   1.887   3.968  15.555  0.5389  0.8291  1.1844
  497TMC3    C1 7384   1.332   4.259  15.992  1.0171 -0.3525  0.4252
  497TMC3    C2 7385   1.210   4.222  15.947 -0.3571 -0.5180  0.7016
  497TMC3    C3 7386   1.121   4.173  16.039  0.1419  0.7743  0.3845
  497TMC3    C4 7387   1.374   4.242  16.121  0.5103 -0.4007 -0.2135
  497TMC3    C5 7388   1.283   4.188  16.209  0.2574 -0.4369 -0.4007
  497TMC3    C6 7389   1.152   4.160  16.173  0.0232 -0.1742 -0.6628
  497TMC3     C 7390   1.430   4.240  15.888  0.4087 -0.1039  0.5828
  497TMC3     O 7391   1.396   4.190  15.780 -0.1306 -0.5388  0.3397
  497TMC3     H 7392   1.184   4.250  15.846 -0.6090  0.9609  1.1684
  497TMC3    H1 7393   1.479   4.252  16.144  0.5157 -1.4864  0.2148
  497TMC3    H2 7394   1.082   4.113  16.242 -0.2730 -0.4478 -1.1546
  497TMC3    C7 7395   1.319   4.162  16.347  0.0325 -0.2137 -0.5608
  497TMC3    C8 7396   1.019   4.082  15.987 -0.3511  0.2190 -0.4497
  497TMC3    O1 7397   1.224   4.132  16.418 -0.1504 -0.0654  0.9030
  497TMC3    O2 7398   0.939   4.034  16.062 -0.6140  0.8863 -0.5286
  498MPD2     C 7399   2.434   4.225   9.855  0.4000 -0.2791 -0.5002
  498MPD2    C1 7400   2.369   4.347   9.868  0.2426  0.1132 -0.5193
  498MPD2    C2 7401   2.228   4.346   9.873  0.5508  0.6521  0.5333
  498MPD2    C3 7402   2.151   4.235   9.869 -0.8109  0.4937  0.1700
  498MPD2    C4 7403   2.220   4.112   9.854 -0.0486 -0.0824  0.1756
  498MPD2    C5 7404   2.359   4.111   9.852 -0.2842  0.2490 -0.0711
  498MPD2     H 7405   2.179   4.442   9.881 -1.7859 -0.7696  3.6245
  498MPD2    H1 7406   2.169   4.018   9.841  1.1409 -0.3046 -2.8510
  498MPD2    H2 7407   2.542   4.216   9.858  0.6247  2.6796  0.1120
  498MPD2    H3 7408   2.407   4.015   9.862  0.5636  0.8394  1.6306
  498MPD2     N 7409   2.008   4.239   9.885  0.7162 -0.1193  0.5091
  498MPD2    H5 7410   1.966   4.328   9.910  0.0734 -0.1816 -0.3742
  498MPD2    N1 7411   2.438   4.475   9.896 -0.1477 -0.4241 -0.0695
  498MPD2    H7 7412   2.383   4.559   9.912 -0.8172 -0.7631 -0.5691
  499TMC3    C1 7413   2.629   4.637   9.910 -0.0944  0.2908 -0.1336
  499TMC3    C2 7414   2.766   4.651   9.920  0.1451 -0.1674 -0.0557
  499TMC3    C3 7415   2.817   0.049   9.928  0.8296  0.2579  0.6919
  499TMC3    C4 7416   2.544   0.015   9.892  0.5639  0.3509 -0.3404
  499TMC3    C5 7417   2.608   0.137   9.912  0.2770  0.6474  0.1726
  499TMC3    C6 7418   2.737   0.155   9.941 -0.5113  0.8516  0.5417
  499TMC3     C 7419   2.577   4.497   9.904  0.0684 -0.0075 -0.3832
  499TMC3     O 7420   2.660   4.406   9.908 -0.5301 -0.3773 -0.3881
  499TMC3     H 7421   2.823   4.559   9.924  0.2108 -0.1916 -1.5794
  499TMC3    H1 7422   2.440   4.724   9.867  0.7574  0.3174 -1.1237
  499TMC3    H2 7423   2.782   0.250   9.967  1.5623 -0.6557  2.5089
  499TMC3    C7 7424   2.529   0.259   9.915 -0.2248  0.7032 -0.4535
  499TMC3    C8 7425   2.966   0.070   9.927 -0.8048  0.0756  0.5165
  499TMC3    O1 7426   2.586   0.360   9.888  0.0270 -0.4751  0.3507
  499TMC3    O2 7427   3.004   0.185   9.908 -0.0657  0.4909 -0.0012
  500MPD2     C 7428   4.017   1.204   9.878  0.1749 -0.2453 -0.6538
  500MPD2    C1 7429   3.969   1.248   9.995  0.3358 -0.3950 -0.4831
  500MPD2    C2 7430   3.827   1.240  10.019 -0.3543  0.7100  0.0623
  500MPD2    C3 7431   3.742   1.172   9.929 -0.2979 -0.7540  0.6427
  500MPD2    C4 7432   3.800   1.133   9.811  0.0175 -0.1026  0.2456
  500MPD2    C5 7433   3.932   1.152   9.784  0.2702 -0.1239 -0.4601
  500MPD2     H 7434   3.787   1.275  10.113 -1.7037 -1.6529  0.3760
  500MPD2    H1 7435   3.736   1.096   9.732 -0.9747 -1.1514  1.5397
  500MPD2    H2 7436   4.119   1.212   9.843  0.6598  1.6937  1.2042
  500MPD2    H3 7437   3.976   1.135   9.686  1.1977 -1.5469  0.1981
  500MPD2     N 7438   3.605   1.140   9.952 -0.0475 -0.0423  0.4119
  500MPD2    H5 7439   3.559   1.092   9.875  1.0717 -0.7938  0.2094
  500MPD2    N1 7440   4.032   1.330  10.084  0.6518  0.3115  0.2372
  500MPD2    H7 7441   3.976   1.372  10.157 -2.0106 -1.5105 -0.7585
  501TMC3    C1 7442   4.206   1.398  10.224 -0.1597 -0.4724  0.3912
  501TMC3    C2 7443   4.159   1.528  10.223  0.2231 -0.3678 -0.5211
  501TMC3    C3 7444   4.123   1.577  10.341 -0.3487 -0.0965  0.2194
  501TMC3    C4 7445   4.218   1.327  10.340 -0.1782  0.0421 -0.7033
  501TMC3    C5 7446   4.174   1.384  10.458 -0.4565 -0.4757 -0.6814
  501TMC3    C6 7447   4.135   1.512  10.460 -0.2499  0.2678  0.2499
  501TMC3     C 7448   4.171   1.329  10.105  0.3730  0.1691  0.0946
  501TMC3     O 7449   4.270   1.283  10.044 -0.0575 -0.6840 -0.1857
  501TMC3     H 7450   4.149   1.582  10.130 -2.7128  0.7961  0.4604
  501TMC3    H1 7451   4.243   1.222  10.340 -1.0521 -0.1673  0.3662
  501TMC3    H2 7452   4.104   1.556  10.554  0.0389 -0.2960  0.6107
  501TMC3    C7 7453   4.238   1.338  10.575 -0.4125  0.0596 -0.0978
  501TMC3    C8 7454   4.164   1.710  10.365 -0.2078 -0.2247 -0.2938
  501TMC3    O1 7455   4.225   1.221  10.604  0.1997 -0.7514  0.9894
  501TMC3    O2 7456   4.230   1.720  10.466  0.3225  0.0346 -0.1441
  502TMC3    C1 7457   3.709   4.371  15.043  0.3325 -0.1252 -0.2654
  502TMC3    C2 7458   3.726   4.450  14.931  0.2784  0.1671  0.0707
  502TMC3    C3 7459   3.628   4.448  14.840 -0.1317  0.6289  0.1243
  502TMC3    C4 7460   3.606   4.287  15.060  0.6120  0.3796  0.1005
  502TMC3    C5 7461   3.520   4.273  14.952 -0.1675  0.2436  0.2020
  502TMC3    C6 7462   3.520   4.360  14.849  0.2272  0.2962  0.9615
  502TMC3     C 7463   3.802   4.386  15.146 -0.4171  0.1189 -0.0717
  502TMC3     O 7464   3.900   4.448  15.119  0.0926  0.2084  0.7326
  502TMC3     H 7465   3.797   4.532  14.930 -1.3829  1.6350  4.1343
  502TMC3    H1 7466   3.597   4.232  15.153 -2.1769 -2.0523 -1.6048
  502TMC3    H2 7467   3.446   4.361  14.769 -0.5203 -0.6908  1.6478
  502TMC3    C7 7468   3.389   4.222  15.000 -1.0580 -0.1190  0.4641
  502TMC3    C8 7469   3.649   4.521  14.713  0.3043 -0.4441 -0.2513
  502TMC3    O1 7470   3.377   4.118  15.075 -0.5267  0.1001 -0.1079
  502TMC3    O2 7471   3.709   4.628  14.713 -0.0794  0.0183 -0.5879
  503MPD2     C 7472   1.231   0.744  16.991 -1.0098 -0.2662  0.0993
  503MPD2    C1 7473   1.232   0.788  17.118  0.3058 -0.1766  0.1671
  503MPD2    C2 7474   1.311   0.730  17.216  0.3122  0.2232 -0.1007
  503MPD2    C3 7475   1.384   0.617  17.184 -0.2777 -0.0853 -0.1369
  503MPD2    C4 7476   1.372   0.567  17.051 -0.4873  0.1086 -0.2017
  503MPD2    C5 7477   1.298   0.632  16.958  0.5344  0.0672  0.7880
  503MPD2     H 7478   1.322   0.777  17.313 -2.8759  1.3210 -0.2662
  503MPD2    H1 7479   1.426   0.480  17.016  0.4719 -0.4105  2.5397
  503MPD2    H2 7480   1.193   0.800  16.906 -0.4882 -1.1252 -0.7012
  503MPD2    H3 7481   1.286   0.590  16.859 -1.1378  2.7194 -0.1352
  503MPD2     N 7482   1.468   0.553  17.281 -0.4355  0.3075 -0.2049
  503MPD2    H5 7483   1.478   0.594  17.373 -4.1026  4.0660 -1.4911
  503MPD2    N1 7484   1.145   0.888  17.162  0.1094 -0.0202  0.2431
  503MPD2    H7 7485   1.131   0.916  17.259  1.7473 -0.0555  0.4776
  504TMC3    C1 7486   1.645   0.415  17.372  0.0461 -0.2798 -0.2616
  504TMC3    C2 7487   1.615   0.417  17.507 -0.9792  0.1362 -0.1786
  504TMC3    C3 7488   1.703   0.352  17.586 -0.5413 -0.0434  0.4736
  504TMC3    C4 7489   1.759   0.348  17.321  0.2213 -0.1938 -0.0036
  504TMC3    C5 7490   1.831   0.276  17.409  0.0171 -0.1229 -0.4244
  504TMC3    C6 7491   1.810   0.276  17.543  0.1426 -0.3616  0.0746
  504TMC3     C 7492   1.547   0.442  17.263  0.1360 -0.1932  0.6343
  504TMC3     O 7493   1.544   0.355  17.177  0.2941  0.4376 -0.1436
  504TMC3     H 7494   1.522   0.458  17.543 -0.3235  2.6031 -1.3269
  504TMC3    H1 7495   1.770   0.362  17.214 -3.0192 -2.7554 -0.6719
  504TMC3    H2 7496   1.883   0.232  17.610  0.6918 -0.2729 -0.4729
  504TMC3    C7 7497   1.952   0.213  17.361 -0.2996  0.1079 -0.9942
  504TMC3    C8 7498   1.677   0.358   0.016  0.1921 -0.3087  0.2061
  504TMC3    O1 7499   1.984   0.268  17.258  0.1821 -0.3070  0.1860
  504TMC3    O2 7500   1.588   0.435   0.045  0.2516  0.3429 -0.3077
  505MPD2     C 7501   0.498   4.589   9.980 -0.0197 -0.1054 -0.0462
  505MPD2    C1 7502   0.553   4.530  10.091  0.3657 -0.1775  0.4346
  505MPD2    C2 7503   0.644   4.603  10.155 -0.4399 -0.4318 -1.0812
  505MPD2    C3 7504   0.684   0.005  10.108  0.5658 -0.2287 -0.4754
  505MPD2    C4 7505   0.626   0.062  10.000  0.3395  0.2801 -0.5143
  505MPD2    C5 7506   0.530   4.716   9.934  0.1035 -0.0908 -0.2269
  505MPD2     H 7507   0.696   4.566  10.243  1.3176  4.0134 -0.2237
  505MPD2    H1 7508   0.649   0.164   9.973  0.9061  0.1474 -0.5322
  505MPD2    H2 7509   0.433   4.531   9.917 -1.1972  1.1050  0.0507
  505MPD2    H3 7510   0.494   0.026   9.838  2.2997 -1.0127 -1.3829
  505MPD2     N 7511   0.782   0.071  10.186  0.4159  0.0643  0.3357
  505MPD2    H5 7512   0.817   0.020  10.266 -0.5653  0.6863  1.1604
  505MPD2    N1 7513   0.516   4.398  10.136  0.2168  0.1327  0.0079
  505MPD2    H7 7514   0.441   4.345  10.092  0.9687 -0.6915 -0.2592
  506TMC3    C1 7515   0.536   4.196  10.240 -0.5270 -0.0082  0.4978
  506TMC3    C2 7516   0.593   4.148  10.124  0.3717 -0.6632  0.2908
  506TMC3    C3 7517   0.670   4.038  10.133  0.4675  0.5733 -0.0550
  506TMC3    C4 7518   0.577   4.141  10.358 -0.2127  1.2877 -0.2201
  506TMC3    C5 7519   0.661   4.032  10.357 -0.1526 -0.1975  0.2324
  506TMC3    C6 7520   0.708   3.974  10.250  0.6516  0.6486  0.4237
  506TMC3     C 7521   0.563   4.336  10.247  0.4554 -0.5246  0.0017
  506TMC3     O 7522   0.636   4.366  10.339  0.0325 -0.5189 -0.2100
  506TMC3     H 7523   0.567   4.189  10.027  1.6476  2.6802  1.3574
  506TMC3    H1 7524   0.537   4.170  10.455  1.2108  1.5204  0.2947
  506TMC3    H2 7525   0.783   3.896  10.257 -1.4975 -1.2248  3.0745
  506TMC3    C7 7526   0.744   4.030  10.477 -0.3322 -0.4836 -0.1840
  506TMC3    C8 7527   0.739   4.003  10.010  1.2685 -0.5770 -0.4831
  506TMC3    O1 7528   0.812   3.930  10.501  0.7016  0.5847 -0.3999
  506TMC3    O2 7529   0.685   4.004   9.900  0.2023  0.5245  0.0990
  507TMC3    C1 7530   1.967   0.040  14.419  0.0960  0.2888  0.7160
  507TMC3    C2 7531   1.986   4.696  14.308 -0.8817  0.0173 -0.0579
  507TMC3    C3 7532   2.098   4.712  14.235 -0.3984  0.3026  0.0692
  507TMC3    C4 7533   2.058   0.133  14.457 -0.0716  0.8062 -0.3695
  507TMC3    C5 7534   2.174   0.142  14.386 -0.3306  0.1297  0.4518
  507TMC3    C6 7535   2.195   0.062  14.285 -0.2254  0.5260 -0.0307
  507TMC3     C 7536   1.832   0.066  14.456  0.4699  0.2817  0.1631
  507TMC3     O 7537   1.791   0.180  14.468  1.0537  0.2440  0.2607
  507TMC3     H 7538   1.898   4.648  14.266 -0.9469  0.3679 -0.3257
  507TMC3    H1 7539   2.030   0.210  14.528  0.6461  1.0149 -0.3109
  507TMC3    H2 7540   2.283   0.083  14.225 -0.0429  2.1332  0.8036
  507TMC3    C7 7541   2.196   0.281  14.344 -0.8776 -0.0734 -0.1126
  507TMC3    C8 7542   2.067   4.714  14.094 -0.5197 -0.1513  0.4496
  507TMC3    O1 7543   2.192   0.303  14.223 -0.2984  0.6374  0.4572
  507TMC3    O2 7544   2.017   4.613  14.043  0.1855  0.1494  0.0822
  508MPD2     C 7545   3.118   2.285  15.960  0.0282 -0.2906 -0.1018
  508MPD2    C1 7546   3.077   2.404  16.013 -0.0173 -0.5683  0.1814
  508MPD2    C2 7547   3.015   2.495  15.927  0.1056  0.5028  0.3196
  508MPD2    C3 7548   2.998   2.458  15.788 -0.2367  1.3134  0.2635
  508MPD2    C4 7549   3.053   2.341  15.743 -0.4207  0.8353  0.2806
  508MPD2    C5 7550   3.106   2.246  15.830 -0.1087  0.6107 -1.0686
  508MPD2     H 7551   2.985   2.594  15.962  0.1768 -0.2820  2.5847
  508MPD2    H1 7552   3.054   2.323  15.636  0.3853 -0.3077  0.4686
  508MPD2    H2 7553   3.167   2.211  16.023  1.8724 -0.3200 -1.5589
  508MPD2    H3 7554   3.152   2.155  15.794  0.6251  0.0386  1.2929
  508MPD2     N 7555   2.951   2.548  15.689 -0.2512 -0.2868 -0.1748
  508MPD2    H5 7556   2.947   2.507  15.597  0.5860  2.8251 -1.6146
  508MPD2    N1 7557   3.089   2.420  16.154 -0.4647 -0.3250  0.0886
  508MPD2    H7 7558   3.120   2.346  16.216  1.2406  1.1446  0.9821
  509TMC3    C1 7559   2.861   2.991  15.582  0.3837  0.4197 -0.0064
  509TMC3    C2 7560   2.991   3.013  15.528 -0.0771 -0.0619  0.8521
  509TMC3    C3 7561   3.078   2.906  15.504  0.1003  0.7132 -0.2492
  509TMC3    C4 7562   2.821   2.866  15.614 -0.0099  0.2095 -0.2471
  509TMC3    C5 7563   2.915   2.766  15.597  0.0154 -0.8397  0.1228
  509TMC3    C6 7564   3.038   2.781  15.546  0.6359  0.0407 -0.2087
  509TMC3     C 7565   2.760   3.095  15.574  0.1904 -0.5903 -0.2572
  509TMC3     O 7566   2.670   3.094  15.655 -0.8846 -0.8501 -0.4912
  509TMC3     H 7567   3.023   3.112  15.501  0.9160 -0.3588  0.9330
  509TMC3    H1 7568   2.728   2.844  15.665  0.5675 -1.0379  0.2623
  509TMC3    H2 7569   3.108   2.699  15.559 -1.0799 -1.3801  0.0745
  509TMC3    C7 7570   2.906   2.676  15.712  0.2201 -0.0068 -0.1160
  509TMC3    C8 7571   3.217   2.923  15.465  0.0811 -0.3932  0.0839
  509TMC3    O1 7572   2.882   2.724  15.823  0.0509 -0.4613 -0.5989
  509TMC3    O2 7573   3.297   2.830  15.474 -0.4860  0.1787 -0.0578
  510MPD2     C 7574   0.882   3.904  14.332  0.3611  0.8095  0.3831
  510MPD2    C1 7575   0.956   3.868  14.446  0.3927 -0.1523  0.0169
  510MPD2    C2 7576   1.092   3.895  14.437 -0.4824  0.2376  0.1759
  510MPD2    C3 7577   1.151   3.959  14.325  0.6557 -0.3147 -0.4917
  510MPD2    C4 7578   1.066   4.010  14.232  0.0505 -0.3838  0.4572
  510MPD2    C5 7579   0.931   3.991  14.237  0.4599 -0.2344  0.7963
  510MPD2     H 7580   1.158   3.841  14.504  0.6710 -1.3620 -2.2296
  510MPD2    H1 7581   1.107   4.077  14.157 -1.0780  2.6747  2.5813
  510MPD2    H2 7582   0.774   3.895  14.332  0.2909  1.6866  0.1977
  510MPD2    H3 7583   0.868   4.044  14.167 -2.2678  0.6878  3.9426
  510MPD2     N 7584   1.294   3.958  14.312 -0.7241 -0.6556 -0.0133
  510MPD2    H5 7585   1.342   3.913  14.389 -1.5964 -2.1044 -0.3215
  510MPD2    N1 7586   0.900   3.786  14.546  0.1428  0.5274  0.1546
  510MPD2    H7 7587   0.810   3.746  14.523  0.1946  1.1930 -1.2373
  511TMC3    C1 7588   0.857   3.689  14.756  0.1937 -0.1392  0.1801
  511TMC3    C2 7589   0.835   3.736  14.885 -0.4526 -0.1495 -0.1215
  511TMC3    C3 7590   0.753   3.666  14.964 -0.0003  0.2029  0.3362
  511TMC3    C4 7591   0.785   3.581  14.704  0.3416  0.0889 -0.3196
  511TMC3    C5 7592   0.709   3.509  14.796  0.3932  0.1083  0.3240
  511TMC3    C6 7593   0.694   3.547  14.927  0.9916 -0.2069 -0.5235
  511TMC3     C 7594   0.955   3.750  14.669  0.1789 -0.4186  0.0827
  511TMC3     O 7595   1.046   3.800  14.730  0.2390  0.3267 -0.1803
  511TMC3     H 7596   0.892   3.818  14.927 -1.6659  1.0026 -0.7016
  511TMC3    H1 7597   0.806   3.547  14.603 -0.8400 -0.1941 -0.4682
  511TMC3    H2 7598   0.620   3.490  14.983  2.4419 -3.9413 -2.4802
  511TMC3    C7 7599   0.616   3.415  14.735  0.0682  0.2380 -0.4048
  511TMC3    C8 7600   0.720   3.709  15.094 -0.5647 -0.1368  0.0378
  511TMC3    O1 7601   0.604   3.427  14.615 -0.1561  0.3429 -0.9366
  511TMC3    O2 7602   0.735   3.821  15.130 -0.7002  0.0254 -0.0741
  512TMC3    C1 7603   4.136   4.094  13.333 -0.1333  0.4174  0.6396
  512TMC3    C2 7604   4.276   4.079  13.331  0.3679 -0.2379 -0.6965
  512TMC3    C3 7605   4.329   3.961  13.287 -0.1560 -0.2236 -0.0354
  512TMC3    C4 7606   4.052   3.991  13.299 -0.1407  0.0572 -0.3080
  512TMC3    C5 7607   4.110   3.879  13.257  0.1671  0.3701 -0.1967
  512TMC3    C6 7608   4.246   3.858  13.247 -0.0671  0.2386  0.3906
  512TMC3     C 7609   4.071   4.220  13.319 -0.5844 -0.1808  0.0870
  512TMC3     O 7610   3.967   4.224  13.246  0.1616  0.3524  0.3045
  512TMC3     H 7611   4.345   4.162  13.349  0.6913 -0.6578  0.0230
  512TMC3    H1 7612   3.946   3.998  13.318 -0.4961 -2.6020 -1.2419
  512TMC3    H2 7613   4.292   3.762  13.230 -3.2999 -0.6938 -2.9994
  512TMC3    C7 7614   4.013   3.782  13.218 -0.3175  0.8040  0.1899
  512TMC3    C8 7615   4.464   3.929  13.321  0.5454  0.0884  0.2015
  512TMC3    O1 7616   3.909   3.828  13.175 -0.6398  0.1679 -0.0583
  512TMC3    O2 7617   4.513   3.830  13.268 -0.5955 -0.3433  0.4287
  513MPD2     C 7618   1.290   3.338  13.418  0.2346 -0.4180  0.3712
  513MPD2    C1 7619   1.313   3.203  13.429 -0.2705  0.5499 -0.3016
  513MPD2    C2 7620   1.374   3.146  13.544 -0.0359 -0.0696 -0.5046
  513MPD2    C3 7621   1.417   3.234  13.646 -0.0930  0.7470  0.6174
  513MPD2    C4 7622   1.376   3.358  13.645  0.1397  0.1342  0.3096
  513MPD2    C5 7623   1.306   3.410  13.536  0.1540  0.4766  0.0538
  513MPD2     H 7624   1.424   3.050  13.537 -1.7801 -1.0485  0.4323
  513MPD2    H1 7625   1.381   3.418  13.736 -2.5396  0.0864  0.5102
  513MPD2    H2 7626   1.244   3.388  13.334  2.1906  0.3151 -0.2746
  513MPD2    H3 7627   1.262   3.509  13.546 -0.7361 -0.1808  2.5140
  513MPD2     N 7628   1.484   3.165  13.751  0.8492 -0.2486  0.0870
  513MPD2    H5 7629   1.484   3.064  13.760  0.9917 -0.4402 -2.1256
  513MPD2    N1 7630   1.291   3.124  13.316  0.3447 -0.4041 -0.2781
  513MPD2    H7 7631   1.290   3.173  13.227  0.5606  1.3601  0.6995
  514TMC3    C1 7632   1.302   2.920  13.190  0.1654 -0.5913 -0.1358
  514TMC3    C2 7633   1.354   3.001  13.096 -0.0045  0.0970 -0.0229
  514TMC3    C3 7634   1.473   2.965  13.036 -0.0763 -0.6337  0.4763
  514TMC3    C4 7635   1.358   2.799  13.213 -0.4962  0.2241  0.0099
  514TMC3    C5 7636   1.488   2.779  13.177  0.0718 -0.1846 -0.6967
  514TMC3    C6 7637   1.544   2.856  13.080  0.3539  0.4574  0.6238
  514TMC3     C 7638   1.288   2.984  13.323 -0.0478  0.1708  0.7445
  514TMC3     O 7639   1.258   2.918  13.425  0.9304 -0.5738  0.0337
  514TMC3     H 7640   1.304   3.096  13.077  0.0447  0.0900 -0.1863
  514TMC3    H1 7641   1.305   2.728  13.275  1.0116  0.5278  1.6367
  514TMC3    H2 7642   1.647   2.851  13.048  0.1134 -1.2542  0.1017
  514TMC3    C7 7643   1.572   2.746  13.294  0.1464 -0.3877 -0.6247
  514TMC3    C8 7644   1.516   3.021  12.914 -0.0075  1.1822 -0.4885
  514TMC3    O1 7645   1.516   2.735  13.403  0.1952 -0.5288 -0.4225
  514TMC3    O2 7646   1.635   3.021  12.886  0.1212  0.0752 -0.0465
  515MPD2     C 7647   4.388   0.656  14.864  0.5057 -0.4734 -0.0219
  515MPD2    C1 7648   4.446   0.532  14.863  0.4488  0.0402  0.2434
  515MPD2    C2 7649   4.570   0.509  14.917 -0.3456  0.0434  0.5375
  515MPD2    C3 7650   4.641   0.609  14.977 -0.4160  0.9424 -0.0297
  515MPD2    C4 7651   4.588   0.737  14.972  0.1578 -0.0126 -0.5057
  515MPD2    C5 7652   4.465   0.757  14.911  0.3745  0.2246 -0.9097
  515MPD2     H 7653   4.620   0.413  14.905  0.6162  0.7296 -0.9235
  515MPD2    H1 7654   4.637   0.823  15.017  0.5918 -1.2050  1.3118
  515MPD2    H2 7655   4.297   0.684  14.812  0.6633 -0.1691 -0.1319
  515MPD2    H3 7656   4.426   0.858  14.915  0.4839  0.2336 -0.0602
  515MPD2     N 7657   0.043   0.599  15.042 -0.2339  0.3096 -0.1687
  515MPD2    H5 7658   0.077   0.688  15.079  1.0645 -1.0343  1.8613
  515MPD2    N1 7659   4.390   0.414  14.797 -0.1329  0.2875  0.5383
  515MPD2    H7 7660   4.447   0.330  14.798  0.6438  0.8099  0.7213
  516TMC3    C1 7661   4.245   0.296  14.660 -0.4210 -0.1006 -0.3857
  516TMC3    C2 7662   4.170   0.309  14.546  0.0999 -0.4610  0.5602
  516TMC3    C3 7663   4.149   0.195  14.470 -0.9284 -0.5551  0.0134
  516TMC3    C4 7664   4.307   0.176  14.692 -0.1118 -0.1292 -0.2643
  516TMC3    C5 7665   4.275   0.066  14.616 -0.7710 -0.1039 -0.4171
  516TMC3    C6 7666   4.198   0.073  14.506 -0.6215  0.5742  0.7159
  516TMC3     C 7667   4.271   0.416  14.733  0.5484  0.3139  0.2533
  516TMC3     O 7668   4.192   0.508  14.717  0.1823  0.3778  0.4645
  516TMC3     H 7669   4.132   0.406  14.514 -1.5813 -1.1326  0.5370
  516TMC3    H1 7670   4.364   0.166  14.783  0.0706 -0.1511 -0.3816
  516TMC3    H2 7671   4.172   4.707  14.456  0.1250  0.2644  0.8932
  516TMC3    C7 7672   4.283   4.672  14.678  0.4065 -0.4266 -0.0178
  516TMC3    C8 7673   4.086   0.195  14.340 -0.4497 -0.1555 -0.3811
  516TMC3    O1 7674   4.383   4.657  14.749  0.3309 -0.2213 -0.5971
  516TMC3    O2 7675   4.053   0.087  14.294 -0.0875 -0.2171  0.5258
  517MPD2     C 7676   3.939   2.076  17.254  0.1386  0.0653  1.2318
  517MPD2    C1 7677   4.050   2.044  17.324  0.3007  0.3872 -0.8493
  517MPD2    C2 7678   4.088   2.127  17.426 -0.2191 -0.6590  0.0803
  517MPD2    C3 7679   4.011   2.229  17.466  0.5617  0.3732  0.8511
  517MPD2    C4 7680   3.896   2.261  17.401  0.0339 -0.3546 -0.3990
  517MPD2    C5 7681   3.861   2.181  17.292  0.0524 -0.0608 -0.1663
  517MPD2     H 7682   4.182   2.111  17.477 -0.5524  0.4531  1.0450
  517MPD2    H1 7683   3.835   2.345  17.432 -0.3945 -0.4753 -0.9357
  517MPD2    H2 7684   3.905   2.036  17.159  0.4071  0.4107  0.9917
  517MPD2    H3 7685   3.774   2.218  17.238  1.3302  0.0176 -2.1806
  517MPD2     N 7686   4.039   2.292  17.587  0.5630 -0.3949  0.2810
  517MPD2    H5 7687   3.964   2.336  17.640  0.1225  0.0115 -0.6809
  517MPD2    N1 7688   4.143   1.943  17.290  0.0197  0.3300 -0.3983
  517MPD2    H7 7689   4.231   1.931  17.339 -0.3837  0.7052  0.4080
  518TMC3    C1 7690   4.204   1.722  17.221 -0.5515 -0.3292 -0.4086
  518TMC3    C2 7691   4.161   1.590  17.198 -0.3226  0.6985 -0.0375
  518TMC3    C3 7692   4.246   1.485  17.179 -0.0094 -0.1780 -0.3821
  518TMC3    C4 7693   4.337   1.745  17.233  0.2286  0.4437 -0.1599
  518TMC3    C5 7694   4.426   1.639  17.219 -0.2651 -0.2343  0.0870
  518TMC3    C6 7695   4.377   1.513  17.187  0.0501  0.5960  0.6500
  518TMC3     C 7696   4.104   1.829  17.220 -0.2043  0.4816  0.6499
  518TMC3     O 7697   3.990   1.800  17.181  0.1038 -0.2187  0.0643
  518TMC3     H 7698   4.055   1.579  17.179 -0.1483 -0.9839  0.0221
  518TMC3    H1 7699   4.371   1.846  17.256 -3.0406  1.7416 -0.9617
  518TMC3    H2 7700   4.451   1.434  17.185  1.3375  1.8643 -2.5141
  518TMC3    C7 7701   4.566   1.668  17.260 -0.5241 -0.3848  0.0125
  518TMC3    C8 7702   4.199   1.353  17.211 -0.0277  0.4670 -0.0874
  518TMC3    O1 7703   4.590   1.780  17.305 -0.2589 -0.0820 -0.3290
  518TMC3    O2 7704   4.291   1.277  17.208 -0.3552  0.5369 -0.4805
  519MPD2     C 7705   1.259   0.879  13.950 -0.9581 -0.3453  0.5015
  519MPD2    C1 7706   1.263   0.775  14.035  0.1158  0.1393 -0.2579
  519MPD2    C2 7707   1.353   0.670  14.018 -0.1585  0.1503 -0.4027
  519MPD2    C3 7708   1.428   0.671  13.895 -0.3980 -0.1239 -0.6164
  519MPD2    C4 7709   1.417   0.777  13.805  0.2771 -0.5880 -0.2758
  519MPD2    C5 7710   1.332   0.880  13.836  0.6065  0.1855  0.1194
  519MPD2     H 7711   1.347   0.583  14.082  0.3831  2.2465  2.4887
  519MPD2    H1 7712   1.469   0.774  13.710 -0.1924 -0.6401 -0.5301
  519MPD2    H2 7713   1.185   0.958  13.956 -0.7108  0.0035 -0.8768
  519MPD2    H3 7714   1.332   0.970  13.775 -0.3766 -0.0792 -0.2835
  519MPD2     N 7715   1.501   0.558  13.847 -0.5365  0.4614  0.6775
  519MPD2    H5 7716   1.533   0.558  13.751  1.1942 -3.0160  1.2744
  519MPD2    N1 7717   1.168   0.781  14.140 -0.1610  0.1912  0.1689
  519MPD2    H7 7718   1.108   0.862  14.137 -2.4265 -1.5383 -1.9045
  520TMC3    C1 7719   1.511   0.333  13.803  0.2154  0.6361  0.7708
  520TMC3    C2 7720   1.433   0.346  13.688  0.4632  0.3295 -0.6554
  520TMC3    C3 7721   1.426   0.241  13.598 -0.4968 -0.9755  0.0278
  520TMC3    C4 7722   1.556   0.215  13.835  0.0275  0.4114 -0.4703
  520TMC3    C5 7723   1.539   0.108  13.751  0.2984 -0.4999  0.4524
  520TMC3    C6 7724   1.481   0.118  13.631  0.0025 -0.1102 -0.3929
  520TMC3     C 7725   1.514   0.434  13.908 -0.7294 -0.0528  0.6563
  520TMC3     O 7726   1.504   0.412  14.026  0.3912  0.2423  0.4695
  520TMC3     H 7727   1.378   0.436  13.665 -1.7801 -1.2174 -1.3413
  520TMC3    H1 7728   1.625   0.210  13.918  0.3220 -2.0212 -0.8511
  520TMC3    H2 7729   1.459   0.038  13.562  0.1436 -0.9772  0.5793
  520TMC3    C7 7730   1.609   4.712  13.794 -0.1539  0.6731  0.2921
  520TMC3    C8 7731   1.298   0.236  13.542 -0.5130  0.3848  0.1481
  520TMC3    O1 7732   1.609   4.682  13.916  0.5127  0.0462  0.2068
  520TMC3    O2 7733   1.288   0.164  13.440  0.6765 -0.1491 -0.0853
  521MPD2     C 7734   1.939   3.159   0.039 -0.5152  0.1738 -0.0861
  521MPD2    C1 7735   1.924   3.069  17.638 -0.0883 -0.8704  0.3725
  521MPD2    C2 7736   2.025   3.050  17.540  0.7412 -0.3387  0.3870
  521MPD2    C3 7737   2.125   3.139  17.536  0.1701 -0.3001  0.1296
  521MPD2    C4 7738   2.139   3.238  17.630 -0.1036  0.7212 -0.1016
  521MPD2    C5 7739   2.046   3.248   0.026 -0.1050  0.2621  0.1859
  521MPD2     H 7740   2.026   2.962  17.477  0.3470 -0.0545 -0.0188
  521MPD2    H1 7741   2.229   3.298  17.634  0.1856  0.1275  2.6589
  521MPD2    H2 7742   1.870   3.173   0.121 -0.1065  4.3114 -0.4423
  521MPD2    H3 7743   2.072   3.325   0.098 -1.0633  0.9635 -0.2077
  521MPD2     N 7744   2.227   3.108  17.439  0.1848 -0.5294  0.4208
  521MPD2    H5 7745   2.201   3.034  17.373  0.0448 -1.3287  1.3734
  521MPD2    N1 7746   1.819   2.979  17.632 -0.0432  0.0904 -0.1246
  521MPD2    H7 7747   1.752   2.984   0.003 -1.3258  1.5853 -1.3584
  522TMC3    C1 7748   2.410   3.086  17.306 -0.3490 -0.4412  0.1719
  522TMC3    C2 7749   2.517   3.137  17.243 -0.2901  0.0401 -0.4874
  522TMC3    C3 7750   2.588   3.049  17.158 -0.5570  0.4323 -0.2743
  522TMC3    C4 7751   2.376   2.955  17.297  0.0166  0.5434  0.3168
  522TMC3    C5 7752   2.443   2.872  17.214  0.2314 -0.0137 -0.4251
  522TMC3    C6 7753   2.548   2.919  17.146 -0.5617 -0.4945  0.0455
  522TMC3     C 7754   2.342   3.168  17.404  0.0102  0.2548  0.1344
  522TMC3     O 7755   2.394   3.269  17.439  0.1851  0.5323 -0.1164
  522TMC3     H 7756   2.541   3.242  17.255  0.5237 -0.2362  0.3377
  522TMC3    H1 7757   2.291   2.914  17.350  1.0481 -1.0031  0.7810
  522TMC3    H2 7758   2.598   2.843  17.087  0.2387  0.5908 -0.6715
  522TMC3    C7 7759   2.398   2.745  17.172  0.3516  0.2887 -1.0340
  522TMC3    C8 7760   2.729   3.081  17.111  0.5532 -0.7737  0.2374
  522TMC3    O1 7761   2.482   2.661  17.145 -0.7015 -0.1484 -0.2429
  522TMC3    O2 7762   2.784   3.182  17.155  0.1997 -0.0491 -0.2265
  523MPD2     C 7763   4.435   2.945  10.043  0.2854 -0.1995  0.6203
  523MPD2    C1 7764   4.358   2.857   9.971 -0.7808  0.1624  0.1604
  523MPD2    C2 7765   4.244   2.897   9.904 -0.6926 -0.7520  0.5143
  523MPD2    C3 7766   4.201   3.030   9.919 -0.5689 -0.5540 -1.0271
  523MPD2    C4 7767   4.288   3.117   9.989 -0.2992  0.7210  0.1064
  523MPD2    C5 7768   4.404   3.076  10.038 -0.4324  0.4520 -0.0312
  523MPD2     H 7769   4.181   2.821   9.859 -2.2594  0.0283  1.4114
  523MPD2    H1 7770   4.260   3.221  10.006  1.8256  1.1150  1.1949
  523MPD2    H2 7771   4.532   2.910  10.078  1.1097  0.7816 -0.6579
  523MPD2    H3 7772   4.472   3.150  10.079  2.7144 -1.1124 -2.4572
  523MPD2     N 7773   4.079   3.078   9.879  0.3470  1.1313  0.4820
  523MPD2    H5 7774   4.065   3.176   9.901  2.1388  1.5905 -0.4719
  523MPD2    N1 7775   4.409   2.723   9.969 -0.1692  0.0065  0.2101
  523MPD2    H7 7776   4.491   2.714  10.027  0.5513  1.1936 -0.6240
  524TMC3    C1 7777   3.870   3.105   9.785 -0.5845  0.6962 -0.0365
  524TMC3    C2 7778   3.807   3.104   9.668  1.0119 -0.4635 -0.0948
  524TMC3    C3 7779   3.731   3.216   9.651  0.1087 -0.0266 -0.5461
  524TMC3    C4 7780   3.858   3.201   9.876 -0.3006 -0.7814 -0.5519
  524TMC3    C5 7781   3.773   3.304   9.859  0.0878 -0.9308  0.1737
  524TMC3    C6 7782   3.716   3.319   9.738  0.0434 -0.3260 -0.4084
  524TMC3     C 7783   3.987   3.022   9.794 -0.4330  0.0427 -0.1362
  524TMC3     O 7784   3.990   2.914   9.736 -0.4701  0.2169 -0.2598
  524TMC3     H 7785   3.829   3.047   9.578 -1.5768 -0.7764 -0.5269
  524TMC3    H1 7786   3.904   3.185   9.972 -1.3171  0.3184  0.1167
  524TMC3    H2 7787   3.651   3.403   9.713  0.9233  0.6812  0.6772
  524TMC3    C7 7788   3.756   3.402   9.964 -0.0477 -0.6807  0.4022
  524TMC3    C8 7789   3.644   3.213   9.538  0.0625 -0.2171 -0.3260
  524TMC3    O1 7790   3.774   3.356  10.075 -0.3108 -1.0173 -0.0527
  524TMC3    O2 7791   3.665   3.121   9.457  0.0983  0.2473  0.0460
  525MPD2     C 7792   2.434   4.491  14.244  0.2459  0.2144  0.4903
  525MPD2    C1 7793   2.538   4.541  14.323 -0.2202  0.0082 -0.4540
  525MPD2    C2 7794   2.605   4.655  14.283  0.6510  0.9678  0.0209
  525MPD2    C3 7795   2.560   0.001  14.169  0.0802  0.2082  0.0925
  525MPD2    C4 7796   2.461   4.673  14.094 -0.4029 -0.3945 -0.7048
  525MPD2    C5 7797   2.404   4.556  14.127  0.1364 -0.0500 -0.4756
  525MPD2     H 7798   2.682   4.701  14.345  0.7797  2.4281 -1.2231
  525MPD2    H1 7799   2.431   0.000  14.004  0.0964  0.1904 -0.5243
  525MPD2    H2 7800   2.390   4.393  14.261  1.1689 -0.5380 -1.3954
  525MPD2    H3 7801   2.328   4.517  14.061  0.4629  1.8706 -1.9588
  525MPD2     N 7802   2.615   0.127  14.149  0.1113 -0.6732 -0.1505
  525MPD2    H5 7803   2.689   0.146  14.216  0.6396  0.9047 -1.1602
  525MPD2    N1 7804   2.578   4.465  14.434 -0.1477  0.1463  0.1083
  525MPD2    H7 7805   2.654   4.498  14.493  1.1066 -0.2334 -1.2835
  526TMC3    C1 7806   2.607   4.308  14.587  0.1001 -0.3388 -0.2861
  526TMC3    C2 7807   2.531   4.265  14.696  0.4174  0.1378 -0.1925
  526TMC3    C3 7808   2.595   4.230  14.806  0.4757 -0.3880  0.0064
  526TMC3    C4 7809   2.747   4.315  14.577 -0.1691 -0.0094  0.0507
  526TMC3    C5 7810   2.812   4.277  14.696 -0.2197 -0.1047 -0.5476
  526TMC3    C6 7811   2.735   4.236  14.805  0.0606 -0.2422  0.5261
  526TMC3     C 7812   2.521   4.356  14.481 -0.2842  0.8534 -0.5920
  526TMC3     O 7813   2.406   4.322  14.469  0.4180 -0.6036 -0.4227
  526TMC3     H 7814   2.424   4.285  14.691  0.3085  0.0487  1.7781
  526TMC3    H1 7815   2.784   4.337  14.478 -0.6662 -1.8854 -0.5426
  526TMC3    H2 7816   2.782   4.197  14.894  4.0592  0.2324 -1.3825
  526TMC3    C7 7817   2.946   4.215  14.689  0.1144  0.1011  0.0843
  526TMC3    C8 7818   2.532   4.238  14.942  0.8598  0.3915 -0.2512
  526TMC3    O1 7819   2.980   4.125  14.770 -0.3135 -0.6347  0.0658
  526TMC3    O2 7820   2.607   4.200  15.034  0.3501  0.4326  0.1178
  527MPD2     C 7821   0.266   2.879   1.280  0.4451 -0.3625  0.2043
  527MPD2    C1 7822   0.369   2.803   1.337 -0.1895  0.1299 -0.1039
  527MPD2    C2 7823   0.462   2.749   1.251 -0.2554  0.6307 -0.0334
  527MPD2    C3 7824   0.451   2.750   1.110 -0.0019 -0.2722  0.1272
  527MPD2    C4 7825   0.359   2.843   1.062  0.5385 -0.8891  0.1058
  527MPD2    C5 7826   0.269   2.910   1.143 -0.8915  0.0131 -0.5538
  527MPD2     H 7827   0.544   2.697   1.301 -0.4053 -0.1043 -0.5569
  527MPD2    H1 7828   0.363   2.874   0.958 -1.1876  0.2352  0.3622
  527MPD2    H2 7829   0.195   2.933   1.341  1.2610 -0.7240  1.4860
  527MPD2    H3 7830   0.201   2.988   1.109  0.7879  0.6180 -2.5738
  527MPD2     N 7831   0.551   2.689   1.035 -0.0478 -0.2249  0.7049
  527MPD2    H5 7832   0.607   2.625   1.090  1.4811  1.2758  0.8577
  527MPD2    N1 7833   0.371   2.763   1.473  0.2379 -0.2441 -0.3208
  527MPD2    H7 7834   0.452   2.704   1.492 -0.5872 -0.6299  2.0693
  528TMC3    C1 7835   0.304   2.757   1.697 -0.9543  0.2615  0.1623
  528TMC3    C2 7836   0.431   2.702   1.722  0.0234  0.2119  0.2896
  528TMC3    C3 7837   0.482   2.701   1.849 -0.4856 -0.3486  0.3059
  528TMC3    C4 7838   0.230   2.809   1.797 -0.0210  0.0747  0.2484
  528TMC3    C5 7839   0.282   2.808   1.924  0.2784 -0.4031  0.3267
  528TMC3    C6 7840   0.414   2.760   1.949 -0.2071 -0.1807  0.2638
  528TMC3     C 7841   0.270   2.794   1.564  0.2412 -0.3468  0.2656
  528TMC3     O 7842   0.159   2.846   1.552 -0.0535  0.1682  0.0924
  528TMC3     H 7843   0.489   2.645   1.650 -1.5798 -0.2160 -0.6518
  528TMC3    H1 7844   0.131   2.850   1.786  1.1163  2.4296 -1.3395
  528TMC3    H2 7845   0.464   2.760   2.044 -2.0886 -1.2868  1.2581
  528TMC3    C7 7846   0.183   2.850   2.030 -0.0524  0.2091 -0.0083
  528TMC3    C8 7847   0.613   2.633   1.857 -0.1954  0.1973  0.0096
  528TMC3    O1 7848   0.082   2.911   1.999 -0.2083 -0.5590  0.2772
  528TMC3    O2 7849   0.681   2.619   1.753 -0.1417 -0.1073 -0.3031
  529MPD2     C 7850   2.617   1.050   1.295  0.1379  0.3106  0.6397
  529MPD2    C1 7851   2.684   0.960   1.217  0.5128  0.5030 -0.6366
  529MPD2    C2 7852   2.663   0.948   1.082 -0.1773  0.3258  0.0518
  529MPD2    C3 7853   2.571   1.037   1.022  0.4505  0.3205 -0.7836
  529MPD2    C4 7854   2.505   1.132   1.097  0.0252 -0.4200  0.5395
  529MPD2    C5 7855   2.524   1.131   1.233  0.1177 -0.9403 -0.1350
  529MPD2     H 7856   2.716   0.872   1.026 -1.0765  0.2324 -0.6746
  529MPD2    H1 7857   2.443   1.210   1.056 -1.0516 -0.7552  1.5240
  529MPD2    H2 7858   2.626   1.065   1.402 -1.7919 -2.1954  1.1631
  529MPD2    H3 7859   2.477   1.219   1.275 -1.1121 -0.9249 -1.5217
  529MPD2     N 7860   2.555   1.056   0.886  0.6832  0.2144  0.3161
  529MPD2    H5 7861   2.525   1.149   0.859 -0.4019  0.0981  1.0951
  529MPD2    N1 7862   2.781   0.878   1.276  1.0489  0.5643 -0.1572
  529MPD2    H7 7863   2.819   0.805   1.217 -1.4187 -1.2682  0.5046
  530TMC3    C1 7864   2.920   0.774   1.445  0.3989 -0.5299  0.4996
  530TMC3    C2 7865   3.003   0.812   1.545  0.0340 -0.6800 -0.0866
  530TMC3    C3 7866   3.080   0.715   1.599  0.0422  0.3290  0.3214
  530TMC3    C4 7867   2.899   0.642   1.407  0.5479  0.6439 -0.1430
  530TMC3    C5 7868   2.992   0.554   1.459  0.1392  0.5671  0.7102
  530TMC3    C6 7869   3.085   0.588   1.556 -0.4604  0.1867  0.2129
  530TMC3     C 7870   2.818   0.869   1.413 -0.6396  0.9901 -0.3266
  530TMC3     O 7871   2.786   0.945   1.506  0.5820  0.0250  0.4058
  530TMC3     H 7872   3.014   0.918   1.562  4.7499 -1.3762  1.3140
  530TMC3    H1 7873   2.833   0.611   1.326  1.3513  0.3905 -0.6921
  530TMC3    H2 7874   3.152   0.517   1.603  0.4853  0.4505 -0.7315
  530TMC3    C7 7875   2.969   0.414   1.425 -0.0708 -0.1763 -0.3148
  530TMC3    C8 7876   3.173   0.755   1.708  0.4070 -0.4113  0.5941
  530TMC3    O1 7877   3.061   0.336   1.402 -0.2958 -0.1262 -0.0111
  530TMC3    O2 7878   3.120   0.810   1.805 -0.7850  0.1781 -0.2904
  531MPD2     C 7879   1.983   2.700  13.564 -0.6836 -0.0634 -0.2739
  531MPD2    C1 7880   1.874   2.775  13.580  0.1646  0.6263 -0.4249
  531MPD2    C2 7881   1.781   2.779  13.481 -0.2982  0.4388  0.0605
  531MPD2    C3 7882   1.792   2.703  13.364  0.0588  0.7967 -0.2353
  531MPD2    C4 7883   1.909   2.637  13.337  0.2829 -0.1293 -0.6095
  531MPD2    C5 7884   2.005   2.636  13.440  0.7046 -0.1762  1.1543
  531MPD2     H 7885   1.697   2.846  13.491 -0.0820  0.2483  3.0757
  531MPD2    H1 7886   1.927   2.577  13.249 -0.9600 -2.6835  0.8831
  531MPD2    H2 7887   2.063   2.694  13.637 -0.5043 -2.8829 -0.7019
  531MPD2    H3 7888   2.101   2.591  13.423  0.5645  0.0227 -0.1840
  531MPD2     N 7889   1.701   2.719  13.257  0.0453  0.1679  0.2047
  531MPD2    H5 7890   1.722   2.696  13.160  0.0282 -1.0169  0.4792
  531MPD2    N1 7891   1.858   2.843  13.705 -0.3548  0.5569  0.3170
  531MPD2    H7 7892   1.940   2.844  13.763 -1.4597  0.8321  1.8709
  532TMC3    C1 7893   1.747   2.980  13.874 -0.1925  0.2466  0.2743
  532TMC3    C2 7894   1.625   3.025  13.915 -0.4204 -0.6600 -0.5978
  532TMC3    C3 7895   1.613   3.154  13.947  0.0929  0.1029  0.0949
  532TMC3    C4 7896   1.865   3.046  13.893 -0.0103  0.7311  0.0448
  532TMC3    C5 7897   1.846   3.161  13.969 -0.1000 -0.0805 -0.4116
  532TMC3    C6 7898   1.725   3.217  13.996  0.2186 -0.3767 -0.4191
  532TMC3     C 7899   1.738   2.897  13.754  0.2586 -0.3239 -0.5941
  532TMC3     O 7900   1.625   2.890  13.705  0.3248 -0.2139 -0.5250
  532TMC3     H 7901   1.536   2.965  13.903  0.0325 -2.1875  3.8407
  532TMC3    H1 7902   1.957   3.011  13.848 -0.5885 -0.4324 -0.2545
  532TMC3    H2 7903   1.718   3.320  14.030 -0.0865 -1.3540  2.4278
  532TMC3    C7 7904   1.946   3.178  14.072 -0.1029  0.1577 -0.2424
  532TMC3    C8 7905   1.536   3.237  13.857  0.3848  1.0250  0.0284
  532TMC3    O1 7906   1.943   3.271  14.150  0.2731 -0.5259  0.0291
  532TMC3    O2 7907   1.545   3.356  13.877  0.2762 -0.6040  0.2685
  533TMC3    C1 7908   2.615   0.353  14.127 -0.3948  0.3950  0.2527
  533TMC3    C2 7909   2.745   0.390  14.101  0.4292 -0.4871 -0.6182
  533TMC3    C3 7910   2.810   0.477  14.185 -0.3595  0.1376 -0.2318
  533TMC3    C4 7911   2.562   0.404  14.236 -0.0574  0.5896 -0.5234
  533TMC3    C5 7912   2.628   0.491  14.322 -0.0126 -0.4027 -0.2551
  533TMC3    C6 7913   2.753   0.534  14.295  0.1795  0.6482 -0.8908
  533TMC3     C 7914   2.558   0.228  14.080 -0.8665  0.0311 -0.0878
  533TMC3     O 7915   2.465   0.217  14.003 -0.4279  0.3362 -0.3104
  533TMC3     H 7916   2.804   0.344  14.022  0.4248 -2.0010  0.2773
  533TMC3    H1 7917   2.457   0.381  14.253  0.5335 -1.0334  0.8326
  533TMC3    H2 7918   2.823   0.570  14.370  0.8628 -0.5048 -0.9785
  533TMC3    C7 7919   2.589   0.477  14.458 -0.2683  0.4377 -0.7630
  533TMC3    C8 7920   2.957   0.491  14.169 -0.1380  0.1273  0.1131
  533TMC3    O1 7921   2.531   0.373  14.485  0.1378 -0.1122 -0.1158
  533TMC3    O2 7922   3.032   0.522  14.266 -0.4425 -0.0417 -0.1849
  534MPD2     C 7923   4.447   2.085   1.437 -0.5220 -0.0464  0.5341
  534MPD2    C1 7924   4.579   2.077   1.412  0.6193 -0.5086  0.1016
  534MPD2    C2 7925   4.633   1.950   1.402 -0.7556 -0.0202 -0.7241
  534MPD2    C3 7926   4.563   1.835   1.409 -0.3786 -0.2446 -0.1148
  534MPD2    C4 7927   4.429   1.841   1.434  0.0053 -0.5838 -0.0314
  534MPD2    C5 7928   4.374   1.966   1.447 -0.7508 -0.2109 -0.6446
  534MPD2     H 7929   0.012   1.943   1.378 -0.9491 -1.3131 -1.2200
  534MPD2    H1 7930   4.366   1.756   1.456  2.1095 -2.0098  0.4709
  534MPD2    H2 7931   4.401   2.183   1.446  1.2094  0.7741  0.5294
  534MPD2    H3 7932   4.269   1.977   1.468 -0.2351  0.0776  1.8001
  534MPD2     N 7933   4.615   1.703   1.400  0.1678 -0.3183 -0.3756
  534MPD2    H5 7934   4.554   1.625   1.423  1.1010 -0.8854  0.1269
  534MPD2    N1 7935   4.658   2.194   1.393 -0.3505  0.2358  0.0491
  534MPD2    H7 7936   0.032   2.184   1.398 -0.4305 -0.9596 -0.6653
  535TMC3    C1 7937   0.037   1.524   1.352 -0.2321 -0.3832 -0.2535
  535TMC3    C2 7938   4.676   1.454   1.430  0.2350 -0.1503 -0.3417
  535TMC3    C3 7939   4.656   1.322   1.391 -0.1866  0.8286  0.0981
  535TMC3    C4 7940   0.117   1.473   1.250  0.7439  0.8306  0.5913
  535TMC3    C5 7941   0.078   1.342   1.213 -0.4891  0.0368 -0.6104
  535TMC3    C6 7942   4.718   1.263   1.284  0.1877 -0.4103  0.2091
  535TMC3     C 7943   0.017   1.672   1.348  0.5847 -0.7154 -0.8869
  535TMC3     O 7944   0.086   1.744   1.282  0.0888  0.0882  0.1802
  535TMC3     H 7945   4.629   1.493   1.519 -0.9359 -0.7780 -0.6768
  535TMC3    H1 7946   0.186   1.531   1.188  0.3725  0.6777  0.0356
  535TMC3    H2 7947   4.689   1.163   1.256 -1.7305  0.4124 -0.7174
  535TMC3    C7 7948   0.163   1.281   1.116  0.1447  0.2002 -0.2262
  535TMC3    C8 7949   4.562   1.235   1.463 -0.5312  0.4842  0.2315
  535TMC3    O1 7950   0.275   1.329   1.090 -0.2107 -0.0110  0.3084
  535TMC3    O2 7951   4.507   1.147   1.396  0.2557 -0.6700  0.1675
  536MPD2     C 7952   4.176   4.332  16.378 -0.1943 -0.6926 -1.0292
  536MPD2    C1 7953   4.071   4.298  16.462  0.5334 -0.3206  0.1224
  536MPD2    C2 7954   3.944   4.297  16.413  0.0232 -0.0001 -0.3163
  536MPD2    C3 7955   3.921   4.330  16.276 -0.2735 -0.1077 -0.2588
  536MPD2    C4 7956   4.029   4.381  16.211 -0.0703 -0.5077 -0.7070
  536MPD2    C5 7957   4.156   4.381  16.257  0.0298 -0.0061  0.5247
  536MPD2     H 7958   3.867   4.258  16.479 -1.3274  0.8862 -1.3672
  536MPD2    H1 7959   4.027   4.430  16.114 -1.7989  1.6632  0.4131
  536MPD2    H2 7960   4.278   4.338  16.415 -0.0840 -0.8819 -1.3032
  536MPD2    H3 7961   4.238   4.424  16.200 -0.4507 -1.7048 -1.4372
  536MPD2     N 7962   3.800   4.325  16.209  0.1426  0.1646  0.1290
  536MPD2    H5 7963   3.802   4.355  16.112  1.3461 -0.8328 -0.1463
  536MPD2    N1 7964   4.102   4.296  16.602 -0.1001  0.3908  0.9919
  536MPD2    H7 7965   4.199   4.313  16.626  0.5084  0.3797 -1.4595
  537TMC3    C1 7966   4.070   4.284  16.837  0.1883 -0.1313 -0.4808
  537TMC3    C2 7967   4.189   4.352  16.861  0.0102  0.2558  0.0853
  537TMC3    C3 7968   4.251   4.324  16.977  0.2377  0.8230 -0.1995
  537TMC3    C4 7969   4.017   4.203  16.936  0.7219 -0.1272 -0.2276
  537TMC3    C5 7970   4.098   4.155  17.041 -0.6880  0.3193  0.1394
  537TMC3    C6 7971   4.212   4.225  17.062 -0.3786  0.5330  0.0813
  537TMC3     C 7972   4.012   4.271  16.701  0.9963  0.9932  0.0292
  537TMC3     O 7973   3.899   4.221  16.685 -0.1844  0.7115 -0.0274
  537TMC3     H 7974   4.231   4.408  16.778 -1.6745 -0.6176 -1.3700
  537TMC3    H1 7975   3.926   4.148  16.915  0.9369  0.4351 -2.6703
  537TMC3    H2 7976   4.276   4.207  17.148 -1.5839 -2.3403  0.3880
  537TMC3    C7 7977   4.039   4.086  17.155 -0.4989  0.3758  0.3410
  537TMC3    C8 7978   4.368   4.399  17.010  0.5452 -0.8522 -0.2893
  537TMC3    O1 7979   3.939   4.140  17.202 -0.1946  0.0229 -0.3739
  537TMC3    O2 7980   4.434   4.370  17.111  0.7213 -0.8399 -0.1935
  538TMC3    C1 7981   0.460   2.736  10.841 -0.7341 -0.0807  0.7702
  538TMC3    C2 7982   0.524   2.620  10.829 -0.1083  0.3985 -0.4404
  538TMC3    C3 7983   0.485   2.533  10.730  0.6131 -0.4245  0.1348
  538TMC3    C4 7984   0.350   2.768  10.770  0.3247 -0.1327 -0.2213
  538TMC3    C5 7985   0.312   2.679  10.670  0.4583 -0.0523  0.0479
  538TMC3    C6 7986   0.380   2.561  10.650 -0.4233  0.4514  0.4785
  538TMC3     C 7987   0.488   2.813  10.959 -0.7523  0.3271 -0.1823
  538TMC3     O 7988   0.391   2.882  10.994 -0.2923 -0.2424 -0.5119
  538TMC3     H 7989   0.601   2.594  10.901  0.7924 -1.6968 -2.1477
  538TMC3    H1 7990   0.308   2.867  10.783 -0.3957 -0.2250 -1.8248
  538TMC3    H2 7991   0.362   2.496  10.565  0.7873  1.0399 -0.2371
  538TMC3    C7 7992   0.220   2.726  10.570 -0.0435 -0.0476  0.0571
  538TMC3    C8 7993   0.582   2.435  10.678  0.6844 -0.0540 -0.1680
  538TMC3    O1 7994   0.168   2.652  10.488  0.1463 -0.1126  0.6399
  538TMC3    O2 7995   0.539   2.327  10.637  0.5512  0.5172 -0.5568
  539MPD2     C 7996   4.573   1.694  11.757  0.1889  0.0210 -0.3963
  539MPD2    C1 7997   4.650   1.774  11.675  0.2332 -0.0043  0.6200
  539MPD2    C2 7998   4.649   1.911  11.711 -0.4137 -0.4888 -0.2441
  539MPD2    C3 7999   4.565   1.962  11.815  0.3063  0.1161 -0.5491
  539MPD2    C4 8000   4.488   1.873  11.884 -0.4821 -0.9735  0.5176
  539MPD2    C5 8001   4.489   1.742  11.852  0.8345  0.0042  0.4957
  539MPD2     H 8002   4.711   1.980  11.655 -2.6762  1.8419  0.0957
  539MPD2    H1 8003   4.426   1.904  11.967 -1.8640 -0.5562 -0.6598
  539MPD2    H2 8004   4.577   1.586  11.763 -0.3221  0.0133 -0.1163
  539MPD2    H3 8005   4.436   1.677  11.920 -0.2286 -1.1185 -1.4255
  539MPD2     N 8006   4.553   2.103  11.842  0.3384  0.3285 -0.3931
  539MPD2    H5 8007   4.500   2.136  11.921  0.1104 -0.3987 -0.2357
  539MPD2    N1 8008   0.018   1.723  11.582 -0.1763  0.0837 -0.0242
  539MPD2    H7 8009   0.083   1.797  11.556  2.4008 -1.3535  2.3147
  540TMC3    C1 8010   4.536   2.321  11.777 -0.7895  1.0104 -0.4891
  540TMC3    C2 8011   4.518   2.391  11.656  0.1460 -0.0608 -0.4175
  540TMC3    C3 8012   4.489   2.522  11.673 -0.2386  0.5381  0.3479
  540TMC3    C4 8013   4.525   2.380  11.904 -0.5009  0.1398 -0.2248
  540TMC3    C5 8014   4.494   2.515  11.910  0.1656  0.0244 -0.0062
  540TMC3    C6 8015   4.467   2.588  11.795  0.5031  0.1156 -0.3425
  540TMC3     C 8016   4.606   2.194  11.761  0.1179  0.6016 -0.3576
  540TMC3     O 8017   4.680   2.194  11.663 -0.4690 -0.3821  0.4155
  540TMC3     H 8018   4.525   2.339  11.561 -1.5383 -1.0797  0.0204
  540TMC3    H1 8019   4.563   2.328  11.992  0.4696  0.9668 -0.1653
  540TMC3    H2 8020   4.446   2.694  11.794  0.3487  0.0879 -0.0157
  540TMC3    C7 8021   4.444   2.550  12.040  0.0367 -0.5780  0.3722
  540TMC3    C8 8022   4.496   2.612  11.559  0.0067 -0.0791 -0.1658
  540TMC3    O1 8023   4.395   2.456  12.099  0.4093 -0.3689 -0.1565
  540TMC3    O2 8024   4.502   2.732  11.583  0.6541  0.8549 -0.1998
  541MPD2     C 8025   3.095   3.048  13.685 -0.1842  0.1607 -0.1381
  541MPD2    C1 8026   2.975   3.101  13.652  0.0116  0.6200 -0.2673
  541MPD2    C2 8027   2.955   3.164  13.535 -0.6491  0.0246  0.0812
  541MPD2    C3 8028   3.060   3.180  13.441 -0.3953  0.4143  0.0452
  541MPD2    C4 8029   3.177   3.119  13.473 -0.2959 -0.5528 -0.1853
  541MPD2    C5 8030   3.189   3.049  13.587  0.3295 -0.6707  0.8198
  541MPD2     H 8031   2.856   3.195  13.503 -1.4144 -0.8206  1.6401
  541MPD2    H1 8032   3.268   3.135  13.417  0.1553 -0.3478  0.6038
  541MPD2    H2 8033   3.110   2.997  13.780 -0.2791 -0.4718 -0.4641
  541MPD2    H3 8034   3.289   3.021  13.618 -0.0661 -1.2761  1.5416
  541MPD2     N 8035   3.054   3.262  13.330 -0.3745 -0.0278  0.0690
  541MPD2    H5 8036   3.135   3.258  13.268 -0.3952 -1.3929  0.1238
  541MPD2    N1 8037   2.879   3.090  13.750 -0.4353  0.8792 -0.2670
  541MPD2    H7 8038   2.917   3.060  13.840 -0.0758 -0.4771 -0.8608
  542TMC3    C1 8039   2.962   3.395  13.171  0.3459 -0.2234 -0.9848
  542TMC3    C2 8040   3.029   3.321  13.070 -0.4199 -0.5423  0.2099
  542TMC3    C3 8041   3.024   3.372  12.938 -0.5864  0.1248  0.6364
  542TMC3    C4 8042   2.902   3.516  13.139  0.5490 -0.1441  0.1741
  542TMC3    C5 8043   2.898   3.562  13.006 -0.3901  0.0708 -0.5802
  542TMC3    C6 8044   2.960   3.485  12.910  0.2134  0.2416 -0.1803
  542TMC3     C 8045   2.947   3.344  13.305  0.2838  0.0931  0.2771
  542TMC3     O 8046   2.844   3.365  13.367  0.4930 -0.0895 -0.3079
  542TMC3     H 8047   3.058   3.221  13.097 -0.1753 -0.3921  0.4997
  542TMC3    H1 8048   2.851   3.578  13.213  0.5860  0.0348  0.0506
  542TMC3    H2 8049   2.971   3.533  12.814  0.9433 -1.0771 -0.7544
  542TMC3    C7 8050   2.871   3.706  12.982 -0.1117 -0.0649  0.4717
  542TMC3    C8 8051   3.074   3.289  12.833  0.3593 -0.2204  0.3583
  542TMC3    O1 8052   2.933   3.764  12.895  1.1814  0.1283 -0.5762
  542TMC3    O2 8053   3.127   3.354  12.745  0.0978 -0.1291  0.8200
  543TMC3    C1 8054   2.704   4.719  17.420 -0.5270  0.2601 -0.1963
  543TMC3    C2 8055   2.744   4.589  17.448  0.5937  0.0308 -0.1446
  543TMC3    C3 8056   2.693   4.537  17.564 -0.1117  0.1097 -0.3090
  543TMC3    C4 8057   2.611   0.063  17.498 -0.3701  0.0716 -0.3307
  543TMC3    C5 8058   2.558   4.714  17.603  0.2444  0.1405 -0.0507
  543TMC3    C6 8059   2.588   4.587  17.634  0.2666  0.5481 -0.5995
  543TMC3     C 8060   2.742   0.055  17.291 -0.3775  0.5870 -0.7317
  543TMC3     O 8061   2.852   0.010  17.255 -0.5935 -0.3024 -0.2471
  543TMC3     H 8062   2.827   4.539  17.398 -0.9691 -3.5116  0.8044
  543TMC3    H1 8063   2.595   0.170  17.494  0.0096  0.0729 -1.7744
  543TMC3    H2 8064   2.535   4.533   0.006  0.4015  1.8451  0.4179
  543TMC3    C7 8065   2.455   0.041  17.693 -0.9695  0.7521  0.2558
  543TMC3    C8 8066   2.746   4.410  17.610  0.6260 -0.1226 -0.2417
  543TMC3    O1 8067   2.451   4.723   0.101  0.5376 -0.8965 -0.3302
  543TMC3    O2 8068   2.803   4.345  17.526 -0.1139  0.6778 -0.0459
  544MPD2     C 8069   2.783   4.049   0.260 -0.4727  0.0644 -0.0684
  544MPD2    C1 8070   2.774   4.040   0.121  0.0044 -0.1469  0.3198
  544MPD2    C2 8071   2.766   4.154   0.054  0.1719 -0.4763  0.0787
  544MPD2    C3 8072   2.750   4.279   0.114  0.2917  0.7040  0.0215
  544MPD2    C4 8073   2.748   4.288   0.252  0.5318  0.5352  0.4218
  544MPD2    C5 8074   2.767   4.168   0.322 -0.5796  0.1803  0.1232
  544MPD2     H 8075   2.779   4.142  17.652 -2.8634  0.8189 -0.4446
  544MPD2    H1 8076   2.742   4.380   0.311  0.5388  0.1538  1.0227
  544MPD2    H2 8077   2.795   3.960   0.320  0.6954 -0.6393 -1.3206
  544MPD2    H3 8078   2.762   4.177   0.430  1.6427  2.0443  0.0829
  544MPD2     N 8079   2.734   4.399   0.041  0.4396 -0.0518 -0.1416
  544MPD2    H5 8080   2.695   4.474   0.097  1.0663  1.1542 -1.3423
  544MPD2    N1 8081   2.806   3.911   0.059  0.5948  0.7414  0.0944
  544MPD2    H7 8082   2.779   3.827   0.110  2.7032  1.0856  1.7534
  545TMC3    C1 8083   2.781   3.763  17.583 -0.3275  0.3045 -0.3001
  545TMC3    C2 8084   2.700   3.776  17.474  0.1842  0.2879  0.6087
  545TMC3    C3 8085   2.625   3.664  17.447 -0.1270  0.1849  0.3629
  545TMC3    C4 8086   2.816   3.645  17.646  0.0089 -0.5229  0.0642
  545TMC3    C5 8087   2.748   3.540  17.599  0.7572  0.0271 -0.6076
  545TMC3    C6 8088   2.645   3.548  17.510 -0.1493 -0.0814 -0.6065
  545TMC3     C 8089   2.833   3.889  17.629  0.2947 -0.2341 -0.0713
  545TMC3     O 8090   2.869   3.970  17.544 -0.0113  0.7246 -0.6356
  545TMC3     H 8091   2.692   3.868  17.417  1.9418  0.8505  1.2578
  545TMC3    H1 8092   2.883   3.633   0.025  0.4430 -1.6750 -0.4520
  545TMC3    H2 8093   2.582   3.462  17.494  1.9216 -1.7728  0.2395
  545TMC3    C7 8094   2.771   3.411  17.664 -0.0415  0.1675 -0.0535
  545TMC3    C8 8095   2.505   3.677  17.369 -0.0411  0.2262  0.0801
  545TMC3    O1 8096   2.676   3.333  17.684  0.5768 -0.3271  0.6387
  545TMC3    O2 8097   2.503   3.775  17.291  0.3536  0.3183 -0.2425
  546MPD2     C 8098   4.436   4.596  17.412  0.5078 -0.1691  0.0299
  546MPD2    C1 8099   4.322   4.663  17.377  0.3649  0.6334  0.0105
  546MPD2    C2 8100   4.306   0.075  17.404  0.4465 -0.5006 -0.3870
  546MPD2    C3 8101   4.410   0.149  17.461 -0.7460  0.1662  0.3935
  546MPD2    C4 8102   4.530   0.082  17.474  0.1800 -0.2779 -0.1548
  546MPD2    C5 8103   4.546   4.668  17.452 -0.1856  0.7798 -0.4866
  546MPD2     H 8104   4.213   0.126  17.384  1.3911  1.8102  1.1255
  546MPD2    H1 8105   4.621   0.132  17.504 -0.6756  0.2566  1.5414
  546MPD2    H2 8106   4.460   4.492  17.396 -0.2098 -0.2568 -0.4719
  546MPD2    H3 8107   4.633   4.607  17.474 -1.5800 -0.3272  1.8678
  546MPD2     N 8108   4.406   0.282  17.499 -0.8220  0.0369 -0.3440
  546MPD2    H5 8109   4.489   0.313  17.548  0.0818  0.6835 -2.2675
  546MPD2    N1 8110   4.216   4.584  17.327 -0.0625 -0.3092 -0.5290
  546MPD2    H7 8111   4.228   4.483  17.323 -2.4708 -0.5172 -2.6080
  547TMC3    C1 8112   4.015   4.540  17.210  0.0892  0.3090 -0.0237
  547TMC3    C2 8113   3.935   4.576  17.108  0.5122 -0.3824  0.4552
  547TMC3    C3 8114   3.805   4.522  17.109 -0.1797 -0.6317  1.0513
  547TMC3    C4 8115   3.976   4.452  17.312 -0.3988 -0.2272  0.9109
  547TMC3    C5 8116   3.846   4.413  17.314  0.4916 -0.3244  0.7367
  547TMC3    C6 8117   3.753   4.440  17.208 -0.0569 -0.4461 -0.6817
  547TMC3     C 8118   4.111   4.642  17.249  0.4061  0.7827  0.0838
  547TMC3     O 8119   4.097   0.025  17.201  0.2214 -0.0700 -0.5418
  547TMC3     H 8120   3.962   4.653  17.037  0.3216 -0.3905  0.3729
  547TMC3    H1 8121   4.037   4.442  17.402  0.5559  0.0790  0.2896
  547TMC3    H2 8122   3.651   4.409  17.191 -0.5069 -0.9154  2.9309
  547TMC3    C7 8123   3.793   4.381  17.448 -0.1235  1.4142  0.2204
  547TMC3    C8 8124   3.705   4.560  17.003 -0.0394  0.1920  0.0101
  547TMC3    O1 8125   3.877   4.381  17.539  0.0037 -0.1996  0.6763
  547TMC3    O2 8126   3.590   4.524  17.022 -0.3746  0.2328  0.7921
  548MPD2     C 8127   3.778   0.390  12.744 -0.2416 -0.2945  0.0080
  548MPD2    C1 8128   3.753   0.279  12.664 -0.6104 -0.1668  0.3517
  548MPD2    C2 8129   3.865   0.194  12.642 -0.4555 -0.4907  0.2584
  548MPD2    C3 8130   3.992   0.221  12.695  0.2682  0.2335 -0.2276
  548MPD2    C4 8131   4.009   0.341  12.771  0.8225  0.5688  0.0741
  548MPD2    C5 8132   3.903   0.424  12.789 -0.2154  0.2862 -0.3532
  548MPD2     H 8133   3.858   0.095  12.601  0.6884 -0.3781 -0.2105
  548MPD2    H1 8134   4.107   0.370  12.807  0.3313  1.0593  1.0099
  548MPD2    H2 8135   3.691   0.453  12.746 -0.3796 -0.4168 -1.6976
  548MPD2    H3 8136   3.909   0.522  12.836  0.5014 -0.2045  0.5708
  548MPD2     N 8137   4.094   0.136  12.660 -0.1749 -0.3951  0.5654
  548MPD2    H5 8138   4.068   0.056  12.602 -0.8748  2.0862 -2.5397
  548MPD2    N1 8139   3.617   0.249  12.626 -0.9930  0.3331 -0.8881
  548MPD2    H7 8140   3.545   0.312  12.659 -0.8176 -0.7065  1.4281
  549TMC3    C1 8141   3.435   0.162  12.522  0.5107  0.2381  0.5176
  549TMC3    C2 8142   3.417   0.284  12.459  0.1326 -0.9366  0.0723
  549TMC3    C3 8143   3.297   0.302  12.398  0.1036  0.3700 -0.0041
  549TMC3    C4 8144   3.345   0.054  12.529 -0.3992 -0.1959 -0.6188
  549TMC3    C5 8145   3.222   0.086  12.481  0.3616 -0.3354  0.4404
  549TMC3    C6 8146   3.199   0.209  12.421  0.4336  1.0377 -0.3238
  549TMC3     C 8147   3.572   0.138  12.563 -0.3069 -0.3874  0.0632
  549TMC3     O 8148   3.622   0.029  12.540 -0.1216 -0.2980 -0.1104
  549TMC3     H 8149   3.499   0.355  12.457  0.2530 -0.9937  2.5246
  549TMC3    H1 8150   3.362   4.692  12.589 -0.1961 -1.2442 -2.2102
  549TMC3    H2 8151   3.101   0.235  12.382 -0.6943  0.8134  2.3387
  549TMC3    C7 8152   3.111   0.019  12.543 -0.1508  0.2057 -0.3366
  549TMC3    C8 8153   3.252   0.436  12.349  0.0937 -0.0625  0.2490
  549TMC3    O1 8154   3.010   0.089  12.547  1.0347  0.6698  0.9384
  549TMC3    O2 8155   3.164   0.439  12.267 -0.3745 -0.1356 -0.1551
  550TMC3    C1 8156   2.299   2.746  13.120 -0.3764  0.5644 -0.2356
  550TMC3    C2 8157   2.224   2.841  13.180 -0.3527 -0.8977 -0.2912
  550TMC3    C3 8158   2.258   2.972  13.152 -0.2455 -0.0765  0.6805
  550TMC3    C4 8159   2.412   2.777  13.048 -0.0227 -0.5294 -0.4755
  550TMC3    C5 8160   2.440   2.903  13.009 -0.3107  0.7102  0.1511
  550TMC3    C6 8161   2.359   3.003  13.065  0.5183  0.3265 -0.1138
  550TMC3     C 8162   2.215   2.643  13.061  0.7067 -1.3578 -0.4486
  550TMC3     O 8163   2.159   2.564  13.135  0.3988 -0.0540  0.4601
  550TMC3     H 8164   2.160   2.822  13.265 -1.9366  2.2892 -0.7486
  550TMC3    H1 8165   2.461   2.699  12.992  2.1849 -1.1042  2.2443
  550TMC3    H2 8166   2.373   3.106  13.034  0.9902  1.0896  2.6557
  550TMC3    C7 8167   2.458   2.924  12.863  0.4322  0.1529 -0.0117
  550TMC3    C8 8168   2.167   3.072  13.201 -0.3669 -0.0860  0.0241
  550TMC3    O1 8169   2.403   2.844  12.791  0.3623  0.0955  0.1372
  550TMC3    O2 8170   2.217   3.186  13.191 -0.0534  0.1532 -0.2420
  551TMC3    C1 8171   0.417   2.039  13.511 -0.2481 -0.2813  0.0267
  551TMC3    C2 8172   0.496   2.075  13.406 -0.4132  0.2969 -0.0871
  551TMC3    C3 8173   0.634   2.081  13.418  0.3308  0.0423  0.1789
  551TMC3    C4 8174   0.469   2.007  13.634 -0.4232  0.1963  0.3735
  551TMC3    C5 8175   0.608   2.015  13.639 -0.2969  0.0250  0.5109
  551TMC3    C6 8176   0.689   2.044  13.533 -0.1236 -0.0128 -0.1771
  551TMC3     C 8177   0.290   1.980  13.477 -0.1904 -0.0040 -0.1456
  551TMC3     O 8178   0.241   1.886  13.542  0.5005 -0.0430  0.0024
  551TMC3     H 8179   0.464   2.082  13.302 -0.3824  1.4142 -0.0185
  551TMC3    H1 8180   0.410   1.980  13.720  1.8211 -0.9064  1.5785
  551TMC3    H2 8181   0.797   2.048  13.539 -0.1327 -1.3349  0.8783
  551TMC3    C7 8182   0.671   1.966  13.766 -0.4037 -0.4543 -0.2505
  551TMC3    C8 8183   0.723   2.120  13.307 -0.4130  0.4948 -1.1424
  551TMC3    O1 8184   0.598   1.924  13.854 -0.3880  1.0918 -0.0706
  551TMC3    O2 8185   0.842   2.078  13.314 -0.5290  0.2582  0.2000
  552MPD2     C 8186   1.874   3.290  14.648 -0.3028 -0.7486  0.8530
  552MPD2    C1 8187   1.941   3.171  14.667  0.2680 -0.9890  0.9177
  552MPD2    C2 8188   2.034   3.164  14.774  0.3341  0.0921 -0.0591
  552MPD2    C3 8189   2.065   3.274  14.842 -0.3127  0.6165  0.0048
  552MPD2    C4 8190   1.990   3.391  14.825 -0.1723  0.7188  0.5881
  552MPD2    C5 8191   1.903   3.398  14.729  0.1969  0.5330 -1.5274
  552MPD2     H 8192   2.087   3.071  14.792 -1.0846 -0.8033 -0.5289
  552MPD2    H1 8193   2.011   3.482  14.880  1.2869  0.5144  0.3468
  552MPD2    H2 8194   1.798   3.307  14.572 -1.1779  0.8764  2.0942
  552MPD2    H3 8195   1.850   3.492  14.729  1.1773  1.0900 -0.8576
  552MPD2     N 8196   2.178   3.283  14.930 -0.2017  0.6451  0.2567
  552MPD2    H5 8197   2.203   3.374  14.967  0.0132 -0.1255  1.9847
  552MPD2    N1 8198   1.906   3.052  14.612 -0.3316 -0.6163  0.0064
  552MPD2    H7 8199   1.958   2.967  14.631  1.9345  1.0320  1.2673
  553TMC3    C1 8200   1.792   2.882  14.507 -0.6829 -1.0420 -0.3377
  553TMC3    C2 8201   1.765   2.826  14.385 -0.0014  0.1420  0.2562
  553TMC3    C3 8202   1.775   2.688  14.388  0.1220 -0.3989 -0.0012
  553TMC3    C4 8203   1.807   2.811  14.627 -0.5424 -0.0666  0.3150
  553TMC3    C5 8204   1.795   2.672  14.626  0.3402 -0.7870  0.3264
  553TMC3    C6 8205   1.792   2.615  14.497 -0.0467  0.9431 -0.2266
  553TMC3     C 8206   1.809   3.027  14.521  0.2208  0.0190  0.0158
  553TMC3     O 8207   1.747   3.100  14.446 -0.1310 -0.5603  0.4285
  553TMC3     H 8208   1.758   2.884  14.293 -0.6487 -1.3761 -0.6506
  553TMC3    H1 8209   1.799   2.869  14.719  1.3010 -1.4548  1.3408
  553TMC3    H2 8210   1.798   2.507  14.490 -0.6414  0.7692  1.8723
  553TMC3    C7 8211   1.839   2.586  14.734 -0.8593 -0.0917 -1.1872
  553TMC3    C8 8212   1.849   2.639  14.276 -0.0750 -0.2882  0.0010
  553TMC3    O1 8213   1.779   2.479  14.731  0.0073 -0.1334 -0.3670
  553TMC3    O2 8214   1.939   2.564  14.309  0.2416 -0.1603  0.1206
  554TMC3    C1 8215   4.130   2.198  11.430 -0.4317 -0.6713  0.8900
  554TMC3    C2 8216   4.085   2.079  11.380  0.2551  0.0218 -0.4277
  554TMC3    C3 8217   4.029   2.081  11.252 -0.0816  0.1363 -0.9293
  554TMC3    C4 8218   4.121   2.314  11.360  0.1373  0.4704  0.0673
  554TMC3    C5 8219   4.049   2.314  11.239  0.3463 -0.3152 -0.0679
  554TMC3    C6 8220   4.004   2.199  11.189 -0.7915 -0.9074 -0.4021
  554TMC3     C 8221   4.167   2.211  11.567  1.1058 -0.7126  0.5455
  554TMC3     O 8222   4.231   2.312  11.593  0.2446 -0.7040 -0.0533
  554TMC3     H 8223   4.114   1.982  11.419  0.5831 -0.0143 -0.7584
  554TMC3    H1 8224   4.178   2.404  11.382  1.0959 -0.2174  0.4023
  554TMC3    H2 8225   3.954   2.185  11.094 -0.9678  2.3847 -0.8085
  554TMC3    C7 8226   4.033   2.426  11.157  0.0289 -0.2776  0.1106
  554TMC3    C8 8227   3.986   1.968  11.181 -0.1289  0.1305  0.4422
  554TMC3    O1 8228   3.973   2.409  11.052  0.1320  0.1291  0.0962
  554TMC3    O2 8229   4.004   1.968  11.060  0.8993 -0.5790 -0.0323
  555TMC3    C1 8230   3.050   1.972  15.159  0.1814 -0.3463  0.2968
  555TMC3    C2 8231   3.042   2.025  15.287 -0.0338  0.0662 -0.3387
  555TMC3    C3 8232   3.038   1.939  15.398 -0.0143 -0.3465 -0.2219
  555TMC3    C4 8233   3.077   1.833  15.145  0.0961 -0.1379  0.1450
  555TMC3    C5 8234   3.072   1.756  15.256 -0.1408  0.1370  0.1777
  555TMC3    C6 8235   3.050   1.804  15.388  0.4719  0.8041 -0.0212
  555TMC3     C 8236   3.061   2.057  15.047  0.3063 -0.1524  1.2253
  555TMC3     O 8237   3.106   2.169  15.060 -0.3433 -0.0079 -0.1582
  555TMC3     H 8238   3.008   2.126  15.310 -2.2672 -0.7394 -0.1322
  555TMC3    H1 8239   3.096   1.787  15.049 -2.1775  0.8341 -0.7657
  555TMC3    H2 8240   3.018   1.737  15.467 -0.4620  0.0660 -1.0281
  555TMC3    C7 8241   3.078   1.609  15.244 -0.0026 -0.7141 -0.2197
  555TMC3    C8 8242   2.964   1.990  15.514 -0.0961  0.6540  0.6964
  555TMC3    O1 8243   3.049   1.535  15.338  0.4453  0.1048  0.9704
  555TMC3    O2 8244   2.881   2.075  15.496 -0.2244  0.1802 -0.1532
  556MPD2     C 8245   1.322   3.567  10.607 -0.1122  0.4182 -0.6164
  556MPD2    C1 8246   1.212   3.496  10.651 -0.4241 -0.0029  0.5205
  556MPD2    C2 8247   1.173   3.377  10.587  0.3643  0.6530 -0.0254
  556MPD2    C3 8248   1.248   3.328  10.481 -0.7314  0.5621  0.2305
  556MPD2    C4 8249   1.360   3.398  10.438 -0.1255 -0.2372  0.5801
  556MPD2    C5 8250   1.403   3.503  10.516  0.4547  0.2774 -0.1927
  556MPD2     H 8251   1.078   3.331  10.609  1.0986  0.0207  1.8228
  556MPD2    H1 8252   1.415   3.374  10.348 -2.0532 -1.0636 -0.3776
  556MPD2    H2 8253   1.358   3.652  10.664  0.4684 -1.3965  1.7318
  556MPD2    H3 8254   1.500   3.545  10.490  0.7934 -0.5952 -0.3184
  556MPD2     N 8255   1.208   3.211  10.417 -0.5387 -0.4877  0.3083
  556MPD2    H5 8256   1.141   3.146  10.458 -0.7021  1.0462  2.4736
  556MPD2    N1 8257   1.135   3.548  10.756  0.2790  0.4790 -0.7507
  556MPD2    H7 8258   1.045   3.501  10.763  0.4752  0.3761  1.2206
  557TMC3    C1 8259   1.218   3.036  10.256 -0.1854  0.1385  0.5209
  557TMC3    C2 8260   1.196   3.011  10.129 -0.2809  0.3182  0.2183
  557TMC3    C3 8261   1.149   2.889  10.090  0.1372 -0.1841  0.7507
  557TMC3    C4 8262   1.196   2.941  10.350  0.8107  0.2010  0.6869
  557TMC3    C5 8263   1.149   2.812  10.314 -0.6112 -0.5133 -0.5546
  557TMC3    C6 8264   1.125   2.787  10.179  0.2277 -0.5236  0.3131
  557TMC3     C 8265   1.262   3.172  10.291 -0.1666 -0.7496 -0.3960
  557TMC3     O 8266   1.329   3.236  10.212  0.1003 -0.2516 -0.5150
  557TMC3     H 8267   1.227   3.091  10.064  1.1702 -1.2979 -1.0520
  557TMC3    H1 8268   1.220   2.965  10.453  0.7665  0.8788  0.5405
  557TMC3    H2 8269   1.060   2.704  10.153 -1.9129  1.1285  0.4088
  557TMC3    C7 8270   1.099   2.726  10.421 -0.2005  0.4954  0.1932
  557TMC3    C8 8271   1.144   2.856   9.947 -0.0607  0.1076  0.0822
  557TMC3    O1 8272   1.084   2.772  10.532  0.1062 -0.0453 -0.1797
  557TMC3    O2 8273   1.160   2.950   9.872 -0.6724  0.6260 -0.2720
  558TMC3    C1 8274   3.396   1.134  10.065 -0.5895  0.2114  0.4953
  558TMC3    C2 8275   3.333   1.164  10.184 -0.4806 -0.1969  0.1317
  558TMC3    C3 8276   3.197   1.180  10.176  0.7347  0.2443 -0.0596
  558TMC3    C4 8277   3.330   1.121   9.942 -0.0628  0.3689 -0.5542
  558TMC3    C5 8278   3.194   1.125   9.945 -0.0004  0.4974  0.9634
  558TMC3    C6 8279   3.127   1.160  10.057  0.8069  0.2960  0.1253
  558TMC3     C 8280   3.536   1.161  10.067 -0.1065  0.0113 -0.5791
  558TMC3     O 8281   3.582   1.203  10.175 -0.1778 -0.6998 -0.3619
  558TMC3     H 8282   3.392   1.190  10.272 -0.2840 -0.3699  0.0523
  558TMC3    H1 8283   3.377   1.096   9.848  0.7893 -1.5698  0.3804
  558TMC3    H2 8284   3.020   1.175  10.063  0.2985 -2.6708 -1.3988
  558TMC3    C7 8285   3.127   1.108   9.814  0.2185  1.1392  0.0349
  558TMC3    C8 8286   3.118   1.199  10.297 -0.3676  0.4517 -0.0052
  558TMC3    O1 8287   3.193   1.113   9.710  0.2052 -0.1064 -0.1995
  558TMC3    O2 8288   3.004   1.239  10.282 -0.3072 -0.2616  0.3472
  559MPD2     C 8289   3.501   1.431  10.633  0.3948  0.4955 -0.2019
  559MPD2    C1 8290   3.474   1.400  10.765  0.7998 -0.3212 -0.6246
  559MPD2    C2 8291   3.574   1.430  10.861 -0.2214 -0.0096 -0.2963
  559MPD2    C3 8292   3.695   1.474  10.824 -0.0405  0.0661 -0.4638
  559MPD2    C4 8293   3.722   1.496  10.688  0.5156  1.1444 -0.0328
  559MPD2    C5 8294   3.624   1.473  10.595  0.3854  0.3761  0.3876
  559MPD2     H 8295   3.545   1.414  10.964  0.8665  1.7024  0.2698
  559MPD2    H1 8296   3.813   1.540  10.649 -0.4059  0.2207 -3.2630
  559MPD2    H2 8297   3.430   1.412  10.553  3.1458 -2.7543 -1.8329
  559MPD2    H3 8298   3.647   1.498  10.492 -0.5572 -0.9362 -0.1439
  559MPD2     N 8299   3.799   1.482  10.919  0.1143  0.8815  1.0579
  559MPD2    H5 8300   3.769   1.450  11.010 -0.2051 -0.5618  0.4408
  559MPD2    N1 8301   3.347   1.360  10.789 -0.1944 -0.2566  0.4603
  559MPD2    H7 8302   3.286   1.376  10.710 -1.2668  0.0294  1.3403
  560TMC3    C1 8303   4.019   1.507  11.009  0.7479  0.2890  0.1428
  560TMC3    C2 8304   3.993   1.391  11.076  0.1063  0.0698  0.2658
  560TMC3    C3 8305   4.049   1.372  11.201  0.6767 -0.0353  0.1356
  560TMC3    C4 8306   4.099   1.600  11.071 -0.4542  0.5297 -0.1647
  560TMC3    C5 8307   4.169   1.568  11.186 -0.3574 -0.1283 -0.1567
  560TMC3    C6 8308   4.138   1.456  11.258 -0.6981  0.4502  0.0899
  560TMC3     C 8309   3.929   1.539  10.904 -0.6158  0.0049  0.6556
  560TMC3     O 8310   3.963   1.632  10.829 -0.4030  0.2016  0.1939
  560TMC3     H 8311   3.926   1.321  11.028  0.9875  0.0520 -0.9253
  560TMC3    H1 8312   4.131   1.688  11.015 -1.4491 -0.2637 -1.9896
  560TMC3    H2 8313   4.192   1.422  11.346  0.9470 -1.7636 -1.8111
  560TMC3    C7 8314   4.204   1.677  11.272 -0.2782  0.3230  0.1139
  560TMC3    C8 8315   4.028   1.242  11.248 -0.4678  0.9280 -0.0220
  560TMC3    O1 8316   4.179   1.656  11.390  0.1917 -0.7298  0.0418
  560TMC3    O2 8317   4.004   1.162  11.154 -0.3866  0.0696  0.0504
  561TMC3    C1 8318   1.336   1.141  11.640 -0.1287 -0.1473 -0.9678
  561TMC3    C2 8319   1.263   1.100  11.748 -0.3012 -0.2447 -0.0434
  561TMC3    C3 8320   1.197   1.204  11.807 -0.6224 -0.2039  0.0118
  561TMC3    C4 8321   1.345   1.270  11.590  0.2960  0.0462 -0.5567
  561TMC3    C5 8322   1.278   1.371  11.653  0.2226  0.9764  0.1350
  561TMC3    C6 8323   1.205   1.334  11.764 -0.2222  0.3157 -0.4908
  561TMC3     C 8324   1.377   1.033  11.555  0.2098  0.9340  0.1319
  561TMC3     O 8325   1.429   1.067  11.448  0.1013  0.2659  0.0892
  561TMC3     H 8326   1.260   1.006  11.801  1.2177 -0.2051  0.1004
  561TMC3    H1 8327   1.390   1.284  11.492  0.4374  0.4428 -0.4356
  561TMC3    H2 8328   1.143   1.407  11.816 -1.3523 -1.3822  0.5149
  561TMC3    C7 8329   1.293   1.512  11.622  0.1082 -0.0731 -0.3343
  561TMC3    C8 8330   1.110   1.163  11.915 -0.2267 -0.6159  0.7339
  561TMC3    O1 8331   1.249   1.594  11.703  0.1572  0.4533  0.0058
  561TMC3    O2 8332   1.071   1.045  11.917  0.5156  0.1409 -0.0809
  562TMC3    C1 8333   2.973   2.351  16.816 -0.0127  0.5959 -0.0949
  562TMC3    C2 8334   2.863   2.433  16.814 -0.0644 -0.7895  0.4278
  562TMC3    C3 8335   2.767   2.405  16.717  0.4664  0.0013 -0.3966
  562TMC3    C4 8336   2.988   2.251  16.723  0.1473  0.0028  0.3822
  562TMC3    C5 8337   2.887   2.228  16.635 -0.1513  0.6314  0.5774
  562TMC3    C6 8338   2.777   2.310  16.620  0.2705  0.0991  0.1690
  562TMC3     C 8339   3.079   2.374  16.912  0.0945 -0.2276 -0.8658
  562TMC3     O 8340   3.184   2.325  16.874  0.0534  0.7438 -0.0876
  562TMC3     H 8341   2.851   2.525  16.870 -4.4476 -0.5307 -0.9446
  562TMC3    H1 8342   3.078   2.191  16.715 -0.4063 -0.5957 -1.3462
  562TMC3    H2 8343   2.700   2.278  16.551 -0.0553 -0.6212  0.8715
  562TMC3    C7 8344   2.882   2.105  16.555 -0.5416  0.8430  0.3963
  562TMC3    C8 8345   2.650   2.489  16.726  0.3737  0.1566  0.5736
  562TMC3    O1 8346   2.823   2.105  16.449 -0.0293  0.6778  0.1371
  562TMC3    O2 8347   2.630   2.567  16.817  0.1466 -0.1986  0.2874
  563MPD2     C 8348   0.354   3.229  15.720 -0.1515 -0.1663  0.2680
  563MPD2    C1 8349   0.396   3.333  15.807  0.4621 -0.5315  0.5697
  563MPD2    C2 8350   0.528   3.326  15.846 -0.3722 -1.0381  0.5247
  563MPD2    C3 8351   0.610   3.222  15.807 -0.3114  0.1002 -0.2438
  563MPD2    C4 8352   0.563   3.115  15.735  0.5149 -0.5083  0.0506
  563MPD2    C5 8353   0.433   3.121  15.683 -0.5185 -0.2660 -0.5250
  563MPD2     H 8354   0.567   3.398  15.918  0.3821 -1.2389  0.3162
  563MPD2    H1 8355   0.622   3.033  15.697 -0.5132 -0.5855 -1.3501
  563MPD2    H2 8356   0.259   3.216  15.670 -0.0197 -2.2826  0.5555
  563MPD2    H3 8357   0.390   3.048  15.616 -1.2165  1.3367 -1.8022
  563MPD2     N 8358   0.737   3.222  15.864  0.7092 -0.7015  0.0107
  563MPD2    H5 8359   0.761   3.299  15.926  1.7205 -0.9689 -0.0614
  563MPD2    N1 8360   0.320   3.438  15.851 -0.5728 -0.1240 -0.5540
  563MPD2    H7 8361   0.359   3.490  15.929  1.2229  1.6586 -2.6441
  564TMC3    C1 8362   0.113   3.511  15.940  0.0210 -0.0955  0.2510
  564TMC3    C2 8363   4.713   3.464  15.950  0.0075 -0.6500 -0.0652
  564TMC3    C3 8364   4.691   3.397  16.065 -0.1006 -0.2040  0.6902
  564TMC3    C4 8365   0.191   3.514  16.052 -0.4358  0.3672 -0.7253
  564TMC3    C5 8366   0.160   3.470  16.170  0.8777 -0.4528 -0.3038
  564TMC3    C6 8367   0.041   3.410  16.177 -0.1521 -0.2450 -0.1929
  564TMC3     C 8368   0.186   3.458  15.822  0.3195 -0.5822  0.2197
  564TMC3     O 8369   0.114   3.418  15.732  0.5416 -0.1737 -0.2221
  564TMC3     H 8370   4.642   3.454  15.869  0.8501  0.1037 -0.8802
  564TMC3    H1 8371   0.290   3.559  16.053 -1.2524  2.1556 -0.0814
  564TMC3    H2 8372   0.010   3.371  16.273 -0.2613 -1.4695 -0.7233
  564TMC3    C7 8373   0.266   3.377  16.204 -0.4007 -0.0327  0.3093
  564TMC3    C8 8374   4.669   3.260  16.047 -0.1470  0.2029  0.2185
  564TMC3    O1 8375   0.380   3.417  16.212  0.4481 -0.1787  0.2922
  564TMC3    O2 8376   4.654   3.199  16.150  0.0466 -0.7882  0.1898
  565TMC3    C1 8377   0.268   4.703  10.215  0.0351 -0.2793  0.1908
  565TMC3    C2 8378   0.297   4.595  10.299  0.2738  0.2032 -0.9213
  565TMC3    C3 8379   0.220   4.485  10.268 -0.0114 -0.6630 -0.8581
  565TMC3    C4 8380   0.165   4.699  10.120  0.2369 -0.9167 -0.2371
  565TMC3    C5 8381   0.096   4.584  10.097  0.4077 -0.9300 -0.4018
  565TMC3    C6 8382   0.125   4.468  10.172 -0.2715 -0.0427 -0.5472
  565TMC3     C 8383   0.355   0.097  10.211  0.1055 -0.8416 -0.1262
  565TMC3     O 8384   0.334   0.169  10.113  0.0398 -0.3644 -0.2737
  565TMC3     H 8385   0.378   4.596  10.371 -0.7781 -0.0736  0.2640
  565TMC3    H1 8386   0.147   0.065  10.065 -3.0481 -1.8412 -0.6499
  565TMC3    H2 8387   0.056   4.386  10.156 -1.3902  0.5603  1.2234
  565TMC3    C7 8388   4.706   4.581  10.009 -0.1239 -0.1849  0.4270
  565TMC3    C8 8389   0.252   4.370  10.358  0.4101  0.5662  0.4909
  565TMC3    O1 8390   4.650   4.476   9.986  0.6363 -0.4579 -0.6604
  565TMC3    O2 8391   0.326   4.394  10.450 -0.9468  0.1424  0.5161
  566MPD2     C 8392   2.477   1.177  14.069 -0.2564 -0.0553  0.1175
  566MPD2    C1 8393   2.517   1.295  14.007 -0.8907  0.7602 -0.1199
  566MPD2    C2 8394   2.441   1.332  13.903  0.4577  0.0617  0.0177
  566MPD2    C3 8395   2.329   1.265  13.865 -0.4047 -0.1730 -0.0432
  566MPD2    C4 8396   2.284   1.151  13.931 -0.1191 -0.4484  0.4774
  566MPD2    C5 8397   2.364   1.107  14.032 -0.2782 -0.1832  0.1144
  566MPD2     H 8398   2.469   1.421  13.848  0.7175 -0.8713 -1.3560
  566MPD2    H1 8399   2.196   1.097  13.897  0.4265  0.2114 -1.9852
  566MPD2    H2 8400   2.548   1.135  14.140  1.0412  1.8302 -0.0438
  566MPD2    H3 8401   2.332   1.028  14.100 -1.9655  0.4118  0.0099
  566MPD2     N 8402   2.249   1.299  13.749  0.2756  0.8711 -0.6937
  566MPD2    H5 8403   2.176   1.238  13.714  1.5533 -1.2418  0.3988
  566MPD2    N1 8404   2.645   1.348  14.039 -0.1862 -0.7714 -0.8338
  566MPD2    H7 8405   2.703   1.317  14.117 -1.0564 -1.4637 -0.4536
  567TMC3    C1 8406   2.846   1.469  13.976 -0.2599  1.0452 -0.3835
  567TMC3    C2 8407   2.924   1.493  13.871  0.5760 -0.4648 -0.3176
  567TMC3    C3 8408   3.050   1.548  13.895  0.0069 -0.0649  0.6838
  567TMC3    C4 8409   2.885   1.498  14.105 -0.0705  0.7794 -0.6052
  567TMC3    C5 8410   3.009   1.548  14.122  0.2278 -0.5660  0.5620
  567TMC3    C6 8411   3.099   1.566  14.019 -1.0950 -0.3334  0.0976
  567TMC3     C 8412   2.704   1.446  13.954  0.2291  0.3523 -0.6136
  567TMC3     O 8413   2.664   1.501  13.852 -0.3316  0.2793 -0.1064
  567TMC3     H 8414   2.892   1.472  13.770  2.8939 -2.9931 -0.5431
  567TMC3    H1 8415   2.807   1.507  14.180 -1.1293 -0.1934 -1.5799
  567TMC3    H2 8416   3.196   1.610  14.039 -1.3878 -0.1981  1.2474
  567TMC3    C7 8417   3.046   1.586  14.256 -0.2322  0.2262  0.1468
  567TMC3    C8 8418   3.104   1.608  13.775  0.3932  0.0374  0.2559
  567TMC3    O1 8419   3.139   1.660  14.252  0.2520  0.2340 -0.0769
  567TMC3    O2 8420   3.020   1.650  13.696  0.0822 -0.2957 -0.0802
  568MPD2     C 8421   0.402   1.999  16.540  0.2326 -0.6443  1.0177
  568MPD2    C1 8422   0.299   2.059  16.610  0.3258 -0.4076 -0.5980
  568MPD2    C2 8423   0.250   2.178  16.571 -0.8877  0.0125 -0.0605
  568MPD2    C3 8424   0.304   2.242  16.465  0.3391  0.4882 -0.3529
  568MPD2    C4 8425   0.415   2.179  16.395  0.0879 -0.3939 -0.2887
  568MPD2    C5 8426   0.462   2.057  16.439  0.2128  0.9779 -0.3552
  568MPD2     H 8427   0.156   2.215  16.613  0.5981  1.1685  2.2963
  568MPD2    H1 8428   0.467   2.231  16.316  0.4270 -0.1076  0.1184
  568MPD2    H2 8429   0.439   1.899  16.559  3.9177  0.4853 -0.2789
  568MPD2    H3 8430   0.540   2.003  16.387  0.0391  1.5457 -1.2000
  568MPD2     N 8431   0.246   2.361  16.421  0.8995 -0.0902 -0.2532
  568MPD2    H5 8432   0.167   2.400  16.473  2.0369  2.0818 -0.1667
  568MPD2    N1 8433   0.246   1.983  16.716  0.1917  0.1774 -0.5341
  568MPD2    H7 8434   0.281   1.887  16.720  0.6956  0.3208 -1.4737
  569TMC3    C1 8435   0.157   2.498  16.264  0.3106  0.1216 -0.5092
  569TMC3    C2 8436   0.113   2.576  16.364  0.4708  0.7912  0.0953
  569TMC3    C3 8437   4.715   2.636  16.340  0.8908  0.1216 -0.8604
  569TMC3    C4 8438   0.091   2.475  16.148  0.3983 -0.0488 -0.7576
  569TMC3    C5 8439   4.706   2.542  16.126 -0.5334  0.9764 -0.4358
  569TMC3    C6 8440   4.644   2.617  16.226  0.0663 -0.2807  0.7301
  569TMC3     C 8441   0.269   2.418  16.298 -0.1853  0.1327  0.0976
  569TMC3     O 8442   0.348   2.396  16.208 -0.3122 -0.4161  0.9891
  569TMC3     H 8443   0.176   2.590  16.451  0.9238  1.3582 -0.3310
  569TMC3    H1 8444   0.132   2.413  16.069 -0.1048 -0.1245 -0.9580
  569TMC3    H2 8445   4.550   2.668  16.210 -0.3943 -1.8588 -1.4949
  569TMC3    C7 8446   4.694   2.606  15.996  0.0368  0.1280 -0.1319
  569TMC3    C8 8447   4.680   2.745  16.426 -0.2197  0.6453 -0.0918
  569TMC3    O1 8448   4.720   2.538  15.902  0.2007 -0.5637 -0.2645
  569TMC3    O2 8449   4.571   2.796  16.395  0.4186 -0.1127 -0.2795
  570TMC3    C1 8450   4.087   0.837  16.022  0.5662  0.7275 -0.1038
  570TMC3    C2 8451   4.142   0.792  15.904  0.8895  0.1809  0.1263
  570TMC3    C3 8452   4.123   0.880  15.795 -0.6902  0.4005 -0.0201
  570TMC3    C4 8453   3.999   0.948  16.028 -0.0806  0.3247 -0.1643
  570TMC3    C5 8454   3.977   1.029  15.917 -0.0645  0.1197 -0.8574
  570TMC3    C6 8455   4.041   0.991  15.796  0.4434  0.3648  0.3862
  570TMC3     C 8456   4.102   0.749  16.141 -0.3290 -0.3209 -1.0124
  570TMC3     O 8457   4.178   0.656  16.125 -0.0191  0.1847  0.1646
  570TMC3     H 8458   4.193   0.700  15.881  0.9094  0.7944 -2.3334
  570TMC3    H1 8459   3.930   0.969  16.109  0.4621  1.9195 -0.1065
  570TMC3    H2 8460   4.034   1.044  15.701 -2.4414 -0.1292  0.3307
  570TMC3    C7 8461   3.980   1.171  15.930 -0.6421 -0.3823 -0.0684
  570TMC3    C8 8462   4.224   0.889  15.702  0.3083  0.0341 -0.4936
  570TMC3    O1 8463   3.908   1.237  15.863  0.4830  0.1290 -0.5769
  570TMC3    O2 8464   4.287   0.995  15.701  0.2061  0.5628 -0.4523
  571MPD2     C 8465   2.694   2.770  17.420  0.5129 -0.0348  0.2816
  571MPD2    C1 8466   2.580   2.750  17.490  0.1791 -1.2439  0.1156
  571MPD2    C2 8467   2.537   2.852  17.573 -0.4043 -0.4550 -0.9415
  571MPD2    C3 8468   2.608   2.973  17.585 -0.1257 -1.0062 -0.1773
  571MPD2    C4 8469   2.718   2.995  17.504  0.0411 -0.3963 -0.4022
  571MPD2    C5 8470   2.764   2.891  17.424 -0.2904  0.0181 -0.4914
  571MPD2     H 8471   2.448   2.832  17.631  1.1462 -2.3871  0.7710
  571MPD2    H1 8472   2.765   3.092  17.513  0.7082 -0.7330 -0.2532
  571MPD2    H2 8473   2.735   2.687  17.364 -1.1047 -1.4822  1.2975
  571MPD2    H3 8474   2.851   2.914  17.364 -1.1693 -0.0240 -1.8015
  571MPD2     N 8475   2.570   3.071  17.677 -0.1821 -0.3486  0.0845
  571MPD2    H5 8476   2.618   3.159  17.664  0.3748 -0.8665 -1.3726
  571MPD2    N1 8477   2.515   2.627  17.463 -0.4392  0.0232  0.5022
  571MPD2    H7 8478   2.559   2.556  17.405  1.5888  1.7689 -0.0737
  572TMC3    C1 8479   2.475   3.165   0.168 -0.6533 -0.2310  0.9649
  572TMC3    C2 8480   2.498   3.156   0.301  0.1690  0.0897 -0.5698
  572TMC3    C3 8481   2.498   3.278   0.366  0.1411 -0.1895 -0.6709
  572TMC3    C4 8482   2.445   3.278   0.098  0.1850 -0.5613  0.3789
  572TMC3    C5 8483   2.427   3.394   0.176  0.4168  0.9224  0.2161
  572TMC3    C6 8484   2.463   3.399   0.309  0.4557  0.4028  0.2314
  572TMC3     C 8485   2.498   3.049   0.086 -0.1114 -0.3189 -0.0683
  572TMC3     O 8486   2.478   2.944   0.142 -0.4722 -0.2267  0.2244
  572TMC3     H 8487   2.547   3.070   0.346 -2.5688 -0.1859  1.9256
  572TMC3    H1 8488   2.421   3.279  17.697 -0.5899 -2.2429  0.5303
  572TMC3    H2 8489   2.433   3.482   0.371  0.2736  1.1523 -0.8592
  572TMC3    C7 8490   2.393   3.509   0.107  0.5153 -0.0713  0.0500
  572TMC3    C8 8491   2.508   3.283   0.514 -0.7310  0.0900  0.7060
  572TMC3    O1 8492   2.348   3.494  17.697 -0.3200 -0.8086  0.0234
  572TMC3    O2 8493   2.543   3.382   0.577  0.4318 -0.2324 -0.2182
  573MPD2     C 8494   3.977   3.267   0.881 -0.1395  0.0116 -0.8267
  573MPD2    C1 8495   3.924   3.375   0.818 -0.7686  0.6293  0.3073
  573MPD2    C2 8496   3.864   3.368   0.691 -0.2405 -0.6517  0.4712
  573MPD2    C3 8497   3.840   3.244   0.639  0.1811  0.1703  0.1615
  573MPD2    C4 8498   3.890   3.134   0.708  0.3094 -0.3331  0.3063
  573MPD2    C5 8499   3.963   3.144   0.823  0.2197 -0.3988 -0.3011
  573MPD2     H 8500   3.833   3.461   0.644 -1.3747 -1.1350  0.2821
  573MPD2    H1 8501   3.882   3.036   0.663 -1.5397  0.0788 -0.2273
  573MPD2    H2 8502   4.025   3.272   0.977 -0.4252 -3.0781 -0.5364
  573MPD2    H3 8503   3.987   3.054   0.879  0.6328 -0.8802 -1.2439
  573MPD2     N 8504   3.779   3.221   0.509 -0.3419  0.0254  0.8331
  573MPD2    H5 8505   3.765   3.125   0.479  0.6307  0.6037 -1.4616
  573MPD2    N1 8506   3.940   3.491   0.893 -0.2768 -0.1000 -0.2729
  573MPD2    H7 8507   3.994   3.482   0.979  1.3992  0.4210 -1.2533
  574TMC3    C1 8508   3.691   3.274   0.293 -0.0565 -0.5257  0.1520
  574TMC3    C2 8509   3.589   3.184   0.300 -0.6231  0.0285 -0.4882
  574TMC3    C3 8510   3.538   3.155   0.175 -0.2333  0.5400 -0.3820
  574TMC3    C4 8511   3.742   3.326   0.178 -1.0672  0.9383 -0.2258
  574TMC3    C5 8512   3.682   3.290   0.060  0.6841 -0.2122  0.5523
  574TMC3    C6 8513   3.582   3.200   0.058 -0.1294 -1.0038 -0.5643
  574TMC3     C 8514   3.765   3.314   0.412  0.2624  0.3015  0.4847
  574TMC3     O 8515   3.811   3.430   0.396  0.3423  0.2209 -0.2965
  574TMC3     H 8516   3.552   3.157   0.398  0.0274 -2.4867 -0.9477
  574TMC3    H1 8517   3.833   3.384   0.171 -0.2150 -0.3451  0.2499
  574TMC3    H2 8518   3.534   3.169  17.671 -0.4358  0.8726 -1.0220
  574TMC3    C7 8519   3.739   3.356  17.644  0.6905 -0.4648 -0.5636
  574TMC3    C8 8520   3.399   3.108   0.172  0.0062 -0.2795  0.2458
  574TMC3    O1 8521   3.814   3.448  17.663 -0.7064 -0.2154 -0.1033
  574TMC3    O2 8522   3.371   3.030   0.265 -0.4911  0.4434  0.7915
  575TMC3    C1 8523   0.558   4.046  11.087  0.0624  0.2640 -0.7770
  575TMC3    C2 8524   0.580   3.918  11.114 -0.7398 -0.3747 -0.2170
  575TMC3    C3 8525   0.557   3.827  11.014  0.1600 -0.0467  0.1384
  575TMC3    C4 8526   0.521   4.092  10.965 -0.1127  0.4100  0.0527
  575TMC3    C5 8527   0.509   4.006  10.867  0.6189 -0.5048  0.2180
  575TMC3    C6 8528   0.520   3.873  10.893  0.3193 -0.1470 -0.4845
  575TMC3     C 8529   0.547   4.139  11.194  0.3099 -0.6309  0.2687
  575TMC3     O 8530   0.585   4.096  11.308  0.0467 -0.2973  0.5109
  575TMC3     H 8531   0.597   3.885  11.216 -0.2795 -1.1629 -0.5501
  575TMC3    H1 8532   0.528   4.198  10.945  0.5442  1.0339  3.4825
  575TMC3    H2 8533   0.518   3.804  10.809  1.1689  0.6589 -1.1803
  575TMC3    C7 8534   0.443   4.055  10.748  0.3931 -0.3364 -0.3328
  575TMC3    C8 8535   0.555   3.684  11.045 -0.2355  1.0368 -0.5781
  575TMC3    O1 8536   0.433   4.175  10.739 -0.1326 -0.0584  0.3642
  575TMC3    O2 8537   0.582   3.653  11.162 -0.2738 -0.3734  0.0902
  576MPD2     C 8538   0.196   1.967  12.774 -0.7164 -0.2500  0.7638
  576MPD2    C1 8539   0.245   2.028  12.660  0.5015 -0.1464 -0.8453
  576MPD2    C2 8540   0.225   2.162  12.639  0.0502  0.2306 -0.1385
  576MPD2    C3 8541   0.140   2.238  12.721  0.4261  0.1654 -0.2615
  576MPD2    C4 8542   0.094   2.176  12.838  0.1146 -0.3603  0.9297
  576MPD2    C5 8543   0.123   2.044  12.865  0.0833 -0.2505 -0.1105
  576MPD2     H 8544   0.269   2.206  12.551 -0.3016 -1.1564 -1.0097
  576MPD2    H1 8545   0.027   2.220  12.910  0.9104  2.5862 -0.1481
  576MPD2    H2 8546   0.216   1.863  12.799  0.2351 -0.5031 -1.0649
  576MPD2    H3 8547   0.075   1.996  12.949  0.2470  2.0348  1.2629
  576MPD2     N 8548   0.100   2.370  12.680  0.3292  0.4854  0.5120
  576MPD2    H5 8549   0.136   2.407  12.593  1.8485 -0.6701  0.6353
  576MPD2    N1 8550   0.332   1.960  12.564 -0.1787 -0.4416  0.8460
  576MPD2    H7 8551   0.358   2.009  12.479 -1.2316 -1.7539 -0.2494
  577TMC3    C1 8552   0.459   1.783  12.465 -0.1560 -0.7648 -0.4163
  577TMC3    C2 8553   0.565   1.694  12.497  0.6210  0.6472  0.2351
  577TMC3    C3 8554   0.658   1.661  12.403  0.0148 -0.6986 -0.1731
  577TMC3    C4 8555   0.456   1.834  12.338  0.2559 -0.6612  0.2636
  577TMC3    C5 8556   0.565   1.805  12.251 -0.3230 -0.2309 -0.1590
  577TMC3    C6 8557   0.679   1.726  12.281  0.2274 -0.2896 -0.5312
  577TMC3     C 8558   0.377   1.832  12.571  0.0404 -0.4879  0.0387
  577TMC3     O 8559   0.367   1.757  12.668 -0.0220 -0.2135 -0.1552
  577TMC3     H 8560   0.571   1.649  12.596 -0.8513 -1.9491 -0.8542
  577TMC3    H1 8561   0.370   1.892  12.306  0.9901  0.5972  0.5712
  577TMC3    H2 8562   0.764   1.718  12.214  0.3075 -0.6119 -0.3920
  577TMC3    C7 8563   0.570   1.888  12.143 -0.4049  0.2606 -0.0902
  577TMC3    C8 8564   0.687   1.520  12.387  0.3344  0.4316 -0.4246
  577TMC3    O1 8565   0.515   1.997  12.143  0.3534  0.6457 -0.4885
  577TMC3    O2 8566   0.608   1.442  12.437 -0.1156  0.1848  0.0316
  578MPD2     C 8567   3.082   1.225   1.454  0.1920  0.6189  0.1782
  578MPD2    C1 8568   3.140   1.141   1.368 -0.1806  0.3039  0.4423
  578MPD2    C2 8569   3.264   1.093   1.395 -0.5352 -0.4332 -0.7059
  578MPD2    C3 8570   3.330   1.120   1.512  0.0916 -0.5670  0.5037
  578MPD2    C4 8571   3.265   1.193   1.608 -0.5412  0.4275  0.2650
  578MPD2    C5 8572   3.145   1.252   1.570  0.3422  0.2079 -0.4528
  578MPD2     H 8573   3.313   1.032   1.321  1.9249  1.3994 -0.6103
  578MPD2    H1 8574   3.300   1.218   1.707 -0.7367  1.0321  0.1852
  578MPD2    H2 8575   2.987   1.275   1.438 -0.7815 -1.2293  0.1903
  578MPD2    H3 8576   3.092   1.311   1.643 -0.8275  0.0135 -1.1436
  578MPD2     N 8577   3.460   1.061   1.535  0.6961 -0.5307 -0.4011
  578MPD2    H5 8578   3.498   1.001   1.462  0.8689 -2.7741  1.5480
  578MPD2    N1 8579   3.066   1.102   1.251 -0.1501  0.3466  0.1477
  578MPD2    H7 8580   2.981   1.156   1.240 -0.8646 -0.3942  2.0201
  579TMC3    C1 8581   3.667   1.018   1.622  0.1385  0.3922  0.3360
  579TMC3    C2 8582   3.774   1.079   1.677  0.2737  0.8284  0.2384
  579TMC3    C3 8583   3.896   1.021   1.655 -0.1079 -0.0068 -0.2193
  579TMC3    C4 8584   3.675   0.903   1.544 -0.2149 -0.5365  0.7049
  579TMC3    C5 8585   3.804   0.865   1.515  0.6477  0.0267  0.0783
  579TMC3    C6 8586   3.915   0.912   1.569  0.2362  1.2861 -0.3422
  579TMC3     C 8587   3.544   1.088   1.643  0.1440 -0.1450  0.3505
  579TMC3     O 8588   3.548   1.187   1.715 -0.1245  0.1950 -0.3087
  579TMC3     H 8589   3.761   1.150   1.758  0.6623 -0.2352  1.2440
  579TMC3    H1 8590   3.590   0.863   1.491  0.8901 -0.6928 -0.9619
  579TMC3    H2 8591   4.011   0.869   1.546 -1.6477 -3.3253  0.4580
  579TMC3    C7 8592   3.820   0.750   1.430 -0.3338 -0.6255  0.3629
  579TMC3    C8 8593   4.002   1.084   1.730  0.7455  0.0261  0.0785
  579TMC3    O1 8594   3.924   0.684   1.437  0.0517  0.1169 -0.6605
  579TMC3    O2 8595   3.973   1.145   1.830  0.1307 -0.3344 -0.5802
  580TMC3    C1 8596   2.670   4.300  11.847 -0.1431  0.4283  0.1847
  580TMC3    C2 8597   2.660   4.256  11.708 -0.3571  0.3029  0.2028
  580TMC3    C3 8598   2.664   4.120  11.675  0.4429 -0.2303  0.8563
  580TMC3    C4 8599   2.674   4.204  11.945 -0.5032 -0.4940 -0.0489
  580TMC3    C5 8600   2.672   4.071  11.904  0.1575  0.3724 -0.2954
  580TMC3    C6 8601   2.667   4.026  11.775 -0.2782 -0.1101  0.2082
  580TMC3     C 8602   2.728   4.431  11.865 -0.7357  0.3544 -0.0440
  580TMC3     O 8603   2.758   4.485  11.759 -0.3433  0.4992  0.0824
  580TMC3     H 8604   2.643   4.329  11.631  1.9580 -0.4474 -1.0118
  580TMC3    H1 8605   2.681   4.250  12.043  0.8546 -1.2165  0.2003
  580TMC3    H2 8606   2.680   3.919  11.767  1.3324  0.1414 -0.4976
  580TMC3    C7 8607   2.680   3.988  12.021  0.0283  0.2016 -0.0782
  580TMC3    C8 8608   2.756   4.103  11.570  0.3433  0.3788 -0.1117
  580TMC3    O1 8609   2.660   4.041  12.130 -0.4687 -0.0203 -0.1315
  580TMC3    O2 8610   2.756   3.998  11.510 -0.4058  0.1344 -0.4474
  581MPD2     C 8611   1.514   4.451  14.958 -0.5049  0.3277  0.5238
  581MPD2    C1 8612   1.525   4.567  15.042  0.4130 -0.4812  0.6042
  581MPD2    C2 8613   1.434   4.668  15.023  0.0320  0.1065 -0.2815
  581MPD2    C3 8614   1.337   4.658  14.924 -0.1123 -0.0809 -0.8380
  581MPD2    C4 8615   1.338   4.554  14.837  0.2576 -0.5457  0.0900
  581MPD2    C5 8616   1.417   4.447  14.858  0.1256  0.1240 -0.4667
  581MPD2     H 8617   1.416   0.024  15.091 -0.1924  0.2900 -0.5626
  581MPD2    H1 8618   1.288   4.547  14.742 -0.5328  0.3626  0.4457
  581MPD2    H2 8619   1.591   4.374  14.957  0.5951  1.4290  0.7516
  581MPD2    H3 8620   1.412   4.372  14.780  1.4489  1.2377 -1.6289
  581MPD2     N 8621   1.240   0.031  14.918  0.2719  0.5860 -0.2685
  581MPD2    H5 8622   1.239   0.097  14.995  0.4023  0.3293 -0.0495
  581MPD2    N1 8623   1.635   4.572  15.130  0.1763  0.3953 -0.2351
  581MPD2    H7 8624   1.673   4.478  15.129  0.3928  0.4934 -0.8576
  582TMC3    C1 8625   1.777   4.633  15.310  0.1234 -0.2263 -0.0818
  582TMC3    C2 8626   1.761   4.690  15.434  0.5518 -0.1541  0.6502
  582TMC3    C3 8627   1.826   4.627  15.543  0.4236  0.4055  0.0487
  582TMC3    C4 8628   1.833   4.509  15.288  0.2521  0.1469 -0.0533
  582TMC3    C5 8629   1.881   4.447  15.399  0.6011  0.5824 -0.5064
  582TMC3    C6 8630   1.888   4.504  15.528 -0.4975 -0.4930 -0.8204
  582TMC3     C 8631   1.673   4.674  15.214  0.1472  0.8517 -0.5065
  582TMC3     O 8632   1.622   0.057  15.229 -0.3385 -0.1896 -0.2445
  582TMC3     H 8633   1.700   0.050  15.458  1.0217  0.3655 -0.0126
  582TMC3    H1 8634   1.859   4.473  15.189  1.7536 -1.0864  0.7852
  582TMC3    H2 8635   1.933   4.443  15.605 -0.9059 -0.3362 -0.4617
  582TMC3    C7 8636   1.953   4.320  15.385 -0.4590  0.4775 -0.6629
  582TMC3    C8 8637   1.799   4.677  15.679  0.1913 -0.2745 -0.3166
  582TMC3    O1 8638   2.051   4.318  15.452  0.0584  0.1685  1.0596
  582TMC3    O2 8639   1.718   0.040  15.697 -0.1276 -0.3008  0.1790
  583MPD2     C 8640   1.278   1.263  16.538 -0.5006 -0.5544 -0.0017
  583MPD2    C1 8641   1.320   1.383  16.500  0.2999  0.0114  0.8911
  583MPD2    C2 8642   1.290   1.492  16.589  0.6777 -0.1154  0.2528
  583MPD2    C3 8643   1.231   1.481  16.713 -0.0637 -0.4254 -0.4757
  583MPD2    C4 8644   1.203   1.346  16.749 -0.4475  0.4012  0.5702
  583MPD2    C5 8645   1.220   1.246  16.660  0.2657 -0.4626  0.2273
  583MPD2     H 8646   1.319   1.593  16.561 -1.6602  0.9175  1.5600
  583MPD2    H1 8647   1.171   1.322  16.850  3.6820 -3.0780  1.0892
  583MPD2    H2 8648   1.288   1.178  16.472  3.2113  1.9591 -2.6900
  583MPD2    H3 8649   1.190   1.146  16.688  0.6167 -0.1571  1.7068
  583MPD2     N 8650   1.213   1.596  16.790  0.3252 -0.6646 -0.3877
  583MPD2    H5 8651   1.246   1.687  16.759  0.0265 -1.9627 -4.4991
  583MPD2    N1 8652   1.389   1.420  16.379  0.5607  0.1066  0.1847
  583MPD2    H7 8653   1.405   1.520  16.373  0.7485  0.0884  0.3821
  584TMC3    C1 8654   1.111   1.704  16.977  0.1464 -0.1796  0.2417
  584TMC3    C2 8655   1.193   1.804  16.945  0.4331  0.4116  0.1634
  584TMC3    C3 8656   1.235   1.889  17.042 -0.8661  0.8178 -0.3124
  584TMC3    C4 8657   1.034   1.692  17.090 -0.4631  0.6021 -0.2748
  584TMC3    C5 8658   1.067   1.789  17.181  0.1012 -0.5968 -0.6257
  584TMC3    C6 8659   1.164   1.889  17.166  0.5974 -0.3286 -0.5069
  584TMC3     C 8660   1.130   1.586  16.899  0.1689  0.3834  0.0917
  584TMC3     O 8661   1.063   1.494  16.938  0.4972  0.5973  0.4164
  584TMC3     H 8662   1.224   1.827  16.844  0.4569 -3.3502 -0.6877
  584TMC3    H1 8663   0.962   1.613  17.101 -0.0884  0.1633 -0.9633
  584TMC3    H2 8664   1.191   1.954  17.249  1.6210  1.7007 -2.4127
  584TMC3    C7 8665   1.024   1.764  17.326 -0.3763  0.3247 -0.6537
  584TMC3    C8 8666   1.253   2.020  16.992 -0.1787 -0.3249  0.0554
  584TMC3    O1 8667   1.104   1.800  17.414  0.1348  0.6967  0.3476
  584TMC3    O2 8668   1.218   2.038  16.875  0.1152 -0.1196  0.2138
  585MPD2     C 8669   1.176   0.499   0.679 -0.8978 -0.5614  0.2434
  585MPD2    C1 8670   1.116   0.557   0.571  0.1233  0.0132  0.2805
  585MPD2    C2 8671   1.160   0.511   0.447  0.2788  0.4653  0.6428
  585MPD2    C3 8672   1.258   0.409   0.431 -0.6738 -0.0663  0.1188
  585MPD2    C4 8673   1.315   0.360   0.542  0.0816  0.5248  0.5228
  585MPD2    C5 8674   1.274   0.411   0.662  0.4090 -0.0332  0.3812
  585MPD2     H 8675   1.107   0.548   0.360  1.5133  1.1757  0.1916
  585MPD2    H1 8676   1.377   0.271   0.545 -0.2906  0.2543  0.1774
  585MPD2    H2 8677   1.140   0.522   0.778 -1.5669 -1.5848  0.2350
  585MPD2    H3 8678   1.316   0.359   0.747 -0.2891 -1.0407  0.1129
  585MPD2     N 8679   1.298   0.359   0.305  0.0581 -0.0173 -0.1326
  585MPD2    H5 8680   1.352   0.273   0.309 -0.9896 -0.5180  3.8038
  585MPD2    N1 8681   0.999   0.636   0.592 -0.0208 -0.5325 -0.3041
  585MPD2    H7 8682   0.950   0.631   0.681  1.1794  0.8452  0.4209
  586TMC3    C1 8683   1.296   0.310   0.074 -0.3147 -0.1221 -0.0985
  586TMC3    C2 8684   1.387   0.213   0.096 -0.1381  0.5945  0.3789
  586TMC3    C3 8685   1.400   0.122  17.699  0.2087  0.1914 -0.6762
  586TMC3    C4 8686   1.220   0.316  17.665  0.1117  0.0043  0.5799
  586TMC3    C5 8687   1.229   0.217  17.573 -0.4890  0.6631 -0.0041
  586TMC3    C6 8688   1.319   0.117  17.587 -0.0465 -0.2427  0.1442
  586TMC3     C 8689   1.253   0.402   0.184 -0.1853 -0.2628  0.1425
  586TMC3     O 8690   1.179   0.492   0.155  0.1073  0.3239  0.2445
  586TMC3     H 8691   1.474   0.217   0.161 -2.0115 -3.5203  3.1095
  586TMC3    H1 8692   1.144   0.392  17.654 -1.4184 -1.4833  0.9144
  586TMC3    H2 8693   1.331   0.035  17.516 -0.0097  0.5086 -0.7191
  586TMC3    C7 8694   1.121   0.199  17.478  0.0143  0.6403  0.2834
  586TMC3    C8 8695   1.471   4.725   0.018 -0.5433 -0.3850 -0.2130
  586TMC3    O1 8696   1.016   0.258  17.493 -0.6595 -0.5692 -0.0548
  586TMC3    O2 8697   1.554   4.681  17.645 -0.1082  0.2798 -0.1416
  587TMC3    C1 8698   3.142   3.778  16.743 -0.2583  0.3935 -0.0430
  587TMC3    C2 8699   3.138   3.913  16.716 -0.0950  1.1646  0.1443
  587TMC3    C3 8700   3.255   3.983  16.712  0.0079  0.2337  0.2366
  587TMC3    C4 8701   3.264   3.710  16.748 -0.2241 -0.1727  0.0115
  587TMC3    C5 8702   3.380   3.782  16.737  0.4851 -0.7360  0.5784
  587TMC3    C6 8703   3.379   3.921  16.721  0.6033  0.8048  0.2357
  587TMC3     C 8704   3.027   3.710  16.799 -0.2507 -0.4225 -0.8830
  587TMC3     O 8705   3.051   3.601  16.854  0.7665 -0.7422  0.5068
  587TMC3     H 8706   3.050   3.976  16.718  0.2363  1.5802  1.8001
  587TMC3    H1 8707   3.274   3.605  16.772 -2.9115 -0.1033  1.4396
  587TMC3    H2 8708   3.467   3.983  16.714  1.6905 -0.4086  3.3559
  587TMC3    C7 8709   3.505   3.716  16.725  0.2545 -0.1491 -0.0219
  587TMC3    C8 8710   3.263   4.126  16.672  0.0309 -0.3920  0.2228
  587TMC3    O1 8711   3.510   3.610  16.786 -0.2320  0.0122 -0.8761
  587TMC3    O2 8712   3.362   4.160  16.609  0.0001 -0.1156 -0.0109
  588TMC3    C1 8713   0.036   2.217   9.751  0.6175 -0.1921 -0.4374
  588TMC3    C2 8714   4.697   2.095   9.750 -0.6107  0.3894  0.2241
  588TMC3    C3 8715   0.036   1.986   9.799  0.0028  0.1124  0.2398
  588TMC3    C4 8716   0.156   2.231   9.822 -0.4594  0.5718  0.1131
  588TMC3    C5 8717   0.202   2.126   9.888 -1.3017 -0.8820  0.2538
  588TMC3    C6 8718   0.153   2.002   9.869 -0.4412 -0.0949  0.0296
  588TMC3     C 8719   4.673   2.333   9.732 -0.1037 -0.0339  0.8137
  588TMC3     O 8720   4.623   2.358   9.623  0.5754  0.5937  0.0829
  588TMC3     H 8721   4.605   2.081   9.696 -0.3250 -0.2791 -0.0878
  588TMC3    H1 8722   0.215   2.322   9.817 -1.0521  0.7810 -2.5655
  588TMC3    H2 8723   0.208   1.921   9.916 -0.2384 -0.3454 -0.6370
  588TMC3    C7 8724   0.310   2.145   9.986 -0.4922 -0.0451  0.0616
  588TMC3    C8 8725   4.702   1.858   9.791 -0.0772  0.0017 -0.4482
  588TMC3    O1 8726   0.352   2.050  10.055 -0.3615 -0.0306 -0.2716
  588TMC3    O2 8727   4.619   1.838   9.703  0.5099 -0.0925 -0.2796
  589TMC3    C1 8728   0.039   4.120   1.237 -0.7879 -0.0553  0.8258
  589TMC3    C2 8729   0.091   4.185   1.346  0.2271  0.3074  0.1152
  589TMC3    C3 8730   0.203   4.130   1.405  0.3225 -0.5452 -0.2091
  589TMC3    C4 8731   0.100   4.007   1.188 -0.2298  0.2467 -0.2603
  589TMC3    C5 8732   0.199   3.945   1.261 -0.5190 -0.0049 -0.5888
  589TMC3    C6 8733   0.253   4.009   1.370  0.3142  0.2021  0.2179
  589TMC3     C 8734   4.655   4.177   1.166  0.3845  0.7591 -0.4039
  589TMC3     O 8735   4.648   4.160   1.045 -0.2957  0.3665  0.4685
  589TMC3     H 8736   0.057   4.282   1.381 -0.2343 -0.1667  0.9779
  589TMC3    H1 8737   0.048   3.966   1.102 -2.3341  1.3227  0.5068
  589TMC3    H2 8738   0.308   3.947   1.441 -0.2220  0.4344  0.8343
  589TMC3    C7 8739   0.248   3.813   1.228  0.4687  0.6810  0.0916
  589TMC3    C8 8740   0.262   4.212   1.511 -0.0587  0.3633  0.0038
  589TMC3    O1 8741   0.353   3.778   1.287  0.5311 -0.6650 -0.8221
  589TMC3    O2 8742   0.194   4.306   1.549 -0.1208 -0.3459  0.5743
  590MPD2     C 8743   3.529   2.308  16.873  0.1743 -0.0621  0.2308
  590MPD2    C1 8744   3.521   2.367  16.745  0.3986  0.1572  0.2834
  590MPD2    C2 8745   3.633   2.412  16.678  0.1559 -0.2132  0.4911
  590MPD2    C3 8746   3.758   2.411  16.734  0.1753  0.2676 -0.9517
  590MPD2    C4 8747   3.761   2.356  16.861  0.4049 -0.0036  0.5186
  590MPD2    C5 8748   3.655   2.304  16.926  0.5882  0.0167  0.1030
  590MPD2     H 8749   3.630   2.473  16.589  3.0798 -0.6147  0.1413
  590MPD2    H1 8750   3.854   2.362  16.915 -0.4543  0.9662  1.8576
  590MPD2    H2 8751   3.446   2.262  16.925 -0.8596  0.8685 -0.6130
  590MPD2    H3 8752   3.663   2.263  17.026  0.7235 -1.7035 -0.6125
  590MPD2     N 8753   3.866   2.464  16.657  0.1474 -0.7034 -0.4605
  590MPD2    H5 8754   3.838   2.509  16.571  2.3167  1.3728 -0.0756
  590MPD2    N1 8755   3.392   2.381  16.683 -0.5849  0.2673  0.0235
  590MPD2    H7 8756   3.316   2.351  16.744 -0.9677 -0.1658 -0.6638
  591TMC3    C1 8757   4.077   2.545  16.601  0.2596 -0.2207 -0.3780
  591TMC3    C2 8758   4.167   2.475  16.530  0.4539  0.9048 -0.6948
  591TMC3    C3 8759   4.206   2.532  16.413  0.3459  0.0467 -0.0266
  591TMC3    C4 8760   4.027   2.666  16.567 -0.0507 -0.2541 -0.4803
  591TMC3    C5 8761   4.068   2.720  16.448 -0.2899  0.4018 -0.1779
  591TMC3    C6 8762   4.156   2.646  16.362 -0.4088  1.0376 -0.3586
  591TMC3     C 8763   3.997   2.466  16.692  0.4197 -0.2495  0.4159
  591TMC3     O 8764   4.057   2.414  16.784 -0.5465 -0.1851 -0.0591
  591TMC3     H 8765   4.203   2.376  16.556  0.6391  0.8484 -1.1717
  591TMC3    H1 8766   3.956   2.711  16.635  1.0121 -0.3476  0.6870
  591TMC3    H2 8767   4.184   2.687  16.265  0.3143 -1.8002 -1.3538
  591TMC3    C7 8768   4.009   2.845  16.405  0.3488  0.4472 -0.0215
  591TMC3    C8 8769   4.271   2.449  16.318  0.0009  0.2323  0.4047
  591TMC3    O1 8770   3.918   2.879  16.475  0.7868  0.0353 -0.2487
  591TMC3    O2 8771   4.247   2.471  16.198  0.8375 -0.7185 -0.1651
  592MPD2     C 8772   4.033   4.415  11.541  0.4002 -0.3606 -0.0545
  592MPD2    C1 8773   4.045   4.446  11.672  0.1602 -0.4453  0.5730
  592MPD2    C2 8774   3.983   4.360  11.766 -0.5604 -0.0512 -0.1177
  592MPD2    C3 8775   3.910   4.249  11.723  0.0739 -0.1305 -0.0513
  592MPD2    C4 8776   3.891   4.228  11.590  0.3191 -0.0342 -0.1050
  592MPD2    C5 8777   3.951   4.314  11.500  0.0203  0.0151 -0.2806
  592MPD2     H 8778   3.982   4.374  11.873 -0.5033  0.0409 -0.1292
  592MPD2    H1 8779   3.850   4.133  11.558 -1.2763  1.0036 -1.1442
  592MPD2    H2 8780   4.076   4.465  11.455 -1.1945  0.2537 -0.5038
  592MPD2    H3 8781   3.955   4.285  11.396 -0.2465  1.1940 -0.6133
  592MPD2     N 8782   3.854   4.163  11.823  0.2563 -0.3369 -0.5282
  592MPD2    H5 8783   3.880   4.183  11.919 -1.9233  1.9090 -0.4038
  592MPD2    N1 8784   4.126   4.561  11.697 -0.6973  0.0108  0.2067
  592MPD2    H7 8785   4.170   4.611  11.620 -0.4672 -1.5985 -0.7037
  593TMC3    C1 8786   4.235   4.717  11.839 -0.4745  0.4429  0.2716
  593TMC3    C2 8787   4.229   0.032  11.970  0.9386 -0.0661  0.4529
  593TMC3    C3 8788   4.239   0.170  11.987  0.3368 -0.2725 -0.0056
  593TMC3    C4 8789   4.265   0.084  11.737  0.5041  0.7056 -0.6659
  593TMC3    C5 8790   4.277   0.212  11.765 -0.3008  0.9201 -0.7210
  593TMC3    C6 8791   4.270   0.261  11.892 -0.1117 -0.2923  0.3650
  593TMC3     C 8792   4.176   4.586  11.825 -0.2736  0.2090 -0.4952
  593TMC3     O 8793   4.181   4.515  11.926 -0.2005 -0.3677 -0.2847
  593TMC3     H 8794   4.195   4.692  12.050 -1.8504 -0.6419 -1.1863
  593TMC3    H1 8795   4.261   0.048  11.635 -1.2215  1.0955 -0.7428
  593TMC3    H2 8796   4.248   0.367  11.904 -1.9001 -0.4683 -1.2837
  593TMC3    C7 8797   4.298   0.315  11.660 -0.4740 -0.3327  0.2452
  593TMC3    C8 8798   4.221   0.221  12.118  0.1577  0.0663  0.0250
  593TMC3    O1 8799   4.330   0.427  11.697  0.6939 -0.4340  0.0674
  593TMC3    O2 8800   4.150   0.167  12.202 -0.1508  0.0842  0.2332
  594MPD2     C 8801   2.940   3.068  14.940 -0.4343  0.6550 -0.0547
  594MPD2    C1 8802   2.873   3.185  14.908  0.8194 -0.0398  0.4023
  594MPD2    C2 8803   2.928   3.266  14.815 -0.4154  0.2596  0.1841
  594MPD2    C3 8804   3.050   3.237  14.754  0.2976  0.3506 -0.7798
  594MPD2    C4 8805   3.102   3.111  14.772 -0.1465  0.1256 -0.1782
  594MPD2    C5 8806   3.043   3.024  14.866 -0.2693  0.4182 -0.0830
  594MPD2     H 8807   2.883   3.362  14.792  0.6269  0.4453 -1.0773
  594MPD2    H1 8808   3.176   3.063  14.709 -0.3473  0.9270 -1.0262
  594MPD2    H2 8809   2.890   2.999  15.007  0.3773  0.3888  0.2811
  594MPD2    H3 8810   3.081   2.924  14.882 -2.1773 -0.2612  0.2805
  594MPD2     N 8811   3.110   3.330  14.663  0.2440  0.8504  0.3858
  594MPD2    H5 8812   3.064   3.420  14.653 -0.8342  0.2165 -0.3947
  594MPD2    N1 8813   2.752   3.210  14.979  0.3455 -0.0883  0.3284
  594MPD2    H7 8814   2.729   3.131  15.039 -1.2033  2.0107  2.5091
  595TMC3    C1 8815   3.463   3.533  14.453 -0.6528 -0.3943  0.1696
  595TMC3    C2 8816   3.403   3.416  14.479 -0.1372 -0.1261  0.4567
  595TMC3    C3 8817   3.273   3.423  14.524 -0.9855 -0.0967  0.5597
  595TMC3    C4 8818   3.413   3.655  14.474  0.1490 -0.3930  0.5840
  595TMC3    C5 8819   3.275   3.659  14.498 -0.2081  0.6099  0.2059
  595TMC3    C6 8820   3.208   3.546  14.539 -0.6766  0.0611 -0.3106
  595TMC3     C 8821   3.604   3.521  14.420 -0.6062  0.3322 -0.4123
  595TMC3     O 8822   3.636   3.410  14.375  0.1601 -0.2180  0.2076
  595TMC3     H 8823   3.453   3.321  14.463  0.5678 -0.0214  1.9901
  595TMC3    H1 8824   3.473   3.737  14.437 -3.0025  1.6578 -0.0499
  595TMC3    H2 8825   3.115   3.566  14.591  0.4382 -1.1000  2.1186
  595TMC3    C7 8826   3.212   3.788  14.502 -0.2602 -0.2727  0.5939
  595TMC3    C8 8827   3.225   3.307  14.596 -0.3744  0.1836  0.4765
  595TMC3    O1 8828   3.105   3.794  14.560 -0.0941 -0.1132  0.2373
  595TMC3    O2 8829   3.304   3.209  14.593 -0.3644  0.5462  0.4905
  596MPD2     C 8830   1.977   1.298  16.643  0.6289 -0.3373 -0.2559
  596MPD2    C1 8831   1.990   1.414  16.568  0.3327 -0.4397 -0.1012
  596MPD2    C2 8832   2.037   1.415  16.437 -0.2935 -0.0311 -0.6697
  596MPD2    C3 8833   2.055   1.293  16.370 -0.3406 -0.1254 -1.0880
  596MPD2    C4 8834   2.044   1.180  16.449  0.4157  0.3567  0.0692
  596MPD2    C5 8835   2.014   1.182  16.584  0.0121  0.4554  0.1272
  596MPD2     H 8836   2.039   1.511  16.386  0.4770  0.7318  0.7826
  596MPD2    H1 8837   2.085   1.089  16.406 -2.2053 -0.7873 -0.0133
  596MPD2    H2 8838   1.932   1.298  16.742 -0.7526  0.9576 -0.8913
  596MPD2    H3 8839   2.008   1.090  16.640  0.5053  0.5017  0.2496
  596MPD2     N 8840   2.093   1.276  16.235  0.5656  0.3890  0.2613
  596MPD2    H5 8841   2.100   1.179  16.204  0.1382  1.1766 -2.3314
  596MPD2    N1 8842   1.965   1.545  16.614 -0.3027  0.0984 -0.2576
  596MPD2    H7 8843   1.974   1.627  16.555 -1.2048 -0.1591 -0.7537
  597TMC3    C1 8844   1.965   1.711  16.776  1.0590  0.1110 -0.3443
  597TMC3    C2 8845   2.059   1.779  16.707 -0.1197 -0.2447  0.2581
  597TMC3    C3 8846   2.128   1.882  16.763  0.1935  0.7718  0.5028
  597TMC3    C4 8847   1.931   1.743  16.904  0.4991 -0.3606  0.0322
  597TMC3    C5 8848   1.994   1.849  16.951 -0.0211 -0.0180 -0.1536
  597TMC3    C6 8849   2.097   1.918  16.890  0.5083 -0.0115  0.3850
  597TMC3     C 8850   1.933   1.575  16.739 -0.3178 -0.3449  0.7605
  597TMC3     O 8851   1.874   1.506  16.822  0.0656  0.6172  0.0894
  597TMC3     H 8852   2.074   1.762  16.602 -0.2421  0.8942  0.0503
  597TMC3    H1 8853   1.850   1.689  16.952  0.8743 -0.4935  0.5191
  597TMC3    H2 8854   2.145   2.002  16.939 -0.6659  1.1688 -0.5015
  597TMC3    C7 8855   1.928   1.905  17.071  0.7536 -0.5776  1.2520
  597TMC3    C8 8856   2.220   1.961  16.684 -0.7314  0.3942  0.1310
  597TMC3    O1 8857   1.859   1.834  17.143 -0.4270 -0.2668  0.5411
  597TMC3    O2 8858   2.211   2.081  16.701  0.7878  0.4096 -0.4256
  598TMC3    C1 8859   0.153   2.755  15.322  0.1428 -0.1801 -0.6738
  598TMC3    C2 8860   0.074   2.643  15.310 -0.0998 -0.2318 -0.0613
  598TMC3    C3 8861   0.027   2.626  15.184  0.0992  0.2846  0.1644
  598TMC3    C4 8862   0.187   2.839  15.219 -0.0298  0.3127 -0.0111
  598TMC3    C5 8863   0.149   2.810  15.094  0.0247 -0.7448  0.3750
  598TMC3    C6 8864   0.061   2.705  15.077 -0.0256  0.5222 -0.1489
  598TMC3     C 8865   0.228   2.774  15.439  0.0574  0.0075  0.1891
  598TMC3     O 8866   0.304   2.869  15.440 -0.0382  0.4714  0.2674
  598TMC3     H 8867   0.032   2.582  15.389  0.2458  0.1583  0.4250
  598TMC3    H1 8868   0.259   2.919  15.233 -2.7480  2.4851  1.5545
  598TMC3    H2 8869   0.018   2.686  14.979  0.3041 -1.0449  0.0028
  598TMC3    C7 8870   0.178   2.885  14.972 -0.0973  0.2861 -0.2864
  598TMC3    C8 8871   4.691   2.500  15.170  0.2412  0.0028 -0.0763
  598TMC3    O1 8872   0.126   2.841  14.870 -0.6359  0.2851  0.4636
  598TMC3    O2 8873   4.644   2.437  15.261 -0.5481  0.0977  0.1308
  599MPD2     C 8874   0.470   0.699  15.476 -0.3531 -0.2909  0.1134
  599MPD2    C1 8875   0.421   0.584  15.530 -0.0694 -0.3016  0.6800
  599MPD2    C2 8876   0.296   0.588  15.587 -0.1832 -0.3811 -0.2788
  599MPD2    C3 8877   0.230   0.708  15.599 -0.8639 -0.6177 -0.4601
  599MPD2    C4 8878   0.283   0.827  15.555  0.8951  0.7042  0.2687
  599MPD2    C5 8879   0.398   0.819  15.494  0.3720  0.1570  0.5033
  599MPD2     H 8880   0.256   0.495  15.627  2.5801 -0.9350  1.1938
  599MPD2    H1 8881   0.235   0.921  15.578  0.2088  0.9215 -2.1383
  599MPD2    H2 8882   0.569   0.705  15.434  0.4087  1.1164  2.1071
  599MPD2    H3 8883   0.444   0.912  15.461 -0.3585  0.5842  0.6916
  599MPD2     N 8884   0.101   0.716  15.658 -0.2354  0.2165 -0.1700
  599MPD2    H5 8885   0.070   0.812  15.669 -0.8060 -0.0967  0.9822
  599MPD2    N1 8886   0.508   0.473  15.525 -0.4017  0.5602  0.1235
  599MPD2    H7 8887   0.601   0.483  15.486 -0.7023  0.3012 -0.6610
  600TMC3    C1 8888   4.635   0.646  15.785 -0.3666  0.2298  0.1879
  600TMC3    C2 8889   4.550   0.545  15.813  0.5131  0.0340 -0.7845
  600TMC3    C3 8890   4.461   0.553  15.913 -0.0227  0.0225  0.7936
  600TMC3    C4 8891   4.634   0.758  15.857  0.1752  0.5780  0.6145
  600TMC3    C5 8892   4.559   0.759  15.974  0.9689 -0.6881  0.1074
  600TMC3    C6 8893   4.467   0.662  15.993  0.6321 -0.2156  0.1065
  600TMC3     C 8894   0.023   0.610  15.700 -0.4983 -0.4994  0.3377
  600TMC3     O 8895   0.045   0.491  15.691 -0.4213 -0.1660  0.3291
  600TMC3     H 8896   4.548   0.458  15.748 -1.6821  0.0788 -0.7452
  600TMC3    H1 8897   4.711   0.831  15.835  1.6747 -1.1567  0.1247
  600TMC3    H2 8898   4.412   0.666  16.086 -1.2257  0.8573 -1.0501
  600TMC3    C7 8899   4.591   0.844  16.098  0.4635 -0.3252  0.3307
  600TMC3    C8 8900   4.431   0.426  15.971  0.7783  0.2783 -0.5290
  600TMC3    O1 8901   4.495   0.884  16.162 -0.0705  0.1828 -0.0200
  600TMC3    O2 8902   4.504   0.333  15.935  0.4987  0.5005  0.2349
  601MPD2     C 8903   2.411   4.008   0.031  0.4479 -0.2725 -0.2281
  601MPD2    C1 8904   2.374   3.909  17.651  0.4708 -0.4775 -0.0596
  601MPD2    C2 8905   2.366   3.778  17.699 -0.4669 -0.5264 -0.0847
  601MPD2    C3 8906   2.417   3.756   0.121  0.4321 -0.3315 -0.0687
  601MPD2    C4 8907   2.468   3.857   0.202 -0.2885 -0.4769 -0.0448
  601MPD2    C5 8908   2.456   3.992   0.160  0.3577  1.1326 -0.1252
  601MPD2     H 8909   2.310   3.707  17.639  0.0347 -0.3656 -0.7394
  601MPD2    H1 8910   2.495   3.845   0.307 -1.0453 -2.1261 -0.0293
  601MPD2    H2 8911   2.401   4.108  17.695 -0.0826  0.1059  0.8095
  601MPD2    H3 8912   2.488   4.074   0.223  0.3586  1.6565 -0.8108
  601MPD2     N 8913   2.421   3.621   0.174  0.6636  0.4602  0.5945
  601MPD2    H5 8914   2.469   3.608   0.263  1.3096 -0.2608  0.1392
  601MPD2    N1 8915   2.327   3.946  17.528 -0.8204  0.3058 -0.0154
  601MPD2    H7 8916   2.273   3.878  17.476 -1.1671  1.3681 -1.0585
  602TMC3    C1 8917   2.282   4.049  17.338 -0.5893  0.2147  0.4281
  602TMC3    C2 8918   2.322   4.141  17.240 -0.4883  0.4456  0.3706
  602TMC3    C3 8919   2.227   4.192  17.152 -0.2537 -0.2780 -0.9571
  602TMC3    C4 8920   2.150   4.017  17.348  0.4880 -0.4057 -0.4717
  602TMC3    C5 8921   2.066   4.060  17.251  0.0452  0.2292 -0.0955
  602TMC3    C6 8922   2.097   4.146  17.152  0.8128 -0.0936 -0.5524
  602TMC3     C 8923   2.362   4.060  17.456  0.3848  0.3350 -0.4323
  602TMC3     O 8924   2.437   4.153  17.476 -0.0852 -0.2269  0.9171
  602TMC3     H 8925   2.425   4.174  17.238 -0.4659  0.3878  0.6668
  602TMC3    H1 8926   2.108   3.960  17.430  0.3410  1.8680  1.0214
  602TMC3    H2 8927   2.025   4.170  17.076 -0.0553  0.1598  0.3476
  602TMC3    C7 8928   1.921   4.051  17.286 -0.2563  0.3878 -0.2706
  602TMC3    C8 8929   2.260   4.283  17.041 -0.1270 -0.8704 -0.4709
  602TMC3    O1 8930   1.891   3.949  17.349 -0.2860  0.0641  0.2820
  602TMC3    O2 8931   2.364   4.260  16.979  0.6235 -0.3415 -0.1491
  603TMC3    C1 8932   0.130   3.959  10.899  0.3566 -0.3936 -0.8759
  603TMC3    C2 8933   0.159   3.949  11.031 -0.2815 -0.2952 -0.8453
  603TMC3    C3 8934   0.182   4.069  11.095 -0.4468 -0.2839 -0.8441
  603TMC3    C4 8935   0.138   4.073  10.821  0.4451  0.4714 -0.2607
  603TMC3    C5 8936   0.162   4.188  10.890 -0.3147  0.6939 -0.2285
  603TMC3    C6 8937   0.183   4.186  11.026  0.6393  0.2024 -0.0262
  603TMC3     C 8938   0.110   3.828  10.835 -1.2545  0.4168 -0.1187
  603TMC3     O 8939   0.170   3.735  10.889 -0.3397  0.2198  0.2675
  603TMC3     H 8940   0.170   3.858  11.089  2.4176 -1.7674 -3.6614
  603TMC3    H1 8941   0.140   4.060  10.714  2.0424  1.7626 -0.3903
  603TMC3    H2 8942   0.232   4.271  11.073  0.0154 -0.3323  1.5840
  603TMC3    C7 8943   0.148   4.319  10.825 -1.0996 -0.2963 -0.4014
  603TMC3    C8 8944   0.201   4.057  11.240  0.5486 -0.0152  0.0850
  603TMC3    O1 8945   0.167   4.414  10.901  0.0243  0.1945 -0.2699
  603TMC3    O2 8946   0.213   3.942  11.281 -0.3564  0.4287 -0.4738
  604MPD2     C 8947   1.176   2.366  16.313  0.0754 -0.8907 -0.5507
  604MPD2    C1 8948   1.126   2.476  16.249  0.2565 -0.5592 -0.7709
  604MPD2    C2 8949   1.147   2.496  16.113  0.0933 -0.4273  0.2576
  604MPD2    C3 8950   1.235   2.414  16.051 -0.2668 -0.8446 -0.2691
  604MPD2    C4 8951   1.298   2.306  16.117  0.5607  0.2574  0.1207
  604MPD2    C5 8952   1.264   2.282  16.249  0.2988  0.0123  0.3000
  604MPD2     H 8953   1.104   2.582  16.064  2.7093  1.4699  1.3028
  604MPD2    H1 8954   1.360   2.241  16.058  1.1155  0.0839  0.8944
  604MPD2    H2 8955   1.148   2.344  16.415 -2.5459 -0.5176 -1.1996
  604MPD2    H3 8956   1.307   2.194  16.296  0.5091  0.3616  0.7516
  604MPD2     N 8957   1.254   2.434  15.913  1.0978  0.3470  0.9250
  604MPD2    H5 8958   1.199   2.512  15.878 -0.0618 -1.4720 -1.3259
  604MPD2    N1 8959   1.044   2.566  16.318 -0.2426 -0.0445 -0.1357
  604MPD2    H7 8960   1.040   2.572  16.419 -2.7053  4.5432 -0.4757
  605TMC3    C1 8961   0.929   2.786  16.321 -0.0527  0.5831 -0.4612
  605TMC3    C2 8962   1.011   2.833  16.417  0.4222  0.1512 -0.0384
  605TMC3    C3 8963   0.998   2.962  16.464 -0.1105 -0.0807 -0.2199
  605TMC3    C4 8964   0.833   2.858  16.274  0.0644  0.2940 -0.2391
  605TMC3    C5 8965   0.825   2.987  16.311  0.2800  0.3143 -0.1040
  605TMC3    C6 8966   0.908   3.045  16.404 -0.1794  0.3138  0.7042
  605TMC3     C 8967   0.969   2.662  16.250  0.1838  0.1086 -1.0148
  605TMC3     O 8968   0.900   2.638  16.151 -0.3704 -0.7533 -0.1450
  605TMC3     H 8969   1.091   2.772  16.458 -0.3098 -1.5060 -1.0436
  605TMC3    H1 8970   0.770   2.827  16.192  2.5059 -0.2441 -1.8807
  605TMC3    H2 8971   0.881   3.142  16.446 -2.7042  0.1519 -0.5366
  605TMC3    C7 8972   0.693   3.048  16.299 -0.0694  0.3626 -0.3080
  605TMC3    C8 8973   1.073   3.000  16.582 -0.1420 -0.5356 -0.2644
  605TMC3    O1 8974   0.683   3.170  16.298  0.0692 -0.8933  0.5294
  605TMC3    O2 8975   1.124   2.906  16.642 -0.0947  0.1872 -0.0476
  606TMC3    C1 8976   2.437   2.019   0.022 -0.3464  0.5188 -0.4411
  606TMC3    C2 8977   2.383   1.985   0.143  0.1244  0.3006 -0.6184
  606TMC3    C3 8978   2.296   1.881   0.141 -0.7519 -0.6803 -0.0691
  606TMC3    C4 8979   2.389   1.972  17.608  0.2768  0.3006 -0.0327
  606TMC3    C5 8980   2.299   1.871  17.612  0.1268 -0.1122 -0.4480
  606TMC3    C6 8981   2.243   1.831   0.029 -0.1683  0.7936 -0.2286
  606TMC3     C 8982   2.548   2.108   0.035  0.0293 -0.0800 -0.5830
  606TMC3     O 8983   2.559   2.176   0.133  0.3622 -0.1157  0.0660
  606TMC3     H 8984   2.425   2.022   0.235  2.1058 -0.5496 -1.1656
  606TMC3    H1 8985   2.433   2.003  17.514 -0.2426  2.3581  0.3833
  606TMC3    H2 8986   2.153   1.771   0.033 -0.5651  1.4712  1.4586
  606TMC3    C7 8987   2.250   1.811  17.487 -0.6161 -0.3998  0.0405
  606TMC3    C8 8988   2.306   1.786   0.252  0.9825  0.3197  0.1012
  606TMC3    O1 8989   2.250   1.884  17.388  0.1037 -0.4867 -0.0379
  606TMC3    O2 8990   2.290   1.666   0.222 -0.1256  0.4649  0.4161
  607MPD2     C 8991   4.150   3.953  11.781 -0.0311  0.6822  0.0002
  607MPD2    C1 8992   4.181   4.037  11.886  0.3126  0.4819  0.1908
  607MPD2    C2 8993   4.159   3.999  12.021 -0.1828 -0.3025 -0.2608
  607MPD2    C3 8994   4.111   3.877  12.047  0.1856 -0.6382  0.5900
  607MPD2    C4 8995   4.071   3.794  11.947  0.7559 -0.0043  0.4349
  607MPD2    C5 8996   4.085   3.834  11.821 -0.3454 -0.1588  0.1899
  607MPD2     H 8997   4.189   4.067  12.099  1.4063 -0.7579 -0.4813
  607MPD2    H1 8998   4.025   3.698  11.965  0.4676  0.0013 -0.3102
  607MPD2    H2 8999   4.178   3.975  11.678  1.5313  0.5181  0.3965
  607MPD2    H3 9000   4.046   3.770  11.743 -2.2158  3.7409 -2.1340
  607MPD2     N 9001   4.108   3.848  12.182 -0.3419  0.0009 -0.2699
  607MPD2    H5 9002   4.141   3.925  12.239  1.6193 -1.6010  0.7743
  607MPD2    N1 9003   4.262   4.153  11.870  0.2919  0.2668 -0.2863
  607MPD2    H7 9004   4.271   4.202  11.959 -2.2544  0.4849 -0.1661
  608TMC3    C1 9005   4.420   4.298  11.788 -0.0961 -0.3321  0.2533
  608TMC3    C2 9006   4.460   4.318  11.920  0.5548 -0.2499 -0.2116
  608TMC3    C3 9007   4.538   4.422  11.955  0.1192  0.2169  0.6947
  608TMC3    C4 9008   4.452   4.386  11.692  0.3224 -0.0059 -0.0045
  608TMC3    C5 9009   4.528   4.493  11.726 -0.1946 -0.3356  0.2245
  608TMC3    C6 9010   4.569   4.518  11.859  0.3332 -0.0889  0.3923
  608TMC3     C 9011   4.333   4.190  11.759  0.0064 -0.5772 -0.4416
  608TMC3     O 9012   4.314   4.152  11.643  0.2571 -0.0343 -0.0882
  608TMC3     H 9013   4.440   4.235  11.986 -3.4339  1.0044  0.1950
  608TMC3    H1 9014   4.395   4.376  11.601 -0.4305 -1.0231  0.5829
  608TMC3    H2 9015   4.637   4.597  11.890  1.1907 -1.1286  1.1252
  608TMC3    C7 9016   4.537   4.603  11.632 -0.0192 -0.1107  0.2844
  608TMC3    C8 9017   4.568   4.448  12.098 -0.5419 -0.3760 -0.2256
  608TMC3    O1 9018   4.490   4.581  11.521 -0.0377  0.2121 -0.1862
  608TMC3    O2 9019   4.597   4.559  12.135 -0.0318  0.4678  0.1801
  609TMC3    C1 9020   2.535   2.839   9.162  0.0230  0.0824  0.1084
  609TMC3    C2 9021   2.550   2.870   9.028  0.5505 -0.4380 -0.0369
  609TMC3    C3 9022   2.657   2.816   8.961  0.0337  0.0215 -0.6132
  609TMC3    C4 9023   2.627   2.763   9.225 -0.7683 -0.5823 -0.4300
  609TMC3    C5 9024   2.731   2.708   9.157  0.1486  0.7089 -0.0768
  609TMC3    C6 9025   2.757   2.748   9.027 -0.0355  0.6475  0.4689
  609TMC3     C 9026   2.420   2.885   9.237  0.0329 -0.5377  0.4071
  609TMC3     O 9027   2.414   2.850   9.351  0.2810  0.0822  0.6174
  609TMC3     H 9028   2.468   2.914   8.972 -0.4094 -1.5939  0.4434
  609TMC3    H1 9029   2.621   2.748   9.333 -1.5770  0.4574 -0.3417
  609TMC3    H2 9030   2.855   2.732   8.984 -1.2368  0.6964 -2.2713
  609TMC3    C7 9031   2.829   2.650   9.235  0.0386 -0.2861 -0.5240
  609TMC3    C8 9032   2.693   2.863   8.828 -0.1353  0.3620 -0.1830
  609TMC3    O1 9033   2.849   2.688   9.347  0.8643 -0.4159 -0.2289
  609TMC3    O2 9034   2.784   2.813   8.763  0.0387  0.3033 -0.3870
  610TMC3    C1 9035   0.154   4.184  12.723  0.0758 -0.1223  0.2394
  610TMC3    C2 9036   0.110   4.146  12.601 -0.6148 -0.1002 -0.2971
  610TMC3    C3 9037   0.194   4.153  12.495 -0.2980  0.1700 -0.0132
  610TMC3    C4 9038   0.282   4.230  12.739 -0.3351 -0.4927 -0.5305
  610TMC3    C5 9039   0.370   4.227  12.638  0.1554 -0.7775  0.2355
  610TMC3    C6 9040   0.319   4.206  12.508 -0.0361  0.2475 -0.3520
  610TMC3     C 9041   0.059   4.196  12.829  0.1683 -0.3916  0.0759
  610TMC3     O 9042   0.090   4.273  12.920  0.4704  0.6435 -0.4176
  610TMC3     H 9043   0.004   4.129  12.584  0.1579 -3.4467 -1.7367
  610TMC3    H1 9044   0.322   4.243  12.838 -0.1838 -0.2292 -0.6253
  610TMC3    H2 9045   0.388   4.220  12.426  0.1315 -2.0724 -0.6182
  610TMC3    C7 9046   0.496   4.163  12.671 -0.0548 -0.0000  0.2747
  610TMC3    C8 9047   0.150   4.105  12.364  0.1991  0.1098  0.3532
  610TMC3    O1 9048   0.543   4.086  12.592 -0.8382  0.0603  0.2018
  610TMC3    O2 9049   0.214   4.147  12.270 -0.4496 -0.0976  0.1883
  611MPD2     C 9050   3.958   3.810  10.059 -0.0618  0.2779  0.0819
  611MPD2    C1 9051   3.991   3.873  10.175  0.8716 -0.5456 -0.1374
  611MPD2    C2 9052   4.057   3.997  10.161 -0.3527 -0.3323 -0.1875
  611MPD2    C3 9053   4.095   4.052  10.039  0.1241 -0.5132  0.1469
  611MPD2    C4 9054   4.069   3.978   9.926  0.4875  0.7493 -0.4014
  611MPD2    C5 9055   4.003   3.853   9.938 -0.0181 -0.4679  0.3249
  611MPD2     H 9056   4.075   4.050  10.253 -1.1758  0.5853 -0.5523
  611MPD2    H1 9057   4.105   4.022   9.834  0.9589  1.0160 -0.0867
  611MPD2    H2 9058   3.901   3.718  10.067 -0.5943  0.5638 -0.3996
  611MPD2    H3 9059   3.980   3.797   9.847 -0.5867 -1.3970  1.0350
  611MPD2     N 9060   4.176   4.167  10.022 -0.6006  0.3918 -0.7355
  611MPD2    H5 9061   4.219   4.179   9.931 -0.7490 -0.1539 -0.8770
  611MPD2    N1 9062   3.945   3.818  10.297  0.3092 -0.1102 -0.4926
  611MPD2    H7 9063   3.904   3.725  10.296 -0.6987  0.3359 -0.6833
  612TMC3    C1 9064   4.283   4.366  10.080  0.8315  0.0599  0.1371
  612TMC3    C2 9065   4.367   4.416  10.178  0.6210 -0.4887  0.4970
  612TMC3    C3 9066   4.398   4.548  10.178 -0.1154 -0.4991 -0.1598
  612TMC3    C4 9067   4.214   4.445   9.999 -0.3898 -0.2884  0.1879
  612TMC3    C5 9068   4.245   4.581  10.009  0.1675 -0.6069  0.1331
  612TMC3    C6 9069   4.337   4.635  10.094  0.0206 -0.6142  0.7006
  612TMC3     C 9070   4.212   4.251  10.121 -0.4201 -1.2555  0.2189
  612TMC3     O 9071   4.196   4.229  10.239  0.2206  0.5832  0.2566
  612TMC3     H 9072   4.391   4.348  10.259 -1.1413  0.3992  1.7723
  612TMC3    H1 9073   4.130   4.407   9.942  0.8728 -2.0327 -0.4793
  612TMC3    H2 9074   4.371   0.011  10.090  0.1273 -0.6654  0.3078
  612TMC3    C7 9075   4.142   4.653   9.945  0.4066  0.7901 -0.4003
  612TMC3    C8 9076   4.481   4.601  10.280  0.2469  0.8439  0.2224
  612TMC3    O1 9077   4.052   4.594   9.893 -0.0819  0.2555  0.0934
  612TMC3    O2 9078   4.495   4.721  10.295  0.4435 -0.0719  0.8239
  613MPD2     C 9079   3.620   1.970  16.875  0.3648 -0.2424  0.3942
  613MPD2    C1 9080   3.503   1.948  16.812  0.4792  0.7862  0.0389
  613MPD2    C2 9081   3.417   1.851  16.860 -0.2114  0.4196 -0.8814
  613MPD2    C3 9082   3.461   1.777  16.971  0.4742 -0.0277  0.6506
  613MPD2    C4 9083   3.577   1.802  17.043 -0.6977 -0.4590 -0.0623
  613MPD2    C5 9084   3.659   1.901  16.991 -0.4881 -0.0893 -0.1712
  613MPD2     H 9085   3.326   1.827  16.805 -0.7897 -0.1746  0.3516
  613MPD2    H1 9086   3.612   1.752  17.132 -0.1702  1.0989  0.6193
  613MPD2    H2 9087   3.693   2.034  16.827  0.0739 -0.2869 -0.1085
  613MPD2    H3 9088   3.753   1.912  17.043 -2.0043 -2.4814  3.1021
  613MPD2     N 9089   3.389   1.664  17.026  0.5211  0.1645  0.1148
  613MPD2    H5 9090   3.437   1.603  17.092  0.2912 -2.2817 -2.0002
  613MPD2    N1 9091   3.493   2.003  16.685  0.4072  0.3167 -0.1807
  613MPD2    H7 9092   3.580   2.019  16.635  0.6936 -0.7062 -0.0116
  614TMC3    C1 9093   3.380   1.997  16.474 -0.1435  0.3091  0.4235
  614TMC3    C2 9094   3.468   1.899  16.433  0.1260  0.6517  0.6523
  614TMC3    C3 9095   3.427   1.807  16.340  0.2533 -0.4981  0.6722
  614TMC3    C4 9096   3.265   2.017  16.393  1.0383 -0.8521 -0.5202
  614TMC3    C5 9097   3.235   1.935  16.288 -0.0298  0.8321 -1.3238
  614TMC3    C6 9098   3.310   1.822  16.263 -0.0740  0.0928 -0.0593
  614TMC3     C 9099   3.373   2.009  16.619  0.5623 -0.3946 -0.2228
  614TMC3     O 9100   3.262   2.035  16.665 -0.4999 -0.1994  0.0461
  614TMC3     H 9101   3.544   1.871  16.505  0.8421 -0.2501 -0.4512
  614TMC3    H1 9102   3.185   2.082  16.427  1.9953 -0.0041  0.1200
  614TMC3    H2 9103   3.271   1.745  16.196 -0.5511  0.1663  0.1375
  614TMC3    C7 9104   3.125   1.981  16.204  0.2108 -0.2571  0.5587
  614TMC3    C8 9105   3.480   1.673  16.377  0.3641  0.3729 -0.5218
  614TMC3    O1 9106   3.066   2.078  16.246  0.0563 -0.3476  0.1468
  614TMC3    O2 9107   3.583   1.670  16.446  0.2409  0.3625  0.2494
  615MPD2     C 9108   2.744   3.133  16.658 -0.4073 -0.1094 -0.2184
  615MPD2    C1 9109   2.622   3.191  16.624  1.1702  0.6301 -0.0659
  615MPD2    C2 9110   2.524   3.113  16.550 -0.0464  0.0005  0.1630
  615MPD2    C3 9111   2.558   2.982  16.510  0.3403 -0.2575 -0.2593
  615MPD2    C4 9112   2.681   2.935  16.546 -0.1728 -0.6388 -0.1182
  615MPD2    C5 9113   2.773   3.004  16.616  0.4799 -0.1619  0.1959
  615MPD2     H 9114   2.429   3.154  16.519  0.3623 -0.0687 -1.1796
  615MPD2    H1 9115   2.708   2.834  16.519  2.2658  0.4056 -1.7076
  615MPD2    H2 9116   2.827   3.180  16.708 -1.0305 -1.0952  1.7626
  615MPD2    H3 9117   2.874   2.966  16.631  0.3769 -1.0743 -1.4266
  615MPD2     N 9118   2.486   2.918  16.414  0.1882  0.3247  0.2067
  615MPD2    H5 9119   2.532   2.840  16.367  0.9682  1.6465 -1.1928
  615MPD2    N1 9120   2.596   3.327  16.645 -0.3606 -0.0356 -0.0747
  615MPD2    H7 9121   2.504   3.362  16.620 -0.0902  0.9592  0.3252
  616TMC3    C1 9122   2.644   3.555  16.614 -0.7552 -0.6563 -0.0388
  616TMC3    C2 9123   2.746   3.619  16.545 -0.9060 -0.2793 -0.0130
  616TMC3    C3 9124   2.704   3.718  16.462  0.2053  0.1240  0.2150
  616TMC3    C4 9125   2.511   3.574  16.598 -0.5444  0.2224  0.4254
  616TMC3    C5 9126   2.484   3.656  16.493 -0.6095 -0.5549  0.1729
  616TMC3    C6 9127   2.579   3.717  16.417  0.9732 -0.2045 -0.1242
  616TMC3     C 9128   2.688   3.424  16.662  0.0927  0.1495  0.2925
  616TMC3     O 9129   2.807   3.408  16.674  0.0243  0.0642  0.7000
  616TMC3     H 9130   2.848   3.613  16.581 -0.7746  1.0317 -0.1774
  616TMC3    H1 9131   2.441   3.530  16.669  0.0249 -1.6888 -0.1856
  616TMC3    H2 9132   2.559   3.782  16.332 -0.5500  0.1106  0.4704
  616TMC3    C7 9133   2.353   3.715  16.474 -0.5606 -0.0498  0.2272
  616TMC3    C8 9134   2.792   3.820  16.429  0.0579 -0.1393  0.1028
  616TMC3    O1 9135   2.343   3.794  16.383 -0.5422  0.1741  0.2809
  616TMC3    O2 9136   2.747   3.931  16.391  0.0597  0.6459 -0.0046
  617MPD2     C 9137   0.563   1.152  13.732  0.0927 -0.2149  0.2117
  617MPD2    C1 9138   0.677   1.140  13.806  0.3652 -0.4789 -0.0309
  617MPD2    C2 9139   0.667   1.121  13.942  0.1450  0.5350 -0.1098
  617MPD2    C3 9140   0.547   1.119  14.004  0.9127 -0.4957  0.8077
  617MPD2    C4 9141   0.434   1.120  13.924 -0.2696  0.5889 -0.2193
  617MPD2    C5 9142   0.444   1.147  13.792 -0.0248  0.5094 -0.1070
  617MPD2     H 9143   0.751   1.083  13.999 -2.5995 -1.2950  2.7230
  617MPD2    H1 9144   0.334   1.116  13.965 -0.0436 -0.8602  0.2045
  617MPD2    H2 9145   0.567   1.164  13.624  0.8124  0.6297  0.3285
  617MPD2    H3 9146   0.352   1.165  13.736 -0.3968 -1.9603 -0.2830
  617MPD2     N 9147   0.526   1.104  14.141 -0.5529  0.1632  1.2091
  617MPD2    H5 9148   0.427   1.108  14.165 -1.1092 -1.9169 -0.7136
  617MPD2    N1 9149   0.797   1.129  13.732  0.6411 -0.2507 -0.2532
  617MPD2    H7 9150   0.789   1.144  13.632 -3.7248  0.5707  0.2181
  618TMC3    C1 9151   1.026   1.115  13.690  0.1236 -0.6466  0.3802
  618TMC3    C2 9152   1.078   0.996  13.638  0.5254  0.5573  0.7974
  618TMC3    C3 9153   1.160   1.003  13.531  0.6227 -0.6851  0.8110
  618TMC3    C4 9154   1.054   1.238  13.633 -0.5407  0.0943  0.5984
  618TMC3    C5 9155   1.129   1.236  13.520  0.4773 -0.4054 -0.1838
  618TMC3    C6 9156   1.182   1.121  13.462 -0.4723 -0.6563 -0.0994
  618TMC3     C 9157   0.920   1.091  13.789  0.1723  0.0394  0.2877
  618TMC3     O 9158   0.943   1.009  13.878  0.6314 -0.1352  0.2996
  618TMC3     H 9159   1.061   0.905  13.694  1.3936  0.7631  1.3879
  618TMC3    H1 9160   0.992   1.325  13.650 -2.2892 -1.0419  0.0743
  618TMC3    H2 9161   1.248   1.129  13.376 -2.5024 -1.7678 -1.7555
  618TMC3    C7 9162   1.174   1.371  13.468 -0.3426 -0.3165  0.5711
  618TMC3    C8 9163   1.222   0.884  13.480 -0.1137 -0.2409  0.2187
  618TMC3    O1 9164   1.208   1.467  13.536 -0.2915 -0.7121  0.2345
  618TMC3    O2 9165   1.170   0.773  13.496  0.0089 -0.6772  0.1648
  619MPD2     C 9166   1.912   2.232  14.441  0.5782  0.0403 -0.5731
  619MPD2    C1 9167   1.962   2.275  14.323  0.3955 -0.2834 -0.3456
  619MPD2    C2 9168   1.870   2.291  14.221  0.2807 -0.1970  0.3196
  619MPD2    C3 9169   1.736   2.275  14.235  0.3345 -0.3949  0.0259
  619MPD2    C4 9170   1.689   2.247  14.361 -0.4482 -0.1166 -0.0756
  619MPD2    C5 9171   1.775   2.225  14.465 -0.3780 -0.1993  0.0809
  619MPD2     H 9172   1.909   2.322  14.125 -1.6995 -0.0203 -0.4407
  619MPD2    H1 9173   1.583   2.235  14.380 -0.3425  0.8829  1.1064
  619MPD2    H2 9174   1.967   2.212  14.533  0.2701 -2.0282 -0.8456
  619MPD2    H3 9175   1.741   2.193  14.563  0.9837 -0.1494  0.5701
  619MPD2     N 9176   1.645   2.295  14.134  0.0415  0.3704 -0.0091
  619MPD2    H5 9177   1.551   2.322  14.158 -0.4925 -1.7951  0.3024
  619MPD2    N1 9178   2.097   2.308  14.292 -0.4845  0.1606  0.1117
  619MPD2    H7 9179   2.121   2.367  14.213 -0.0358 -1.8655 -1.2606
  620TMC3    C1 9180   2.328   2.363  14.315  0.7557  0.1630 -0.4185
  620TMC3    C2 9181   2.317   2.367  14.178  0.0019  0.4149  1.0588
  620TMC3    C3 9182   2.376   2.473  14.107 -0.0031  0.0461  0.2731
  620TMC3    C4 9183   2.386   2.463  14.384 -0.3867  0.2103  0.3648
  620TMC3    C5 9184   2.446   2.564  14.317  0.7642 -0.1515 -0.3041
  620TMC3    C6 9185   2.439   2.566  14.180 -0.0334 -0.0123  0.3922
  620TMC3     C 9186   2.205   2.312  14.375 -0.0917 -0.4355 -0.8467
  620TMC3     O 9187   2.209   2.288  14.495 -0.3414 -0.4023  0.2372
  620TMC3     H 9188   2.266   2.287  14.126 -0.2770  0.5564  1.1133
  620TMC3    H1 9189   2.393   2.465  14.493  0.5264 -2.1420  0.3676
  620TMC3    H2 9190   2.476   2.659  14.137  0.6179 -0.4632 -0.0168
  620TMC3    C7 9191   2.413   2.691  14.378  0.9835 -0.3900 -0.4226
  620TMC3    C8 9192   2.291   2.543  14.015  0.0083  0.0470  0.3707
  620TMC3    O1 9193   2.444   2.718  14.489  0.0409  0.0218 -0.4987
  620TMC3    O2 9194   2.285   2.663  14.028 -0.3318 -0.0238  1.0169
  621MPD2     C 9195   2.344   2.454   9.827  0.0346  0.0280 -0.5441
  621MPD2    C1 9196   2.476   2.408   9.847 -0.6260 -0.0441 -0.0294
  621MPD2    C2 9197   2.581   2.470   9.794  0.2034 -0.5703  0.5839
  621MPD2    C3 9198   2.568   2.592   9.734  0.5958  0.3554 -0.5035
  621MPD2    C4 9199   2.439   2.640   9.707 -0.0852  0.0869 -0.5591
  621MPD2    C5 9200   2.332   2.571   9.752 -0.3196  0.0170  0.2289
  621MPD2     H 9201   2.684   2.436   9.801  0.7943  1.0673  0.1326
  621MPD2    H1 9202   2.408   2.731   9.657 -0.2989 -0.9783 -2.3641
  621MPD2    H2 9203   2.250   2.405   9.852  0.7464 -1.3481 -0.6033
  621MPD2    H3 9204   2.232   2.606   9.728 -0.5790 -0.6660  0.3129
  621MPD2     N 9205   2.684   2.661   9.695 -0.3501 -0.2180  0.0653
  621MPD2    H5 9206   2.774   2.623   9.721 -1.3401 -0.8842  2.4297
  621MPD2    N1 9207   2.505   2.282   9.903  0.1166  0.3310  0.3799
  621MPD2    H7 9208   2.600   2.248   9.904 -0.6058 -1.6775  1.1211
  622TMC3    C1 9209   2.466   2.069   9.991 -0.3010 -0.0808  0.2210
  622TMC3    C2 9210   2.395   1.988  10.076  0.2450  0.1000  0.4021
  622TMC3    C3 9211   2.408   1.852  10.057 -0.4305 -0.3441  0.2494
  622TMC3    C4 9212   2.551   2.016   9.899 -0.0426  0.2773  0.5132
  622TMC3    C5 9213   2.568   1.881   9.894 -0.4757  0.4452 -0.4767
  622TMC3    C6 9214   2.494   1.796   9.974  0.0869  0.4512 -0.2929
  622TMC3     C 9215   2.408   2.201   9.962  0.4811  0.2722 -0.4028
  622TMC3     O 9216   2.288   2.215   9.981  0.4156 -0.1063 -0.0189
  622TMC3     H 9217   2.339   2.037  10.155 -0.2108  0.4414 -0.1331
  622TMC3    H1 9218   2.606   2.077   9.828 -0.4221  1.0672  0.9092
  622TMC3    H2 9219   2.492   1.689   9.963 -2.7186  0.3121  1.4992
  622TMC3    C7 9220   2.636   1.816   9.785  0.7887 -0.2856 -0.2776
  622TMC3    C8 9221   2.328   1.768  10.144  0.1553  1.0752  0.3120
  622TMC3    O1 9222   2.699   1.714   9.803 -0.0433  0.4480  0.2472
  622TMC3    O2 9223   2.359   1.654  10.174 -0.1029  0.5306 -0.0085
  623MPD2     C 9224   1.379   2.711  16.164 -0.6818  0.4346 -0.1779
  623MPD2    C1 9225   1.335   2.820  16.237  0.2618 -0.8608 -0.0593
  623MPD2    C2 9226   1.370   2.826  16.371 -0.2320 -0.5834 -0.0576
  623MPD2    C3 9227   1.414   2.720  16.435 -0.1485  0.0443 -0.0827
  623MPD2    C4 9228   1.431   2.600  16.370  0.0883 -0.2955 -0.0991
  623MPD2    C5 9229   1.425   2.598  16.231 -0.9401  0.0682  0.1046
  623MPD2     H 9230   1.336   2.907  16.435 -0.5083  0.0547 -0.9968
  623MPD2    H1 9231   1.487   2.518  16.413 -0.2544  0.5647  1.9815
  623MPD2    H2 9232   1.366   2.700  16.057 -0.3921 -0.0395 -0.1674
  623MPD2    H3 9233   1.474   2.520  16.173 -0.3125 -0.4229  1.2913
  623MPD2     N 9234   1.439   2.740  16.575  0.0938  0.0546 -0.1062
  623MPD2    H5 9235   1.434   2.836  16.608  2.1593  0.2013 -0.2721
  623MPD2    N1 9236   1.275   2.934  16.177 -0.3777 -0.2229 -0.0073
  623MPD2    H7 9237   1.261   3.017  16.233 -0.8031  1.5127 -2.7450
  624TMC3    C1 9238   1.622   2.683  16.995 -0.7424  0.0699  0.2766
  624TMC3    C2 9239   1.567   2.804  17.033  0.1230  0.5636  0.5507
  624TMC3    C3 9240   1.472   2.850  16.952  0.3313  0.2644 -0.2430
  624TMC3    C4 9241   1.592   2.620  16.873  0.1316 -0.0876 -0.3465
  624TMC3    C5 9242   1.495   2.678  16.796 -0.0530  0.7389 -0.6590
  624TMC3    C6 9243   1.426   2.791  16.837 -0.2316  0.6771  0.1055
  624TMC3     C 9244   1.759   2.659  17.056  0.0065 -0.0274 -0.2907
  624TMC3     O 9245   1.791   2.732  17.148 -0.2597 -0.4769 -0.1351
  624TMC3     H 9246   1.586   2.854  17.127 -2.9593  0.4585  1.2086
  624TMC3    H1 9247   1.664   2.551  16.831  0.2945  1.3475 -2.3979
  624TMC3    H2 9248   1.336   2.825  16.787 -0.6159  1.4559  1.3369
  624TMC3    C7 9249   1.493   2.643  16.660 -0.1003 -0.2200 -0.0409
  624TMC3    C8 9250   1.385   2.949  17.002 -0.1702 -0.6593  0.6482
  624TMC3    O1 9251   1.527   2.528  16.638 -0.2497  0.1412  0.6261
  624TMC3    O2 9252   1.270   2.915  17.022 -0.3704  0.2410  0.7070
  625MPD2     C 9253   1.885   3.801   0.535  0.5903 -0.1012 -0.3677
  625MPD2    C1 9254   1.841   3.900   0.615  0.8042  0.0754  0.0773
  625MPD2    C2 9255   1.789   3.861   0.737  1.1869 -0.3620 -0.0675
  625MPD2    C3 9256   1.788   3.728   0.778 -0.2772 -0.2195 -0.4774
  625MPD2    C4 9257   1.825   3.626   0.690  0.1759 -0.5313  0.2810
  625MPD2    C5 9258   1.861   3.665   0.563 -0.0377 -0.3020  0.0963
  625MPD2     H 9259   1.748   3.934   0.805 -1.7395  0.3494 -2.6049
  625MPD2    H1 9260   1.819   3.520   0.712 -0.4119 -0.6361 -0.3740
  625MPD2    H2 9261   1.932   3.816   0.439 -0.4970 -0.0405 -0.8933
  625MPD2    H3 9262   1.884   3.587   0.491  0.7178  1.9236 -2.0827
  625MPD2     N 9263   1.763   3.718   0.917 -0.2826  0.4849  0.0541
  625MPD2    H5 9264   1.739   3.805   0.963  1.0968  1.2596 -0.7046
  625MPD2    N1 9265   1.841   4.040   0.582  0.1255 -0.2003 -0.5480
  625MPD2    H7 9266   1.786   4.105   0.637  1.4276  0.9335 -0.5891
  626TMC3    C1 9267   1.933   4.250   0.543 -0.1749 -0.0922  0.2912
  626TMC3    C2 9268   1.912   4.351   0.460  0.0354 -0.1507 -0.1259
  626TMC3    C3 9269   1.907   4.479   0.508 -0.0709 -0.2336 -0.4589
  626TMC3    C4 9270   1.961   4.274   0.673 -0.9676 -0.6052 -0.0501
  626TMC3    C5 9271   1.964   4.405   0.717  0.3531 -0.2217 -0.2833
  626TMC3    C6 9272   1.927   4.508   0.637  0.8169 -0.0150 -0.5798
  626TMC3     C 9273   1.926   4.111   0.496 -0.4925  1.0886  0.4991
  626TMC3     O 9274   1.995   4.066   0.403  1.1589  0.5992 -0.1001
  626TMC3     H 9275   1.930   4.334   0.354 -0.9387  0.5200 -0.4003
  626TMC3    H1 9276   1.982   4.188   0.735 -0.1065  0.8637  1.7088
  626TMC3    H2 9277   1.913   4.608   0.676  0.4074 -0.3740  0.1805
  626TMC3    C7 9278   1.955   4.419   0.865  0.2553 -0.5106  0.6466
  626TMC3    C8 9279   1.879   4.587   0.422  0.3131 -0.6186  0.1764
  626TMC3    O1 9280   1.898   4.324   0.913 -0.0049 -0.0801  0.3435
  626TMC3    O2 9281   1.887   4.566   0.301  0.3298 -0.0230 -0.2491
  627MPD2     C 9282   0.486   0.075  14.550  0.6245 -0.5537 -0.4301
  627MPD2    C1 9283   0.553   0.013  14.652 -0.8899 -0.6487 -0.0932
  627MPD2    C2 9284   0.526   4.599  14.674 -0.3680  0.2099  0.5201
  627MPD2    C3 9285   0.422   4.540  14.611  0.5961 -0.3758 -0.2084
  627MPD2    C4 9286   0.356   4.609  14.513  0.5660 -0.7964 -0.0084
  627MPD2    C5 9287   0.393   0.007  14.475 -0.1796 -0.3316  0.5993
  627MPD2     H 9288   0.582   4.541  14.747 -1.0023 -2.0041 -0.7653
  627MPD2    H1 9289   0.280   4.563  14.450  0.1652  0.0758 -0.1635
  627MPD2    H2 9290   0.515   0.175  14.520  0.1916 -0.9481 -2.2039
  627MPD2    H3 9291   0.344   0.064  14.397 -1.6721 -1.8129  0.4459
  627MPD2     N 9292   0.390   4.408  14.647 -0.3475 -0.8346  0.4529
  627MPD2    H5 9293   0.437   4.355  14.719  0.7755 -0.3670  0.0751
  627MPD2    N1 9294   0.656   0.071  14.731  0.4671 -0.2034 -0.4406
  627MPD2    H7 9295   0.709   0.000  14.782  0.9699 -1.3799 -2.5901
  628TMC3    C1 9296   0.814   0.208  14.819 -0.3726 -0.5723  0.7992
  628TMC3    C2 9297   0.912   0.119  14.790  0.9843  0.0752  0.0601
  628TMC3    C3 9298   1.040   0.150  14.841 -0.1262  0.2611  0.0368
  628TMC3    C4 9299   0.833   0.309  14.902  0.5072 -0.9510 -0.9554
  628TMC3    C5 9300   0.955   0.334  14.954  0.6134  0.5243  0.4823
  628TMC3    C6 9301   1.062   0.251  14.924  0.0989 -0.0288 -0.0639
  628TMC3     C 9302   0.697   0.200  14.734 -0.3877 -0.3323  0.3430
  628TMC3     O 9303   0.631   0.301  14.702  0.3716  0.5306 -0.5580
  628TMC3     H 9304   0.898   0.024  14.739  1.6796  0.8711 -1.6095
  628TMC3    H1 9305   0.751   0.374  14.927  0.2938 -1.3497 -0.6305
  628TMC3    H2 9306   1.160   0.299  14.928 -0.1642  0.5783 -1.0045
  628TMC3    C7 9307   0.983   0.474  14.979 -0.3777  0.9867 -0.1876
  628TMC3    C8 9308   1.137   0.042  14.820  0.0208  0.1420 -0.6581
  628TMC3    O1 9309   1.092   0.503  15.026 -0.3374  0.3030 -0.3261
  628TMC3    O2 9310   1.109   4.695  14.727 -0.1321  0.0004 -0.1506
  629MPD2     C 9311   3.254   4.019  16.338 -0.5233  0.4521  0.2263
  629MPD2    C1 9312   3.270   3.881  16.344  0.0398  0.8530  0.7011
  629MPD2    C2 9313   3.159   3.807  16.369 -0.5100  0.0924  0.3710
  629MPD2    C3 9314   3.034   3.865  16.396 -0.5521  0.8211  0.5960
  629MPD2    C4 9315   3.022   4.004  16.381 -0.4379 -0.1994 -0.8676
  629MPD2    C5 9316   3.133   4.081  16.351 -0.1459 -0.5985 -0.6932
  629MPD2     H 9317   3.157   3.700  16.386 -0.4307  0.1415  0.6847
  629MPD2    H1 9318   2.930   4.053  16.412 -0.0871  0.0284 -0.2033
  629MPD2    H2 9319   3.334   4.092  16.325 -0.5245  0.7070  1.6332
  629MPD2    H3 9320   3.113   4.187  16.341  0.9022 -0.2105  1.4139
  629MPD2     N 9321   2.924   3.785  16.433 -0.1929 -0.1281 -0.0569
  629MPD2    H5 9322   2.949   3.686  16.440 -1.9103 -0.5399  0.1364
  629MPD2    N1 9323   3.401   3.825  16.350 -0.2130 -0.0477  0.2096
  629MPD2    H7 9324   3.473   3.892  16.377  1.2721 -1.0981 -1.1209
  630TMC3    C1 9325   3.585   3.667  16.343  0.0438 -0.2822  0.8847
  630TMC3    C2 9326   3.667   3.747  16.276  0.8708 -0.2867 -0.4590
  630TMC3    C3 9327   3.798   3.711  16.271 -0.5147  0.1255  0.3445
  630TMC3    C4 9328   3.616   3.552  16.405  0.2885 -0.0089 -0.5710
  630TMC3    C5 9329   3.755   3.527  16.411  0.9120  0.5786  0.4465
  630TMC3    C6 9330   3.844   3.607  16.343  0.0266  0.6845  0.3760
  630TMC3     C 9331   3.438   3.690  16.348  0.5905 -0.3796 -0.2489
  630TMC3     O 9332   3.369   3.593  16.369 -0.9216  0.1392 -0.3216
  630TMC3     H 9333   3.630   3.828  16.215 -2.1786 -0.3202  1.3745
  630TMC3    H1 9334   3.544   3.520  16.479  0.4954 -0.2688 -0.4814
  630TMC3    H2 9335   3.950   3.584  16.342 -0.1208 -0.0867  2.3483
  630TMC3    C7 9336   3.809   3.432  16.505  0.6333  0.0201  0.1122
  630TMC3    C8 9337   3.897   3.795  16.206  0.2255  0.1771  0.5345
  630TMC3    O1 9338   3.932   3.436  16.511 -0.2754  0.2317 -0.2288
  630TMC3    O2 9339   4.018   3.768  16.228  0.0309 -0.0633 -0.5009
  631MPD2     C 9340   1.705   3.383  15.910 -0.1328 -0.4218  0.3679
  631MPD2    C1 9341   1.811   3.378  15.818 -0.5173  1.0035 -0.3484
  631MPD2    C2 9342   1.906   3.279  15.834 -1.0649 -0.8673  0.0859
  631MPD2    C3 9343   1.906   3.199  15.947 -0.4711  0.0188 -1.0453
  631MPD2    C4 9344   1.810   3.217  16.045  0.0086  0.2189  0.2741
  631MPD2    C5 9345   1.709   3.309  16.026  0.5790 -0.2377 -0.6324
  631MPD2     H 9346   1.984   3.272  15.758 -0.0163 -1.2323  1.2087
  631MPD2    H1 9347   1.799   3.155  16.133  0.0321  0.2977  0.3319
  631MPD2    H2 9348   1.614   3.443  15.905  1.0830  1.3447 -0.5674
  631MPD2    H3 9349   1.626   3.308  16.095  1.6891 -1.0088  0.6688
  631MPD2     N 9350   2.011   3.112  15.965 -0.1938  0.0214  0.2107
  631MPD2    H5 9351   2.083   3.123  15.894 -1.8671  0.6936 -1.3770
  631MPD2    N1 9352   1.804   3.465  15.707 -1.1212  0.6122 -0.3041
  631MPD2    H7 9353   1.723   3.526  15.706 -1.5142  0.0816 -0.4993
  632TMC3    C1 9354   1.868   3.594  15.519  0.0129 -0.6583 -0.1737
  632TMC3    C2 9355   1.765   3.679  15.542  0.5240  0.0990 -0.6022
  632TMC3    C3 9356   1.748   3.795  15.474 -0.8693  0.6390  0.3509
  632TMC3    C4 9357   1.955   3.618  15.413  0.5771 -0.4524  0.1729
  632TMC3    C5 9358   1.929   3.734  15.341 -0.3642 -0.0454  0.7941
  632TMC3    C6 9359   1.836   3.826  15.370  0.6083  0.1488 -0.4207
  632TMC3     C 9360   1.900   3.477  15.610 -0.6172  0.1188  0.3677
  632TMC3     O 9361   1.987   3.401  15.566 -0.3309  0.4083  0.4814
  632TMC3     H 9362   1.694   3.655  15.620  0.2603 -2.4554 -1.6483
  632TMC3    H1 9363   2.034   3.550  15.385 -0.8879 -2.4253  0.8030
  632TMC3    H2 9364   1.835   3.923  15.321  0.5980  0.2660 -0.1884
  632TMC3    C7 9365   2.002   3.761  15.222 -0.1384 -0.0337 -1.2567
  632TMC3    C8 9366   1.695   3.901  15.559 -0.2671 -0.7803 -0.4987
  632TMC3    O1 9367   1.946   3.827  15.136 -0.3061 -0.3203 -0.1876
  632TMC3    O2 9368   1.587   3.881  15.613 -0.7494  0.0197 -0.7138
  633MPD2     C 9369   1.391   1.175  17.298  0.0644 -0.1778 -0.2520
  633MPD2    C1 9370   1.490   1.120  17.228  0.1740  0.1886 -0.3926
  633MPD2    C2 9371   1.573   1.028  17.283 -0.1746 -0.3432  0.1975
  633MPD2    C3 9372   1.574   1.017  17.421 -0.4862 -0.1835  0.0556
  633MPD2    C4 9373   1.483   1.088  17.490 -0.0930 -0.2348 -0.1466
  633MPD2    C5 9374   1.390   1.168  17.433  0.6171 -0.1991 -0.0758
  633MPD2     H 9375   1.652   0.983  17.224 -0.9249 -0.6523 -0.5797
  633MPD2    H1 9376   1.489   1.077  17.598  1.3737 -0.5520 -0.2525
  633MPD2    H2 9377   1.316   1.235  17.248 -1.2187 -1.1121  0.5518
  633MPD2    H3 9378   1.317   1.224  17.491 -0.1843 -0.7697 -0.5318
  633MPD2     N 9379   1.679   0.946  17.495 -0.4902 -0.2569  0.2003
  633MPD2    H5 9380   1.693   0.969  17.593  0.1598 -0.9452  0.2708
  633MPD2    N1 9381   1.526   1.157  17.097  0.3110 -0.5225  0.0242
  633MPD2    H7 9382   1.596   1.104  17.048 -0.4380  0.3546 -1.9754
  634TMC3    C1 9383   1.543   1.286  16.908  0.1194 -0.0313 -0.0382
  634TMC3    C2 9384   1.563   1.179  16.826  0.2360  0.5369  0.0725
  634TMC3    C3 9385   1.592   1.206  16.700  1.1866 -0.2792  0.6548
  634TMC3    C4 9386   1.546   1.415  16.872  0.6673 -0.2639 -0.4316
  634TMC3    C5 9387   1.574   1.435  16.739  0.1532  0.6854  0.0270
  634TMC3    C6 9388   1.609   1.332  16.656 -0.0469 -0.1713  0.2377
  634TMC3     C 9389   1.472   1.263  17.030 -0.4990  0.2685  0.4341
  634TMC3     O 9390   1.390   1.346  17.072 -0.7386  0.5752  0.3620
  634TMC3     H 9391   1.558   1.074  16.854 -0.8193  0.3106 -0.9710
  634TMC3    H1 9392   1.528   1.497  16.941  2.1663 -1.0999  0.9561
  634TMC3    H2 9393   1.632   1.346  16.551  1.3043  0.5967  0.6280
  634TMC3    C7 9394   1.583   1.575  16.684  0.4956  0.4229  0.4618
  634TMC3    C8 9395   1.662   1.101  16.635  0.0415 -0.3857  0.4555
  634TMC3    O1 9396   1.614   1.591  16.565 -0.1995  0.0185  0.0862
  634TMC3    O2 9397   1.719   1.019  16.703  0.1482  0.1001  0.1578
  635TMC3    C1 9398   2.350   2.458  17.468  0.0973  0.1942 -0.4386
  635TMC3    C2 9399   2.402   2.411  17.353 -0.2233  0.2583  0.7563
  635TMC3    C3 9400   2.346   2.297  17.310  0.1446 -0.1839  0.3586
  635TMC3    C4 9401   2.254   2.403  17.543  0.4091 -0.5046  0.6492
  635TMC3    C5 9402   2.197   2.287  17.489 -0.2634  0.1867 -0.4524
  635TMC3    C6 9403   2.238   2.234  17.371 -0.0565  0.2483  0.4741
  635TMC3     C 9404   2.395   2.588  17.513  0.1181 -0.0476  0.4060
  635TMC3     O 9405   2.320   2.639  17.592 -0.1396  0.2584 -0.0494
  635TMC3     H 9406   2.446   2.480  17.282  1.3605 -2.2828 -0.7238
  635TMC3    H1 9407   2.225   2.447  17.638 -0.9598  1.0719 -0.4808
  635TMC3    H2 9408   2.204   2.136  17.340  1.0368 -0.6890  2.2170
  635TMC3    C7 9409   2.100   2.217  17.571 -0.1423  0.1740 -0.1863
  635TMC3    C8 9410   2.383   2.245  17.187 -0.1480  0.7340 -0.2031
  635TMC3    O1 9411   2.076   2.273  17.677  0.1287 -0.1855 -0.0163
  635TMC3    O2 9412   2.305   2.161  17.142  0.0358  0.4607  0.0589
  636MPD2     C 9413   2.931   1.839  16.421  0.2971 -0.0621  0.2445
  636MPD2    C1 9414   2.962   1.868  16.550  0.5699  0.4458  0.1091
  636MPD2    C2 9415   3.001   1.768  16.633  0.0671  0.9668 -0.0318
  636MPD2    C3 9416   3.019   1.636  16.587  0.3066  0.3050 -0.8655
  636MPD2    C4 9417   2.984   1.606  16.458 -0.5765  0.1152  0.2874
  636MPD2    C5 9418   2.932   1.705  16.377  0.3571 -0.5163  0.5415
  636MPD2     H 9419   3.011   1.793  16.738 -0.3516 -0.9409  0.4759
  636MPD2    H1 9420   2.997   1.507  16.414 -4.0148 -1.0072  1.8099
  636MPD2    H2 9421   2.901   1.912  16.347  0.8058  0.6777  0.7631
  636MPD2    H3 9422   2.910   1.683  16.274 -0.4212 -0.6478  0.7424
  636MPD2     N 9423   3.066   1.545  16.684 -0.9135 -0.6026 -0.6947
  636MPD2    H5 9424   3.093   1.595  16.768  1.1489 -3.0422  0.0932
  636MPD2    N1 9425   2.954   2.000  16.610 -0.0470 -0.7329 -0.0464
  636MPD2    H7 9426   2.979   2.009  16.708 -1.3112 -1.2380  0.3166
  637TMC3    C1 9427   3.155   1.356  16.795  0.3892  0.8115  0.1394
  637TMC3    C2 9428   3.142   1.447  16.901 -0.7034  0.2266  0.3233
  637TMC3    C3 9429   3.250   1.474  16.976  0.3643  0.4196  0.6309
  637TMC3    C4 9430   3.266   1.281  16.771  0.4292  0.5337  0.2746
  637TMC3    C5 9431   3.375   1.322  16.850 -0.4665 -0.5706 -0.2235
  637TMC3    C6 9432   3.368   1.418  16.947 -0.3112  0.6852  0.4625
  637TMC3     C 9433   3.087   1.413  16.676  0.0572 -0.5630 -0.1066
  637TMC3     O 9434   3.049   1.342  16.582 -0.0169  0.0399  0.6237
  637TMC3     H 9435   3.046   1.489  16.928  0.1827  1.8214  1.0222
  637TMC3    H1 9436   3.268   1.221  16.681 -1.3762  2.3267 -0.9676
  637TMC3    H2 9437   3.462   1.452  16.987  0.0044 -0.2341  0.5066
  637TMC3    C7 9438   3.503   1.321  16.781 -0.7911  0.2006  0.5344
  637TMC3    C8 9439   3.268   1.621  16.981  0.2567 -0.4257  0.8170
  637TMC3    O1 9440   3.572   1.425  16.789 -0.0428  0.0894 -0.0999
  637TMC3    O2 9441   3.182   1.683  16.915 -0.5865  0.1648  0.2150
  638MPD2     C 9442   2.707   0.673  14.750  0.0548 -0.9490 -0.1280
  638MPD2    C1 9443   2.631   0.577  14.681  0.3966 -0.3482 -0.5852
  638MPD2    C2 9444   2.556   0.487  14.756  0.3951 -0.4430  0.2455
  638MPD2    C3 9445   2.576   0.478  14.895 -0.4575 -0.4409 -0.4152
  638MPD2    C4 9446   2.647   0.572  14.964 -0.0951 -0.5414  0.5236
  638MPD2    C5 9447   2.716   0.660  14.887 -0.9288  0.3409  0.7967
  638MPD2     H 9448   2.499   0.411  14.704  0.4452 -0.2219 -0.1328
  638MPD2    H1 9449   2.658   0.568  15.072  1.1988  0.4060  0.4303
  638MPD2    H2 9450   2.771   0.746  14.701 -0.4111 -0.3462  0.1558
  638MPD2    H3 9451   2.774   0.744  14.925  1.6462 -1.0608  0.0275
  638MPD2     N 9452   2.531   0.358  14.956  0.1865 -0.6848  0.4666
  638MPD2    H5 9453   2.474   0.302  14.895  1.1233  0.4905 -1.4718
  638MPD2    N1 9454   2.642   0.575  14.539 -0.5786  0.8324 -0.4390
  638MPD2    H7 9455   2.697   0.646  14.491  2.4776 -0.4175  1.2176
  639TMC3    C1 9456   2.554   0.159  15.087 -0.6611 -0.1888 -0.1946
  639TMC3    C2 9457   2.479   0.108  14.981  0.0392 -0.0561  0.7696
  639TMC3    C3 9458   2.515   4.714  14.926 -0.0836 -0.5158 -0.2848
  639TMC3    C4 9459   2.655   0.084  15.139 -0.3982  0.1634  0.0245
  639TMC3    C5 9460   2.697   4.703  15.070  0.3411  0.3216  0.6236
  639TMC3    C6 9461   2.635   4.657  14.957 -0.1630  0.6068  0.3430
  639TMC3     C 9462   2.587   0.301  15.066  0.1422  0.0226 -1.0585
  639TMC3     O 9463   2.674   0.343  15.145 -0.7727  0.2326  0.6480
  639TMC3     H 9464   2.392   0.168  14.958  1.5058  1.7697 -0.0246
  639TMC3    H1 9465   2.696   0.111  15.236  1.4843  3.6903 -1.7643
  639TMC3    H2 9466   2.653   4.558  14.916 -0.0186  1.7548 -2.3453
  639TMC3    C7 9467   2.779   4.603  15.134  0.4148  0.0525 -0.9265
  639TMC3    C8 9468   2.431   4.660  14.819  0.3078 -0.8390  0.5122
  639TMC3    O1 9469   2.767   4.571  15.252  0.0735  0.2557 -0.3818
  639TMC3    O2 9470   2.482   4.598  14.728 -0.3482  0.5263  0.1611
  640MPD2     C 9471   2.901   3.597  10.204  0.7241  0.1477 -0.3590
  640MPD2    C1 9472   2.858   3.665  10.089 -0.1815 -0.3455 -0.3938
  640MPD2    C2 9473   2.771   3.774  10.100  0.4107 -0.0102  0.1201
  640MPD2    C3 9474   2.720   3.809  10.227  0.4453  0.5825  0.3242
  640MPD2    C4 9475   2.751   3.735  10.332 -0.6931  0.2019 -0.2500
  640MPD2    C5 9476   2.842   3.631  10.320 -0.1046  0.8594 -0.3910
  640MPD2     H 9477   2.755   3.828  10.007  1.4339  0.2709  0.1001
  640MPD2    H1 9478   2.703   3.737  10.429 -0.4973 -0.4415 -0.1430
  640MPD2    H2 9479   2.976   3.520  10.192  0.6665 -0.4329  3.0011
  640MPD2    H3 9480   2.864   3.564  10.402  1.1006  0.6419 -0.8957
  640MPD2     N 9481   2.631   3.912  10.249 -0.7900  0.1267 -0.2925
  640MPD2    H5 9482   2.583   3.920  10.339  0.4921 -0.4435  0.4428
  640MPD2    N1 9483   2.916   3.626   9.965  0.3399 -0.1958  0.5144
  640MPD2    H7 9484   2.988   3.554   9.970  0.0648 -0.4949  0.1904
  641TMC3    C1 9485   2.932   3.596   9.733 -0.3866  0.3529 -0.7180
  641TMC3    C2 9486   3.048   3.523   9.759 -0.2826  0.2160  0.6192
  641TMC3    C3 9487   3.111   3.460   9.658  0.6099 -0.1502 -0.1066
  641TMC3    C4 9488   2.886   3.619   9.605 -0.2039  0.3772 -0.0516
  641TMC3    C5 9489   2.951   3.549   9.507 -0.4982 -0.4071  0.0424
  641TMC3    C6 9490   3.061   3.468   9.530  0.0260  0.4412 -0.3759
  641TMC3     C 9491   2.866   3.657   9.843 -0.0953 -0.4075  0.4314
  641TMC3     O 9492   2.768   3.730   9.812 -0.0151  0.2733 -0.3773
  641TMC3     H 9493   3.084   3.501   9.859  0.6668 -1.0756 -0.0061
  641TMC3    H1 9494   2.791   3.669   9.593 -0.1181  1.0883  2.2285
  641TMC3    H2 9495   3.111   3.414   9.451  1.5031  0.5768  0.4481
  641TMC3    C7 9496   2.899   3.576   9.376  0.0872  0.6241  0.5453
  641TMC3    C8 9497   3.186   3.339   9.684  0.6468  0.4245  0.5473
  641TMC3    O1 9498   2.823   3.676   9.368  0.7713  0.3406  0.0786
  641TMC3    O2 9499   3.191   3.248   9.600 -0.3795 -0.3896 -0.3496
  642TMC3    C1 9500   4.307   0.052  12.617  1.0041  0.5953  0.1146
  642TMC3    C2 9501   4.411   0.106  12.540  0.0213  0.2225  0.3301
  642TMC3    C3 9502   4.415   0.046  12.419  0.1834 -0.0565 -0.0128
  642TMC3    C4 9503   4.234   4.668  12.582 -0.5089  0.8761 -0.0006
  642TMC3    C5 9504   4.255   4.608  12.464  0.0365  0.5704 -0.4702
  642TMC3    C6 9505   4.344   4.660  12.379  0.2576 -0.0292  0.4014
  642TMC3     C 9506   4.227   0.158  12.670  0.4719 -0.5894 -0.5233
  642TMC3     O 9507   4.295   0.250  12.705 -0.0106 -0.3617 -0.1906
  642TMC3     H 9508   4.465   0.198  12.562 -2.2286  1.6043  0.0731
  642TMC3    H1 9509   4.173   4.610  12.650  1.4073 -1.1433  0.0129
  642TMC3    H2 9510   4.361   4.612  12.283 -1.1070  0.5342 -0.1302
  642TMC3    C7 9511   4.186   4.488  12.432 -0.0305 -0.4967 -0.1546
  642TMC3    C8 9512   4.518   0.091  12.328 -0.0408 -0.0859 -0.2529
  642TMC3    O1 9513   4.171   4.464  12.312 -0.2144 -0.3590  0.1330
  642TMC3    O2 9514   4.501   0.101  12.207  0.6515 -0.4527 -0.1166
  643TMC3    C1 9515   3.947   0.141   0.377  0.9839  0.5211 -0.1586
  643TMC3    C2 9516   3.855   0.240   0.390  0.3373  0.0175 -0.2505
  643TMC3    C3 9517   3.724   0.207   0.377  0.2543 -0.5273  0.7319
  643TMC3    C4 9518   3.918   0.014   0.345  0.0703 -0.3320  0.5343
  643TMC3    C5 9519   3.787   4.711   0.319  0.3257  0.1061  0.0571
  643TMC3    C6 9520   3.689   0.080   0.334  0.2500  0.3010 -0.2158
  643TMC3     C 9521   4.078   0.183   0.402 -0.5554 -0.8666  0.1453
  643TMC3     O 9522   4.114   0.298   0.374 -0.1869 -0.8674 -0.0085
  643TMC3     H 9523   3.884   0.335   0.432  3.8648 -0.8346 -0.7872
  643TMC3    H1 9524   3.995   4.666   0.327  0.3189  0.1116 -0.2227
  643TMC3    H2 9525   3.586   0.059   0.307  0.4381 -0.5831 -0.2548
  643TMC3    C7 9526   3.760   4.594   0.235  0.4665 -0.2985 -0.2441
  643TMC3    C8 9527   3.612   0.305   0.403  0.1569 -0.0571 -0.1962
  643TMC3    O1 9528   3.852   4.525   0.194 -0.0098  0.8800  0.0534
  643TMC3    O2 9529   3.502   0.264   0.438  0.6827 -0.0604 -0.3008
  644MPD2     C 9530   2.962   4.648   9.603 -0.3970  0.4238 -0.1244
  644MPD2    C1 9531   2.978   4.515   9.627  0.1843  0.0028 -0.3004
  644MPD2    C2 9532   2.879   4.421   9.606 -0.2788 -0.7385  0.1935
  644MPD2    C3 9533   2.752   4.470   9.574 -0.0837 -0.2504 -0.0161
  644MPD2    C4 9534   2.736   4.610   9.540  0.3352  0.0949  0.5871
  644MPD2    C5 9535   2.846   4.694   9.555 -0.0561 -0.3965  0.8218
  644MPD2     H 9536   2.909   4.317   9.605 -1.5816 -1.0674 -4.3239
  644MPD2    H1 9537   2.646   4.652   9.498 -0.2276  0.4734  2.1547
  644MPD2    H2 9538   3.046   4.716   9.598  0.4903 -0.6777 -0.0912
  644MPD2    H3 9539   2.835   0.068   9.515  4.1396  0.8577  2.7800
  644MPD2     N 9540   2.645   4.374   9.554  0.0479 -0.3582  0.8905
  644MPD2    H5 9541   2.663   4.284   9.596  1.2650 -0.5796 -0.0942
  644MPD2    N1 9542   3.106   4.479   9.676  0.0959  0.1148 -0.6273
  644MPD2    H7 9543   3.187   4.530   9.645 -0.7835  3.4533  2.5799
  645TMC3    C1 9544   2.422   4.290   9.509 -0.3822 -0.1837 -0.4646
  645TMC3    C2 9545   2.286   4.313   9.497  0.0088 -0.0515  0.1750
  645TMC3    C3 9546   2.199   4.204   9.509 -0.4413  0.2730 -0.0547
  645TMC3    C4 9547   2.468   4.166   9.526 -0.0028 -0.0751 -0.2939
  645TMC3    C5 9548   2.384   4.063   9.509  0.0787  0.7210  0.2501
  645TMC3    C6 9549   2.246   4.077   9.515  0.4373  0.5011  0.3228
  645TMC3     C 9550   2.516   4.403   9.506  0.5280  0.1249 -0.6944
  645TMC3     O 9551   2.473   4.511   9.487 -0.3885 -1.1237  0.0480
  645TMC3     H 9552   2.248   4.414   9.482 -1.9068 -0.6306  1.0971
  645TMC3    H1 9553   2.575   4.152   9.516  0.1864 -0.1912  1.7964
  645TMC3    H2 9554   2.181   3.992   9.529  0.9087  0.1043  0.0776
  645TMC3    C7 9555   2.429   3.934   9.465  0.1414 -0.0240 -0.1057
  645TMC3    C8 9556   2.052   4.218   9.514 -0.3231 -0.5774 -0.5218
  645TMC3    O1 9557   2.544   3.911   9.495  0.2185  0.2543 -0.0953
  645TMC3    O2 9558   1.987   4.117   9.491  0.1996 -0.2800  0.6583
  646MPD2     C 9559   2.837   3.983  14.410 -0.0010  0.0669 -0.0379
  646MPD2    C1 9560   2.740   3.948  14.506  0.3200  0.4803  0.3266
  646MPD2    C2 9561   2.609   3.970  14.485  0.9432  0.0463  0.5776
  646MPD2    C3 9562   2.571   4.014  14.355  0.0091 -0.0237 -0.3181
  646MPD2    C4 9563   2.671   4.054  14.264  0.8519  0.1380 -0.7752
  646MPD2    C5 9564   2.804   4.039  14.289 -0.0492 -0.0890  0.0526
  646MPD2     H 9565   2.545   3.924  14.559  2.0082 -0.5816  1.1100
  646MPD2    H1 9566   2.644   4.093  14.166  2.1197  3.6847  0.2676
  646MPD2    H2 9567   2.945   3.976  14.424  0.0334 -1.2708 -0.9889
  646MPD2    H3 9568   2.882   4.059  14.217  2.5043 -0.6573  2.6786
  646MPD2     N 9569   2.437   4.057  14.331 -0.2818  0.2039  0.7281
  646MPD2    H5 9570   2.379   4.057  14.414  0.1055 -2.1213  0.9905
  646MPD2    N1 9571   2.787   3.889  14.631 -0.4272 -0.0507  0.6547
  646MPD2    H7 9572   2.888   3.882  14.637 -0.2973  1.6645  0.3130
  647TMC3    C1 9573   2.796   3.804  14.858 -0.4295  0.0425  0.1691
  647TMC3    C2 9574   2.753   3.819  14.985  0.8849  0.0862  0.7409
  647TMC3    C3 9575   2.831   3.762  15.082  0.3648 -0.4609  1.1415
  647TMC3    C4 9576   2.912   3.749  14.820  0.2396 -0.0753  0.4096
  647TMC3    C5 9577   2.978   3.681  14.916 -0.0072  0.1453 -0.8690
  647TMC3    C6 9578   2.937   3.682  15.048  0.6185  0.1584  0.2271
  647TMC3     C 9579   2.715   3.861  14.747  0.6002 -0.6801 -0.2530
  647TMC3     O 9580   2.597   3.869  14.765  0.1477  0.4130  0.2340
  647TMC3     H 9581   2.650   3.853  14.995  0.1027 -1.9648 -0.3019
  647TMC3    H1 9582   2.935   3.727  14.716  0.7928 -2.4548  1.0477
  647TMC3    H2 9583   2.994   3.625  15.120 -0.4388 -1.1460  0.0392
  647TMC3    C7 9584   3.104   3.621  14.884  0.1562  0.3272 -0.3569
  647TMC3    C8 9585   2.749   3.718  15.196 -0.3433 -1.0227  0.5466
  647TMC3    O1 9586   3.123   3.511  14.940 -0.1093  0.7064 -0.1202
  647TMC3    O2 9587   2.657   3.785  15.233  0.1798 -0.2777  0.2503
  648TMC3    C1 9588   2.171   1.344  16.021  0.1387 -0.1332  0.1314
  648TMC3    C2 9589   2.112   1.227  15.969  0.0799 -0.6076  0.2284
  648TMC3    C3 9590   2.107   1.224  15.830 -0.2517 -0.2720  0.3339
  648TMC3    C4 9591   2.200   1.456  15.944 -0.7492 -0.7879  0.7793
  648TMC3    C5 9592   2.183   1.441  15.812 -0.3395 -0.6129  0.3993
  648TMC3    C6 9593   2.136   1.336  15.742  0.4061 -0.2288 -0.2378
  648TMC3     C 9594   2.152   1.375  16.163 -0.0243  0.4069  0.0799
  648TMC3     O 9595   2.197   1.479  16.204 -0.6423  0.6468 -0.5192
  648TMC3     H 9596   2.091   1.143  16.034  2.8085 -0.5607  1.1890
  648TMC3    H1 9597   2.228   1.552  15.988  0.6122 -0.9948  0.3885
  648TMC3    H2 9598   2.136   1.337  15.634 -1.7076 -1.1859 -0.2374
  648TMC3    C7 9599   2.176   1.567  15.738 -0.4675 -0.2066 -0.4577
  648TMC3    C8 9600   2.130   1.092  15.777 -0.4711  0.0407  0.4354
  648TMC3    O1 9601   2.232   1.581  15.629  0.5276  0.1552 -0.2427
  648TMC3    O2 9602   2.096   0.994  15.842 -0.0931 -0.0468 -0.0655
  649TMC3    C1 9603   0.784   2.684  12.854  0.1219 -0.4945  0.5614
  649TMC3    C2 9604   0.910   2.640  12.825  0.1496  0.5949  0.1758
  649TMC3    C3 9605   0.967   2.564  12.933 -0.4727  0.6761 -0.6592
  649TMC3    C4 9606   0.732   2.682  12.983 -0.1763  0.8486 -0.1509
  649TMC3    C5 9607   0.787   2.599  13.072  0.0874 -0.0914  0.2265
  649TMC3    C6 9608   0.910   2.542  13.048 -0.2727 -0.6031 -0.2437
  649TMC3     C 9609   0.707   2.759  12.753 -0.1487 -0.8313 -0.4009
  649TMC3     O 9610   0.634   2.846  12.798  0.3076 -0.4715  0.1889
  649TMC3     H 9611   0.956   2.636  12.727 -0.5834 -2.2399 -0.0459
  649TMC3    H1 9612   0.631   2.716  13.002 -1.1847 -1.5505 -1.2614
  649TMC3    H2 9613   0.961   2.485  13.125  1.5497 -0.1387 -1.1096
  649TMC3    C7 9614   0.715   2.563  13.192  0.0308  0.0901  0.8534
  649TMC3    C8 9615   1.095   2.516  12.910  0.0229  0.8401  0.3207
  649TMC3    O1 9616   0.597   2.550  13.182 -0.3207 -0.3106 -0.3533
  649TMC3    O2 9617   1.135   2.429  12.985 -0.1598 -0.0794  0.4929
  650TMC3    C1 9618   3.247   3.757  12.744 -0.1705  0.7225  0.2518
  650TMC3    C2 9619   3.250   3.891  12.754  0.2783 -0.2547  0.1737
  650TMC3    C3 9620   3.147   3.961  12.699 -0.2916 -0.2874 -0.2754
  650TMC3    C4 9621   3.150   3.687  12.677  0.2437  0.3610 -0.5695
  650TMC3    C5 9622   3.056   3.754  12.613 -0.4130 -0.1253 -0.2333
  650TMC3    C6 9623   3.052   3.890  12.628  0.6045  0.3147  0.9829
  650TMC3     C 9624   3.365   3.684  12.785 -0.1388 -0.5613  0.5553
  650TMC3     O 9625   3.470   3.744  12.790 -0.5144  0.1827  0.5126
  650TMC3     H 9626   3.336   3.932  12.805  1.2267 -0.8845 -0.9216
  650TMC3    H1 9627   3.152   3.579  12.664 -1.0638  0.2090  0.4206
  650TMC3    H2 9628   2.972   3.945  12.578  1.4871 -1.7040 -2.6214
  650TMC3    C7 9629   2.975   3.674  12.518  0.9116  0.1878  0.2025
  650TMC3    C8 9630   3.147   4.108  12.706 -0.6856  0.1476 -0.2132
  650TMC3    O1 9631   2.957   3.555  12.545  0.3627 -0.2366 -0.0255
  650TMC3    O2 9632   3.255   4.163  12.687 -0.7886 -0.3124  0.3586
  651MPD2     C 9633   2.341   1.273  11.046  0.3279 -0.3834 -0.1324
  651MPD2    C1 9634   2.363   1.403  11.032  0.1158  0.0889  0.1309
  651MPD2    C2 9635   2.491   1.450  11.041 -0.6408 -0.1210  0.0889
  651MPD2    C3 9636   2.599   1.364  11.057  0.8292 -0.0560 -0.5230
  651MPD2    C4 9637   2.576   1.226  11.061  0.1886 -0.0929 -0.2141
  651MPD2    C5 9638   2.449   1.188  11.063 -0.4268 -0.6191 -0.7077
  651MPD2     H 9639   2.509   1.556  11.030 -1.2673  0.0686  0.8695
  651MPD2    H1 9640   2.654   1.151  11.058 -1.4409 -1.8364  1.0035
  651MPD2    H2 9641   2.241   1.231  11.038  0.9077 -1.8509  0.3965
  651MPD2    H3 9642   2.421   1.085  11.049  1.2666 -1.0504 -0.8658
  651MPD2     N 9643   2.724   1.423  11.044  0.0735 -0.0432  0.0361
  651MPD2    H5 9644   2.723   1.522  11.020  1.3846  0.1132  0.6106
  651MPD2    N1 9645   2.255   1.498  11.002 -0.1869 -0.0630 -0.2296
  651MPD2    H7 9646   2.272   1.597  11.014  0.6207 -0.5353  2.5137
  652TMC3    C1 9647   3.171   1.419  10.920  1.1106 -0.8379  0.5084
  652TMC3    C2 9648   3.083   1.360  11.010  0.0420 -0.0373  0.7431
  652TMC3    C3 9649   2.969   1.433  11.029 -0.3481  0.0396 -0.0874
  652TMC3    C4 9650   3.154   1.547  10.872  0.0282 -0.3417  0.2992
  652TMC3    C5 9651   3.043   1.617  10.910  0.1649 -0.0051 -0.1636
  652TMC3    C6 9652   2.940   1.559  10.971  0.2455 -0.1002 -1.0546
  652TMC3     C 9653   3.300   1.361  10.919 -0.0346  0.2348 -0.5561
  652TMC3     O 9654   3.329   1.289  11.014  0.0766  0.1936 -0.0968
  652TMC3     H 9655   3.099   1.265  11.059 -0.9075 -0.2874  0.5618
  652TMC3    H1 9656   3.241   1.594  10.827  0.6246 -0.6030  1.1759
  652TMC3    H2 9657   2.855   1.624  10.993  1.4519  1.5935 -1.3722
  652TMC3    C7 9658   2.997   1.727  10.832 -0.0962  0.0133  0.5573
  652TMC3    C8 9659   2.850   1.359  11.060 -0.2831 -0.6102 -1.1744
  652TMC3    O1 9660   2.885   1.708  10.785 -0.0016  0.3389  0.7165
  652TMC3    O2 9661   2.878   1.247  11.087  0.0651  0.0942 -0.0391
  653MPD2     C 9662   1.256   1.508   0.082 -0.3738 -0.8566 -0.7826
  653MPD2    C1 9663   1.199   1.582  17.684  0.1713 -0.1666 -0.7227
  653MPD2    C2 9664   1.121   1.523  17.588  0.1423  0.4571  0.0674
  653MPD2    C3 9665   1.086   1.386  17.596  0.3088 -0.1637 -0.5726
  653MPD2    C4 9666   1.132   1.315  17.705  0.2083  0.2255 -1.0284
  653MPD2    C5 9667   1.211   1.376   0.097  0.0387  0.4994  0.6506
  653MPD2     H 9668   1.095   1.581  17.501 -1.4870  0.3815  0.5061
  653MPD2    H1 9669   1.096   1.213   0.003 -2.2852  1.1512  0.6115
  653MPD2    H2 9670   1.320   1.548   0.160 -1.6405 -2.1993  0.9558
  653MPD2    H3 9671   1.244   1.313   0.179  0.0666  1.4352  1.3508
  653MPD2     N 9672   1.014   1.329  17.490  0.2361 -0.0419  0.2801
  653MPD2    H5 9673   0.988   1.388  17.412  0.1235  2.3165  2.1076
  653MPD2    N1 9674   1.243   1.717  17.651  0.1826 -0.7757 -0.4272
  653MPD2    H7 9675   1.200   1.756  17.568  0.6838 -1.9308 -1.2204
  654TMC3    C1 9676   0.928   1.171  17.348  0.5805  0.2678  0.1456
  654TMC3    C2 9677   0.862   1.271  17.279 -0.1814  0.0838  0.0869
  654TMC3    C3 9678   0.854   1.254  17.141 -0.4026  0.0571 -0.4002
  654TMC3    C4 9679   0.990   1.062  17.286 -0.1344  0.2766  0.1287
  654TMC3    C5 9680   0.989   1.065  17.154  0.0210  0.3669  0.2339
  654TMC3    C6 9681   0.921   1.156  17.075 -0.2005 -0.0242 -0.3339
  654TMC3     C 9682   0.983   1.194  17.476 -0.3918  0.1394  0.2351
  654TMC3     O 9683   1.005   1.098  17.548 -0.2749 -0.1305 -0.3866
  654TMC3     H 9684   0.815   1.353  17.332 -1.4984  0.7641 -2.1079
  654TMC3    H1 9685   1.029   0.979  17.343 -2.5609 -0.4711  0.6966
  654TMC3    H2 9686   0.921   1.151  16.967 -0.1296 -1.9229 -0.2543
  654TMC3    C7 9687   1.064   0.968  17.084 -0.0378 -0.2093  0.7306
  654TMC3    C8 9688   0.736   1.316  17.078 -0.2440  1.0788 -0.0008
  654TMC3    O1 9689   1.053   0.982  16.964 -0.7448  0.3519  0.5234
  654TMC3    O2 9690   0.690   1.408  17.147 -0.7196  0.1171 -0.0376
  655MPD2     C 9691   2.710   1.716  15.701 -0.2234  0.1426  0.4529
  655MPD2    C1 9692   2.600   1.773  15.632 -0.0453  0.5469  0.0540
  655MPD2    C2 9693   2.577   1.745  15.497 -0.0499 -0.3608  0.0552
  655MPD2    C3 9694   2.659   1.660  15.422 -0.3142 -0.6496 -0.2725
  655MPD2    C4 9695   2.763   1.593  15.496  0.1927  0.1708 -0.7085
  655MPD2    C5 9696   2.787   1.624  15.631  0.7469  0.4818 -0.4584
  655MPD2     H 9697   2.495   1.801  15.455 -1.4739 -2.3109  0.2144
  655MPD2    H1 9698   2.824   1.518  15.448  0.2542  0.6704 -1.4102
  655MPD2    H2 9699   2.739   1.736  15.804 -1.6798 -1.5722  1.1857
  655MPD2    H3 9700   2.878   1.580  15.671  1.4469  2.5825  0.2515
  655MPD2     N 9701   2.643   1.620  15.288 -0.5513  0.0766  0.1312
  655MPD2    H5 9702   2.702   1.544  15.254  1.5083  0.5322  2.7418
  655MPD2    N1 9703   2.516   1.861  15.698  0.3366  0.0751  0.3384
  655MPD2    H7 9704   2.454   1.919  15.644  1.4273 -0.6432 -1.6776
  656TMC3    C1 9705   2.447   1.999  15.886  0.0757 -0.0715 -0.2560
  656TMC3    C2 9706   2.375   1.987  16.000 -0.2921  0.3235  0.2098
  656TMC3    C3 9707   2.288   2.092  16.038  0.4091 -0.3003 -0.4819
  656TMC3    C4 9708   2.428   2.106  15.802  0.3627 -0.1965 -0.3208
  656TMC3    C5 9709   2.345   2.203  15.844 -0.4415 -0.4968 -0.6351
  656TMC3    C6 9710   2.272   2.203  15.959  0.2798 -0.2447  0.4147
  656TMC3     C 9711   2.507   1.874  15.837 -0.1782  0.2070 -0.0754
  656TMC3     O 9712   2.551   1.794  15.920  0.0781 -0.2477  0.2661
  656TMC3     H 9713   2.386   1.908  16.074 -0.2501  1.8092  1.7701
  656TMC3    H1 9714   2.466   2.119  15.701  2.9041  0.4760  0.7055
  656TMC3    H2 9715   2.206   2.281  15.993 -0.6483 -1.8055  2.2340
  656TMC3    C7 9716   2.300   2.296  15.741 -0.2640  0.4582  0.2937
  656TMC3    C8 9717   2.218   2.080  16.160  0.0818  0.6727  0.0546
  656TMC3    O1 9718   2.388   2.323  15.659 -0.1373  0.1134 -0.1152
  656TMC3    O2 9719   2.185   2.187  16.210  0.6859 -0.4322  0.5183
  657TMC3    C1 9720   1.561   1.222  14.922  0.3810 -0.4297  0.2136
  657TMC3    C2 9721   1.559   1.173  15.045  0.3275 -0.4066 -0.6801
  657TMC3    C3 9722   1.495   1.254  15.142  0.5721  0.0581 -0.0540
  657TMC3    C4 9723   1.499   1.344  14.889 -0.0699  0.2821  0.0360
  657TMC3    C5 9724   1.444   1.423  14.988  0.2472 -0.3219  1.3988
  657TMC3    C6 9725   1.445   1.384  15.119 -0.4323  0.2425 -0.4407
  657TMC3     C 9726   1.595   1.148  14.807 -1.2198 -0.0172 -0.4646
  657TMC3     O 9727   1.559   1.192  14.697 -0.6991 -0.3386 -0.1234
  657TMC3     H 9728   1.602   1.080  15.081 -1.1376 -1.2335 -1.0793
  657TMC3    H1 9729   1.505   1.375  14.785 -3.2614 -0.2102 -0.2989
  657TMC3    H2 9730   1.421   1.447  15.204 -0.8761  1.0465 -1.1719
  657TMC3    C7 9731   1.375   1.547  14.951 -0.3463  0.1132  0.7827
  657TMC3    C8 9732   1.467   1.190  15.269 -0.2286  0.4066  0.3927
  657TMC3    O1 9733   1.397   1.584  14.837  0.7509  0.2695 -0.1033
  657TMC3    O2 9734   1.464   1.261  15.367  0.0853  0.3223  0.4101
  658MPD2     C 9735   3.001   1.654  14.762  0.0788  0.1406 -0.1045
  658MPD2    C1 9736   2.898   1.572  14.722 -0.8869  0.1323 -0.0330
  658MPD2    C2 9737   2.898   1.533  14.589  0.1961  0.2574 -0.3235
  658MPD2    C3 9738   2.990   1.566  14.496  0.4155  0.1838 -0.0509
  658MPD2    C4 9739   3.100   1.646  14.542 -0.1188 -0.5456 -0.7168
  658MPD2    C5 9740   3.099   1.692  14.672 -0.6764 -0.4054  0.6839
  658MPD2     H 9741   2.831   1.453  14.558  1.4451 -1.5066  1.5094
  658MPD2    H1 9742   3.183   1.674  14.477 -0.2587  0.6791 -0.3703
  658MPD2    H2 9743   3.024   1.691  14.861 -0.4131  2.1563 -0.7236
  658MPD2    H3 9744   3.185   1.748  14.709  1.1399 -0.5546 -3.3235
  658MPD2     N 9745   2.977   1.526  14.356  0.5440  0.7817  0.1526
  658MPD2    H5 9746   2.907   1.456  14.331  0.0400  1.3853 -0.1257
  658MPD2    N1 9747   2.799   1.534  14.813 -0.3035 -0.6588  0.7798
  658MPD2    H7 9748   2.794   1.586  14.900  1.2524 -1.6976  1.4981
  659TMC3    C1 9749   2.587   1.459  14.898  0.1802  0.2412  0.2861
  659TMC3    C2 9750   2.619   1.515  15.016 -0.0258 -0.3029  0.6378
  659TMC3    C3 9751   2.522   1.584  15.082  0.0353 -0.5312  0.4651
  659TMC3    C4 9752   2.456   1.453  14.852 -0.3384 -0.0019  0.0496
  659TMC3    C5 9753   2.361   1.515  14.926 -0.7918  0.0492 -0.3415
  659TMC3    C6 9754   2.391   1.582  15.037 -0.3752 -0.0978 -0.0133
  659TMC3     C 9755   2.685   1.457  14.787  0.5819  0.7070  0.0153
  659TMC3     O 9756   2.645   1.392  14.691  0.3465  0.1701  0.0160
  659TMC3     H 9757   2.719   1.530  15.055  0.2304  0.9957 -0.5097
  659TMC3    H1 9758   2.422   1.403  14.762 -1.9678 -0.4560  0.9187
  659TMC3    H2 9759   2.313   1.619  15.104  1.3727  1.7661  0.9837
  659TMC3    C7 9760   2.222   1.526  14.895  0.4778  0.0502  0.1232
  659TMC3    C8 9761   2.544   1.666  15.200  0.2614  0.7052  0.6239
  659TMC3    O1 9762   2.144   1.576  14.974 -0.2821  0.3294  0.0460
  659TMC3    O2 9763   2.458   1.747  15.226  0.3076 -0.2212 -0.1765
  660MPD2     C 9764   0.549   0.582  13.049  0.3432  0.3447 -0.0296
  660MPD2    C1 9765   0.422   0.540  13.027  1.0987 -0.2194 -0.0661
  660MPD2    C2 9766   0.350   0.490  13.132 -0.7977 -0.5869 -0.1353
  660MPD2    C3 9767   0.408   0.486  13.264 -0.3582  0.0535 -0.6057
  660MPD2    C4 9768   0.545   0.518  13.272 -0.2393  0.1740 -0.2641
  660MPD2    C5 9769   0.617   0.571  13.164 -0.1223  0.0825 -0.8720
  660MPD2     H 9770   0.252   0.451  13.106 -0.2575 -1.7199 -0.4863
  660MPD2    H1 9771   0.588   0.512  13.372  0.3873 -1.3883 -0.6283
  660MPD2    H2 9772   0.595   0.638  12.969  1.8330  1.2980  1.4826
  660MPD2    H3 9773   0.715   0.613  13.180 -0.1398 -0.9413  1.8654
  660MPD2     N 9774   0.333   0.425  13.371  0.6287  0.0167 -0.2028
  660MPD2    H5 9775   0.381   0.408  13.458 -0.4494  1.5881  0.7078
  660MPD2    N1 9776   0.359   0.535  12.900 -0.2324  0.2471  0.3261
  660MPD2    H7 9777   0.259   0.517  12.898 -0.5655  2.5992 -3.5703
  661TMC3    C1 9778   0.345   0.533  12.659 -0.5193 -0.5918  0.2386
  661TMC3    C2 9779   0.413   0.541  12.541  0.2544  0.9179  1.0550
  661TMC3    C3 9780   0.344   0.560  12.424  0.1038 -0.0853 -0.6206
  661TMC3    C4 9781   0.209   0.515  12.658 -0.3076 -0.1393  0.2727
  661TMC3    C5 9782   0.142   0.537  12.544 -0.2387 -0.1724  0.3933
  661TMC3    C6 9783   0.204   0.551  12.424 -1.1014 -0.0396  0.3198
  661TMC3     C 9784   0.426   0.540  12.780 -0.1681  0.1428 -0.3751
  661TMC3     O 9785   0.546   0.523  12.771  0.0260 -0.1350 -0.1405
  661TMC3     H 9786   0.518   0.567  12.549 -0.0592  2.0687  1.3712
  661TMC3    H1 9787   0.162   0.516  12.757  0.6889  2.1354  0.7125
  661TMC3    H2 9788   0.148   0.559  12.331 -0.9596 -1.2642  0.1280
  661TMC3    C7 9789   4.721   0.521  12.545 -1.0256 -0.2381  0.2750
  661TMC3    C8 9790   0.415   0.560  12.295 -0.0618  0.5426 -0.4348
  661TMC3    O1 9791   4.670   0.511  12.652 -0.6940  0.0790  0.3837
  661TMC3    O2 9792   0.350   0.584  12.199  0.5376 -0.3771  0.4309
  662MPD2     C 9793   1.583   4.369   0.367  0.4555  0.0735  0.9503
  662MPD2    C1 9794   1.607   4.366   0.234  0.1368  0.5943  0.0526
  662MPD2    C2 9795   1.569   4.474   0.158  0.1674  0.1139  0.1155
  662MPD2    C3 9796   1.509   4.582   0.220 -0.4696 -0.3959  0.0573
  662MPD2    C4 9797   1.491   4.589   0.360  0.8051  0.9655  0.7001
  662MPD2    C5 9798   1.529   4.478   0.430 -0.1506  0.1885  0.6673
  662MPD2     H 9799   1.580   4.470   0.050  0.5915 -0.3848  0.1789
  662MPD2    H1 9800   1.456   4.674   0.417  0.1774  0.7175  0.6832
  662MPD2    H2 9801   1.617   4.285   0.425  2.0174 -1.4142 -2.1249
  662MPD2    H3 9802   1.513   4.471   0.537 -0.4680 -4.3402  0.3212
  662MPD2     N 9803   1.454   4.697   0.153 -0.3160 -0.1699  0.2374
  662MPD2    H5 9804   1.394   0.027   0.213 -0.6438 -0.8963  0.5855
  662MPD2    N1 9805   1.653   4.245   0.171  0.2141  0.3834 -0.4357
  662MPD2    H7 9806   1.655   4.253   0.070  0.6250 -1.0295 -0.5331
  663TMC3    C1 9807   1.656   4.013   0.140  0.9941  0.2495 -0.7693
  663TMC3    C2 9808   1.688   3.891   0.198  0.7505  0.0427 -0.1944
  663TMC3    C3 9809   1.612   3.783   0.184  0.1905  0.6204  0.3992
  663TMC3    C4 9810   1.560   4.021   0.043  0.0397 -0.5588  0.8368
  663TMC3    C5 9811   1.490   3.906   0.020  0.0244 -0.1109 -0.3912
  663TMC3    C6 9812   1.526   3.786   0.086  0.0643 -0.5202 -0.3391
  663TMC3     C 9813   1.681   4.123   0.232  0.2417  0.3310 -0.6091
  663TMC3     O 9814   1.660   4.080   0.345  0.3703  0.0034 -0.4847
  663TMC3     H 9815   1.764   3.893   0.275 -0.9886 -0.5356  1.5508
  663TMC3    H1 9816   1.519   4.108  17.700 -0.4580  0.2142  2.6599
  663TMC3    H2 9817   1.475   3.691   0.072  0.2093 -0.5336 -0.7625
  663TMC3    C7 9818   1.394   3.902  17.620  0.2094  0.4857 -0.3817
  663TMC3    C8 9819   1.533   3.753   0.299  0.5279 -0.1410  0.3820
  663TMC3    O1 9820   1.384   3.995  17.546  0.0265 -0.5035 -0.3606
  663TMC3    O2 9821   1.453   3.658   0.296 -0.2602 -0.6897  0.4805
  664MPD2     C 9822   3.954   3.000  17.687  0.5936 -0.4838 -0.4362
  664MPD2    C1 9823   4.005   3.128  17.677 -0.1712  0.8101 -0.2281
  664MPD2    C2 9824   4.032   3.197   0.083 -0.1022  0.1343 -0.2357
  664MPD2    C3 9825   4.021   3.138   0.204  0.0760 -0.5466 -0.4539
  664MPD2    C4 9826   3.952   3.019   0.216 -0.9837 -0.0525  0.2373
  664MPD2    C5 9827   3.922   2.947   0.100 -0.2621  0.0776  0.7950
  664MPD2     H 9828   4.079   3.295   0.077 -2.4285  1.2743  0.0099
  664MPD2    H1 9829   3.949   2.963   0.308  1.9640  3.2869  2.3370
  664MPD2    H2 9830   3.932   2.940  17.600  4.1977 -1.7274 -0.4774
  664MPD2    H3 9831   3.868   2.853   0.109 -1.1589  0.4662 -0.6090
  664MPD2     N 9832   4.090   3.212   0.305  0.6211  0.4696  0.6083
  664MPD2    H5 9833   4.121   3.305   0.280 -0.3257  0.0377 -2.2031
  664MPD2    N1 9834   4.026   3.198  17.560  0.0120  0.1392 -0.2298
  664MPD2    H7 9835   4.059   3.292  17.577 -0.6083  0.3325 -0.0906
  665TMC3    C1 9836   4.165   3.273   0.517 -0.9127 -0.3522  0.0164
  665TMC3    C2 9837   4.235   3.238   0.630  0.4622 -0.8670  0.8922
  665TMC3    C3 9838   4.290   3.335   0.709  0.2406 -0.0032  0.2554
  665TMC3    C4 9839   4.145   3.407   0.480 -0.3780 -0.3557  0.5963
  665TMC3    C5 9840   4.204   3.501   0.565 -0.1998  0.5207 -0.3206
  665TMC3    C6 9841   4.278   3.467   0.678 -0.1168  0.0711  0.4486
  665TMC3     C 9842   4.118   3.164   0.432 -0.0663  0.5398  0.0779
  665TMC3     O 9843   4.119   3.049   0.473  0.2081 -0.2363  0.0666
  665TMC3     H 9844   4.233   3.134   0.659 -0.1538 -1.4269 -1.1869
  665TMC3    H1 9845   4.070   3.435   0.407 -1.1939 -1.4044  1.0360
  665TMC3    H2 9846   4.335   3.537   0.738 -0.4737 -0.8741  1.8818
  665TMC3    C7 9847   4.141   3.634   0.556  0.4981  0.1616 -0.5687
  665TMC3    C8 9848   4.312   3.305   0.850 -0.0101 -0.2310  0.3462
  665TMC3    O1 9849   4.087   3.667   0.453 -0.2850  0.3839 -0.2055
  665TMC3    O2 9850   4.289   3.400   0.923  0.0516  0.0705  0.6544
  666TMC3    C1 9851   2.837   2.835   9.634 -1.1032 -0.1132  0.2928
  666TMC3    C2 9852   2.937   2.779   9.703  0.5743  0.3685  0.1904
  666TMC3    C3 9853   3.034   2.858   9.766  0.0312 -0.3371 -0.2597
  666TMC3    C4 9854   2.838   2.969   9.620 -0.1043  0.6559 -0.5580
  666TMC3    C5 9855   2.934   3.046   9.676 -0.4417  0.2536 -0.2985
  666TMC3    C6 9856   3.042   2.990   9.740 -0.5270  0.2662  0.5387
  666TMC3     C 9857   2.695   2.792   9.652  0.7697  0.5212 -0.2678
  666TMC3     O 9858   2.603   2.872   9.632  0.3059  0.3844 -0.3051
  666TMC3     H 9859   2.941   2.672   9.718 -0.3993  0.0244 -1.9251
  666TMC3    H1 9860   2.758   3.009   9.558 -0.7165  2.3688  1.3433
  666TMC3    H2 9861   3.124   3.054   9.769 -0.5632  0.6407 -0.1679
  666TMC3    C7 9862   2.866   3.129   9.771  0.3253 -0.0450 -0.3861
  666TMC3    C8 9863   3.113   2.808   9.882 -0.6690 -0.5040  0.1008
  666TMC3    O1 9864   2.922   3.128   9.878 -0.7470 -0.0040 -0.0097
  666TMC3    O2 9865   3.114   2.691   9.915 -0.1904  0.0979  0.1635
  667MPD2     C 9866   4.508   2.675  14.550 -0.2741 -0.7982 -0.2281
  667MPD2    C1 9867   4.457   2.671  14.677  0.7746  0.8294 -0.5380
  667MPD2    C2 9868   4.396   2.557  14.709 -0.4196 -1.0351 -0.7623
  667MPD2    C3 9869   4.369   2.458  14.616 -0.3345 -0.0706  0.1602
  667MPD2    C4 9870   4.421   2.466  14.490 -0.9684 -0.4880 -0.4872
  667MPD2    C5 9871   4.493   2.577  14.457  1.2308  0.3798 -1.0702
  667MPD2     H 9872   4.352   2.548  14.807  2.4379  0.6854  0.6603
  667MPD2    H1 9873   4.399   2.390  14.416  1.4045 -0.5683 -1.1350
  667MPD2    H2 9874   4.567   2.754  14.506 -0.8318  0.0733  0.5972
  667MPD2    H3 9875   4.512   2.596  14.352  2.0229  0.9068 -0.8324
  667MPD2     N 9876   4.304   2.335  14.651 -0.1642 -0.2394 -0.2342
  667MPD2    H5 9877   4.293   2.276  14.569 -2.4927 -2.6743  1.8409
  667MPD2    N1 9878   4.480   2.775  14.772 -0.1588 -0.7498 -0.2915
  667MPD2    H7 9879   4.427   2.772  14.858  2.5480  0.9775  1.4436
  668TMC3    C1 9880   4.492   2.995  14.849  0.6671 -0.0818 -0.2724
  668TMC3    C2 9881   4.592   3.074  14.889 -0.1943 -0.2989  0.1336
  668TMC3    C3 9882   4.603   3.101  15.024 -1.0157  0.5739  0.2482
  668TMC3    C4 9883   4.399   2.946  14.939 -1.3032 -0.1105 -0.5178
  668TMC3    C5 9884   4.411   2.967  15.078 -0.9387  0.4399  0.1466
  668TMC3    C6 9885   4.519   3.044  15.120 -0.0972  0.5493 -0.3696
  668TMC3     C 9886   4.530   2.906  14.741 -0.3683  0.2252 -0.6994
  668TMC3     O 9887   4.610   2.943  14.655  0.3061  0.2432  0.4713
  668TMC3     H 9888   4.665   3.105  14.815  1.3458 -0.4165  1.5864
  668TMC3    H1 9889   4.322   2.879  14.902  0.3064 -0.9330 -2.3843
  668TMC3    H2 9890   4.539   3.065  15.225  2.5297  0.1566 -0.7925
  668TMC3    C7 9891   4.377   2.846  15.157  0.1806 -0.7081 -0.2743
  668TMC3    C8 9892   4.711   3.183  15.071  0.2103  0.7199 -0.1146
  668TMC3    O1 9893   4.326   2.754  15.092 -0.0993 -0.2653  0.2400
  668TMC3    O2 9894   0.034   3.144  15.175 -0.2115  0.0459  0.2429
  669TMC3    C1 9895   2.495   3.151  15.224 -0.4438  0.2770  0.3418
  669TMC3    C2 9896   2.366   3.146  15.175 -0.8427  0.4149 -0.1461
  669TMC3    C3 9897   2.356   3.213  15.054  0.2745  1.2218  0.6185
  669TMC3    C4 9898   2.591   3.235  15.177  0.4161  0.1982  0.5666
  669TMC3    C5 9899   2.562   3.303  15.059 -0.1867 -0.0177  0.3974
  669TMC3    C6 9900   2.442   3.295  14.993 -0.1542 -0.1633  0.4670
  669TMC3     C 9901   2.547   3.019  15.257  0.4851 -1.0298 -0.1102
  669TMC3     O 9902   2.662   2.995  15.217 -0.2246  0.0972  0.9993
  669TMC3     H 9903   2.296   3.072  15.210 -1.5501  0.5564 -1.2415
  669TMC3    H1 9904   2.692   3.231  15.215  1.6824  1.0476 -2.7757
  669TMC3    H2 9905   2.430   3.353  14.901 -0.0295  0.5219  0.8786
  669TMC3    C7 9906   2.668   3.314  14.967 -1.0965  0.6743 -0.1051
  669TMC3    C8 9907   2.235   3.173  14.983 -0.5941  0.0738  0.0458
  669TMC3    O1 9908   2.674   3.410  14.890  0.0716  0.0342 -0.0020
  669TMC3    O2 9909   2.192   3.057  14.993 -0.1954  0.1273 -0.4473
  670MPD2     C 9910   0.363   0.810  13.901  0.0588  0.0312 -0.6668
  670MPD2    C1 9911   0.488   0.778  13.846  0.1460 -0.6887  1.1090
  670MPD2    C2 9912   0.594   0.755  13.936 -0.0265  0.2025 -0.7442
  670MPD2    C3 9913   0.572   0.748  14.074  0.0807  0.4972  0.9936
  670MPD2    C4 9914   0.445   0.772  14.119 -0.9572  0.3063 -0.6974
  670MPD2    C5 9915   0.349   0.809  14.033 -0.0021  0.5288 -0.0108
  670MPD2     H 9916   0.692   0.755  13.890 -0.3637 -0.5632 -1.4580
  670MPD2    H1 9917   0.417   0.754  14.222  1.9765 -0.3192 -0.0136
  670MPD2    H2 9918   0.285   0.857  13.841  2.0248  1.8821 -1.7849
  670MPD2    H3 9919   0.248   0.833  14.064  1.1684  2.0008  2.6805
  670MPD2     N 9920   0.685   0.746  14.157 -0.4985  0.1496 -0.6167
  670MPD2    H5 9921   0.774   0.733  14.110  0.5287 -0.8879  1.5896
  670MPD2    N1 9922   0.519   0.794  13.714  0.8140 -0.3434  1.3346
  670MPD2    H7 9923   0.614   0.785  13.680  0.4426 -0.0419  0.2128
  671TMC3    C1 9924   0.821   0.747  14.355  0.4933  1.0695 -0.0102
  671TMC3    C2 9925   0.931   0.744  14.270  0.2055  0.1147 -0.4382
  671TMC3    C3 9926   1.052   0.710  14.325 -0.3564 -0.0892 -0.3553
  671TMC3    C4 9927   0.832   0.707  14.485  0.3052 -0.4335  0.3604
  671TMC3    C5 9928   0.948   0.641  14.521  0.0501 -0.1485 -0.0803
  671TMC3    C6 9929   1.057   0.642  14.448  0.0383  0.3885 -1.1455
  671TMC3     C 9930   0.686   0.749  14.295  0.9433 -0.2704  0.4256
  671TMC3     O 9931   0.593   0.755  14.371 -0.2451  0.3283  0.1174
  671TMC3     H 9932   0.927   0.785  14.169 -1.9251  0.8317 -0.0602
  671TMC3    H1 9933   0.748   0.705  14.554 -0.4978 -1.7645 -0.6407
  671TMC3    H2 9934   1.152   0.606  14.486 -1.3804 -1.4590  0.6097
  671TMC3    C7 9935   0.924   0.527  14.610  1.0071  0.1391  0.0188
  671TMC3    C8 9936   1.162   0.687  14.242 -0.6118  0.3677  0.1223
  671TMC3    O1 9937   0.814   0.515  14.662  0.2316  0.1377 -0.3144
  671TMC3    O2 9938   1.228   0.583  14.257 -0.4043  0.6008 -0.5085
  672MPD2     C 9939   1.978   1.991   1.015  0.2008 -0.7758 -0.1379
  672MPD2    C1 9940   1.927   1.868   0.965 -0.0838  0.6097 -0.4279
  672MPD2    C2 9941   1.802   1.824   1.011  0.3514  0.8856  0.0151
  672MPD2    C3 9942   1.731   1.897   1.101 -0.4674 -0.1001  0.0072
  672MPD2    C4 9943   1.790   2.013   1.153  0.2450  0.7492 -0.0094
  672MPD2    C5 9944   1.912   2.061   1.112  0.0613  0.4187 -0.3469
  672MPD2     H 9945   1.761   1.732   0.970  0.2012  1.4743 -1.1607
  672MPD2    H1 9946   1.733   2.067   1.227  1.2456  1.5688  0.1575
  672MPD2    H2 9947   2.072   2.038   0.987 -0.5779  1.5977  1.2167
  672MPD2    H3 9948   1.961   2.147   1.156  0.7012 -0.7675  1.2737
  672MPD2     N 9949   1.610   1.853   1.158 -0.0052  0.0801  0.2468
  672MPD2    H5 9950   1.558   1.915   1.220 -4.6507 -2.5115 -1.1270
  672MPD2    N1 9951   1.979   1.802   0.848 -0.6239  0.5893  0.2411
  672MPD2    H7 9952   1.923   1.726   0.812 -2.8527  0.9384  2.9837
  673TMC3    C1 9953   2.069   1.794   0.638  0.5201  1.0717  0.0402
  673TMC3    C2 9954   2.078   1.657   0.640  0.4148 -0.6855 -0.8848
  673TMC3    C3 9955   2.019   1.607   0.526 -0.2441  0.1529 -0.2380
  673TMC3    C4 9956   1.996   1.870   0.545  0.1612 -0.0973  0.6678
  673TMC3    C5 9957   1.923   1.806   0.448 -0.7913  0.4698 -0.7158
  673TMC3    C6 9958   1.945   1.675   0.429  0.5043  0.4921 -0.2329
  673TMC3     C 9959   2.070   1.859   0.763  0.3687  0.0409  0.3570
  673TMC3     O 9960   2.121   1.969   0.773  0.1584  0.2276  0.3482
  673TMC3     H 9961   2.139   1.605   0.712  0.2474 -0.5590 -0.6520
  673TMC3    H1 9962   1.988   1.978   0.556  2.6259  0.2719 -1.1491
  673TMC3    H2 9963   1.904   1.627   0.341  1.4379 -1.6294  0.4923
  673TMC3    C7 9964   1.790   1.845   0.449 -0.6488 -0.1785  0.7964
  673TMC3    C8 9965   2.036   1.471   0.510  0.0727  0.0611 -0.2786
  673TMC3    O1 9966   1.716   1.778   0.376 -0.0584  0.5946 -0.1491
  673TMC3    O2 9967   2.068   1.427   0.403  0.3489 -0.3236  0.4129
  674MPD2     C 9968   1.218   1.521   0.515  0.1976  0.2719  0.0116
  674MPD2    C1 9969   1.266   1.394   0.490 -0.3715 -0.4358 -0.6161
  674MPD2    C2 9970   1.172   1.295   0.491 -0.4156 -0.2535  0.4528
  674MPD2    C3 9971   1.034   1.320   0.500  0.0743  0.0168  0.3582
  674MPD2    C4 9972   0.980   1.446   0.517 -0.5633  0.6977  0.4508
  674MPD2    C5 9973   1.082   1.546   0.524 -0.0053  0.0026 -0.0926
  674MPD2     H 9974   1.202   1.190   0.492  2.0240  0.4307  0.0347
  674MPD2    H1 9975   0.874   1.460   0.529 -0.9272 -0.3161 -1.6877
  674MPD2    H2 9976   1.278   1.612   0.513  0.5856  0.0723  1.9741
  674MPD2    H3 9977   1.036   1.644   0.525  0.8737  0.4154 -0.6080
  674MPD2     N 9978   0.953   1.200   0.508 -0.2408 -0.3250  0.3117
  674MPD2    H5 9979   0.999   1.114   0.480 -1.4817 -0.9601  0.2477
  674MPD2    N1 9980   1.404   1.371   0.484  0.4315  0.3247  0.2453
  674MPD2    H7 9981   1.460   1.452   0.464 -0.5779  1.0152  0.1925
  675TMC3    C1 9982   1.604   1.254   0.487 -0.4450  0.1373  0.5745
  675TMC3    C2 9983   1.668   1.144   0.539  0.1234 -0.2187 -0.0073
  675TMC3    C3 9984   1.794   1.118   0.491  0.4329  0.6390  0.4478
  675TMC3    C4 9985   1.653   1.329   0.377 -0.0752 -0.4043 -0.0449
  675TMC3    C5 9986   1.776   1.297   0.332 -0.2822  0.0585  0.3109
  675TMC3    C6 9987   1.854   1.200   0.391  0.1391  0.2161  0.0104
  675TMC3     C 9988   1.463   1.248   0.510  0.0316 -0.5968  0.1858
  675TMC3     O 9989   1.421   1.146   0.563  0.1094 -0.4535  1.1885
  675TMC3     H 9990   1.619   1.088   0.618 -1.2256 -0.3059 -0.9024
  675TMC3    H1 9991   1.590   1.410   0.342  0.6739 -0.0340 -0.5503
  675TMC3    H2 9992   1.950   1.174   0.348  1.6654  0.4342  3.3743
  675TMC3    C7 9993   1.799   1.310   0.186 -0.4635 -0.4750 -0.8825
  675TMC3    C8 9994   1.854   0.993   0.505 -0.0133 -0.3087 -0.3528
  675TMC3    O1 9995   1.892   1.244   0.140  0.0887  0.5367 -0.8590
  675TMC3    O2 9996   1.904   0.947   0.402 -0.1337 -0.3040  0.3192
  676MPD2     C 9997   3.208   3.609  11.651  0.0655 -0.3695  0.1204
  676MPD2    C1 9998   3.230   3.502  11.737  0.2365  0.1583  0.0742
  676MPD2    C2 9999   3.317   3.397  11.708 -0.8198  0.3922  0.5811
  676MPD2    C310000   3.386   3.398  11.584  0.1104 -0.8811 -0.0114
  676MPD2    C410001   3.371   3.516  11.510  0.4242 -0.0570 -0.2273
  676MPD2    C510002   3.281   3.616  11.541 -0.0292 -0.2545 -0.1271
  676MPD2     H10003   3.332   3.315  11.778 -0.9584  0.0715  0.2330
  676MPD2    H110004   3.430   3.538  11.421 -0.7724  0.2108 -0.9626
  676MPD2    H210005   3.141   3.688  11.685 -0.4765  0.4377 -2.8029
  676MPD2    H310006   3.280   3.703  11.476 -0.1962  0.6746  1.1170
  676MPD2     N10007   3.469   3.291  11.538  0.0543 -0.1234 -0.2399
  676MPD2    H510008   3.516   3.310  11.449 -3.6103 -1.5251 -2.4788
  676MPD2    N110009   3.173   3.490  11.865  0.2694  0.4824  0.1604
  676MPD2    H710010   3.221   3.423  11.924 -1.0451  1.6507  2.5644
  677TMC3    C110011   3.067   3.559  12.053 -0.0568 -0.1492 -0.0689
  677TMC3    C210012   3.099   3.438  12.097 -0.2572 -0.3383  0.1137
  677TMC3    C310013   3.167   3.427  12.213  0.3817 -0.3005  0.4930
  677TMC3    C410014   3.087   3.671  12.127 -0.0127  0.3594  0.2433
  677TMC3    C510015   3.149   3.660  12.246  0.2394  0.2764 -0.4890
  677TMC3    C610016   3.185   3.538  12.291  0.2086 -0.4911  0.4847
  677TMC3     C10017   3.072   3.572  11.916  0.0680  0.1377 -0.2217
  677TMC3     O10018   3.016   3.671  11.870  0.5938 -0.2132 -0.0583
  677TMC3     H10019   3.069   3.350  12.041  0.3361  0.2456 -1.1352
  677TMC3    H110020   3.053   3.765  12.087 -2.4766 -0.2742  0.8772
  677TMC3    H210021   3.247   3.529  12.379  1.5457 -1.1220 -0.5231
  677TMC3    C710022   3.244   3.766  12.276 -0.5059  0.1384 -0.4467
  677TMC3    C810023   3.282   3.346  12.170  0.9157  0.0946 -0.4085
  677TMC3    O110024   3.296   3.758  12.388  0.0239 -0.4411 -0.1147
  677TMC3    O210025   3.299   3.339  12.050 -0.2224  0.7279  0.1423
  678MPD2     C10026   0.659   4.353   1.808  1.0723 -0.1564  0.2801
  678MPD2    C110027   0.691   4.248   1.724 -0.0811 -0.0396 -0.2551
  678MPD2    C210028   0.605   4.192   1.630  0.8354  0.6123 -0.0328
  678MPD2    C310029   0.471   4.241   1.629 -0.3032 -0.1542 -1.0112
  678MPD2    C410030   0.431   4.338   1.725 -0.1754  0.2151  0.7373
  678MPD2    C510031   0.525   4.390   1.804 -0.3763 -0.0758 -0.0617
  678MPD2     H10032   0.637   4.103   1.576  1.1791  0.3827  0.5471
  678MPD2    H110033   0.330   4.377   1.733 -0.7379 -0.9554 -0.8131
  678MPD2    H210034   0.729   4.408   1.870  2.4348  0.1921 -1.5631
  678MPD2    H310035   0.485   4.462   1.874  0.5922  0.7937 -0.3973
  678MPD2     N10036   0.387   4.177   1.543 -0.4025 -0.0045  0.2694
  678MPD2    H510037   0.432   4.099   1.496 -3.7688 -1.3255 -0.7082
  678MPD2    N110038   0.817   4.195   1.721  0.8402 -0.0735 -0.6833
  678MPD2    H710039   0.827   4.118   1.655  0.1955 -1.3149  0.6487
  679TMC3    C110040   1.091   3.920   1.685  0.6612 -0.6873 -0.1031
  679TMC3    C210041   0.984   4.000   1.727  1.1450  0.1268 -0.4416
  679TMC3    C310042   1.022   4.121   1.773 -0.5450 -0.0721  0.2066
  679TMC3    C410043   1.218   3.963   1.686 -0.0610  0.2183  0.3759
  679TMC3    C510044   1.246   4.084   1.738  0.2771  0.0321 -0.1274
  679TMC3    C610045   1.148   4.160   1.793 -0.1604  0.3604  1.0439
  679TMC3     C10046   1.066   3.791   1.626 -0.0978 -0.6399 -0.2655
  679TMC3     O10047   1.153   3.750   1.550 -0.2085 -0.3265 -0.2877
  679TMC3     H10048   0.887   3.956   1.747  1.5733 -1.8982 -2.8065
  679TMC3    H110049   1.299   3.907   1.640 -1.5097  0.8470 -2.9686
  679TMC3    H210050   1.158   4.265   1.818  2.4341  0.2547  0.4580
  679TMC3    C710051   1.362   4.145   1.670  0.1534  0.0073  0.7356
  679TMC3    C810052   0.918   4.210   1.811  0.2311 -0.0283  1.1695
  679TMC3    O110053   1.413   4.089   1.574 -0.2248 -0.1521 -0.4625
  679TMC3    O210054   0.941   4.306   1.881  0.3153  0.0494  0.0327
  680MPD2     C10055   0.084   2.981  13.643  0.1543  0.4790 -0.4272
  680MPD2    C110056   0.183   2.892  13.676 -0.4983 -0.4920 -0.6307
  680MPD2    C210057   0.312   2.931  13.677 -0.0089 -0.4272  0.4431
  680MPD2    C310058   0.346   3.068  13.669 -0.4412 -0.0073  0.2202
  680MPD2    C410059   0.244   3.157  13.636  0.0347  0.1688  0.3903
  680MPD2    C510060   0.119   3.107  13.613 -0.1034 -0.3099  0.3472
  680MPD2     H10061   0.389   2.857  13.695  0.5273 -0.1423 -0.6811
  680MPD2    H110062   0.265   3.259  13.609 -0.4402  1.1119  3.5278
  680MPD2    H210063   4.706   2.951  13.635 -0.1606  2.0141 -2.1224
  680MPD2    H310064   0.040   3.173  13.581  1.9579  1.1486 -1.7388
  680MPD2     N10065   0.472   3.116  13.699  0.2297  0.3115  0.3615
  680MPD2    H510066   0.493   3.214  13.683  1.2588 -0.1440 -1.0779
  680MPD2    N110067   0.165   2.758  13.709  0.1869  0.4138 -0.0996
  680MPD2    H710068   0.242   2.695  13.730  0.5660  1.2395  0.9488
  681TMC3    C110069   0.075   2.546  13.737  0.2568  0.7339 -0.1729
  681TMC3    C210070   0.027   2.508  13.861  0.3894  0.7716 -0.1338
  681TMC3    C310071   0.095   2.415  13.940 -0.5323 -0.2846 -0.8941
  681TMC3    C410072   0.191   2.496  13.694  0.4040 -0.2645 -0.2497
  681TMC3    C510073   0.258   2.402  13.773 -0.5368  0.0313  0.2436
  681TMC3    C610074   0.214   2.365  13.898 -0.0444 -0.0782 -0.2313
  681TMC3     C10075   0.048   2.688  13.699 -0.0270 -0.1677  0.2298
  681TMC3     O10076   4.659   2.725  13.691 -0.3401  0.7162  0.1581
  681TMC3     H10077   4.665   2.553  13.904 -0.3494 -2.8425  2.1433
  681TMC3    H110078   0.218   2.532  13.595 -1.0284  0.1388 -0.4953
  681TMC3    H210079   0.250   2.279  13.954 -2.3206 -0.3051  0.9029
  681TMC3    C710080   0.388   2.368  13.740 -0.1928 -0.6012 -0.1215
  681TMC3    C810081   0.085   2.434  14.085  0.2506 -0.2834  0.1496
  681TMC3    O110082   0.442   2.288  13.818 -0.3187 -0.5238  0.5022
  681TMC3    O210083   4.707   2.459  14.138  0.3521 -0.2296 -0.6676
  682MPD2     C10084   2.214   3.789  10.854 -0.0345  0.0989 -0.3753
  682MPD2    C110085   2.306   3.687  10.875  0.2285 -0.4333  0.1273
  682MPD2    C210086   2.340   3.648  11.003  0.1228 -0.0334 -0.1261
  682MPD2    C310087   2.286   3.713  11.110  0.1374  0.0635 -0.0104
  682MPD2    C410088   2.202   3.820  11.089 -0.0794  0.3763  0.5674
  682MPD2    C510089   2.154   3.851  10.962  0.1846  0.2426  0.1081
  682MPD2     H10090   2.401   3.560  11.017 -2.4235 -1.2798  3.3700
  682MPD2    H110091   2.179   3.893  11.166 -1.9548  0.0153  0.3382
  682MPD2    H210092   2.183   3.837  10.762  2.0656 -2.3370 -2.3398
  682MPD2    H310093   2.075   3.924  10.952 -0.1876 -0.5306 -2.5983
  682MPD2     N10094   2.330   3.672  11.236 -0.2098  0.8793 -0.3815
  682MPD2    H510095   2.393   3.592  11.232  0.4255  1.3486  0.2092
  682MPD2    N110096   2.377   3.611  10.772  0.4032  0.5839  0.7259
  682MPD2    H710097   2.440   3.535  10.794  1.1796  0.8632 -0.5443
  683TMC3    C110098   2.390   3.637  11.700 -0.3079 -0.3206  0.5674
  683TMC3    C210099   2.425   3.504  11.690 -0.1230  0.0177  0.6618
  683TMC3    C310100   2.430   3.453  11.563  0.4103 -0.0593  0.4259
  683TMC3    C410101   2.364   3.714  11.592  0.4683  0.2576  0.1911
  683TMC3    C510102   2.380   3.666  11.466 -0.0227 -0.1224 -0.2227
  683TMC3    C610103   2.406   3.531  11.450 -0.0077 -0.3620  0.5231
  683TMC3     C10104   2.411   3.708  11.825  0.8380  0.1860  0.6927
  683TMC3     O10105   2.416   3.829  11.818  0.2357 -0.3824 -0.2358
  683TMC3     H10106   2.484   3.457  11.768  1.7009  1.5705  0.2249
  683TMC3    H110107   2.354   3.822  11.602 -0.9105  0.1393  0.0348
  683TMC3    H210108   2.406   3.473  11.359  1.2294  1.4503 -0.6188
  683TMC3    C710109   2.316   3.734  11.360 -0.1403 -0.2522  0.1990
  683TMC3    C810110   2.488   3.316  11.554  0.5631  0.2759  0.4368
  683TMC3    O110111   2.283   3.850  11.378 -0.1968  0.1379  0.0952
  683TMC3    O210112   2.544   3.295  11.448  0.2600  0.6398 -0.4899
  684MPD2     C10113   0.911   3.539  16.453 -0.1720 -0.1903  0.4725
  684MPD2    C110114   0.893   3.549  16.315 -0.4997  0.4626 -0.0532
  684MPD2    C210115   0.819   3.655  16.271 -0.0740 -0.1451  0.7870
  684MPD2    C310116   0.774   3.748  16.364  0.2330  0.2047 -0.4258
  684MPD2    C410117   0.811   3.745  16.495  0.6478  0.1159  0.4634
  684MPD2    C510118   0.872   3.640  16.543  0.2560  0.2315  0.1561
  684MPD2     H10119   0.808   3.661  16.163  0.8719  0.0948  0.7048
  684MPD2    H110120   0.771   3.821  16.561  0.2483  0.7942 -0.5556
  684MPD2    H210121   0.970   3.457  16.492  1.7019  1.0184  0.1693
  684MPD2    H310122   0.887   3.626  16.649  2.6023 -0.4369 -0.2628
  684MPD2     N10123   0.701   3.863  16.331 -0.3993 -0.0831 -0.0804
  684MPD2    H510124   0.685   3.931  16.404  1.1151  0.5568 -0.3552
  684MPD2    N110125   0.937   3.450  16.226 -0.3069  0.2578 -0.1081
  684MPD2    H710126   0.913   3.469  16.129  0.3099  1.5094 -0.0172
  685TMC3    C110127   1.037   3.256  16.136  0.6246 -0.2512  0.4884
  685TMC3    C210128   0.931   3.247  16.053  0.1478  0.6156 -0.6863
  685TMC3    C310129   0.934   3.146  15.952 -0.8509  0.0058 -0.1439
  685TMC3    C410130   1.139   3.161  16.143  0.7412  0.3631  0.4591
  685TMC3    C510131   1.138   3.060  16.046  0.5869  0.2707  0.1118
  685TMC3    C610132   1.038   3.055  15.950 -0.0118 -0.1507  0.2843
  685TMC3     C10133   1.020   3.346  16.249  0.0605 -0.3204  0.8297
  685TMC3     O10134   1.076   3.312  16.355 -0.4330 -0.2238 -0.4926
  685TMC3     H10135   0.837   3.293  16.082  0.6739  1.0284  0.3710
  685TMC3    H110136   1.217   3.177  16.216 -0.5794 -2.5061  2.4957
  685TMC3    H210137   1.054   2.991  15.864  1.9684  0.1663  0.4296
  685TMC3    C710138   1.212   2.930  16.058  0.0802 -0.5302  0.6099
  685TMC3    C810139   0.826   3.124  15.853  0.7936 -0.0291 -0.7501
  685TMC3    O110140   1.212   2.853  15.963  0.7110  0.2113  0.4722
  685TMC3    O210141   0.830   3.019  15.787  0.3736 -0.5399 -0.0514
  686MPD2     C10142   2.228   3.431  15.864 -0.5902 -0.6058  0.3807
  686MPD2    C110143   2.256   3.367  15.976 -0.5836  0.4913  0.2018
  686MPD2    C210144   2.339   3.259  15.975 -0.0984  0.4727  0.2279
  686MPD2    C310145   2.386   3.207  15.852  0.3096  0.9088  0.0500
  686MPD2    C410146   2.363   3.280  15.734 -0.4872  0.1502 -0.0683
  686MPD2    C510147   2.280   3.390  15.738 -0.2534  0.2860  0.3991
  686MPD2     H10148   2.392   3.232  16.066  1.2524 -0.7578 -0.9311
  686MPD2    H110149   2.393   3.236  15.640  1.0781  2.8846 -0.8367
  686MPD2    H210150   2.150   3.506  15.868 -0.3097 -0.2025 -1.9715
  686MPD2    H310151   2.240   3.441  15.651 -0.6959 -0.2923  0.2659
  686MPD2     N10152   2.471   3.093  15.835 -0.7454 -0.2723 -0.1957
  686MPD2    H510153   2.520   3.094  15.746  0.1801  1.6370  0.3395
  686MPD2    N110154   2.191   3.416  16.093 -0.4442 -0.1211 -0.2896
  686MPD2    H710155   2.134   3.500  16.084  0.2180  0.3855  0.2546
  687TMC3    C110156   2.383   2.974  16.022 -0.2780 -0.0150 -0.1652
  687TMC3    C210157   2.247   2.981  15.985  0.1145 -0.1131  0.0425
  687TMC3    C310158   2.158   2.979  16.086 -0.4999 -0.0125  0.0507
  687TMC3    C410159   2.424   2.936  16.143 -0.5810 -0.5382 -0.3143
  687TMC3    C510160   2.325   2.921  16.241 -0.0552 -0.2873  0.0806
  687TMC3    C610161   2.199   2.955  16.211  0.5588  0.0563 -0.3494
  687TMC3     C10162   2.486   2.988  15.922  0.6132 -0.3893  0.4053
  687TMC3     O10163   2.572   2.901  15.914 -0.0752 -0.0695  0.1343
  687TMC3     H10164   2.222   3.005  15.883  1.3663 -2.6911 -0.8785
  687TMC3    H110165   2.529   2.950  16.168 -0.9315  0.9377  0.2813
  687TMC3    H210166   2.134   2.931  16.294  0.8599  0.5066  0.0145
  687TMC3    C710167   2.359   2.955  16.382  0.5081  0.0941  0.1160
  687TMC3    C810168   2.027   3.029  16.071 -0.1665  0.3406  0.1433
  687TMC3    O110169   2.274   3.014  16.451  0.4811  0.2123 -0.6274
  687TMC3    O210170   1.941   3.001  16.152  0.0800 -0.3407  0.0865
  688MPD2     C10171   1.791   2.286  17.383 -0.3857  0.0280  0.4984
  688MPD2    C110172   1.735   2.164  17.370 -0.0593 -0.8129  0.0424
  688MPD2    C210173   1.775   2.079  17.268 -0.0859  0.2101  0.5173
  688MPD2    C310174   1.871   2.129  17.178 -0.2054 -0.2535 -0.2326
  688MPD2    C410175   1.912   2.256  17.192 -0.5062  0.3851 -0.0052
  688MPD2    C510176   1.881   2.333  17.298  0.2591  0.8688 -0.1880
  688MPD2     H10177   1.732   1.980  17.260  0.1723  0.0621  0.9498
  688MPD2    H110178   1.975   2.308  17.120  0.8736 -1.2736  0.0084
  688MPD2    H210179   1.768   2.351  17.466 -2.2437  0.1435 -0.1012
  688MPD2    H310180   1.912   2.437  17.309 -1.1969  1.1942  0.8470
  688MPD2     N10181   1.929   2.046  17.079  0.4643 -0.2734 -0.3019
  688MPD2    H510182   1.995   2.083  17.011  2.9464 -1.3674  1.4835
  688MPD2    N110183   1.636   2.115  17.459  0.9458  0.1069 -0.6518
  688MPD2    H710184   1.611   2.017  17.449  2.9690 -0.3783 -1.0101
  689TMC3    C110185   1.448   2.119  17.602 -0.2010 -0.7573 -0.6033
  689TMC3    C210186   1.339   2.198  17.625 -0.0579 -0.0010  0.4746
  689TMC3    C310187   1.229   2.126  17.666  0.8886 -0.1271 -0.2612
  689TMC3    C410188   1.465   1.989  17.627  0.4759 -0.0875 -0.0004
  689TMC3    C510189   1.353   1.926  17.660 -0.0892  0.5562 -0.0166
  689TMC3    C610190   1.232   1.991  17.670 -0.1035 -0.6743  0.3746
  689TMC3     C10191   1.560   2.193  17.546 -0.5207 -0.1228 -0.0231
  689TMC3     O10192   1.552   2.316  17.562  0.7016 -0.1531 -0.3611
  689TMC3     H10193   1.340   2.306  17.620 -2.3523  0.0516  0.9556
  689TMC3    H110194   1.565   1.946  17.621  1.6913  2.7641 -0.3069
  689TMC3    H210195   1.153   1.937   0.016  0.0147 -0.1173  1.1430
  689TMC3    C710196   1.344   1.793   0.011  0.3209  1.5287  0.3349
  689TMC3    C810197   1.147   2.186   0.064  0.0521 -0.0713 -0.1545
  689TMC3    O110198   1.446   1.763   0.075 -0.1666 -0.2975 -0.4810
  689TMC3    O210199   1.086   2.121   0.149  0.7486 -0.2843  0.1684
  690MPD2     C10200   3.857   3.855  15.607  0.5441  1.1329  0.1959
  690MPD2    C110201   3.864   3.873  15.473 -0.6978  0.4720 -0.7165
  690MPD2    C210202   3.981   3.907  15.412  0.1435 -0.1625  0.1379
  690MPD2    C310203   4.093   3.931  15.492 -0.0879  0.2062  0.4565
  690MPD2    C410204   4.092   3.905  15.621 -0.5466 -0.6767 -0.1193
  690MPD2    C510205   3.972   3.862  15.680  0.6251 -0.5114  0.0853
  690MPD2     H10206   3.986   3.944  15.310  0.4424 -1.6864 -0.4048
  690MPD2    H110207   4.182   3.907  15.681 -1.6785  1.5070  1.4912
  690MPD2    H210208   3.773   3.813  15.660 -0.4876  2.7225 -0.1658
  690MPD2    H310209   3.968   3.852  15.788 -0.8745 -0.2677  0.0477
  690MPD2     N10210   4.209   3.977  15.425  0.1601 -0.3391 -0.5497
  690MPD2    H510211   4.194   4.004  15.328 -0.1315 -0.9366 -0.6691
  690MPD2    N110212   3.754   3.866  15.388  0.2689  0.3702 -0.4624
  690MPD2    H710213   3.772   3.883  15.289 -0.4563 -0.3992 -0.7322
  691TMC3    C110214   3.538   3.844  15.306  0.0339 -0.0103  0.0687
  691TMC3    C210215   3.408   3.873  15.332 -0.1302  0.5146  0.6273
  691TMC3    C310216   3.316   3.784  15.279  0.0396  0.4181  0.1517
  691TMC3    C410217   3.570   3.737  15.225  0.0039 -0.2917  0.5245
  691TMC3    C510218   3.474   3.655  15.171 -0.2692  0.2064  0.6401
  691TMC3    C610219   3.342   3.677  15.196  0.4636 -0.2249  0.5026
  691TMC3     C10220   3.626   3.852  15.420 -0.2246  0.5324  0.1443
  691TMC3     O10221   3.571   3.855  15.529  0.0424  0.2994  0.0891
  691TMC3     H10222   3.378   3.943  15.410 -2.0687  2.2696 -1.6777
  691TMC3    H110223   3.671   3.697  15.234 -0.2177 -0.8308  0.6126
  691TMC3    H210224   3.266   3.622  15.141 -0.4762  1.3416  0.2419
  691TMC3    C710225   3.517   3.517  15.179 -0.5778  0.7135 -0.3547
  691TMC3    C810226   3.188   3.787  15.334  0.2596  0.2778  0.6662
  691TMC3    O110227   3.632   3.493  15.148 -0.3824  0.4951 -0.0684
  691TMC3    O210228   3.137   3.678  15.350 -0.3916 -0.3689  0.0017
  692TMC3    C110229   0.574   0.251  15.521  0.5544 -0.2249 -0.0996
  692TMC3    C210230   0.701   0.286  15.541  0.0852 -0.2759 -0.2224
  692TMC3    C310231   0.805   0.197  15.499 -0.5640 -0.0879  0.1071
  692TMC3    C410232   0.529   0.132  15.493 -0.0506  0.0869 -0.7108
  692TMC3    C510233   0.625   0.043  15.464  0.4602  0.2631  0.4060
  692TMC3    C610234   0.765   0.077  15.447  0.6796  0.3769 -0.4260
  692TMC3     C10235   0.472   0.342  15.557 -0.0753  0.6777 -0.6879
  692TMC3     O10236   0.366   0.298  15.589 -0.6671  0.0393 -0.4928
  692TMC3     H10237   0.730   0.388  15.561  1.5062 -0.8508  0.6475
  692TMC3    H110238   0.423   0.107  15.502 -0.0484  0.8612  1.3528
  692TMC3    H210239   0.839   4.724  15.439 -0.2952 -0.4378 -1.4349
  692TMC3    C710240   0.586   4.641  15.515 -0.2162 -0.0307 -0.6961
  692TMC3    C810241   0.911   0.178  15.599 -0.3255  0.1049 -0.3829
  692TMC3    O110242   0.483   4.636  15.578  0.0571 -0.4670 -0.0528
  692TMC3    O210243   1.013   0.124  15.559 -0.2820  0.1925 -0.5608
  693MPD2     C10244   4.664   3.127  10.406 -0.0942  0.4526 -0.4242
  693MPD2    C110245   4.644   2.990  10.394 -0.2397  0.1829 -0.7022
  693MPD2    C210246   0.007   2.900  10.444 -0.1428 -0.0697 -0.0786
  693MPD2    C310247   0.118   2.949  10.516  0.3086 -0.6294 -0.7831
  693MPD2    C410248   0.136   3.081  10.532 -0.2654  0.7778  0.2685
  693MPD2    C510249   0.052   3.167  10.470 -0.1365 -0.9089 -0.5328
  693MPD2     H10250   4.712   2.794  10.440  2.1235 -0.5393  0.4977
  693MPD2    H110251   0.215   3.121  10.594  1.6981 -1.7524 -0.5881
  693MPD2    H210252   4.593   3.189  10.352  0.6897  1.2367 -0.5610
  693MPD2    H310253   0.073   3.273  10.481 -0.2120 -1.1440  1.8153
  693MPD2     N10254   0.202   2.859  10.582  0.4928  0.4856  0.4013
  693MPD2    H510255   0.257   2.905  10.653  1.0002  1.0177 -0.3359
  693MPD2    N110256   4.511   2.957  10.360 -0.6757 -0.6724  0.4864
  693MPD2    H710257   4.452   3.037  10.340  0.3155 -0.3860 -1.1994
  694TMC3    C110258   4.320   2.810  10.366 -0.0178  0.5255 -0.0001
  694TMC3    C210259   4.261   2.695  10.319 -0.1586  0.5275 -0.0813
  694TMC3    C310260   4.163   2.642  10.397 -0.3872  0.4207  0.2708
  694TMC3    C410261   4.272   2.877  10.474 -0.4061  0.1661 -0.0065
  694TMC3    C510262   4.171   2.826  10.546 -0.4002 -0.0169  0.2955
  694TMC3    C610263   4.119   2.701  10.508 -0.2041 -0.0539  0.1629
  694TMC3     C10264   4.466   2.826  10.347  0.2095 -0.4176 -0.0967
  694TMC3     O10265   4.537   2.728  10.323  0.3596 -0.1844 -0.5423
  694TMC3     H10266   4.279   2.640  10.227 -0.9753  0.1700 -0.0267
  694TMC3    H110267   4.328   2.960  10.514 -1.4859  1.6076 -1.4683
  694TMC3    H210268   4.034   2.657  10.558  0.4006  1.4550  2.5544
  694TMC3    C710269   4.185   2.852  10.690  0.2868 -0.2257 -0.5569
  694TMC3    C810270   4.052   2.592  10.311  0.0034 -0.1615  0.2088
  694TMC3    O110271   4.252   2.947  10.718 -0.0451  0.1758 -0.0629
  694TMC3    O210272   4.057   2.622  10.192  0.2635  0.6599 -0.6042
  695MPD2     C10273   1.012   0.282  13.455  0.7868 -0.2942 -0.2412
  695MPD2    C110274   1.053   0.287  13.591 -0.0096  0.5657  0.1564
  695MPD2    C210275   0.955   0.303  13.685  0.8503 -0.6219  0.0493
  695MPD2    C310276   0.822   0.314  13.659 -0.5310  0.3114  0.3965
  695MPD2    C410277   0.775   0.295  13.525 -0.3370 -0.5173 -0.3508
  695MPD2    C510278   0.875   0.278  13.433 -0.4421 -0.4146  0.0589
  695MPD2     H10279   0.986   0.300  13.789 -0.8055 -0.5751  0.5509
  695MPD2    H110280   0.671   0.293  13.498 -0.6426  2.0915  0.5943
  695MPD2    H210281   1.076   0.241  13.378 -0.6322 -0.2240 -1.4620
  695MPD2    H310282   0.852   0.250  13.331 -1.1665 -0.7546  0.3224
  695MPD2     N10283   0.739   0.329  13.775 -0.2290  0.5033 -0.4102
  695MPD2    H510284   0.782   0.332  13.867  0.8390  1.4284 -0.9426
  695MPD2    N110285   1.192   0.271  13.631  0.7097  0.5679  0.1946
  695MPD2    H710286   1.209   0.270  13.731 -0.3825  1.2075  0.3874
  696TMC3    C110287   0.532   0.356  13.897 -0.4001 -0.0782 -0.4124
  696TMC3    C210288   0.598   0.298  14.002 -0.5067  0.1583 -0.1587
  696TMC3    C310289   0.534   0.297  14.121 -0.0805 -1.0787 -0.0006
  696TMC3    C410290   0.405   0.411  13.907 -1.2291 -0.1202 -0.4044
  696TMC3    C510291   0.345   0.413  14.029  0.3513 -0.4278 -0.4627
  696TMC3    C610292   0.413   0.359  14.137 -0.8120  0.6033 -0.7849
  696TMC3     C10293   0.601   0.351  13.767  0.2405 -0.2445 -1.2784
  696TMC3     O10294   0.543   0.390  13.667  0.6129 -0.4163 -0.5044
  696TMC3     H10295   0.695   0.250  13.995 -1.2002 -1.5181  1.6651
  696TMC3    H110296   0.365   0.454  13.816 -1.2690 -0.8330 -0.7236
  696TMC3    H210297   0.365   0.365  14.234 -0.9158  0.4883 -0.8291
  696TMC3    C710298   0.211   0.460  14.044  0.0048  0.0940  0.2736
  696TMC3    C810299   0.619   0.315  14.238 -0.5510 -0.0499  0.6984
  696TMC3    O110300   0.147   0.488  13.946 -0.3304 -0.1854 -0.5049
  696TMC3    O210301   0.591   0.408  14.315  0.2041  0.5594 -0.3518
  697MPD2     C10302   0.168   1.656  15.525 -0.3822  0.3588 -0.7761
  697MPD2    C110303   0.147   1.619  15.394 -0.0194 -0.2609  0.7636
  697MPD2    C210304   0.142   1.717  15.298  0.3472  0.7328  0.5720
  697MPD2    C310305   0.137   1.852  15.321  0.5727 -0.5171  0.8768
  697MPD2    C410306   0.147   1.882  15.453 -0.1583 -0.7063 -0.4707
  697MPD2    C510307   0.168   1.793  15.553 -0.9393 -1.1419  0.0978
  697MPD2     H10308   0.128   1.678  15.198 -0.3255 -0.3531  1.0945
  697MPD2    H110309   0.140   1.983  15.493 -0.2723 -1.1357  0.5912
  697MPD2    H210310   0.181   1.587  15.608  0.6912  0.2486 -1.0308
  697MPD2    H310311   0.171   1.842  15.650 -2.1007  0.7203 -0.8008
  697MPD2     N10312   0.142   1.943  15.215 -0.1597  0.2575 -0.3404
  697MPD2    H510313   0.154   1.904  15.122  0.9073  0.1129 -0.1352
  697MPD2    N110314   0.129   1.485  15.347 -0.3533 -0.1051 -0.3993
  697MPD2    H710315   0.098   1.457  15.254  0.5740  2.8962 -1.6180
  698TMC3    C110316   0.184   2.135  15.093  0.2639 -0.2406  0.2661
  698TMC3    C210317   0.213   2.270  15.105  0.1012  0.1902  0.1802
  698TMC3    C310318   0.277   2.335  15.009  0.1109  0.1745  0.2935
  698TMC3    C410319   0.205   2.069  14.979  0.1803  0.2525 -0.4902
  698TMC3    C510320   0.273   2.132  14.882  0.0057  0.2761  0.1214
  698TMC3    C610321   0.317   2.262  14.895  0.5652 -0.0462  0.0396
  698TMC3     C10322   0.143   2.079  15.221  0.4070  0.7750  0.1955
  698TMC3     O10323   0.096   2.150  15.310 -0.9175  0.3180  0.1948
  698TMC3     H10324   0.190   2.320  15.199  0.7766  1.1096 -0.1499
  698TMC3    H110325   0.191   1.963  14.963 -1.6790  0.4453 -0.0800
  698TMC3    H210326   0.373   2.307  14.813 -0.4693 -1.2926 -1.3559
  698TMC3    C710327   0.242   2.086  14.750 -0.3070 -0.6209 -0.7272
  698TMC3    C810328   0.346   2.453  15.051  0.6566 -0.6681  0.4122
  698TMC3    O110329   0.145   2.008  14.735  0.5663  0.0839 -0.2711
  698TMC3    O210330   0.346   2.482  15.168 -0.1230 -0.4496 -0.2538
  699TMC3    C110331   0.141   0.345  13.488 -0.3082  0.3888 -0.0194
  699TMC3    C210332   0.228   0.276  13.570 -0.6162  0.4394 -0.1387
  699TMC3    C310333   0.173   0.213  13.681  0.0089  0.1887  0.5410
  699TMC3    C410334   0.007   0.344  13.511 -0.1554 -0.6004  0.3651
  699TMC3    C510335   4.686   0.260  13.612 -0.0614 -0.0950 -0.1738
  699TMC3    C610336   0.039   0.205  13.705 -0.0937  0.5608 -0.0794
  699TMC3     C10337   0.193   0.404  13.366 -0.2623 -0.0817  0.0483
  699TMC3     O10338   0.109   0.434  13.280  0.6333 -0.4358  0.3596
  699TMC3     H10339   0.330   0.250  13.542 -0.0385  2.3785  0.1999
  699TMC3    H110340   4.665   0.399  13.447 -0.4146 -0.2734  0.9258
  699TMC3    H210341   4.724   0.153  13.790  1.8125 -3.0859 -1.4004
  699TMC3    C710342   4.545   0.226  13.633 -0.2480  0.0808  0.5770
  699TMC3    C810343   0.245   0.108  13.759  0.0000  0.2477  0.4226
  699TMC3    O110344   4.517   0.131  13.703  0.0306 -0.9736 -0.7300
  699TMC3    O210345   0.183   0.037  13.836 -1.0316 -0.1803 -0.4135
  700TMC3    C110346   4.130   2.695  17.109  0.5432  1.1013  0.4621
  700TMC3    C210347   4.091   2.564  17.107  0.0219  0.2532 -0.2330
  700TMC3    C310348   4.133   2.490  17.214 -0.1421  0.8914  0.4155
  700TMC3    C410349   4.200   2.760  17.213  0.0553 -0.1562 -0.2355
  700TMC3    C510350   4.223   2.681  17.319  0.1869 -0.1092 -0.4251
  700TMC3    C610351   4.186   2.550  17.326 -0.0099 -0.5657  0.3546
  700TMC3     C10352   4.092   2.772  16.993 -0.2012 -0.1930  0.1553
  700TMC3     O10353   3.978   2.765  16.948  0.0680  0.1574  0.1725
  700TMC3     H10354   4.060   2.519  17.013 -2.7936 -0.9316  1.2479
  700TMC3    H110355   4.226   2.865  17.216  0.2489 -0.2259  0.3180
  700TMC3    H210356   4.226   2.488  17.406 -1.0004 -2.2507 -0.4595
  700TMC3    C710357   4.264   2.742  17.445 -0.2969  0.7281 -0.9354
  700TMC3    C810358   4.181   2.354  17.193  0.1346 -0.1315 -0.0302
  700TMC3    O110359   4.328   2.849  17.436 -0.0850 -0.8311 -0.3525
  700TMC3    O210360   4.268   2.313  17.271 -1.0359 -0.1730  0.0262
  701TMC3    C110361   4.165   0.939  15.140 -0.5656  0.8523 -0.0430
  701TMC3    C210362   4.173   0.938  15.002 -0.7825 -0.1528  0.0269
  701TMC3    C310363   4.223   1.060  14.947 -0.2856 -0.2645 -0.0250
  701TMC3    C410364   4.202   1.048  15.213  0.8458  0.7646 -0.4949
  701TMC3    C510365   4.250   1.158  15.148  0.1105 -0.0262 -0.5808
  701TMC3    C610366   4.260   1.171  15.014 -0.3171  0.5978 -0.4510
  701TMC3     C10367   4.137   0.825  15.222  0.5735  0.7495  0.2707
  701TMC3     O10368   4.125   0.838  15.345 -0.2393  0.0128 -0.5740
  701TMC3     H10369   4.143   0.851  14.946 -0.7356  0.2822 -0.6692
  701TMC3    H110370   4.182   1.059  15.319  0.1410 -1.4933 -0.3923
  701TMC3    H210371   4.292   1.260  14.962 -1.1427  2.0689  1.5602
  701TMC3    C710372   4.306   1.269  15.220 -0.2346 -0.2688 -0.3097
  701TMC3    C810373   4.245   1.055  14.803 -0.2696  0.4743  0.0464
  701TMC3    O110374   4.338   1.368  15.158 -0.1089 -0.1264 -0.1144
  701TMC3    O210375   4.305   1.157  14.759  0.0814 -0.4858  0.0582
  702MPD2     C10376   3.854   3.003  10.863 -0.6024  0.1558 -0.3605
  702MPD2    C110377   3.822   3.090  10.956  1.3143  0.2357  0.6512
  702MPD2    C210378   3.827   3.222  10.919 -0.0497 -0.1272 -0.5136
  702MPD2    C310379   3.852   3.259  10.784  0.3111  0.2855 -0.1987
  702MPD2    C410380   3.893   3.165  10.692 -1.0187  0.1295 -0.0418
  702MPD2    C510381   3.892   3.035  10.739 -0.3502 -0.3928 -0.8832
  702MPD2     H10382   3.793   3.303  10.982  2.2901 -0.9785  1.8329
  702MPD2    H110383   3.944   3.196  10.601 -1.6528 -0.1941 -0.5028
  702MPD2    H210384   3.862   2.899  10.893  0.0435 -0.2807 -2.0728
  702MPD2    H310385   3.912   2.952  10.673 -1.8540 -1.0163 -0.5529
  702MPD2     N10386   3.834   3.396  10.750  0.7975  0.3251 -0.2758
  702MPD2    H510387   3.788   3.454  10.820  1.2724  0.5080 -0.1129
  702MPD2    N110388   3.766   3.054  11.084 -0.4090 -0.1392  0.0499
  702MPD2    H710389   3.754   2.954  11.097 -0.5767  0.1107  1.7842
  703TMC3    C110390   3.847   3.603  10.645  0.2270 -0.1091  0.6980
  703TMC3    C210391   3.782   3.659  10.745  0.0202 -0.1213 -0.1597
  703TMC3    C310392   3.760   3.796  10.735 -0.2297 -0.1412 -0.2187
  703TMC3    C410393   3.900   3.676  10.538  0.3347 -0.0709  0.7782
  703TMC3    C510394   3.861   3.813  10.523 -0.0022 -0.4132 -0.6736
  703TMC3    C610395   3.803   3.878  10.630  0.8993  0.2332  0.0149
  703TMC3     C10396   3.869   3.457  10.634 -0.1405  0.3835  0.4731
  703TMC3     O10397   3.918   3.421  10.528  0.3959 -0.3649 -0.1889
  703TMC3     H10398   3.759   3.609  10.839  1.2537 -1.3099 -0.4781
  703TMC3    H110399   3.970   3.632  10.467  0.7628  1.7563  0.0673
  703TMC3    H210400   3.781   3.983  10.617  3.6370  0.7748 -0.4168
  703TMC3    C710401   3.935   3.894  10.415  0.4342 -0.1254  0.5746
  703TMC3    C810402   3.700   3.862  10.850 -0.2581 -0.2900  0.0783
  703TMC3    O110403   3.944   4.017  10.434 -0.3776  0.0242  0.0525
  703TMC3    O210404   3.724   3.981  10.869  0.1921  0.2367 -0.0719
  704TMC3    C110405   1.581   1.809  11.755  0.1569  0.5728  0.5097
  704TMC3    C210406   1.679   1.777  11.660  0.3758 -0.0469 -0.5056
  704TMC3    C310407   1.711   1.644  11.648 -0.0532 -0.2008  0.0116
  704TMC3    C410408   1.521   1.713  11.829 -0.2561  0.0928  0.4220
  704TMC3    C510409   1.556   1.583  11.816 -0.4002  0.2866 -0.3305
  704TMC3    C610410   1.650   1.548  11.728 -0.0960  0.4153  0.4751
  704TMC3     C10411   1.534   1.948  11.769 -0.0768  0.0755 -0.4798
  704TMC3     O10412   1.427   1.971  11.824  0.6557  0.2651 -0.1125
  704TMC3     H10413   1.736   1.855  11.611 -0.0462 -0.9601 -2.4291
  704TMC3    H110414   1.462   1.738  11.916  1.1587  0.5055  1.2584
  704TMC3    H210415   1.680   1.445  11.712 -2.1944 -0.1470  0.0783
  704TMC3    C710416   1.525   1.484  11.918 -0.3431  0.5315  0.9943
  704TMC3    C810417   1.803   1.592  11.544  0.0015 -0.2347 -0.0008
  704TMC3    O110418   1.591   1.380  11.905 -0.3941  0.0770  0.0557
  704TMC3    O210419   1.788   1.478  11.513 -0.4087 -0.3621  0.0898
  705MPD2     C10420   1.268   0.251  16.947  0.0618 -0.0281  0.3794
  705MPD2    C110421   1.202   0.269  16.825  0.6690 -0.1767 -0.0307
  705MPD2    C210422   1.062   0.293  16.822  0.2279  0.3764  0.2562
  705MPD2    C310423   0.991   0.303  16.938 -0.1769  0.2605 -0.1901
  705MPD2    C410424   1.061   0.301  17.055  0.1557 -0.7506 -0.3043
  705MPD2    C510425   1.191   0.269  17.058  0.0686  0.0019  0.0049
  705MPD2     H10426   1.018   0.289  16.724  1.2861 -0.0777 -0.1994
  705MPD2    H110427   0.991   0.313  17.137  0.3494 -0.5381 -0.1705
  705MPD2    H210428   1.375   0.248  16.962 -0.1783 -1.1787  1.8303
  705MPD2    H310429   1.234   0.248  17.155  2.7405  0.9096 -0.9955
  705MPD2     N10430   0.855   0.310  16.945  0.0208  0.1654 -0.0438
  705MPD2    H510431   0.806   0.310  17.034 -1.2974  0.5494 -0.7674
  705MPD2    N110432   1.276   0.278  16.703 -0.2852  0.1086 -0.2542
  705MPD2    H710433   1.233   0.310  16.616 -1.6800  0.5030  0.5896
  706TMC3    C110434   1.582   0.186  16.367  0.2881  0.2077 -0.2294
  706TMC3    C210435   1.510   0.260  16.280  0.0420 -0.2635 -0.9164
  706TMC3    C310436   1.410   0.343  16.331  0.5712 -0.0715 -0.4620
  706TMC3    C410437   1.547   0.184  16.503  0.3537 -0.3576  0.3904
  706TMC3    C510438   1.445   0.263  16.545  0.3376 -0.1897 -0.4454
  706TMC3    C610439   1.377   0.348  16.464  0.5115 -0.4038  0.6017
  706TMC3     C10440   1.684   0.087  16.325 -0.2787 -0.1576 -0.1407
  706TMC3     O10441   1.757   0.041  16.412 -0.1962  0.7319  0.0213
  706TMC3     H10442   1.537   0.267  16.175 -0.9994  1.4175 -1.0686
  706TMC3    H110443   1.605   0.136  16.580 -0.6357 -2.1520  0.0177
  706TMC3    H210444   1.300   0.419  16.492  0.5532 -0.3369  0.5472
  706TMC3    C710445   1.409   0.247  16.686 -0.2542 -0.6637 -0.0693
  706TMC3    C810446   1.355   0.439  16.244 -0.6843  0.0152 -0.3410
  706TMC3    O110447   1.491   0.204  16.762 -1.1475 -0.2390  0.2911
  706TMC3    O210448   1.433   0.484  16.159 -0.1692 -0.8826  0.1610
  707TMC3    C110449   3.118   3.826   1.518 -0.4485  0.3400  0.1554
  707TMC3    C210450   3.189   3.760   1.611  0.6286  0.6634 -0.2254
  707TMC3    C310451   3.129   3.665   1.684 -0.3690 -0.2035  0.3218
  707TMC3    C410452   2.986   3.794   1.494  0.0523  0.2108 -1.6555
  707TMC3    C510453   2.925   3.699   1.573  0.0305  0.2073  0.6411
  707TMC3    C610454   2.993   3.637   1.675 -0.3055 -0.4081  0.0163
  707TMC3     C10455   3.204   3.907   1.433  0.8664  0.5597 -0.1746
  707TMC3     O10456   3.320   3.930   1.469 -0.4596 -0.2576 -0.1637
  707TMC3     H10457   3.293   3.788   1.623  1.1961 -1.9665  0.9698
  707TMC3    H110458   2.931   3.853   1.422 -1.3146 -1.9227 -2.3459
  707TMC3    H210459   2.955   3.556   1.737 -2.6421  0.1950 -0.6253
  707TMC3    C710460   2.784   3.680   1.544  0.0833  0.4429  0.4407
  707TMC3    C810461   3.202   3.594   1.783  0.2356 -0.4212  0.0799
  707TMC3    O110462   2.730   3.765   1.477 -0.3381  0.8250 -0.5157
  707TMC3    O210463   3.135   3.533   1.867  0.0770  0.3349  0.3700
  708MPD2     C10464   4.379   2.920  13.710 -0.7411  0.1545  0.1369
  708MPD2    C110465   4.284   2.861  13.787 -0.3250 -0.0013 -0.3744
  708MPD2    C210466   4.209   2.936  13.881  0.5688 -0.4959 -0.5328
  708MPD2    C310467   4.222   3.072  13.894  0.2123  0.9777  0.4953
  708MPD2    C410468   4.305   3.128  13.805  0.1474  0.0971  0.1691
  708MPD2    C510469   4.392   3.046  13.731 -0.4772  0.0136 -0.2971
  708MPD2     H10470   4.144   2.889  13.954 -0.1177  0.8812 -0.2444
  708MPD2    H110471   4.311   3.236  13.800 -1.1052  0.1779  0.4337
  708MPD2    H210472   4.438   2.868  13.635  0.6145  2.2855 -0.2828
  708MPD2    H310473   4.476   3.091  13.679 -0.5900  1.2510  0.5972
  708MPD2     N10474   4.143   3.149  13.978  0.0919  0.0784 -0.1600
  708MPD2    H510475   4.181   3.240  14.001  1.5447 -0.5727  0.0919
  708MPD2    N110476   4.260   2.721  13.771  0.0591 -0.2574 -0.3657
  708MPD2    H710477   4.329   2.675  13.714  1.8674 -0.5667  2.0862
  709TMC3    C110478   4.137   2.511  13.790  0.1691  0.6353 -0.7264
  709TMC3    C210479   4.113   2.482  13.656 -0.3361  0.2998  0.8104
  709TMC3    C310480   4.005   2.400  13.627  0.5365  0.4516 -1.1577
  709TMC3    C410481   4.060   2.451  13.888  0.0203  0.1509 -0.4713
  709TMC3    C510482   3.948   2.377  13.856  0.7752  0.3890 -0.4195
  709TMC3    C610483   3.918   2.346  13.722 -0.1889 -0.3678  0.0108
  709TMC3     C10484   4.142   2.651  13.811  0.1446  0.4810 -1.0610
  709TMC3     O10485   4.044   2.688  13.881 -0.2308 -0.1488  0.4673
  709TMC3     H10486   4.181   2.516  13.578 -0.3348 -0.2079  0.5843
  709TMC3    H110487   4.075   2.469  13.993  2.9343 -0.2549 -0.8242
  709TMC3    H210488   3.832   2.285  13.697  0.9957 -2.0380  0.0577
  709TMC3    C710489   3.834   2.405  13.940 -0.6544 -0.0851 -0.3303
  709TMC3    C810490   3.993   2.380  13.483  0.1412  0.8195 -0.1022
  709TMC3    O110491   3.764   2.311  13.973 -0.2324 -0.1584  0.0473
  709TMC3    O210492   4.094   2.372  13.419 -0.6579 -0.1177  0.6490
  710TMC3    C110493   1.615   4.545   0.919  0.2348  0.0338 -0.6544
  710TMC3    C210494   1.618   4.447   0.831 -0.0701  0.4228 -0.4686
  710TMC3    C310495   1.576   4.325   0.871  0.5145  0.0853 -0.0751
  710TMC3    C410496   1.601   4.523   1.051 -0.4303 -0.3155 -0.6337
  710TMC3    C510497   1.555   4.398   1.093  0.8432 -0.0128 -0.5207
  710TMC3    C610498   1.540   4.305   0.997  0.7501 -0.3811 -0.4437
  710TMC3     C10499   1.669   4.677   0.886  0.4140 -0.3689 -0.2177
  710TMC3     O10500   1.722   4.688   0.777 -0.0912 -0.2940  0.3850
  710TMC3     H10501   1.632   4.474   0.726  0.7683  1.8526  0.0092
  710TMC3    H110502   1.627   4.601   1.122  0.3674  2.0752 -3.5443
  710TMC3    H210503   1.526   4.204   1.035 -0.2670 -0.5034 -1.1423
  710TMC3    C710504   1.551   4.358   1.232 -0.4404  0.5757 -0.1011
  710TMC3    C810505   1.572   4.213   0.777  0.1062 -0.0429  0.3179
  710TMC3    O110506   1.533   4.241   1.257  0.4806  0.1143 -1.0086
  710TMC3    O210507   1.647   4.223   0.684  0.0993  0.2837  0.1138
  711TMC3    C110508   0.249   0.510  15.124  0.0809  0.3701  0.5357
  711TMC3    C210509   0.299   0.638  15.122  0.2371  0.1394 -0.1480
  711TMC3    C310510   0.435   0.647  15.124 -0.5909  0.3582  0.9325
  711TMC3    C410511   0.330   0.400  15.139  0.5250 -0.1465  0.6510
  711TMC3    C510512   0.466   0.416  15.137  0.2752 -0.6487  0.7056
  711TMC3    C610513   0.517   0.542  15.132 -0.4943 -0.1574 -0.4399
  711TMC3     C10514   0.117   0.487  15.067 -0.0961 -0.5156  0.5222
  711TMC3     O10515   0.086   0.374  15.044  0.1444 -0.4140 -0.1515
  711TMC3     H10516   0.241   0.729  15.123 -1.8974 -1.2230  0.2672
  711TMC3    H110517   0.293   0.300  15.159  2.5153 -0.8674  0.7508
  711TMC3    H210518   0.624   0.555  15.144 -0.5163  0.1917 -0.6311
  711TMC3    C710519   0.555   0.304  15.142  0.6749 -0.4559 -0.1612
  711TMC3    C810520   0.480   0.784  15.115  0.9276  0.0096  0.5095
  711TMC3    O110521   0.656   0.319  15.213 -0.3395  0.4952  0.1229
  711TMC3    O210522   0.407   0.871  15.061 -0.2251 -0.0940 -0.2290
  712MPD2     C10523   1.423   1.722  13.466  0.1703  0.4777 -0.5190
  712MPD2    C110524   1.313   1.800  13.502  0.0002  0.3537 -0.2021
  712MPD2    C210525   1.340   1.927  13.550  0.1923 -0.0260 -1.0912
  712MPD2    C310526   1.469   1.975  13.562 -0.5369  0.5178 -0.1351
  712MPD2    C410527   1.575   1.894  13.522  0.9165 -0.8352 -1.0861
  712MPD2    C510528   1.546   1.767  13.478 -0.3484 -0.0283  0.2312
  712MPD2     H10529   1.257   1.989  13.582  0.4325 -1.3864  2.1574
  712MPD2    H110530   1.678   1.924  13.539  0.3826  0.6377 -0.4799
  712MPD2    H210531   1.403   1.624  13.423 -1.3670  0.8068 -0.5762
  712MPD2    H310532   1.629   1.697  13.467  1.9325  2.3297  2.5368
  712MPD2     N10533   1.496   2.098  13.626 -0.1359 -0.5972 -0.9505
  712MPD2    H510534   1.595   2.110  13.646 -0.1266  0.5004 -1.6096
  712MPD2    N110535   1.188   1.741  13.488 -0.4238 -0.7667  0.1931
  712MPD2    H710536   1.185   1.641  13.472 -0.6320 -0.5130 -1.3319
  713TMC3    C110537   1.452   2.311  13.711 -0.3866 -0.7231  0.1055
  713TMC3    C210538   1.562   2.291  13.788 -0.4861 -0.5138  0.0501
  713TMC3    C310539   1.569   2.344  13.909 -0.4104 -0.0137 -0.4240
  713TMC3    C410540   1.353   2.402  13.752  0.7802  0.1923 -0.2061
  713TMC3    C510541   1.366   2.454  13.875 -0.1222 -0.7051 -0.1030
  713TMC3    C610542   1.472   2.431  13.955  0.5341  0.4690 -0.2170
  713TMC3     C10543   1.407   2.199  13.636  0.5486 -0.4932  1.0339
  713TMC3     O10544   1.303   2.204  13.578 -0.6926  0.2935  0.2464
  713TMC3     H10545   1.644   2.228  13.755  0.3659  0.5050  0.2462
  713TMC3    H110546   1.275   2.426  13.680  0.9497  1.1935 -0.0587
  713TMC3    H210547   1.470   2.474  14.054 -0.5904 -0.1550  0.0394
  713TMC3    C710548   1.269   2.547  13.934  0.0040  0.3067  0.8444
  713TMC3    C810549   1.676   2.284  14.000 -0.0980 -0.5407  0.0556
  713TMC3    O110550   1.264   2.557  14.056 -0.0992 -0.1955  0.1208
  713TMC3    O210551   1.771   2.220  13.954 -0.0434 -0.7753 -0.3518
  714MPD2     C10552   3.628   0.760   1.954 -1.0558  0.1694  0.0747
  714MPD2    C110553   3.643   0.698   1.827  0.1678  0.2511 -0.1573
  714MPD2    C210554   3.532   0.675   1.747 -0.2061 -0.1956 -0.3234
  714MPD2    C310555   3.415   0.731   1.783 -0.0954  0.3493 -0.0690
  714MPD2    C410556   3.403   0.805   1.899  0.0726 -0.3396  0.1018
  714MPD2    C510557   3.509   0.822   1.986  0.0138 -1.2386 -0.3940
  714MPD2     H10558   3.533   0.618   1.655 -0.6911  0.2525 -0.6075
  714MPD2    H110559   3.306   0.841   1.931 -0.1901  0.2552 -1.4117
  714MPD2    H210560   3.707   0.766   2.028  0.9501 -1.3481 -1.9422
  714MPD2    H310561   3.498   0.866   2.085  2.8384  3.4342 -2.2030
  714MPD2     N10562   3.301   0.703   1.704 -0.1587  0.1876  0.1047
  714MPD2    H510563   3.323   0.654   1.618 -1.5243  1.9899 -1.2603
  714MPD2    N110564   3.764   0.640   1.790 -0.6104 -0.4284 -0.7035
  714MPD2    H710565   3.770   0.588   1.703  0.3050 -1.4498 -0.0364
  715TMC3    C110566   4.001   0.624   1.776  0.5467  0.1584 -0.1317
  715TMC3    C210567   3.988   0.502   1.721  0.0157  0.1686  0.1742
  715TMC3    C310568   4.089   0.454   1.647  0.5435 -0.6039  0.4672
  715TMC3    C410569   4.121   0.695   1.766  0.0172 -0.3651  0.1480
  715TMC3    C510570   4.224   0.642   1.692  0.0216  0.3130  0.3565
  715TMC3    C610571   4.207   0.525   1.622 -0.7073 -0.4780  0.2619
  715TMC3     C10572   3.886   0.687   1.846  0.0681  0.2325 -0.1465
  715TMC3     O10573   3.909   0.781   1.919 -0.1670 -0.3391  0.5879
  715TMC3     H10574   3.903   0.436   1.740 -1.2541  1.9808  0.8117
  715TMC3    H110575   4.135   0.799   1.794 -2.8123  0.3393 -1.0952
  715TMC3    H210576   4.299   0.481   1.584  0.9638 -0.7298  4.6292
  715TMC3    C710577   4.333   0.730   1.645  0.0246 -0.0327  0.1632
  715TMC3    C810578   4.107   0.318   1.679 -0.5132 -0.5279 -0.5964
  715TMC3    O110579   4.378   0.819   1.717 -0.0900 -0.3643  0.0516
  715TMC3    O210580   4.084   0.290   1.800 -0.4176  0.2050  0.2631
  716MPD2     C10581   3.411   3.293   9.958  0.5349 -0.1798 -0.4005
  716MPD2    C110582   3.357   3.262   9.845 -0.0077 -0.6855 -0.2454
  716MPD2    C210583   3.390   3.140   9.779  0.0847 -0.2158 -0.3268
  716MPD2    C310584   3.473   3.055   9.850 -0.4146 -0.6601  0.4462
  716MPD2    C410585   3.532   3.092   9.970  0.3177 -0.2121  0.4361
  716MPD2    C510586   3.498   3.212  10.028  0.9345 -0.3997 -0.0181
  716MPD2     H10587   3.357   3.117   9.679 -0.4209  0.4372 -0.3126
  716MPD2    H110588   3.591   3.026  10.033 -0.4999 -0.7522  0.6371
  716MPD2    H210589   3.377   3.385  10.005  0.6197 -0.1394 -0.4195
  716MPD2    H310590   3.535   3.233  10.127 -0.5485  0.4988  0.3459
  716MPD2     N10591   3.495   2.935   9.786  0.1181 -0.5160  0.2932
  716MPD2    H510592   3.477   2.920   9.687  1.2177  0.3412 -0.0302
  716MPD2    N110593   3.263   3.352   9.792 -0.0858 -0.3763 -0.0565
  716MPD2    H710594   3.251   3.443   9.835 -0.2182 -0.9354  1.0866
  717TMC3    C110595   3.511   2.701   9.782 -0.0716  0.7998  0.1149
  717TMC3    C210596   3.401   2.701   9.705  0.5429 -0.7257  0.3753
  717TMC3    C310597   3.356   2.577   9.672  0.1197 -0.1920 -0.0931
  717TMC3    C410598   3.578   2.589   9.819  0.0009  0.3070 -0.6167
  717TMC3    C510599   3.531   2.466   9.776  0.3738 -0.6933  0.2965
  717TMC3    C610600   3.411   2.463   9.713 -0.0249  0.1593  0.5570
  717TMC3     C10601   3.552   2.824   9.840  0.2805  0.0011  0.2407
  717TMC3     O10602   3.599   2.817   9.953 -0.1742 -0.5928  0.7721
  717TMC3     H10603   3.329   2.782   9.696  1.3193  0.0851  1.3208
  717TMC3    H110604   3.676   2.602   9.863  0.8316 -1.2832 -2.0375
  717TMC3    H210605   3.366   2.371   9.678 -1.1809  0.4731  1.2331
  717TMC3    C710606   3.608   2.343   9.806 -0.1070  1.4407  0.0119
  717TMC3    C810607   3.261   2.575   9.563 -1.0439  0.2593 -0.0470
  717TMC3    O110608   3.713   2.370   9.865 -0.2209 -0.0715  0.3716
  717TMC3    O210609   3.194   2.677   9.547 -0.2414  0.3763  0.1713
  718MPD2     C10610   2.664   1.485  12.680  1.0494 -1.2644 -0.5343
  718MPD2    C110611   2.606   1.593  12.616  0.3447  0.6480 -0.5251
  718MPD2    C210612   2.473   1.615  12.633  0.5241 -0.0992 -0.4391
  718MPD2    C310613   2.393   1.530  12.713 -0.1174  1.2426  0.0199
  718MPD2    C410614   2.458   1.425  12.778  0.3636 -0.8489 -0.1096
  718MPD2    C510615   2.595   1.409  12.769 -0.3300  0.0078  0.0304
  718MPD2     H10616   2.430   1.703  12.587  0.9448 -0.3091 -1.2393
  718MPD2    H110617   2.403   1.352  12.835  0.3929 -0.7640  0.0278
  718MPD2    H210618   2.770   1.466  12.667  1.0173 -2.1024  0.3737
  718MPD2    H310619   2.644   1.324  12.814  0.1532  0.4937  0.4326
  718MPD2     N10620   2.254   1.557  12.722 -0.2129  0.0376 -0.3693
  718MPD2    H510621   2.225   1.648  12.688 -2.0760 -0.4416 -0.0937
  718MPD2    N110622   2.670   1.689  12.527 -0.0503  0.4220 -0.2326
  718MPD2    H710623   2.611   1.750  12.472 -0.2080 -1.3023 -1.9735
  719TMC3    C110624   2.829   1.792  12.395 -0.0610  0.1149  0.1747
  719TMC3    C210625   2.716   1.825  12.322  0.0839  0.5300 -1.0440
  719TMC3    C310626   2.675   1.955  12.318  0.7371  0.7067 -0.8959
  719TMC3    C410627   2.916   1.891  12.429  0.0214  0.4180 -0.2591
  719TMC3    C510628   2.885   2.018  12.386 -0.1513  0.0951  0.2026
  719TMC3    C610629   2.756   2.054  12.349 -0.1619  0.3450  0.0139
  719TMC3     C10630   2.803   1.699  12.499  0.7352  0.3916 -0.4840
  719TMC3     O10631   2.897   1.649  12.553  0.0642  0.1927  0.3905
  719TMC3     H10632   2.676   1.737  12.272  0.5155 -1.1463  1.5348
  719TMC3    H110633   3.012   1.881  12.479 -0.0559  0.1028 -0.1781
  719TMC3    H210634   2.740   2.155  12.311 -2.2074 -0.4606 -1.2552
  719TMC3    C710635   2.987   2.118  12.401  0.0570  0.1276  0.2418
  719TMC3    C810636   2.550   1.957  12.384 -0.1312 -0.1465 -1.0011
  719TMC3    O110637   3.104   2.081  12.428 -0.3405 -0.2050 -0.5898
  719TMC3    O210638   2.487   1.855  12.379  0.5460 -0.1298 -0.0102
  720MPD2     C10639   1.419   3.682  14.122  0.9017  0.1733 -0.2575
  720MPD2    C110640   1.516   3.660  14.025  0.0158  0.3167 -0.8972
  720MPD2    C210641   1.637   3.611  14.066 -0.6909 -0.3352 -0.5349
  720MPD2    C310642   1.668   3.609  14.201 -0.3387  0.4523  0.5889
  720MPD2    C410643   1.564   3.618  14.292 -1.0504 -0.5773 -0.7681
  720MPD2    C510644   1.436   3.657  14.259  0.4428  0.2633  0.1048
  720MPD2     H10645   1.718   3.610  13.993  1.6981 -0.5108  2.1011
  720MPD2    H110646   1.574   3.590  14.396 -0.0703 -0.7732 -0.9115
  720MPD2    H210647   1.321   3.715  14.090  0.3324 -1.0444  0.2447
  720MPD2    H310648   1.346   3.662  14.318  0.0472  0.7182 -0.5370
  720MPD2     N10649   1.804   3.581  14.243 -0.0477 -0.4102  0.5974
  720MPD2    H510650   1.875   3.574  14.170 -0.3406 -0.0768  0.2837
  720MPD2    N110651   1.498   3.685  13.886  0.6576  0.1409 -0.3720
  720MPD2    H710652   1.579   3.670  13.827 -1.8560 -0.1141 -3.7419
  721TMC3    C110653   2.001   3.578  14.374 -0.6775  0.1190  0.0843
  721TMC3    C210654   2.056   3.580  14.499  0.5706 -0.2045 -0.7879
  721TMC3    C310655   2.186   3.535  14.518 -0.1307  0.4064  0.4662
  721TMC3    C410656   2.069   3.514  14.273 -0.1063  0.3691  0.0708
  721TMC3    C510657   2.194   3.460  14.297  0.3252  0.6018 -0.6956
  721TMC3    C610658   2.256   3.476  14.421  0.4051  0.6268  0.7770
  721TMC3     C10659   1.853   3.591  14.368 -0.5017 -0.3089  0.4540
  721TMC3     O10660   1.796   3.636  14.469  0.1589 -0.2432  0.6680
  721TMC3     H10661   2.010   3.622  14.587 -1.8364 -2.0734 -1.1666
  721TMC3    H110662   2.023   3.492  14.177 -0.6636  1.3611  0.1106
  721TMC3    H210663   2.361   3.450  14.432  0.5102  0.6492 -0.1447
  721TMC3    C710664   2.285   3.404  14.192 -0.8186 -0.1672 -0.0243
  721TMC3    C810665   2.265   3.564  14.643  0.5626  0.0067 -0.1758
  721TMC3    O110666   2.396   3.357  14.222 -0.0883  0.5503  0.0714
  721TMC3    O210667   2.364   3.497  14.649  0.5622  0.4321  0.1227
  722MPD2     C10668   0.151   2.583  13.339 -0.2698 -0.0216 -0.7310
  722MPD2    C110669   0.149   2.724  13.310  0.0568  0.4991 -0.1882
  722MPD2    C210670   0.033   2.784  13.258 -0.5146 -0.1124  0.0834
  722MPD2    C310671   4.647   2.695  13.229  0.7790 -0.8489 -0.0807
  722MPD2    C410672   4.652   2.566  13.268  0.4069  0.4322 -0.1949
  722MPD2    C510673   0.039   2.512  13.326  0.2459 -0.4397 -0.1667
  722MPD2     H10674   0.044   2.881  13.212 -0.3569  0.8613  2.1702
  722MPD2    H110675   4.568   2.500  13.256  0.4897  0.2518  0.2226
  722MPD2    H210676   0.243   2.534  13.371 -0.7700  2.4155  4.5019
  722MPD2    H310677   0.037   2.407  13.356 -0.2750 -0.6221 -0.8276
  722MPD2     N10678   4.527   2.737  13.164 -0.7389 -0.6313  0.3771
  722MPD2    H510679   4.463   2.665  13.132  1.0763 -0.7557 -3.0445
  722MPD2    N110680   0.266   2.805  13.320 -0.3128  0.4388 -0.0520
  722MPD2    H710681   0.259   2.901  13.286 -0.5193  0.4766  0.1031
  723TMC3    C110682   4.380   2.870  13.056  0.0655  0.0174 -0.3470
  723TMC3    C210683   4.386   2.799  12.942  0.3951  0.2015 -0.2993
  723TMC3    C310684   4.307   2.836  12.839 -0.6370 -0.2260  0.4203
  723TMC3    C410685   4.300   2.977  13.070  0.4594  0.9495 -0.5362
  723TMC3    C510686   4.211   3.007  12.962 -0.5658  0.5819  0.0036
  723TMC3    C610687   4.220   2.940  12.841  0.4676 -0.0030  0.5288
  723TMC3     C10688   4.489   2.863  13.151  0.2342  0.3014  0.0810
  723TMC3     O10689   4.529   2.970  13.198  0.1787 -0.4018 -0.2076
  723TMC3     H10690   4.471   2.732  12.935  0.6114  0.3840  0.5194
  723TMC3    H110691   4.301   3.032  13.163  0.1063 -0.8880  0.5488
  723TMC3    H210692   4.155   2.956  12.756  0.4838  1.5977  0.8337
  723TMC3    C710693   4.106   3.103  12.971  0.2444  0.3627  0.2218
  723TMC3    C810694   4.323   2.763  12.714  0.3795  0.2005  0.0820
  723TMC3    O110695   4.023   3.088  12.883 -0.5407  0.4212  0.2882
  723TMC3    O210696   4.274   2.812  12.614  0.7825  0.5839  0.1817
  724TMC3    C110697   0.398   0.573  10.563  0.1072 -0.4602 -0.1205
  724TMC3    C210698   0.374   0.583  10.427 -0.0071 -0.2709  0.2930
  724TMC3    C310699   0.471   0.646  10.352 -0.2111  0.5143 -0.5815
  724TMC3    C410700   0.524   0.613  10.615  0.1114 -0.3556  0.1657
  724TMC3    C510701   0.612   0.677  10.529 -0.1662 -0.4642  0.4113
  724TMC3    C610702   0.589   0.686  10.397  0.2022 -0.2662  0.3137
  724TMC3     C10703   0.299   0.498  10.633 -0.0238 -0.3034 -0.3366
  724TMC3     O10704   0.198   0.461  10.579 -0.4293 -0.3067 -0.3603
  724TMC3     H10705   0.275   0.561  10.390  1.1011 -4.7105 -0.0203
  724TMC3    H110706   0.553   0.575  10.713 -3.0325 -0.7993  0.9298
  724TMC3    H210707   0.668   0.720  10.331 -0.8100 -0.6618 -1.0881
  724TMC3    C710708   0.740   0.733  10.579  0.4177 -0.1454  0.1235
  724TMC3    C810709   0.432   0.685  10.217 -0.9291 -0.1917  0.7512
  724TMC3    O110710   0.801   0.793  10.491  0.3558 -0.9997 -0.0263
  724TMC3    O210711   0.337   0.623  10.172 -0.2730 -0.6036  0.1022
  725TMC3    C110712   2.087   3.904  13.393 -0.7115 -0.7176 -0.3440
  725TMC3    C210713   2.001   3.957  13.306  0.0903  0.2842  0.5617
  725TMC3    C310714   1.916   3.867  13.243 -0.0162 -0.5980 -0.5528
  725TMC3    C410715   2.084   3.768  13.426  0.3892 -0.7010  0.9204
  725TMC3    C510716   1.995   3.685  13.366 -0.0085  0.6072 -0.1890
  725TMC3    C610717   1.911   3.729  13.271  0.8191 -0.1115  0.4164
  725TMC3     C10718   2.214   3.977  13.419  0.8346 -0.4132 -0.9420
  725TMC3     O10719   2.212   4.090  13.373  0.6852 -0.1324  0.0196
  725TMC3     H10720   2.013   4.061  13.276 -2.9500  0.2725 -0.7232
  725TMC3    H110721   2.157   3.725  13.494  0.2206 -1.8529  0.3743
  725TMC3    H210722   1.857   3.670  13.198 -1.1106  2.1754  0.0085
  725TMC3    C710723   1.997   3.537  13.386  0.1842  1.0522 -0.3710
  725TMC3    C810724   1.844   3.909  13.133 -0.2880  0.5522  0.6812
  725TMC3    O110725   2.102   3.492  13.428  0.0901  0.4570  0.0530
  725TMC3    O210726   1.740   3.858  13.107 -0.7026  0.2178  0.5963
  726MPD2     C10727   4.351   0.753  10.597 -0.1382 -0.0771 -0.4763
  726MPD2    C110728   4.354   0.841  10.706 -0.1600 -0.4051 -0.2237
  726MPD2    C210729   4.279   0.810  10.818 -0.2233  0.2471  0.4131
  726MPD2    C310730   4.195   0.703  10.824 -0.2578  0.0290  0.8351
  726MPD2    C410731   4.193   0.616  10.716  1.5439 -0.5177 -0.1331
  726MPD2    C510732   4.279   0.636  10.610 -0.0831 -0.2857 -0.1914
  726MPD2     H10733   4.291   0.885  10.895 -0.6397  0.1796  0.5454
  726MPD2    H110734   4.126   0.530  10.718 -0.5677  1.1309  0.6546
  726MPD2    H210735   4.427   0.767  10.521  0.7800 -1.1749  0.2460
  726MPD2    H310736   4.277   0.552  10.541  2.0007  1.4430 -2.3845
  726MPD2     N10737   4.101   0.682  10.929  0.1828 -0.6195 -0.1877
  726MPD2    H510738   4.041   0.601  10.913  0.0791 -0.7299  0.7617
  726MPD2    N110739   4.435   0.957  10.697  0.1403  0.1780  0.4645
  726MPD2    H710740   4.457   1.002  10.785 -0.3975  2.0300 -0.3394
  727TMC3    C110741   4.539   1.147  10.586 -0.3540  0.6988  0.4734
  727TMC3    C210742   4.597   1.186  10.699  0.2329  0.4875 -0.1053
  727TMC3    C310743   4.670   1.301  10.703 -0.0427 -0.0237 -0.0677
  727TMC3    C410744   4.531   1.235  10.481 -0.5721  0.0140 -1.0709
  727TMC3    C510745   4.604   1.353  10.491 -0.1282  0.2594  0.0196
  727TMC3    C610746   4.680   1.385  10.597 -0.5149 -0.1580  0.0246
  727TMC3     C10747   4.471   1.016  10.577  0.1276 -0.8026  0.5230
  727TMC3     O10748   4.414   0.993  10.473 -0.3402  1.3485 -0.2146
  727TMC3     H10749   4.602   1.131  10.792  1.0785  0.7918  0.0264
  727TMC3    H110750   4.481   1.211  10.388 -0.8219 -1.1314 -0.6288
  727TMC3    H210751   4.718   1.484  10.619  2.5420 -1.7042  1.7058
  727TMC3    C710752   4.603   1.441  10.385 -0.2582 -0.3514  0.2150
  727TMC3    C810753   0.034   1.326  10.815 -0.6553  0.0476  0.1242
  727TMC3    O110754   4.511   1.420  10.301 -0.3766  0.0252  0.4576
  727TMC3    O210755   0.139   1.377  10.787  0.2828  0.2038  0.1930
  728TMC3    C110756   4.401   4.101  15.391 -0.1101  0.0142  0.2820
  728TMC3    C210757   4.407   4.219  15.462  0.3169 -0.1059 -0.6062
  728TMC3    C310758   4.343   4.336  15.416  0.2015 -0.3736  0.0175
  728TMC3    C410759   4.341   4.093  15.266 -0.1642  0.2534  0.8157
  728TMC3    C510760   4.283   4.208  15.219  0.5116 -0.7373  0.2690
  728TMC3    C610761   4.284   4.329  15.288 -0.2845  0.1134  0.1376
  728TMC3     C10762   4.329   4.006  15.481  0.0787  0.1335  0.2174
  728TMC3     O10763   4.372   3.980  15.592 -0.9359  0.1320 -0.0428
  728TMC3     H10764   4.450   4.221  15.561 -0.0798 -0.2859 -0.4288
  728TMC3    H110765   4.326   3.997  15.216 -1.2545 -0.6568  2.8619
  728TMC3    H210766   4.229   4.415  15.253  0.9578  0.9707  0.2932
  728TMC3    C710767   4.201   4.187  15.105 -0.5835  0.8976  0.3407
  728TMC3    C810768   4.355   4.462  15.487  0.1140  0.1784 -0.0618
  728TMC3    O110769   4.123   4.094  15.098 -0.3511  0.2081 -0.2653
  728TMC3    O210770   4.408   4.450  15.596 -0.0663 -0.1934  0.4245
  729MPD2     C10771   1.814   0.555  16.840 -0.7946 -1.1062 -0.2599
  729MPD2    C110772   1.950   0.545  16.859 -0.3718  0.0471 -0.1471
  729MPD2    C210773   2.009   0.570  16.979 -0.4981  0.0413 -0.2421
  729MPD2    C310774   1.928   0.607  17.082 -0.6041  0.2980 -0.4074
  729MPD2    C410775   1.794   0.614  17.061 -0.4999 -0.0179  0.6154
  729MPD2    C510776   1.736   0.601  16.941  0.3463  0.0844  0.9282
  729MPD2     H10777   2.117   0.570  16.990 -1.0880  0.6875  5.7996
  729MPD2    H110778   1.727   0.644  17.140  0.1807  0.2315  1.0975
  729MPD2    H210779   1.767   0.539  16.743  0.8550 -3.1726 -0.6960
  729MPD2    H310780   1.631   0.626  16.942  0.4763  0.7581 -1.2946
  729MPD2     N10781   1.967   0.654  17.208  0.2245  0.7955 -0.1319
  729MPD2    H510782   1.892   0.686  17.269 -1.4307 -3.2845 -0.0633
  729MPD2    N110783   2.036   0.518  16.748  0.6997 -0.5136 -0.9429
  729MPD2    H710784   1.983   0.503  16.663  1.0853  1.2307 -1.5000
  730TMC3    C110785   2.074   0.782  17.355 -0.2819 -0.2347  0.6373
  730TMC3    C210786   2.131   0.901  17.342 -0.1170 -0.6131 -0.5404
  730TMC3    C310787   2.070   1.004  17.407 -0.3353  0.8432 -0.0784
  730TMC3    C410788   1.967   0.756  17.435 -0.3048  0.5691 -0.0599
  730TMC3    C510789   1.903   0.859  17.490  0.2252 -0.0527  0.1789
  730TMC3    C610790   1.956   0.988  17.481 -0.0338 -0.2119 -0.4774
  730TMC3     C10791   2.094   0.691  17.245 -0.5380  0.2300 -0.2822
  730TMC3     O10792   2.202   0.680  17.187  0.0030 -0.2550 -0.1421
  730TMC3     H10793   2.220   0.915  17.281 -0.4657 -1.9840 -1.3533
  730TMC3    H110794   1.951   0.651  17.459  0.6217  0.6754  1.0053
  730TMC3    H210795   1.891   1.069  17.512 -1.1827 -0.7698 -1.3787
  730TMC3    C710796   1.771   0.855  17.440 -0.5881 -0.3279 -0.2019
  730TMC3    C810797   2.079   1.122  17.330  0.2684 -1.0078  0.2621
  730TMC3    O110798   1.761   0.792  17.335 -0.6028  0.4849 -0.1146
  730TMC3    O210799   2.086   1.111  17.210  0.5638 -0.0098  0.0385
  731MPD2     C10800   1.410   3.223  12.446  0.2611 -0.4484 -0.4849
  731MPD2    C110801   1.530   3.195  12.510  0.5098  0.4011  0.6091
  731MPD2    C210802   1.539   3.144  12.638 -0.2857  0.2037  0.3966
  731MPD2    C310803   1.415   3.132  12.711  0.1517  0.3483 -0.0618
  731MPD2    C410804   1.295   3.161  12.651 -0.5112  0.3584  0.4325
  731MPD2    C510805   1.294   3.216  12.520 -0.1588  0.5323  0.0016
  731MPD2     H10806   1.629   3.095  12.672  1.1798  1.9367 -0.9603
  731MPD2    H110807   1.202   3.152  12.706 -0.5748  0.2487  0.3084
  731MPD2    H210808   1.410   3.260  12.345 -1.2605  1.5837  0.2713
  731MPD2    H310809   1.202   3.248  12.473 -2.7351 -4.1267  1.8755
  731MPD2     N10810   1.412   3.074  12.843  0.5191 -0.6384 -1.0056
  731MPD2    H510811   1.317   3.065  12.878 -0.0386 -1.3129 -2.7066
  731MPD2    N110812   1.639   3.205  12.425  0.3798  0.0748 -0.0655
  731MPD2    H710813   1.621   3.216  12.326  2.2572  2.0782 -0.2165
  732TMC3    C110814   1.863   3.196  12.348  0.1617 -0.0344 -0.0455
  732TMC3    C210815   1.825   3.263  12.234  0.0525  0.0763 -0.0184
  732TMC3    C310816   1.923   3.281  12.144  1.1711  0.0011 -0.5863
  732TMC3    C410817   1.992   3.152  12.372 -0.2706 -0.7334 -0.3804
  732TMC3    C510818   2.084   3.190  12.283  0.3027 -0.9588  0.5543
  732TMC3    C610819   2.052   3.237  12.157  0.2749  0.3801 -0.6680
  732TMC3     C10820   1.765   3.167  12.461  0.2493  0.0159 -0.3597
  732TMC3     O10821   1.818   3.145  12.568  0.2256 -0.6412  0.4185
  732TMC3     H10822   1.728   3.307  12.215 -0.9681 -0.5605  3.6361
  732TMC3    H110823   2.029   3.107  12.463 -1.2106  2.0624  1.3946
  732TMC3    H210824   2.128   3.252  12.082  0.0118  1.7825 -0.6457
  732TMC3    C710825   2.230   3.178  12.304 -0.2410  0.4118  0.3627
  732TMC3    C810826   1.893   3.350  12.020 -0.6308  0.2088  0.0011
  732TMC3    O110827   2.304   3.231  12.221 -0.4790  0.6243 -0.2388
  732TMC3    O210828   1.988   3.373  11.943 -0.3755 -0.4594 -0.2733
  733TMC3    C110829   1.838   1.675  12.842 -1.2525  0.4998 -0.1559
  733TMC3    C210830   1.922   1.571  12.818  0.2452  0.0874 -0.0544
  733TMC3    C310831   2.058   1.589  12.829 -0.2811 -0.6175  0.2872
  733TMC3    C410832   1.884   1.797  12.868 -0.1090  0.3778 -0.6941
  733TMC3    C510833   2.018   1.817  12.877 -0.0892  0.0899  0.6102
  733TMC3    C610834   2.105   1.717  12.859 -0.3008 -0.1120 -0.5169
  733TMC3     C10835   1.692   1.668  12.825 -0.0410  0.5440  0.4166
  733TMC3     O10836   1.633   1.771  12.808  0.6297  0.0862 -0.0106
  733TMC3     H10837   1.886   1.472  12.793  0.8423 -0.3756  0.9061
  733TMC3    H110838   1.825   1.887  12.870 -1.0126 -0.1828 -2.4750
  733TMC3    H210839   2.209   1.726  12.890 -0.1033  1.8015 -1.7375
  733TMC3    C710840   2.072   1.951  12.845 -0.7152  0.4178  0.1477
  733TMC3    C810841   2.157   1.491  12.796  0.3130 -0.5535 -0.2856
  733TMC3    O110842   2.034   2.053  12.901 -0.0553  0.1448  0.4731
  733TMC3    O210843   2.145   1.370  12.821 -0.6504 -0.0318  0.4999
  734MPD2     C10844   4.495   4.275  12.589 -0.9499 -0.7174 -0.3737
  734MPD2    C110845   4.435   4.188  12.496  0.7900  0.4241 -0.2877
  734MPD2    C210846   4.449   4.222  12.361  0.8025  0.1255  0.4291
  734MPD2    C310847   4.511   4.338  12.316  0.2358  0.4698 -0.9496
  734MPD2    C410848   4.571   4.423  12.410  0.3396  0.2122 -0.2206
  734MPD2    C510849   4.563   4.385  12.541 -0.5234 -0.0898 -1.0041
  734MPD2     H10850   4.423   4.153  12.282  0.8366  0.3588  0.2137
  734MPD2    H110851   4.623   4.514  12.384 -0.9350  0.6718 -1.1354
  734MPD2    H210852   4.479   4.249  12.693  2.0420  1.7017  0.6719
  734MPD2    H310853   4.615   4.449  12.612 -2.3427  0.8834 -0.5524
  734MPD2     N10854   4.523   4.345  12.175 -0.1224 -0.3403 -0.1079
  734MPD2    H510855   4.508   4.257  12.127  0.9672  1.4447 -3.7163
  734MPD2    N110856   4.345   4.086  12.536  0.3384 -0.1724 -0.0100
  734MPD2    H710857   4.331   4.066  12.634  2.0636 -1.8967 -0.1075
  735TMC3    C110858   4.207   3.897  12.512 -0.0227  0.6419 -0.2742
  735TMC3    C210859   4.109   3.864  12.415  0.1043 -0.7166 -0.0685
  735TMC3    C310860   4.106   3.736  12.376  0.3192 -0.4635  0.0787
  735TMC3    C410861   4.298   3.805  12.545  0.4569 -0.0627 -0.7346
  735TMC3    C510862   4.303   3.678  12.500  0.6243  1.0880 -0.0845
  735TMC3    C610863   4.199   3.644  12.413  0.4023 -0.1037 -0.4709
  735TMC3     C10864   4.264   4.012  12.453 -0.2933 -0.1739  0.0156
  735TMC3     O10865   4.230   4.030  12.339 -0.0864  0.1828 -0.2135
  735TMC3     H10866   4.027   3.932  12.397  1.1729  0.6672  0.3403
  735TMC3    H110867   4.388   3.845  12.590 -0.7023 -0.0730  1.5910
  735TMC3    H210868   4.193   3.545  12.370 -1.5137  0.2684 -1.0594
  735TMC3    C710869   4.437   3.621  12.487 -0.2490  0.1603 -1.1057
  735TMC3    C810870   4.074   3.731  12.242 -0.5993 -0.0798 -0.4975
  735TMC3    O110871   4.530   3.691  12.519  0.1356 -0.1176 -0.3591
  735TMC3    O210872   4.025   3.634  12.193  0.0993  0.1281 -0.3458
  736MPD2     C10873   4.534   3.291  12.362  0.3142  0.4526  0.5974
  736MPD2    C110874   4.556   3.423  12.391 -0.2345 -0.5728 -0.4166
  736MPD2    C210875   4.673   3.489  12.358  0.6159 -0.0831 -0.6274
  736MPD2    C310876   0.041   3.421  12.290  0.3753 -0.2282  0.1647
  736MPD2    C410877   0.028   3.285  12.275 -0.2608 -0.0118  0.2695
  736MPD2    C510878   4.643   3.216  12.321  0.0334 -0.4040 -0.3356
  736MPD2     H10879   4.678   3.595  12.378  1.3743 -0.1572 -0.4369
  736MPD2    H110880   0.108   3.227  12.230  0.2990  1.7174 -0.9485
  736MPD2    H210881   4.440   3.245  12.390  0.0174  1.1672  0.7469
  736MPD2    H310882   4.642   3.108  12.317 -1.1700 -0.3653 -1.1244
  736MPD2     N10883   0.155   3.478  12.223  0.6967  0.3863 -0.2308
  736MPD2    H510884   0.216   3.421  12.164  0.9032 -0.9876  1.3335
  736MPD2    N110885   4.440   3.500  12.421  0.1302  0.9283 -0.2712
  736MPD2    H710886   4.352   3.451  12.409 -0.5598  1.9122  0.7162
  737TMC3    C110887   0.264   3.652  12.088 -0.2017 -1.0974 -0.6073
  737TMC3    C210888   0.244   3.783  12.055 -0.2816 -0.8446 -0.3434
  737TMC3    C310889   0.300   3.833  11.942  1.1395 -0.6385 -0.1109
  737TMC3    C410890   0.345   3.573  12.016 -0.4822 -0.0503  0.3488
  737TMC3    C510891   0.420   3.633  11.917 -0.0446  0.1448  0.0122
  737TMC3    C610892   0.391   3.759  11.874  0.3272 -0.5468  0.1125
  737TMC3     C10893   0.185   3.609  12.212 -0.1466 -0.0484  0.2902
  737TMC3     O10894   0.121   3.695  12.271  0.1849 -0.2117  0.3099
  737TMC3     H10895   0.182   3.850  12.114  1.3505  1.3202 -1.0509
  737TMC3    H110896   0.367   3.476  12.060  1.0955  0.9149  1.7171
  737TMC3    H210897   0.443   3.809  11.793  0.4017 -0.5945  0.1303
  737TMC3    C710898   0.500   3.539  11.833  0.5530  0.4311  0.2534
  737TMC3    C810899   0.264   3.963  11.889 -0.6359 -0.4715 -1.0056
  737TMC3    O110900   0.531   3.435  11.886 -0.2982  0.6392  0.0652
  737TMC3    O210901   0.262   4.063  11.962 -0.8599 -0.1216  0.2403
  738MPD2     C10902   0.475   2.710  15.121  0.4239  0.0976 -0.4363
  738MPD2    C110903   0.494   2.641  15.000  0.1399 -0.0712  0.1438
  738MPD2    C210904   0.594   2.683  14.924  0.3683 -1.0614  0.4577
  738MPD2    C310905   0.682   2.778  14.967 -0.4067 -1.0413  0.7081
  738MPD2    C410906   0.665   2.847  15.085 -0.1083 -0.0931  0.1175
  738MPD2    C510907   0.558   2.811  15.166 -0.6737 -0.3631  0.6164
  738MPD2     H10908   0.602   2.631  14.829  1.1631 -1.6060  0.8214
  738MPD2    H110909   0.727   2.930  15.116 -1.8896  1.0658  0.6078
  738MPD2    H210910   0.405   2.684  15.200  1.2393  0.6255  0.4582
  738MPD2    H310911   0.551   2.863  15.261  3.5996  0.7953  0.2821
  738MPD2     N10912   0.800   2.809  14.898 -0.1725  0.0391  0.3031
  738MPD2    H510913   0.866   2.860  14.956  0.6817  1.4761 -1.9129
  738MPD2    N110914   0.417   2.525  14.956  0.5516  0.0383 -0.3504
  738MPD2    H710915   0.426   2.480  14.865  1.2595  2.2767 -1.3871
  739TMC3    C110916   0.977   2.799  14.751 -0.8156 -0.3445  0.5805
  739TMC3    C210917   1.011   2.851  14.626  0.1846 -0.2478  0.2104
  739TMC3    C310918   1.125   2.931  14.610  0.3865  0.1102 -0.0390
  739TMC3    C410919   1.058   2.832  14.859 -0.5015  0.3879  0.2283
  739TMC3    C510920   1.162   2.921  14.836 -0.4472  0.1519  0.7093
  739TMC3    C610921   1.198   2.982  14.721  0.5606  0.7140  0.4487
  739TMC3     C10922   0.839   2.769  14.769  0.2248  0.7057 -0.7830
  739TMC3     O10923   0.761   2.750  14.677 -0.4913  0.1099 -0.3090
  739TMC3     H10924   0.950   2.827  14.539  1.7093 -1.9642 -0.3892
  739TMC3    H110925   1.046   2.789  14.958 -0.0129 -0.3722 -0.0418
  739TMC3    H210926   1.283   3.049  14.713  1.8758 -1.0819 -0.6820
  739TMC3    C710927   1.233   2.963  14.961  0.1782 -0.1476  0.2601
  739TMC3    C810928   1.134   2.994  14.476 -0.4154 -0.3036 -0.2352
  739TMC3    O110929   1.240   2.886  15.055 -0.6881  0.0887 -0.2452
  739TMC3    O210930   1.050   2.949  14.400  0.4244 -0.1413  0.0214
  740TMC3    C110931   1.506   4.002  14.205 -0.1016  0.5268  0.1942
  740TMC3    C210932   1.582   3.994  14.319  0.4538 -0.2054  0.1503
  740TMC3    C310933   1.715   3.981  14.295 -0.1233  0.0653  0.2801
  740TMC3    C410934   1.560   4.006  14.078  0.5162  0.2527 -0.0466
  740TMC3    C510935   1.692   4.003  14.055 -0.3623 -0.0636  0.2087
  740TMC3    C610936   1.774   3.981  14.163  0.4059 -0.5949  0.3026
  740TMC3     C10937   1.362   4.022  14.219  0.4549 -0.4118 -0.0813
  740TMC3     O10938   1.324   4.120  14.155 -0.6402 -0.6870  0.5184
  740TMC3     H10939   1.545   3.998  14.421 -0.8955  0.9439 -0.3867
  740TMC3    H110940   1.495   4.045  14.001  0.6095  2.7437  1.1192
  740TMC3    H210941   1.880   3.971  14.142  1.1420  0.1425  3.7133
  740TMC3    C710942   1.735   3.988  13.914 -0.3321  0.1818 -0.3482
  740TMC3    C810943   1.801   3.994  14.416 -0.2815 -0.4369  0.4762
  740TMC3    O110944   1.824   3.904  13.899 -0.7131  0.0447  1.2494
  740TMC3    O210945   1.760   4.065  14.507  0.4437  0.1965 -0.3920
  741TMC3    C110946   0.916   3.283  14.511  0.0366  0.2668 -0.2210
  741TMC3    C210947   0.823   3.202  14.462 -0.4286 -0.2197  0.1575
  741TMC3    C310948   0.765   3.111  14.552 -0.1031 -0.2587  0.7553
  741TMC3    C410949   0.955   3.289  14.642 -0.0986 -0.1633  0.0728
  741TMC3    C510950   0.894   3.199  14.731 -0.5118 -0.3881  0.7431
  741TMC3    C610951   0.792   3.112  14.686  0.4035  0.6075  0.1394
  741TMC3     C10952   0.963   3.398  14.435  0.5464  0.3923 -0.0072
  741TMC3     O10953   1.053   3.461  14.479 -0.4229 -0.2382 -0.4838
  741TMC3     H10954   0.815   3.193  14.354 -2.1557  0.4669  0.2384
  741TMC3    H110955   1.045   3.341  14.672 -0.7716  1.7016 -1.1603
  741TMC3    H210956   0.750   3.033  14.747  0.9225  0.2413  0.0186
  741TMC3    C710957   0.911   3.210  14.868 -0.1735 -0.0570  0.0493
  741TMC3    C810958   0.636   3.060  14.500  0.2613 -0.3379  0.0598
  741TMC3    O110959   0.834   3.140  14.938 -0.3900 -0.4116  0.6832
  741TMC3    O210960   0.601   3.113  14.394 -0.4605  0.1061  0.9670
  742TMC3    C110961   0.914   1.724  15.667  0.0675  0.6470 -0.6140
  742TMC3    C210962   0.816   1.774  15.586 -0.4587 -0.6601 -0.2276
  742TMC3    C310963   0.839   1.888  15.515  0.6942  0.5152 -0.2833
  742TMC3    C410964   1.034   1.787  15.688 -0.4654  0.3208 -0.6643
  742TMC3    C510965   1.062   1.897  15.608  0.1277  0.2034  0.1963
  742TMC3    C610966   0.969   1.942  15.522 -0.0000  0.0901 -0.3152
  742TMC3     C10967   0.907   1.589  15.719 -0.5118 -0.0960  0.5077
  742TMC3     O10968   0.980   1.566  15.809 -0.2390  0.4326 -0.1355
  742TMC3     H10969   0.733   1.713  15.554  0.2731 -1.8760  0.1878
  742TMC3    H110970   1.116   1.757  15.751  0.0278  1.4863 -0.7391
  742TMC3    H210971   0.992   2.018  15.448  2.0398 -0.8974 -0.6890
  742TMC3    C710972   1.187   1.893  15.540  0.3851 -0.0726 -0.5493
  742TMC3    C810973   0.777   1.901  15.380  0.0022 -0.1087 -0.6716
  742TMC3    O110974   1.210   1.852  15.424 -0.5211  0.1856  0.4867
  742TMC3    O210975   0.749   1.797  15.322 -0.3065  0.2722  0.3016
  743MPD2     C10976   4.305   3.596   2.139  0.1215  0.2048 -0.0193
  743MPD2    C110977   4.360   3.515   2.039  0.0398  0.1165 -0.2467
  743MPD2    C210978   4.486   3.459   2.056 -0.4120  0.0328  0.0255
  743MPD2    C310979   4.558   3.482   2.168  0.4969  0.0354 -0.3056
  743MPD2    C410980   4.497   3.551   2.268 -0.0375 -0.0876 -0.2791
  743MPD2    C510981   4.380   3.613   2.252 -0.1857 -0.0279 -0.4768
  743MPD2     H10982   4.548   3.401   1.989  1.3286  1.0394  0.7721
  743MPD2    H110983   4.545   3.570   2.363  0.2678  0.8146 -0.6141
  743MPD2    H210984   4.207   3.641   2.125  0.1875  0.6399  0.8972
  743MPD2    H310985   4.334   3.659   2.338 -0.1576  0.4591 -0.7252
  743MPD2     N10986   4.682   3.418   2.191 -0.0639  0.6817 -0.4104
  743MPD2    H510987   4.706   3.361   2.111 -1.7549 -2.7044  1.4652
  743MPD2    N110988   4.282   3.492   1.925  0.5164 -0.0410  0.0606
  743MPD2    H710989   4.202   3.555   1.915  0.1815 -0.3878  0.5183
  744TMC3    C110990   4.195   3.389   1.726 -0.1811  0.0848 -0.0173
  744TMC3    C210991   4.073   3.448   1.743  0.0786 -0.0021 -0.1683
  744TMC3    C310992   3.980   3.454   1.643 -0.2084 -0.7855 -0.5302
  744TMC3    C410993   4.226   3.345   1.606 -0.6497 -0.4332 -0.3130
  744TMC3    C510994   4.137   3.345   1.503  0.5043 -0.1499  0.1122
  744TMC3    C610995   4.012   3.405   1.516 -0.5824 -0.4846 -0.3344
  744TMC3     C10996   4.305   3.398   1.823  0.0913  0.2405  0.0695
  744TMC3     O10997   4.386   3.304   1.829 -0.4651 -0.6807 -0.1922
  744TMC3     H10998   4.042   3.491   1.838  2.1904  1.8953 -0.3324
  744TMC3    H110999   4.324   3.303   1.589  0.2206  2.3407 -2.2392
  744TMC3    H211000   3.942   3.404   1.434 -2.2041 -2.7062  1.0440
  744TMC3    C711001   4.171   3.294   1.365  0.1974 -0.5612  0.2799
  744TMC3    C811002   3.841   3.484   1.666 -0.2991  0.5862  0.0430
  744TMC3    O111003   4.102   3.338   1.277 -0.1869 -0.2149 -0.2014
  744TMC3    O211004   3.780   3.527   1.569  0.0749 -0.0149  1.0168
  745TMC3    C111005   0.958   1.725  13.469  0.3078 -0.4063 -0.5095
  745TMC3    C211006   0.950   1.629  13.570  0.0890  0.1920 -0.7065
  745TMC3    C311007   0.828   1.590  13.613 -0.1686  0.6710  0.2755
  745TMC3    C411008   0.840   1.772  13.412  0.2703 -0.6299 -1.1690
  745TMC3    C511009   0.722   1.708  13.445  0.6310 -0.1802  0.1805
  745TMC3    C611010   0.711   1.613  13.545  0.1202  0.1057 -0.3944
  745TMC3     C11011   1.075   1.813  13.472 -0.2281  0.1261 -0.8723
  745TMC3     O11012   1.071   1.934  13.450  0.3464  0.3109 -0.4282
  745TMC3     H11013   1.039   1.581  13.610  0.0099  0.4502 -0.2153
  745TMC3    H111014   0.851   1.852  13.340 -3.0140  2.5663  1.8621
  745TMC3    H211015   0.611   1.573  13.556 -0.7926  2.6106  0.3634
  745TMC3    C711016   0.603   1.721  13.355 -0.2018  0.2838  0.5469
  745TMC3    C811017   0.826   1.520  13.743  0.2433 -0.2377 -0.1015
  745TMC3    O111018   0.490   1.738  13.403  0.1783 -0.0804 -0.3914
  745TMC3    O211019   0.717   1.478  13.777 -0.2867  0.1224  0.2542
  746TMC3    C111020   3.562   3.077  11.505  0.1059 -0.2025  0.3582
  746TMC3    C211021   3.625   3.137  11.399  0.2066 -0.3866 -0.4694
  746TMC3    C311022   3.652   3.062  11.287 -0.2909 -0.0646 -0.0489
  746TMC3    C411023   3.508   2.952  11.490  0.3438 -0.4449  0.1369
  746TMC3    C511024   3.533   2.883  11.381  0.4649 -0.3918 -0.2394
  746TMC3    C611025   3.598   2.940  11.271 -0.1446 -0.1184 -0.4151
  746TMC3     C11026   3.485   3.164  11.590  0.0672  0.4980 -0.6367
  746TMC3     O11027   3.435   3.108  11.688  0.1276  0.0195 -0.5799
  746TMC3     H11028   3.674   3.231  11.421 -0.5436 -0.0532 -0.2110
  746TMC3    H111029   3.447   2.918  11.573 -0.3280 -2.1186 -1.0351
  746TMC3    H211030   3.606   2.880  11.181 -0.5496 -0.9206  0.0862
  746TMC3    C711031   3.427   2.799  11.329 -0.1044 -0.2689 -0.7550
  746TMC3    C811032   3.717   3.131  11.184 -0.2684 -0.7301 -0.0710
  746TMC3    O111033   3.382   2.851  11.230 -0.0583  0.0600  0.3587
  746TMC3    O211034   3.747   3.249  11.202 -0.2919  0.5185  0.2335
  747TMC3    C111035   1.053   3.691  10.929 -0.3520 -0.6558  0.2837
  747TMC3    C211036   1.015   3.582  11.009  0.1865 -0.0411  0.1598
  747TMC3    C311037   0.972   3.613  11.136  0.5405 -0.2532  0.2250
  747TMC3    C411038   1.056   3.818  10.973 -0.3879  0.7670 -0.8782
  747TMC3    C511039   1.011   3.845  11.099  0.0682  0.2909  0.0513
  747TMC3    C611040   0.966   3.748  11.180 -0.1028 -0.3307 -0.4572
  747TMC3     C11041   1.155   3.667  10.832  0.1702  0.3186  0.3267
  747TMC3     O11042   1.240   3.754  10.822  0.2171  0.1926 -0.4889
  747TMC3     H11043   0.999   3.479  10.976  1.8601 -0.1760 -0.1906
  747TMC3    H111044   1.084   3.901  10.908 -0.5100  0.3127 -1.5148
  747TMC3    H211045   0.936   3.771  11.282  2.0755  0.3002  0.0315
  747TMC3    C711046   0.947   3.968  11.126  0.1381 -0.3252 -0.0036
  747TMC3    C811047   0.922   3.509  11.230 -0.2646  0.4633 -0.1056
  747TMC3    O111048   0.946   4.005  11.245 -0.4032 -0.5225  0.4287
  747TMC3    O211049   0.967   3.396  11.212  0.9612  0.8242  0.1969
  748MPD2     C11050   2.758   3.714   1.956 -0.1759  0.5500  0.6933
  748MPD2    C111051   2.892   3.735   1.995  0.0869  0.8358 -0.3788
  748MPD2    C211052   2.961   3.837   1.935  0.2847 -0.3701 -0.2145
  748MPD2    C311053   2.901   3.932   1.853  0.1492 -0.2751  0.1693
  748MPD2    C411054   2.768   3.912   1.817  0.5527 -0.5779 -0.1965
  748MPD2    C511055   2.703   3.798   1.863  0.0697 -0.3734 -0.2619
  748MPD2     H11056   3.066   3.858   1.948  0.4356 -2.3672  1.8334
  748MPD2    H111057   2.705   3.974   1.754 -1.0398 -0.5588  1.3935
  748MPD2    H211058   2.693   3.634   1.988 -0.6528  0.7409  0.1968
  748MPD2    H311059   2.595   3.796   1.850  0.0882 -1.4533 -0.2515
  748MPD2     N11060   2.985   4.040   1.803 -0.3105  0.2783 -0.2050
  748MPD2    H511061   3.079   4.027   1.838 -0.1774  1.3795 -0.1736
  748MPD2    N111062   2.961   3.659   2.088 -0.2104 -0.2946 -0.5195
  748MPD2    H711063   2.923   3.568   2.112 -0.4498 -0.1817 -0.4651
  749TMC3    C111064   3.065   4.200   1.659 -0.4259 -0.4641 -0.0148
  749TMC3    C211065   3.172   4.217   1.742 -0.2655 -0.1705 -0.8436
  749TMC3    C311066   3.280   4.279   1.682 -0.1258 -0.1147 -0.5317
  749TMC3    C411067   3.066   4.244   1.524 -0.0601 -0.1023 -0.5496
  749TMC3    C511068   3.180   4.311   1.480  0.0499 -0.4325  0.0465
  749TMC3    C611069   3.289   4.332   1.559 -0.5593 -0.1276  0.3339
  749TMC3     C11070   2.952   4.128   1.700 -0.1234 -0.2289 -0.0200
  749TMC3     O11071   2.851   4.145   1.639 -0.0848 -0.2147 -0.3449
  749TMC3     H11072   3.186   4.186   1.845 -2.0409  0.9991 -0.2419
  749TMC3    H111073   2.980   4.229   1.461 -0.4032 -1.7913  0.3210
  749TMC3    H211074   3.377   4.380   1.518  0.1974 -1.7771  0.0376
  749TMC3    C711075   3.174   4.403   1.364  0.9514 -0.2558 -0.3070
  749TMC3    C811076   3.402   4.289   1.762 -0.6722 -1.0080  0.5490
  749TMC3    O111077   3.256   4.495   1.374  0.4919 -0.2239  0.5127
  749TMC3    O211078   3.396   4.310   1.883 -0.0497  0.3634 -0.3016
  750MPD2     C11079   3.552   0.129  11.133 -0.3502 -0.5555 -0.6368
  750MPD2    C111080   3.483   0.036  11.209  0.5891  0.2459  0.3210
  750MPD2    C211081   3.452   4.636  11.170  0.6565 -0.1962  0.0516
  750MPD2    C311082   3.483   4.602  11.039  0.5239 -0.0845  0.4175
  750MPD2    C411083   3.558   4.690  10.964  0.3128 -0.5988 -0.3930
  750MPD2    C511084   3.590   0.091  11.003 -0.4254  0.2478  0.5376
  750MPD2     H11085   3.395   4.563  11.227 -1.7761  1.8109  0.1772
  750MPD2    H111086   3.594   4.662  10.866 -1.0227 -0.6970 -0.8592
  750MPD2    H211087   3.578   0.226  11.173 -0.3817 -0.6700 -0.3399
  750MPD2    H311088   3.631   0.165  10.935  2.2387 -0.6673  1.1623
  750MPD2     N11089   3.450   4.481  10.979  0.4850  1.0459  0.2543
  750MPD2    H511090   3.499   4.461  10.892 -0.4743  1.0042 -0.2787
  750MPD2    N111091   3.460   0.088  11.337 -0.2834 -0.6401 -0.7764
  750MPD2    H711092   3.489   0.184  11.355  0.6291 -1.2862  1.2286
  751TMC3    C111093   3.370   4.271  10.966 -0.2759 -0.7472  0.1038
  751TMC3    C211094   3.249   4.212  10.957  0.7521  0.1086  0.4106
  751TMC3    C311095   3.217   4.131  10.856  0.1496 -0.1709  0.5192
  751TMC3    C411096   3.460   4.244  10.872 -0.3746 -0.3382  0.0347
  751TMC3    C511097   3.432   4.153  10.775  0.3951  0.4984  0.5583
  751TMC3    C611098   3.305   4.097  10.760  0.0144 -0.6801 -0.1340
  751TMC3     C11099   3.366   4.390  11.045  0.9067 -0.5220  0.0093
  751TMC3     O11100   3.280   4.405  11.134 -0.2666  0.2192 -0.2580
  751TMC3     H11101   3.172   4.249  11.024  0.0589 -1.1957  0.3375
  751TMC3    H111102   3.565   4.269  10.887 -1.1496  0.9623  3.1143
  751TMC3    H211103   3.282   4.031  10.678  1.4854 -1.8959  0.4353
  751TMC3    C711104   3.505   4.195  10.652 -0.3963  0.0470  0.2579
  751TMC3    C811105   3.110   4.035  10.877  1.3795  0.7453 -0.1501
  751TMC3    O111106   3.548   4.312  10.666  0.0655 -0.0176  0.5576
  751TMC3    O211107   3.137   3.920  10.842  0.0397  0.4045 -0.6349
  752TMC3    C111108   3.086   0.461  17.066 -0.2252 -0.8535  0.5134
  752TMC3    C211109   3.180   0.367  17.097  0.2129 -0.3729 -0.4136
  752TMC3    C311110   3.146   0.286  17.193  0.2614  0.1612  0.6272
  752TMC3    C411111   2.973   0.476  17.142 -0.4604  0.6427 -0.2943
  752TMC3    C511112   2.946   0.385  17.240 -0.0258  0.1776  0.0144
  752TMC3    C611113   3.028   0.279  17.260  0.5479 -0.2090 -0.0612
  752TMC3     C11114   3.081   0.508  16.929  0.1921  0.2759  0.4521
  752TMC3     O11115   3.191   0.513  16.868 -0.3159  0.7140 -0.2279
  752TMC3     H11116   3.267   0.369  17.031 -1.6707 -0.6822 -2.9161
  752TMC3    H111117   2.916   0.568  17.138  0.1883  1.0903  0.8606
  752TMC3    H211118   3.004   0.201  17.331  0.4664  0.1073  0.2583
  752TMC3    C711119   2.850   0.417  17.340  0.7005 -0.5225  0.0600
  752TMC3    C811120   3.243   0.186  17.230  0.6638  0.0937  0.2915
  752TMC3    O111121   2.758   0.484  17.298 -0.1095  0.3348  0.0557
  752TMC3    O211122   3.211   0.095  17.306 -0.4029  0.3447  0.2384
  753TMC3    C111123   4.099   1.608  13.128 -0.5129  0.5115 -0.2060
  753TMC3    C211124   4.189   1.600  13.232  0.1206 -0.6757 -0.2031
  753TMC3    C311125   4.222   1.474  13.270 -0.0162  0.2761 -0.0387
  753TMC3    C411126   4.035   1.497  13.078  0.0540 -0.6526  0.4669
  753TMC3    C511127   4.064   1.371  13.116  0.2559 -0.0136  0.0269
  753TMC3    C611128   4.168   1.362  13.209 -0.1557 -0.9424 -0.3382
  753TMC3     C11129   4.069   1.734  13.060  0.2398 -0.7063  0.3355
  753TMC3     O11130   3.967   1.736  12.991 -0.5036 -0.0267  0.3052
  753TMC3     H11131   4.233   1.690  13.273 -3.0402  0.7117  0.0835
  753TMC3    H111132   3.959   1.507  13.001  0.5840  0.5725  0.0991
  753TMC3    H211133   4.186   1.265  13.254 -2.1520 -0.7089  0.9904
  753TMC3    C711134   4.011   1.264  13.035  0.3470 -0.4323  0.8728
  753TMC3    C811135   4.304   1.446  13.388 -0.2514  0.7681 -0.1189
  753TMC3    O111136   3.973   1.301  12.927 -0.3187 -0.4344  0.7614
  753TMC3    O211137   4.375   1.346  13.385 -0.2481 -0.0997  0.3338
  754MPD2     C11138   3.340   0.021  12.878 -0.0538 -0.5221 -0.4701
  754MPD2    C111139   3.312   4.614  12.909 -0.1501  0.0512  0.9492
  754MPD2    C211140   3.184   4.571  12.955  0.5349  0.4744  0.8469
  754MPD2    C311141   3.088   4.670  12.973  0.2643 -0.5241 -0.1766
  754MPD2    C411142   3.117   0.072  12.932 -0.6351 -0.1299  0.1946
  754MPD2    C511143   3.242   0.113  12.882  0.8563  0.0144  0.2188
  754MPD2     H11144   3.162   4.466  12.970  0.1179  0.4286 -0.0790
  754MPD2    H111145   3.042   0.149  12.939  1.8640  2.2576  0.7738
  754MPD2    H211146   3.442   0.053  12.859  0.0582 -0.0525  0.9169
  754MPD2    H311147   3.272   0.217  12.877  1.3874 -0.1369  0.3174
  754MPD2     N11148   2.958   4.648  13.025  0.6531  0.1740 -0.8777
  754MPD2    H511149   2.902   0.006  13.016  0.4772  0.3411  1.8864
  754MPD2    N111150   3.425   4.534  12.894 -0.2900 -0.2802  0.2923
  754MPD2    H711151   3.492   4.581  12.834  0.0618 -0.1616  0.7748
  755MPD2     C11152   2.401   0.507  13.006  0.2836 -0.3890  0.7786
  755MPD2    C111153   2.381   0.463  13.141 -0.0742  0.3306 -0.4333
  755MPD2    C211154   2.425   0.342  13.181  0.3820 -0.0684  0.1288
  755MPD2    C311155   2.490   0.260  13.088 -0.0693 -0.4894 -0.2627
  755MPD2    C411156   2.504   0.302  12.956  0.0091  0.2602 -0.2203
  755MPD2    C511157   2.469   0.432  12.916 -0.1713 -0.6177  0.6596
  755MPD2     H11158   2.427   0.310  13.284  2.4412  1.9684  0.7086
  755MPD2    H111159   2.571   0.252  12.887 -0.0256 -1.8765  1.2801
  755MPD2    H211160   2.374   0.606  12.971 -0.1295  0.0968  2.4532
  755MPD2    H311161   2.474   0.460  12.811 -0.6872 -1.4161  0.4179
  755MPD2     N11162   2.569   0.144  13.130  0.0190  0.2422 -0.1974
  755MPD2    H511163   2.626   0.099  13.059  0.0007 -1.1006  0.6422
  755MPD2    N111164   2.307   0.552  13.231 -0.6153  0.0090 -0.0591
  755MPD2    H711165   2.299   0.513  13.325 -2.7597  1.7942  0.4868
  756MPD2     C11166   2.917   1.108   9.600  0.5380  0.6213  0.0679
  756MPD2    C111167   2.896   1.076   9.736  0.5524  0.2169 -0.5156
  756MPD2    C211168   2.766   1.052   9.770  0.2698 -0.3311 -0.2050
  756MPD2    C311169   2.668   1.054   9.682  0.5959 -0.1496  0.5503
  756MPD2    C411170   2.691   1.069   9.546  0.3322  0.6746  0.4239
  756MPD2    C511171   2.822   1.082   9.509  0.1039 -0.3392 -0.2948
  756MPD2     H11172   2.742   1.031   9.873  2.1732  0.5279  0.4123
  756MPD2    H111173   2.617   1.051   9.469 -0.0376  1.7605  0.5176
  756MPD2    H211174   3.017   1.125   9.560  0.6019 -0.5908 -0.2932
  756MPD2    H311175   2.846   1.077   9.404 -0.2538 -1.1029 -0.3404
  756MPD2     N11176   2.535   1.023   9.724  0.1602 -0.0037 -0.1723
  756MPD2    H511177   2.528   1.005   9.823 -0.8819  1.0617 -0.0522
  756MPD2    N111178   2.997   1.065   9.832  0.2076  0.9579  0.0522
  756MPD2    H711179   2.969   1.033   9.924  0.4086  1.4548  0.2873
  757MPD2     C11180   2.205   0.292  10.065 -0.2516 -0.3263  0.0708
  757MPD2    C111181   2.316   0.338   9.996 -0.1884 -0.5316  0.6614
  757MPD2    C211182   2.318   0.468   9.949  0.1415 -0.5605 -0.3516
  757MPD2    C311183   2.216   0.557   9.975 -0.3236 -0.0642  0.0329
  757MPD2    C411184   2.109   0.500  10.044  0.2824 -1.0020 -0.1744
  757MPD2    C511185   2.097   0.372  10.087  0.4117 -0.4087 -0.7298
  757MPD2     H11186   2.395   0.499   9.880  1.8395 -0.6751  1.4946
  757MPD2    H111187   2.029   0.566  10.076  2.3703  1.2411  0.4237
  757MPD2    H211188   2.198   0.190  10.099 -0.0559 -1.0030 -1.9351
  757MPD2    H311189   2.009   0.352  10.147  0.5764 -4.2224 -1.7865
  757MPD2     N11190   2.221   0.690   9.923 -0.6643 -0.0768 -0.4612
  757MPD2    H511191   2.312   0.706   9.880 -0.2284  1.9624  1.2324
  757MPD2    N111192   2.406   0.233   9.965  0.0081 -0.0570  0.0489
  757MPD2    H711193   2.397   0.141  10.008 -0.8242  0.4816  1.0357
  758MPD2     C11194   3.057   4.654  15.942 -0.2553 -0.3897 -0.1237
  758MPD2    C111195   3.134   4.612  16.044 -0.2294  0.8460 -0.4495
  758MPD2    C211196   3.145   4.698  16.151  0.3408  0.6966  0.1576
  758MPD2    C311197   3.077   0.090  16.160  0.3209  0.7309  0.3254
  758MPD2    C411198   2.987   0.125  16.070  0.1677 -0.6423 -0.4371
  758MPD2    C511199   2.976   0.038  15.961  0.3978  0.3079 -0.4573
  758MPD2     H11200   3.202   4.662  16.236 -0.8580  0.0792  0.7083
  758MPD2    H111201   2.926   0.215  16.068  2.6178  1.0253 -0.9842
  758MPD2    H211202   3.038   4.593  15.854  0.4047 -3.3232  1.7817
  758MPD2    H311203   2.904   0.068  15.885 -0.7437  0.1123  0.5529
  758MPD2     N11204   3.099   0.179  16.271  0.1698  0.0136  0.2733
  758MPD2    H511205   3.028   0.251  16.276  0.8044  0.6106  0.8941
  758MPD2    N111206   3.206   4.493  16.033 -0.2993 -0.1930  0.0698
  758MPD2    H711207   3.192   4.456  15.940  0.1272 -1.0266  0.3365
  759MPD2     C11208   2.047   2.414  10.249 -1.0330  0.5296  0.3425
  759MPD2    C111209   1.916   2.453  10.271 -0.5278  0.4754  0.3121
  759MPD2    C211210   1.855   2.546  10.193 -0.1175 -0.9616 -0.5011
  759MPD2    C311211   1.927   2.597  10.084  0.3305  0.5089  0.3789
  759MPD2    C411212   2.052   2.546  10.058  0.5643  0.6546  0.5023
  759MPD2    C511213   2.112   2.461  10.145  0.3978  0.0564 -0.1331
  759MPD2     H11214   1.755   2.583  10.208  0.2734  0.0304 -0.3185
  759MPD2    H111215   2.111   2.575   9.971 -0.2278 -0.2057 -0.3229
  759MPD2    H211216   2.089   2.345  10.322 -0.4337 -0.2316 -0.7318
  759MPD2    H311217   2.209   2.422  10.115 -0.5881 -1.8946 -0.7733
  759MPD2     N11218   1.866   2.696   9.998 -0.1022  0.5597 -0.4521
  759MPD2    H511219   1.779   2.738  10.029 -1.7399 -1.7334 -1.9157
  759MPD2    N111220   1.845   2.414  10.384 -0.0607 -0.0005 -0.1212
  759MPD2    H711221   1.768   2.472  10.414  0.5093  0.4147  0.5326
  760MPD2     C11222   1.692   0.406  12.171 -0.5280  0.4260 -0.2490
  760MPD2    C111223   1.810   0.356  12.132  0.0146 -0.9214 -0.2204
  760MPD2    C211224   1.875   0.273  12.216  0.5614  0.3215  0.0379
  760MPD2    C311225   1.825   0.220  12.334 -0.1796  0.6202  0.0825
  760MPD2    C411226   1.706   0.273  12.366  0.0768  1.0717 -0.2256
  760MPD2    C511227   1.636   0.362  12.288  0.1984  0.6624  0.6735
  760MPD2     H11228   1.974   0.244  12.185 -0.1887 -0.6423 -1.4609
  760MPD2    H111229   1.658   0.235  12.456 -1.0177  1.2265 -0.7424
  760MPD2    H211230   1.634   0.482  12.120 -0.7081  0.4982  0.0660
  760MPD2    H311231   1.540   0.403  12.318 -1.6231 -2.1741 -1.2813
  760MPD2     N11232   1.887   0.119  12.412  0.5782 -0.6974 -0.4727
  760MPD2    H511233   1.848   0.086  12.500 -0.5300  2.4915  0.2287
  760MPD2    N111234   1.875   0.399  12.011  0.2634 -0.1584 -0.2212
  760MPD2    H711235   1.975   0.388  12.005  0.3212 -0.4220  1.1218
  761MPD2     C11236   2.670   3.951  11.103 -0.1593  0.5304 -0.4136
  761MPD2    C111237   2.760   3.866  11.049 -0.1972  0.3250  0.4203
  761MPD2    C211238   2.870   3.911  10.978  0.1375 -0.0443  0.7284
  761MPD2    C311239   2.881   4.047  10.963 -0.3823  0.0447  0.4303
  761MPD2    C411240   2.786   4.139  11.004 -0.4765  0.4902 -0.4975
  761MPD2    C511241   2.676   4.086  11.078  0.5511 -0.4262  0.7874
  761MPD2     H11242   2.943   3.836  10.954 -0.4443 -0.7294  1.0792
  761MPD2    H111243   2.796   4.247  10.998  4.9940  0.0592  0.4047
  761MPD2    H211244   2.590   3.907  11.162  0.7556  0.7192  0.9559
  761MPD2    H311245   2.600   4.158  11.103  0.9883  1.0592 -2.1382
  761MPD2     N11246   3.003   4.104  10.922  0.1996 -0.7270  0.7385
  761MPD2    H511247   3.006   4.205  10.913  2.0031 -0.8700 -0.0644
  761MPD2    N111248   2.756   3.730  11.085  0.5397  0.1743 -0.0527
  761MPD2    H711249   2.728   3.712  11.181 -0.7264 -0.0459 -0.4708
  762MPD2     C11250   3.344   3.889  11.214 -0.0610 -0.5521 -0.1462
  762MPD2    C111251   3.348   3.755  11.170  0.4170 -0.0297 -0.4588
  762MPD2    C211252   3.446   3.719  11.072  0.7207  0.4224  0.3592
  762MPD2    C311253   3.533   3.815  11.028 -0.0903 -0.9513  0.4008
  762MPD2    C411254   3.527   3.947  11.081  0.2136  0.0903  0.4718
  762MPD2    C511255   3.432   3.983  11.168 -0.3334 -0.7369 -0.2723
  762MPD2     H11256   3.463   3.619  11.034  0.3336 -0.1836  1.7540
  762MPD2    H111257   3.589   4.028  11.046  0.0783  0.2599  0.6242
  762MPD2    H211258   3.266   3.921  11.283 -1.3716 -0.6773 -1.5699
  762MPD2    H311259   3.420   4.085  11.202  0.5218 -0.2518 -1.4271
  762MPD2     N11260   3.610   3.783  10.911  0.0471  0.0249  0.3427
  762MPD2    H511261   3.621   3.687  10.881 -0.1263  0.3433 -0.7381
  762MPD2    N111262   3.246   3.666  11.198 -0.5831  0.3098  0.4029
  762MPD2    H711263   3.163   3.701  11.244 -0.9761  0.0874 -0.1368
  763MPD2     C11264   0.344   4.266  16.246  0.2555  0.4613 -1.0373
  763MPD2    C111265   0.315   4.359  16.149  0.0965  0.1249  0.3784
  763MPD2    C211266   0.320   4.498  16.184 -0.4102 -0.3650  0.2329
  763MPD2    C311267   0.365   4.532  16.315 -0.8246  0.5521  0.3764
  763MPD2    C411268   0.415   4.433  16.403 -0.3201  0.0962 -0.4343
  763MPD2    C511269   0.408   4.297  16.368  0.6870  0.3117 -0.7058
  763MPD2     H11270   0.297   4.576  16.113 -0.9246  0.7903  1.6626
  763MPD2    H111271   0.457   4.451  16.501  0.1524  0.0169 -0.6244
  763MPD2    H211272   0.322   4.161  16.226 -1.7458  0.5280  0.8245
  763MPD2    H311273   0.429   4.218  16.439 -0.5238  1.1842  0.6292
  763MPD2     N11274   0.380   4.660  16.375  0.6898 -0.5824  0.1382
  763MPD2    H511275   0.435   4.674  16.459 -2.6560 -1.4793  2.4718
  763MPD2    N111276   0.290   4.329  16.015  0.2667 -0.3577 -0.2704
  763MPD2    H711277   0.306   4.399  15.943  0.8484 -1.1786 -0.9398
  764MPD2     C11278   3.110   1.263   0.030  1.1355 -0.1783 -0.1570
  764MPD2    C111279   2.982   1.308   0.011 -0.7945 -0.2574 -0.4933
  764MPD2    C211280   2.884   1.258   0.087  0.1594  0.1309  0.0885
  764MPD2    C311281   2.909   1.151   0.173 -0.5750  0.5186 -0.1634
  764MPD2    C411282   3.040   1.117   0.192  0.7605 -0.0328  0.0704
  764MPD2    C511283   3.146   1.179   0.131 -0.1429  0.3110  0.2338
  764MPD2     H11284   2.789   1.307   0.068 -0.0176 -0.4925 -0.6361
  764MPD2    H111285   3.064   1.046   0.270 -0.9945 -0.9290 -0.1814
  764MPD2    H211286   3.196   1.304  17.682  0.7635  0.8490  0.0351
  764MPD2    H311287   3.246   1.138   0.126 -0.9005 -1.6786  0.9481
  764MPD2     N11288   2.800   1.100   0.246 -0.1492  0.4028 -0.3659
  764MPD2    H511289   2.706   1.128   0.219 -0.5548  1.0261  1.7131
  764MPD2    N111290   2.951   1.398  17.607  0.3317  0.2463 -0.2508
  764MPD2    H711291   2.857   1.435  17.597  0.8801  1.6390 -0.1820
  765MPD2     C11292   2.771   4.000  15.551  0.6659  0.0804 -0.0550
  765MPD2    C111293   2.856   4.102  15.521 -0.4728 -0.4564 -0.1729
  765MPD2    C211294   2.974   4.072  15.451 -0.3929 -0.0706  0.0494
  765MPD2    C311295   3.008   3.939  15.432 -0.5008 -0.8425 -0.3564
  765MPD2    C411296   2.922   3.833  15.462 -0.0196  0.1323 -1.2384
  765MPD2    C511297   2.804   3.877  15.517  0.3461  0.1527 -0.2689
  765MPD2     H11298   3.039   4.152  15.419  1.1264 -0.9910  0.7970
  765MPD2    H111299   2.938   3.726  15.456 -0.7720 -0.0728  0.1791
  765MPD2    H211300   2.674   4.020  15.594  1.0717  0.5398  0.6475
  765MPD2    H311301   2.743   3.796  15.556  1.9666  1.0034  4.0071
  765MPD2     N11302   3.140   3.913  15.372  0.2525  0.2003  0.2319
  765MPD2    H511303   3.192   3.999  15.356 -1.0302  0.7172 -1.1141
  765MPD2    N111304   2.811   4.233  15.546  0.1682 -0.3687  0.6932
  765MPD2    H711305   2.721   4.241  15.592 -0.7544  0.5546 -1.2867
  766MPD2     C11306   2.281   4.518  15.292 -0.3950  0.0388 -0.6833
  766MPD2    C111307   2.418   4.486  15.275 -0.2837  1.2438 -0.7202
  766MPD2    C211308   2.455   4.414  15.164  0.4118  0.1056 -0.7336
  766MPD2    C311309   2.368   4.370  15.067  0.4486  0.1605  0.4226
  766MPD2    C411310   2.238   4.413  15.072  0.4153  1.0317 -0.3610
  766MPD2    C511311   2.198   4.484  15.183 -0.1497 -0.1071  0.3408
  766MPD2     H11312   2.559   4.383  15.155 -0.1806 -2.4125  0.9307
  766MPD2    H111313   2.163   4.389  14.998  0.4316  2.0021 -0.6907
  766MPD2    H211314   2.245   4.567  15.381  1.4335 -0.2706  0.2328
  766MPD2    H311315   2.092   4.505  15.184  0.3218  2.2921 -0.6913
  766MPD2     N11316   2.406   4.303  14.948 -0.5403 -0.3231 -0.0788
  766MPD2    H511317   2.342   4.299  14.869  1.1806 -1.9553 -1.3727
  766MPD2    N111318   2.519   4.518  15.371  0.1283  0.2552 -0.2055
  766MPD2    H711319   2.614   4.487  15.354 -0.5248 -0.6320 -2.1953
  767MPD2     C11320   2.066   4.639  14.811  0.3435  0.0580 -0.7552
  767MPD2    C111321   2.196   4.611  14.778 -0.5609 -0.8568 -1.4512
  767MPD2    C211322   2.211   4.524  14.673  0.1293 -0.5277  0.8932
  767MPD2    C311323   2.106   4.461  14.615 -0.9490  0.0630  0.4379
  767MPD2    C411324   1.977   4.489  14.658 -0.1690 -0.1998  0.6564
  767MPD2    C511325   1.957   4.582  14.752  0.0275  0.2789  0.1243
  767MPD2     H11326   2.309   4.492  14.640  0.7115  0.2427  1.8618
  767MPD2    H111327   1.888   4.444  14.616 -0.4491  0.6231  0.3628
  767MPD2    H211328   2.046   4.704  14.896 -0.3244 -1.9358  0.6246
  767MPD2    H311329   1.857   4.609  14.785  0.4088  1.7987  0.0110
  767MPD2     N11330   2.134   4.383  14.497  0.1590  0.2692  0.5260
  767MPD2    H511331   2.229   4.364  14.468 -0.4399 -1.3631 -0.4428
  767MPD2    N111332   2.301   4.672  14.853 -0.7938  0.2640 -0.7122
  767MPD2    H711333   2.271   4.722  14.936 -1.4103 -0.6340 -0.3982
  768MPD2     C11334   3.393   2.718  10.759  0.0857  0.7771  0.6121
  768MPD2    C111335   3.364   2.594  10.807  0.9317  0.2477 -0.0945
  768MPD2    C211336   3.444   2.545  10.910 -0.0042  0.0969  0.4811
  768MPD2    C311337   3.545   2.610  10.970 -0.3643 -0.2244  0.1672
  768MPD2    C411338   3.573   2.734  10.914  0.2008 -0.9789 -0.5522
  768MPD2    C511339   3.506   2.786  10.804 -0.3754  0.3319  0.2861
  768MPD2     H11340   3.412   2.449  10.947  1.1834 -0.9521 -1.2208
  768MPD2    H111341   3.644   2.805  10.954 -0.3791 -0.5650 -0.2498
  768MPD2    H211342   3.340   2.775  10.683  0.5067 -0.0725 -0.3217
  768MPD2    H311343   3.531   2.884  10.763  0.8352  0.1904  0.7059
  768MPD2     N11344   3.620   2.569  11.082  0.0401 -0.1108 -0.2954
  768MPD2    H511345   3.693   2.631  11.113 -0.7409  0.3872  0.5425
  768MPD2    N111346   3.248   2.518  10.781 -0.4944  0.0613 -0.1130
  768MPD2    H711347   3.240   2.432  10.836  1.1497  1.3511  2.1268
  769MPD2     C11348   4.047   0.971  14.329 -0.5164 -0.0439 -0.3761
  769MPD2    C111349   4.028   0.857  14.402 -0.1849 -0.2196  0.1328
  769MPD2    C211350   4.073   0.859  14.538  0.5674 -0.2824  1.1754
  769MPD2    C311351   4.139   0.966  14.592  0.5731 -0.2399  0.4533
  769MPD2    C411352   4.171   1.071  14.505  0.5534  1.1420  0.9430
  769MPD2    C511353   4.116   1.074  14.387  0.0473 -0.7891 -0.4720
  769MPD2     H11354   4.056   0.775  14.605 -0.8175 -1.0034 -0.0859
  769MPD2    H111355   4.218   1.166  14.529  0.9308  0.9420  1.0068
  769MPD2    H211356   4.031   0.974  14.222  0.6232 -0.4127 -0.5629
  769MPD2    H311357   4.144   1.160  14.328 -1.0269  0.0887  0.2895
  769MPD2     N11358   4.172   0.960  14.727  0.5233 -0.0500 -0.1220
  769MPD2    H511359   4.120   0.883  14.768  1.5679 -0.4900  0.3620
  769MPD2    N111360   3.955   0.754  14.336  0.0390 -0.7407 -0.1846
  769MPD2    H711361   3.913   0.773  14.246  2.7284  0.0323 -1.2742
  770MPD2     C11362   3.521   4.454  14.371 -0.5835 -0.0616  0.1277
  770MPD2    C111363   3.586   4.520  14.476  0.3031  0.6738  0.9434
  770MPD2    C211364   3.600   4.656  14.454 -0.8270 -0.5328  0.4561
  770MPD2    C311365   3.578   4.717  14.335  0.0555  0.5130 -0.4344
  770MPD2    C411366   3.515   4.647  14.236  0.1939 -0.1015 -0.3183
  770MPD2    C511367   3.487   4.517  14.255 -0.0335 -0.2588  0.0549
  770MPD2     H11368   3.645   4.720  14.529  0.5360  0.2928 -1.0503
  770MPD2    H111369   3.483   4.681  14.138 -3.9991 -2.2345  0.2837
  770MPD2    H211370   3.516   4.346  14.377  1.6450 -0.1834 -0.1901
  770MPD2    H311371   3.426   4.467  14.180 -1.1807 -0.4454  1.1273
  770MPD2     N11372   3.603   0.127  14.302  0.1204 -0.0531 -0.5338
  770MPD2    H511373   3.536   0.166  14.237  2.6831  0.2471 -3.0324
  770MPD2    N111374   3.602   4.453  14.599  0.1801 -0.2793  0.1988
  770MPD2    H711375   3.580   4.354  14.602 -0.7068 -0.0094  2.6039
  771MPD2     C11376   0.111   3.910  13.684  0.2634  0.2910  0.7551
  771MPD2    C111377   0.036   4.022  13.714  1.1639  0.1807  0.4525
  771MPD2    C211378   4.654   4.043  13.625  0.1396 -0.4814  0.4759
  771MPD2    C311379   4.618   3.961  13.517  0.0561  0.3318  0.2895
  771MPD2    C411380   4.705   3.853  13.496 -0.3862  0.2757  0.0659
  771MPD2    C511381   0.083   3.832  13.578 -0.4981 -0.7268 -0.0684
  771MPD2     H11382   4.598   4.134  13.638 -1.4643 -1.6324  1.6970
  771MPD2    H111383   4.681   3.786  13.415  1.4495 -3.3269  2.4744
  771MPD2    H211384   0.196   3.876  13.742  0.0728 -0.3823  0.6433
  771MPD2    H311385   0.140   3.742  13.558 -0.9218 -1.0726  0.2611
  771MPD2     N11386   4.502   3.996  13.436  0.6278  0.7906 -0.7636
  771MPD2    H511387   4.454   4.079  13.469 -1.6666 -1.2099  0.9293
  771MPD2    N111388   0.054   4.105  13.828 -0.3300 -0.0301  0.2393
  771MPD2    H711389   4.711   4.179  13.832 -0.5913 -0.1199 -2.5361
  772MPD2     C11390   4.389   4.365  14.406 -0.1676 -0.6733  0.4269
  772MPD2    C111391   4.408   4.300  14.282 -0.2178 -0.3051  0.2631
  772MPD2    C211392   4.320   4.203  14.246 -0.8134 -0.2108 -0.1027
  772MPD2    C311393   4.204   4.179  14.311 -0.4395 -0.1555  0.5921
  772MPD2    C411394   4.179   4.252  14.424 -0.2998  1.1521  0.3165
  772MPD2    C511395   4.277   4.338  14.478  0.3970  0.0193  0.0226
  772MPD2     H11396   4.341   4.146  14.157 -0.3821 -1.2484  0.6690
  772MPD2    H111397   4.091   4.251  14.488  0.7297 -2.3955  1.6990
  772MPD2    H211398   4.456   4.445  14.434  1.6670 -2.6187  1.5510
  772MPD2    H311399   4.260   4.379  14.577  0.8098  0.1442  0.0406
  772MPD2     N11400   4.107   4.083  14.273 -0.1857 -0.7661  0.6628
  772MPD2    H511401   4.029   4.070  14.337  0.1168 -0.7706  1.0309
  772MPD2    N111402   4.527   4.313  14.207  0.7986 -0.4744  0.0960
  772MPD2    H711403   4.538   4.252  14.126 -1.2712 -0.9841  0.2050
  773MPD2     C11404   4.175   1.182  17.704 -0.2339 -0.4623  0.1147
  773MPD2    C111405   4.077   1.092   0.051 -1.0372  0.1010 -0.1605
  773MPD2    C211406   4.127   0.969   0.104  0.0063  0.8100 -0.3853
  773MPD2    C311407   4.264   0.951   0.121  0.0637  0.3470 -0.0062
  773MPD2    C411408   4.352   1.050   0.079  0.2365 -0.4409  0.2378
  773MPD2    C511409   4.306   1.164   0.021 -0.6032 -0.3323 -0.8169
  773MPD2     H11410   4.055   0.897   0.140 -0.2811  0.0032 -2.5403
  773MPD2    H111411   4.459   1.046   0.097  0.2463 -0.5101  0.1636
  773MPD2    H211412   4.147   1.263  17.638  0.3345  1.4701  2.2569
  773MPD2    H311413   4.380   1.233  17.688  1.8166 -0.8672  2.8627
  773MPD2     N11414   4.303   0.826   0.176  0.0295 -0.0796  0.3063
  773MPD2    H511415   4.233   0.756   0.197 -3.7641  3.4942 -0.3370
  773MPD2    N111416   3.933   1.103   0.043  0.1133  0.0488 -0.6275
  773MPD2    H711417   3.872   1.025   0.063  0.9755 -0.8280 -1.4079
  774MPD2     C11418   3.217   3.542  13.294 -0.1080 -0.0247  0.5881
  774MPD2    C111419   3.139   3.625  13.380  0.0867  0.3142 -0.5145
  774MPD2    C211420   3.115   3.758  13.348  0.2936  0.2018  0.4704
  774MPD2    C311421   3.181   3.810  13.240  0.9776 -0.4932 -0.5072
  774MPD2    C411422   3.240   3.727  13.147 -0.4207 -0.5387 -0.9539
  774MPD2    C511423   3.268   3.595  13.177 -0.9062 -0.0342  0.3190
  774MPD2     H11424   3.060   3.825  13.413  1.4589 -1.0393  2.7116
  774MPD2    H111425   3.279   3.763  13.052 -3.0390  1.3400 -1.2972
  774MPD2    H211426   3.248   3.440  13.314  2.2949  1.0228  2.1438
  774MPD2    H311427   3.326   3.529  13.114 -1.6816 -0.2299 -0.1851
  774MPD2     N11428   3.187   3.949  13.215  0.3409  0.3370 -0.2051
  774MPD2    H511429   3.129   4.013  13.269  1.2211 -0.1627  1.3437
  774MPD2    N111430   3.107   3.557  13.494 -0.5553 -0.5410  0.2389
  774MPD2    H711431   3.151   3.466  13.509  0.7910  0.3816  1.8063
  775MPD2     C11432   4.374   0.615  15.504  0.0972 -0.8803 -0.4311
  775MPD2    C111433   4.363   0.740  15.562  0.1539  0.0664  0.4209
  775MPD2    C211434   4.459   0.838  15.532 -0.6717  0.3363  0.2191
  775MPD2    C311435   4.556   0.804  15.447 -0.3981 -0.4389 -0.7108
  775MPD2    C411436   4.565   0.680  15.384 -0.1005  0.0563  0.0074
  775MPD2    C511437   4.478   0.584  15.423 -0.8232 -0.3919  0.0083
  775MPD2     H11438   4.454   0.936  15.578 -1.9428  0.8191 -0.9902
  775MPD2    H111439   4.648   0.650  15.320  0.5045  0.5124  0.5728
  775MPD2    H211440   4.307   0.531  15.517 -1.3392  0.1337 -1.2943
  775MPD2    H311441   4.493   0.481  15.393 -1.9805 -0.8074  0.8385
  775MPD2     N11442   4.650   0.913  15.421  0.1408  0.1612  0.0037
  775MPD2    H511443   4.654   0.990  15.486  0.4237  1.7782 -1.9128
  775MPD2    N111444   4.250   0.770  15.640  0.3876  0.0741 -0.4970
  775MPD2    H711445   4.179   0.700  15.659  0.4141  0.5391  1.2683
  776MPD2     C11446   3.665   0.569  11.985  0.1071 -0.5886  0.0566
  776MPD2    C111447   3.583   0.538  11.876  0.3424  0.3062  0.0589
  776MPD2    C211448   3.509   0.639  11.820  0.1736 -0.1886  0.5915
  776MPD2    C311449   3.519   0.769  11.860  0.0758  0.1969 -0.0659
  776MPD2    C411450   3.602   0.800  11.966 -0.0477  0.0342  0.0170
  776MPD2    C511451   3.664   0.695  12.031 -0.0995 -0.1803  0.5180
  776MPD2     H11452   3.440   0.613  11.740 -1.0122  1.3542  1.0992
  776MPD2    H111453   3.607   0.900  12.007  2.5123 -0.5812  1.1810
  776MPD2    H211454   3.722   0.498  12.044 -1.1462 -1.4993  0.1557
  776MPD2    H311455   3.731   0.719  12.112 -0.3237  2.7522 -0.1678
  776MPD2     N11456   3.457   0.878  11.789  0.1615 -0.0286 -0.3111
  776MPD2    H511457   3.485   0.975  11.801 -0.9795  0.1774  0.7207
  776MPD2    N111458   3.584   0.407  11.835  0.0514 -0.5475 -0.3374
  776MPD2    H711459   3.618   0.340  11.904 -1.2589  0.5850  1.4000
  777MPD2     C11460   4.014   4.057   0.796 -0.5771  0.6189 -0.2674
  777MPD2    C111461   4.112   3.989   0.865  0.0908  0.7240 -0.3716
  777MPD2    C211462   4.167   3.875   0.814  0.5613 -0.1726 -0.1295
  777MPD2    C311463   4.119   3.827   0.698 -0.9429 -0.0098  0.1261
  777MPD2    C411464   4.026   3.892   0.623  0.8400  0.0068 -0.1760
  777MPD2    C511465   3.979   4.009   0.672 -1.0307  0.2681 -0.4926
  777MPD2     H11466   4.237   3.812   0.869 -1.0394 -2.5883 -0.8396
  777MPD2    H111467   3.992   3.868   0.522  0.4524 -0.5438  0.0837
  777MPD2    H211468   3.982   4.152   0.836  1.6584  1.9013 -1.5156
  777MPD2    H311469   3.904   4.071   0.623 -1.0538  1.1024  0.5881
  777MPD2     N11470   4.178   3.704   0.666  0.0346 -0.5912  0.4429
  777MPD2    H511471   4.225   3.652   0.739 -0.1350 -0.5222  0.6028
  777MPD2    N111472   4.137   4.045   0.995 -0.0907  0.0065  0.2355
  777MPD2    H711473   4.075   4.120   1.024 -0.4988  0.0181 -0.6590
  778MPD2     C11474   0.215   3.364  15.124  0.2254 -0.0503  0.3685
  778MPD2    C111475   0.148   3.360  15.005 -0.3663 -0.1665  0.1085
  778MPD2    C211476   0.191   3.439  14.901 -0.3503  0.2632 -0.2664
  778MPD2    C311477   0.295   3.527  14.919  0.1388  0.0794 -0.0945
  778MPD2    C411478   0.355   3.539  15.043 -0.1155  0.1639  0.0618
  778MPD2    C511479   0.306   3.465  15.141  0.2316  0.2483 -0.0534
  778MPD2     H11480   0.140   3.430  14.806 -2.3131 -0.8231  0.8924
  778MPD2    H111481   0.428   3.613  15.074 -1.3935  0.7012  1.7677
  778MPD2    H211482   0.182   3.312  15.213 -2.4337  2.7615  1.0318
  778MPD2    H311483   0.338   3.492  15.241  1.1105 -1.8195  0.2147
  778MPD2     N11484   0.333   3.607  14.809 -0.5387 -0.3435  0.4047
  778MPD2    H511485   0.285   3.601  14.720  1.1697  0.7432 -0.5725
  778MPD2    N111486   0.037   3.269  14.980 -0.3680  0.2554  0.3727
  778MPD2    H711487   4.715   3.274  14.891  1.0469  1.1425 -0.3308
  779MPD2     C11488   4.172   2.534  14.221  0.1074  0.2404  0.5840
  779MPD2    C111489   4.298   2.523  14.157  0.4442 -0.2893  0.9096
  779MPD2    C211490   4.373   2.637  14.144 -0.2463 -0.2306 -0.8006
  779MPD2    C311491   4.329   2.763  14.180 -0.2611 -0.4899 -0.1658
  779MPD2    C411492   4.206   2.770  14.248  0.3539  0.5092  0.3413
  779MPD2    C511493   4.133   2.659  14.265  0.2992  0.7042 -0.5149
  779MPD2     H11494   4.471   2.617  14.101 -0.0235 -0.4997 -0.1570
  779MPD2    H111495   4.166   2.864  14.286 -0.0960  0.6936 -0.5831
  779MPD2    H211496   4.104   2.452  14.240  0.0003  0.4983  1.3506
  779MPD2    H311497   4.038   2.673  14.315  0.5570 -1.2580  0.5380
  779MPD2     N11498   4.414   2.870  14.147 -0.5893  0.1487  0.0549
  779MPD2    H511499   4.500   2.852  14.097  0.5551  1.4663  1.5408
  779MPD2    N111500   4.358   2.406  14.114  0.5477  0.6618 -0.0933
  779MPD2    H711501   4.454   2.410  14.080  0.7619 -1.4851  0.2982
  780MPD2     C11502   3.370   2.253   0.270  0.0149  0.0761  0.4007
  780MPD2    C111503   3.441   2.143   0.225 -0.1530 -0.1811  0.0084
  780MPD2    C211504   3.580   2.155   0.236  0.1280 -0.0407  0.0248
  780MPD2    C311505   3.639   2.268   0.287 -0.1190  0.5635 -0.7698
  780MPD2    C411506   3.569   2.375   0.322  0.0987  0.1897 -0.0606
  780MPD2    C511507   3.432   2.362   0.320 -0.3110  0.4079  0.1195
  780MPD2     H11508   3.644   2.079   0.192 -0.0486 -0.7513  1.0046
  780MPD2    H111509   3.617   2.469   0.348  0.2331 -0.3315  1.5447
  780MPD2    H211510   3.263   2.267   0.262 -0.1617 -1.1764  0.5265
  780MPD2    H311511   3.369   2.443   0.351  2.6468  2.3822  0.9642
  780MPD2     N11512   3.780   2.270   0.280 -0.0025  0.0015  0.0065
  780MPD2    H511513   3.811   2.190   0.225 -1.5026 -0.7398  0.2620
  780MPD2    N111514   3.375   2.031   0.161 -0.6235 -0.9506 -0.8705
  780MPD2    H711515   3.275   2.035   0.145 -0.6421  0.1788 -0.4851
  781MPD2     C11516   0.534   0.081  12.094 -0.5425  0.6534 -0.6136
  781MPD2    C111517   0.605   4.693  12.067 -0.0261 -0.1567  0.1372
  781MPD2    C211518   0.659   4.681  11.939  0.3559  0.2090  0.5185
  781MPD2    C311519   0.649   0.066  11.847  0.0176 -0.1433  0.0508
  781MPD2    C411520   0.585   0.186  11.883 -0.3807 -0.3227 -0.1393
  781MPD2    C511521   0.531   0.187  12.001  0.0664 -0.0382 -0.2189
  781MPD2     H11522   0.686   4.580  11.912 -0.6546 -0.2641  1.2596
  781MPD2    H111523   0.568   0.272  11.820  2.7748  0.3844 -0.0086
  781MPD2    H211524   0.479   0.081  12.187  0.0636 -0.6872 -0.2671
  781MPD2    H311525   0.480   0.277  12.033 -2.2027 -1.0420 -1.0548
  781MPD2     N11526   0.701   0.054  11.720  0.3854  0.6736  0.0780
  781MPD2    H511527   0.679   0.129  11.656  2.1057  0.6537 -0.5423
  781MPD2    N111528   0.609   4.577  12.152 -0.1332  0.1250  0.6790
  781MPD2    H711529   0.664   4.501  12.114  1.7215  1.1352  1.3452
  782MPD2     C11530   3.452   0.345  10.593  1.0949  0.5926 -0.5410
  782MPD2    C111531   3.590   0.317  10.589 -0.0628  0.4188 -0.1179
  782MPD2    C211532   3.673   0.350  10.696 -0.0620 -0.7797 -1.0202
  782MPD2    C311533   3.618   0.414  10.805 -0.5384  0.5932  0.0327
  782MPD2    C411534   3.480   0.432  10.817  0.1833 -0.0901  0.0722
  782MPD2    C511535   3.399   0.391  10.708  0.1409  0.0684  0.1220
  782MPD2     H11536   3.779   0.329  10.686  0.2226 -0.1925  0.7276
  782MPD2    H111537   3.426   0.477  10.899  0.2707  1.5326 -0.7540
  782MPD2    H211538   3.391   0.321  10.507  0.2597 -0.4871  0.3624
  782MPD2    H311539   3.294   0.408  10.724  0.9158  3.1500  1.7528
  782MPD2     N11540   3.702   0.464  10.911  0.5296  0.3991 -0.0793
  782MPD2    H511541   3.801   0.441  10.906  0.3478 -0.3881  0.0368
  782MPD2    N111542   3.654   0.252  10.473  0.4181  0.6227 -0.4092
  782MPD2    H711543   3.750   0.219  10.484  0.2116 -0.1937 -1.0468
  783MPD2     C11544   3.616   4.035  10.337 -0.2324 -0.3088  0.5591
  783MPD2    C111545   3.568   4.140  10.418 -0.2991 -0.7420  1.1908
  783MPD2    C211546   3.588   4.270  10.375 -0.1617 -0.0197  0.0006
  783MPD2    C311547   3.664   4.300  10.264 -0.0722 -0.1209 -0.3946
  783MPD2    C411548   3.707   4.194  10.188  0.3472  0.5454  0.5656
  783MPD2    C511549   3.686   4.069  10.228  0.1627  0.0147 -0.2312
  783MPD2     H11550   3.545   4.354  10.428 -2.3105 -1.2847  0.2673
  783MPD2    H111551   3.765   4.215  10.099 -1.6637 -0.0241 -0.8763
  783MPD2    H211552   3.606   3.931  10.367 -0.1477 -0.8691 -1.3400
  783MPD2    H311553   3.727   3.990  10.166 -1.6747  0.7308 -2.3959
  783MPD2     N11554   3.694   4.427  10.215 -0.5376  0.6222  0.0170
  783MPD2    H511555   3.765   4.428  10.142 -0.4592  0.1530  0.0835
  783MPD2    N111556   3.508   4.105  10.546  0.0624 -0.6087  0.3241
  783MPD2    H711557   3.479   4.010  10.562  0.7261 -0.8172  0.2879
  784MPD2     C11558   2.204   1.047   0.749 -0.4363 -0.3093 -0.1962
  784MPD2    C111559   2.155   1.136   0.842  0.0335 -0.1059 -0.4326
  784MPD2    C211560   2.089   1.244   0.802  0.6580  0.6196 -0.0545
  784MPD2    C311561   2.098   1.288   0.666 -0.0137 -0.0831  0.0451
  784MPD2    C411562   2.146   1.202   0.573 -0.0831  0.0630  0.5733
  784MPD2    C511563   2.201   1.082   0.617  0.6462 -0.1906  0.1850
  784MPD2     H11564   2.043   1.311   0.873 -0.2340 -1.8791  1.6953
  784MPD2    H111565   2.163   1.217   0.467 -0.4401 -1.6778  0.2619
  784MPD2    H211566   2.252   0.956   0.782  0.3362 -0.7582 -2.5926
  784MPD2    H311567   2.256   1.023   0.545 -0.0155 -1.1892  0.4974
  784MPD2     N11568   2.037   1.413   0.632  0.1449 -0.4421  0.1723
  784MPD2    H511569   1.988   1.464   0.705 -0.3299  1.0958 -1.2322
  784MPD2    N111570   2.143   1.108   0.978  0.3601 -0.1214  0.2439
  784MPD2    H711571   2.111   1.182   1.040 -1.0393  0.1516 -0.8179
  785MPD2     C11572   1.129   4.342  10.625 -0.2463  0.3860  0.0781
  785MPD2    C111573   1.028   4.420  10.571  0.5523 -0.0356  0.5225
  785MPD2    C211574   0.911   4.355  10.540 -0.6293  0.0439  0.2237
  785MPD2    C311575   0.901   4.216  10.555  0.6173  0.1508  0.4583
  785MPD2    C411576   1.001   4.134  10.603 -0.1092 -0.1103 -0.2071
  785MPD2    C511577   1.118   4.207  10.649  0.5024  0.2843  0.2685
  785MPD2     H11578   0.830   4.408  10.491 -1.8847 -2.6942 -0.6086
  785MPD2    H111579   0.993   4.026  10.615 -2.3076 -0.1355 -1.8392
  785MPD2    H211580   1.226   4.387  10.647 -0.1443 -0.0847  0.5844
  785MPD2    H311581   1.209   4.151  10.668  0.0385 -0.9387 -1.0979
  785MPD2     N11582   0.780   4.157  10.505  0.0868 -0.5754 -0.4010
  785MPD2    H511583   0.739   4.234  10.452 -1.8804 -0.7555  0.8528
  785MPD2    N111584   1.044   4.562  10.546 -0.0513  0.5591 -0.2462
  785MPD2    H711585   1.136   4.605  10.555  0.5685 -0.8510  0.1863
  786MPD2     C11586   0.673   2.152  14.944  0.0225 -0.3091  0.4769
  786MPD2    C111587   0.700   2.023  14.965 -0.3917  0.2942 -0.3678
  786MPD2    C211588   0.722   1.985  15.094  0.2438 -0.5069  0.5002
  786MPD2    C311589   0.732   2.069  15.203 -0.2548  0.0787  0.6868
  786MPD2    C411590   0.703   2.201  15.174 -0.0552  0.3953  0.1212
  786MPD2    C511591   0.667   2.241  15.047  0.3000  0.2871  0.5985
  786MPD2     H11592   0.731   1.878  15.112  0.8766 -0.6207 -0.4992
  786MPD2    H111593   0.714   2.283  15.245  0.3174 -0.7947  1.4511
  786MPD2    H211594   0.653   2.191  14.845 -0.7179 -1.8321  0.0233
  786MPD2    H311595   0.647   2.345  15.026  2.1783  0.3888 -0.7359
  786MPD2     N11596   0.760   2.029  15.337  0.8145  0.1994  0.2611
  786MPD2    H511597   0.782   2.107  15.398  1.7599  0.4436 -0.3979
  786MPD2    N111598   0.726   1.930  14.863  0.1421  0.4224 -0.1086
  786MPD2    H711599   0.751   1.835  14.889  0.1957  0.3342 -0.4775
  787MPD2     C11600   1.018   1.438  14.998 -0.6566  0.2381 -0.6760
  787MPD2    C111601   1.034   1.442  14.862  0.0504  0.1690  0.1827
  787MPD2    C211602   1.101   1.331  14.805  0.2305 -0.6507 -0.0320
  787MPD2    C311603   1.145   1.226  14.886  0.1789 -0.6477 -0.4551
  787MPD2    C411604   1.123   1.229  15.020 -0.3122  0.5692 -0.3364
  787MPD2    C511605   1.065   1.336  15.081 -0.6109 -0.1659 -0.0250
  787MPD2     H11606   1.116   1.323  14.698  1.9323  0.7076  0.1185
  787MPD2    H111607   1.155   1.149  15.085 -2.5676  0.0120  0.0908
  787MPD2    H211608   0.976   1.518  15.057 -1.9720 -0.3681 -0.7921
  787MPD2    H311609   1.039   1.347  15.185  1.0132 -0.1069  0.3706
  787MPD2     N11610   1.208   1.120  14.823  0.1682 -0.3311 -0.7184
  787MPD2    H511611   1.197   1.125  14.722 -1.2944  1.3062 -0.4924
  787MPD2    N111612   0.966   1.544  14.782 -0.4387 -0.8170  0.3965
  787MPD2    H711613   0.909   1.609  14.835  0.3634 -0.6207  1.0199
  788MPD2     C11614   2.219   4.074   1.363 -0.5116 -0.2174 -0.0436
  788MPD2    C111615   2.156   4.050   1.241  0.2190 -0.1730 -0.3597
  788MPD2    C211616   2.183   4.133   1.135 -0.7947  0.0072 -0.6994
  788MPD2    C311617   2.276   4.235   1.143 -0.9638  0.1463  0.3048
  788MPD2    C411618   2.332   4.262   1.265  0.0771  0.7215 -0.1187
  788MPD2    C511619   2.309   4.173   1.366 -0.3836 -0.7916 -0.4095
  788MPD2     H11620   2.133   4.113   1.040 -1.6630 -0.0268 -0.2369
  788MPD2    H111621   2.420   4.324   1.277 -1.7458  3.0874  1.1332
  788MPD2    H211622   2.212   4.012   1.451  1.3776  3.1886  2.5235
  788MPD2    H311623   2.375   4.171   1.452  1.1627  1.6726 -1.5212
  788MPD2     N11624   2.334   4.305   1.039 -0.1020  0.3922  0.0189
  788MPD2    H511625   2.420   4.358   1.053  1.0920 -1.6007  0.1629
  788MPD2    N111626   2.067   3.939   1.216 -0.5736 -0.2410 -0.0303
  788MPD2    H711627   2.038   3.918   1.121 -1.3548 -0.5118  0.2701
  789MPD2     C11628   3.219   4.404  16.581 -0.4808  0.6093 -0.9771
  789MPD2    C111629   3.131   4.328  16.658  0.1906  0.9336  0.3915
  789MPD2    C211630   3.005   4.383  16.692 -0.1931 -0.8981 -0.0806
  789MPD2    C311631   2.955   4.498  16.633 -0.1300 -0.2889  0.7614
  789MPD2    C411632   3.046   4.576  16.561  0.2784  0.3128 -0.1594
  789MPD2    C511633   3.176   4.529  16.536 -0.1034 -0.3551 -0.6688
  789MPD2     H11634   2.933   4.329  16.752 -0.0009 -0.0543  0.9022
  789MPD2    H111635   3.008   4.676  16.540 -0.7726  0.2061  1.2521
  789MPD2    H211636   3.325   4.382  16.570 -0.9491 -2.3891  0.4634
  789MPD2    H311637   3.257   4.591  16.499 -1.3765  0.1815 -2.5723
  789MPD2     N11638   2.833   4.557  16.667  0.2083 -0.4563 -0.0200
  789MPD2    H511639   2.818   4.649  16.628  0.3299 -1.8387 -3.3976
  789MPD2    N111640   3.155   4.199  16.710 -0.5072  0.1207 -0.3011
  789MPD2    H711641   3.091   4.157  16.776  1.2586 -0.9899  0.7082
  790MPD2     C11642   3.640   1.337  13.536  0.2694  0.8307 -0.7918
  790MPD2    C111643   3.727   1.239  13.492  0.3251 -0.6787 -0.4894
  790MPD2    C211644   3.731   1.209  13.358  0.0051 -1.2412  0.3944
  790MPD2    C311645   3.659   1.283  13.266  0.4057  0.8091  0.1757
  790MPD2    C411646   3.579   1.386  13.311 -0.2027 -0.7425  0.1933
  790MPD2    C511647   3.573   1.408  13.440 -0.4267 -0.2140 -0.4884
  790MPD2     H11648   3.802   1.133  13.328 -0.4534 -0.8133 -1.8090
  790MPD2    H111649   3.522   1.448  13.242 -0.6108 -0.2932  0.9405
  790MPD2    H211650   3.615   1.353  13.640  0.2102 -3.2298 -0.1679
  790MPD2    H311651   3.507   1.481  13.486 -0.0546 -0.5037  0.5047
  790MPD2     N11652   3.653   1.240  13.131 -0.4810 -0.8107  0.4378
  790MPD2    H511653   3.735   1.186  13.106 -0.2619 -0.7062  0.9234
  790MPD2    N111654   3.795   1.159  13.588 -0.2903 -0.1009 -0.2447
  790MPD2    H711655   3.766   1.176  13.684  0.2054  1.9225 -0.4522
  791MPD2     C11656   3.237   1.235  12.341  0.3387  0.5028  0.0131
  791MPD2    C111657   3.256   1.137  12.436 -0.4955  0.0498  0.4015
  791MPD2    C211658   3.168   1.033  12.442 -0.0428 -0.2090  0.5688
  791MPD2    C311659   3.052   1.031  12.367  0.2745 -0.3884  0.3030
  791MPD2    C411660   3.029   1.131  12.273 -0.7335 -0.1135 -0.2526
  791MPD2    C511661   3.115   1.233  12.262  0.4537  0.1160 -0.0991
  791MPD2     H11662   3.189   0.952  12.512  3.3231 -0.9209 -1.2369
  791MPD2    H111663   2.947   1.128  12.202 -1.0948  0.9892  0.1121
  791MPD2    H211664   3.305   1.319  12.338 -0.2343  0.9941  0.8915
  791MPD2    H311665   3.095   1.313  12.192  0.7106 -0.7167 -1.1199
  791MPD2     N11666   2.968   0.924  12.386  0.1915 -0.8009 -0.3726
  791MPD2    H511667   2.990   0.857  12.458 -0.8591 -0.0467  0.6417
  791MPD2    N111668   3.356   1.162  12.532 -0.5800 -0.3710 -0.3472
  791MPD2    H711669   3.416   1.239  12.504 -2.8169  1.3216 -0.5009
  792MPD2     C11670   3.970   1.078  11.560 -0.2791  0.1534  0.8870
  792MPD2    C111671   3.959   1.105  11.431  0.0472 -0.1332  1.0322
  792MPD2    C211672   3.853   1.034  11.360 -0.1315 -0.7336  0.1091
  792MPD2    C311673   3.769   0.947  11.425 -0.3795  0.8045 -0.3158
  792MPD2    C411674   3.795   0.910  11.554  0.3185 -0.6010 -0.4070
  792MPD2    C511675   3.897   0.974  11.616  0.0408 -0.9447  0.5750
  792MPD2     H11676   3.827   1.064  11.260  0.8672  1.3385  0.4614
  792MPD2    H111677   3.739   0.830  11.600 -2.1358  2.5745  2.0940
  792MPD2    H211678   4.050   1.119  11.620 -0.3203  3.4557 -1.3276
  792MPD2    H311679   3.927   0.943  11.715  2.6800  1.8243  0.6483
  792MPD2     N11680   3.647   0.898  11.364  0.2080  0.7125  0.3720
  792MPD2    H511681   3.603   0.825  11.420 -0.3194  0.3533 -0.4979
  792MPD2    N111682   4.033   1.215  11.379  0.0188 -0.5821  0.1895
  792MPD2    H711683   4.087   1.272  11.443  0.0518 -1.0294  0.5612
  793MPD2     C11684   3.008   1.186  10.570 -0.0447  0.6686 -0.2520
  793MPD2    C111685   3.135   1.145  10.538  0.0475 -0.3338  0.1883
  793MPD2    C211686   3.201   1.073  10.633  0.6951 -0.9796  0.5789
  793MPD2    C311687   3.149   1.061  10.762  1.0664  0.0567 -0.2571
  793MPD2    C411688   3.022   1.114  10.789  0.3031 -0.4395 -0.4149
  793MPD2    C511689   2.946   1.170  10.690  0.3000  0.1628 -0.2119
  793MPD2     H11690   3.303   1.042  10.612  1.2372  0.3379  1.2786
  793MPD2    H111691   2.992   1.115  10.894  0.1635  1.2328 -0.4674
  793MPD2    H211692   2.945   1.245  10.505  0.5328 -0.8997 -2.2407
  793MPD2    H311693   2.843   1.197  10.712 -0.2884 -1.5191 -0.8974
  793MPD2     N11694   3.225   0.997  10.863 -0.3445 -0.0110  0.0480
  793MPD2    H511695   3.314   0.959  10.832  0.0779 -0.7668  2.1831
  793MPD2    N111696   3.185   1.145  10.407 -0.6238 -0.0945 -0.1512
  793MPD2    H711697   3.276   1.103  10.389 -0.3104 -0.4131  2.1663
  794MPD2     C11698   3.225   1.292  17.287 -0.2722 -0.0904 -0.0305
  794MPD2    C111699   3.306   1.182  17.269  0.5739 -0.2820  0.2444
  794MPD2    C211700   3.261   1.088  17.175  0.5151  0.3692  0.1938
  794MPD2    C311701   3.144   1.108  17.101 -0.0230  0.0073  0.0280
  794MPD2    C411702   3.067   1.220  17.119  1.5016  0.0163 -0.4520
  794MPD2    C511703   3.107   1.306  17.216  0.8666  0.0037 -0.0001
  794MPD2     H11704   3.318   0.996  17.164  0.2786  0.2779 -0.2578
  794MPD2    H111705   2.973   1.249  17.073  0.1326  2.0910  3.6092
  794MPD2    H211706   3.245   1.370  17.359 -0.3336 -0.2076  0.1142
  794MPD2    H311707   3.036   1.385  17.237  1.7155  0.8126 -0.1484
  794MPD2     N11708   3.088   1.014  17.014  0.6267 -0.8023 -0.1275
  794MPD2    H511709   2.995   1.028  16.975  0.7055 -0.4410 -0.1883
  794MPD2    N111710   3.425   1.156  17.344 -0.1665 -0.4066 -0.1508
  794MPD2    H711711   3.464   1.062  17.342  0.7428 -0.0230 -0.2471
  795MPD2     C11712   0.819   2.762  13.889  0.5138  0.3483  0.9929
  795MPD2    C111713   0.871   2.765  13.759  0.3932  0.0099  0.6420
  795MPD2    C211714   1.000   2.712  13.739  0.3977  0.5123  0.3731
  795MPD2    C311715   1.060   2.659  13.850  0.8336  0.1696 -0.1138
  795MPD2    C411716   0.997   2.652  13.975  1.1674 -0.1889  0.5392
  795MPD2    C511717   0.875   2.698  13.992  0.3773 -0.7451  0.6505
  795MPD2     H11718   1.051   2.698  13.644 -1.8922  2.8168 -1.1825
  795MPD2    H111719   1.042   2.603  14.060  0.5047 -1.6950  0.0214
  795MPD2    H211720   0.713   2.779  13.909  0.6983  2.2689  0.3272
  795MPD2    H311721   0.821   2.691  14.086  2.9874  2.5992  2.3891
  795MPD2     N11722   1.188   2.597  13.833 -0.1891  0.1622  0.3247
  795MPD2    H511723   1.226   2.608  13.740 -3.0531 -0.6109 -0.9505
  795MPD2    N111724   0.794   2.816  13.656 -0.3328 -0.4616  0.2247
  795MPD2    H711725   0.703   2.848  13.687 -0.4050 -1.7266  1.2789
  796MPD2     C11726   0.701   4.141  15.588 -0.5567 -0.2731 -0.1507
  796MPD2    C111727   0.662   4.249  15.671 -0.1750  0.1805 -0.8164
  796MPD2    C211728   0.626   4.376  15.616 -0.3895 -0.2319  0.4110
  796MPD2    C311729   0.658   4.406  15.484 -0.1115  1.0439 -0.1274
  796MPD2    C411730   0.704   4.304  15.406 -0.0295 -0.2226  0.3293
  796MPD2    C511731   0.718   4.177  15.458 -0.7819  0.4785 -0.4181
  796MPD2     H11732   0.579   4.451  15.678 -2.8101  0.5936 -2.4580
  796MPD2    H111733   0.729   4.325  15.302  1.7848 -1.2857  0.5518
  796MPD2    H211734   0.722   4.044  15.630 -0.9013 -0.7919 -1.2044
  796MPD2    H311735   0.751   4.093  15.398  0.6591  0.8747 -0.1880
  796MPD2     N11736   0.657   4.544  15.450 -0.3750  0.2702 -0.0982
  796MPD2    H511737   0.696   4.575  15.362  0.4250  0.8130  0.4468
  796MPD2    N111738   0.651   4.216  15.814  0.0012 -0.0547 -0.0181
  796MPD2    H711739   0.678   4.121  15.838 -1.0120 -0.5954 -1.0799
  797MPD2     C11740   1.623   4.097  17.286  0.2918 -0.2848  0.3048
  797MPD2    C111741   1.715   4.191  17.243 -0.5218  1.0345  0.0601
  797MPD2    C211742   1.666   4.298  17.173 -1.5068 -0.0471  0.4262
  797MPD2    C311743   1.534   4.317  17.153 -1.0100  0.1140  0.8821
  797MPD2    C411744   1.438   4.220  17.202  0.2081 -0.1031  0.2289
  797MPD2    C511745   1.487   4.111  17.267  0.4711  0.4223  0.2502
  797MPD2     H11746   1.732   4.367  17.121 -0.4519  0.1347  2.0101
  797MPD2    H111747   1.331   4.238  17.192 -0.3028 -2.7907  0.9407
  797MPD2    H211748   1.655   4.019  17.354  1.3179 -1.0757 -1.0984
  797MPD2    H311749   1.420   4.034  17.304  2.3208 -1.4931 -0.3589
  797MPD2     N11750   1.494   4.426  17.073 -0.0157  0.9634 -0.1992
  797MPD2    H511751   1.573   4.480  17.039  1.1431 -0.5194  0.1354
  797MPD2    N111752   1.849   4.161  17.239  0.1667 -0.0902  0.0355
  797MPD2    H711753   1.901   4.243  17.212  0.8910 -0.7732 -0.6387
  798MPD2     C11754   2.043   4.566  16.680 -0.2907  0.0404 -0.5397
  798MPD2    C111755   1.960   4.570  16.785 -0.3960  0.4685 -0.1939
  798MPD2    C211756   2.007   4.504  16.902 -0.2110 -0.1116 -0.1178
  798MPD2    C311757   2.128   4.440  16.904 -0.4667  0.0435  0.0002
  798MPD2    C411758   2.210   4.440  16.797  0.3969  0.3744 -1.0139
  798MPD2    C511759   2.162   4.507  16.689  0.0543 -0.7102 -0.1484
  798MPD2     H11760   1.944   4.495  16.989 -0.7419 -0.1628 -0.5094
  798MPD2    H111761   2.304   4.387  16.787  0.9654  1.2447 -0.2252
  798MPD2    H211762   2.007   4.616  16.590 -1.4019 -1.1353 -0.7327
  798MPD2    H311763   2.221   4.505  16.598 -1.6518 -0.2523 -1.2818
  798MPD2     N11764   2.156   4.368  17.018  0.7292 -0.0314 -0.5073
  798MPD2    H511765   2.099   4.381  17.101  2.3643 -1.6143  0.8620
  798MPD2    N111766   1.831   4.618  16.779  0.4622  0.2231  0.2735
  798MPD2    H711767   1.800   4.646  16.687  0.8630 -1.4864 -0.3707
  799MPD2     C11768   0.966   0.769  15.015 -0.0798 -0.0251  0.2789
  799MPD2    C111769   0.893   0.696  14.926  0.3052 -0.4023 -0.5332
  799MPD2    C211770   0.806   0.765  14.847  0.0173 -0.2986  0.2444
  799MPD2    C311771   0.805   0.903  14.837  0.1647 -0.2453 -0.2531
  799MPD2    C411772   0.887   0.971  14.926  0.1032 -0.0157  0.1345
  799MPD2    C511773   0.956   0.904  15.027  0.1422 -0.4302  0.7230
  799MPD2     H11774   0.743   0.709  14.779 -1.5754  0.3166  1.1977
  799MPD2    H111775   0.904   1.078  14.928  0.1957 -0.0213 -0.3272
  799MPD2    H211776   1.033   0.721  15.087 -2.9663 -3.0363  0.9626
  799MPD2    H311777   1.016   0.962  15.095 -0.8882 -0.3515  1.5690
  799MPD2     N11778   0.729   0.975  14.748 -0.0776  0.2989  0.6169
  799MPD2    H511779   0.750   1.073  14.732  0.4947  0.2582  1.1038
  799MPD2    N111780   0.891   0.563  14.920 -0.0594 -0.5316  0.2415
  799MPD2    H711781   0.830   0.524  14.849  0.3575 -1.5866  0.4629
  800MPD2     C11782   1.068   1.440  14.187  0.6647 -0.0196 -0.9219
  800MPD2    C111783   1.155   1.494  14.096  0.6399 -0.1583 -0.0526
  800MPD2    C211784   1.108   1.514  13.967 -0.6104 -0.0353 -0.0381
  800MPD2    C311785   0.978   1.497  13.928  1.0061  0.4997  0.1588
  800MPD2    C411786   0.890   1.447  14.022  0.4020  0.2261 -0.4734
  800MPD2    C511787   0.934   1.428  14.150  0.3058 -0.0538 -0.4316
  800MPD2     H11788   1.179   1.556  13.896  1.5492 -0.7504  1.6905
  800MPD2    H111789   0.786   1.428  14.001 -0.7744  3.7257  2.2689
  800MPD2    H211790   1.090   1.421  14.291  1.7832  0.9076 -0.9924
  800MPD2    H311791   0.860   1.394  14.221 -1.2801 -0.1540 -2.1391
  800MPD2     N11792   0.947   1.536  13.801 -0.3286  0.0262 -0.1238
  800MPD2    H511793   1.015   1.600  13.762 -1.0890 -0.5806 -2.4285
  800MPD2    N111794   1.288   1.530  14.137 -0.2547 -0.6381 -0.3276
  800MPD2    H711795   1.302   1.538  14.237 -0.1515 -0.9808 -0.3161
  801MPD2     C11796   1.249   2.136  14.032  0.1503  0.5148 -0.3780
  801MPD2    C111797   1.278   2.084  14.154  0.2737 -0.3864 -0.1011
  801MPD2    C211798   1.190   2.112  14.261 -0.2217  0.0574 -0.8303
  801MPD2    C311799   1.081   2.191  14.241 -0.2213  0.0985  0.1875
  801MPD2    C411800   1.059   2.250  14.116  0.3715 -0.0726  0.1340
  801MPD2    C511801   1.138   2.211  14.013 -0.3197  0.4762  0.2061
  801MPD2     H11802   1.211   2.063  14.355  1.0288  1.7626 -0.2197
  801MPD2    H111803   0.967   2.302  14.091  1.0490  0.6141 -0.9547
  801MPD2    H211804   1.313   2.119  13.945 -0.0525  0.7565 -0.5726
  801MPD2    H311805   1.123   2.250  13.913 -2.9487 -1.2654 -0.0660
  801MPD2     N11806   0.983   2.215  14.341 -0.0534 -0.7400 -0.6411
  801MPD2    H511807   0.909   2.281  14.320 -0.4177 -0.8981  0.1391
  801MPD2    N111808   1.385   1.992  14.182 -0.1453 -0.1679  0.3240
  801MPD2    H711809   1.375   1.943  14.270  0.5404 -1.6785 -0.4430
  802MPD2     C11810   0.036   2.946  16.993  0.5204 -0.1023  0.5597
  802MPD2    C111811   0.120   2.892  17.089  0.0292  0.6362 -0.1545
  802MPD2    C211812   0.202   2.792  17.054  0.4932 -0.1146 -0.1911
  802MPD2    C311813   0.197   2.750  16.925 -0.0251 -0.1653  0.0407
  802MPD2    C411814   0.120   2.815  16.828  0.6980 -0.2772 -0.2376
  802MPD2    C511815   0.029   2.913  16.866  0.2380 -0.8853 -0.3024
  802MPD2     H11816   0.268   2.751  17.129  1.1669 -1.9081 -1.7597
  802MPD2    H111817   0.103   2.768  16.732 -0.7541  1.5582 -0.8822
  802MPD2    H211818   4.703   3.034  17.016 -1.8712 -0.8339 -2.7963
  802MPD2    H311819   4.676   2.949  16.802  1.1188  0.6808 -0.5098
  802MPD2     N11820   0.277   2.646  16.883  0.0136 -0.0512 -0.6790
  802MPD2    H511821   0.341   2.607  16.952  0.9615  1.7488 -0.5303
  802MPD2    N111822   0.125   2.933  17.226  0.0661  0.1546 -0.0070
  802MPD2    H711823   0.171   2.870  17.290 -0.3114  1.6788  1.7720
  803MPD2     C11824   1.903   0.809  11.475 -0.4091  0.7118  0.2034
  803MPD2    C111825   1.971   0.873  11.575 -0.2236 -0.1020 -0.6550
  803MPD2    C211826   1.911   0.876  11.700 -0.1918  0.3014 -0.5904
  803MPD2    C311827   1.788   0.816  11.730  0.0623  0.0828 -0.1271
  803MPD2    C411828   1.719   0.764  11.623 -0.5584 -0.3374 -0.4950
  803MPD2    C511829   1.774   0.765  11.501 -0.0385 -0.0553  1.4468
  803MPD2     H11830   1.979   0.913  11.776  0.2587 -0.4845 -0.6101
  803MPD2    H111831   1.624   0.713  11.631 -0.1960 -0.9806 -0.3193
  803MPD2    H211832   1.935   0.793  11.373 -1.4455  0.6419 -0.1141
  803MPD2    H311833   1.710   0.719  11.427  0.6243  3.6099 -1.3997
  803MPD2     N11834   1.733   0.804  11.859 -0.5261  0.2397 -0.0789
  803MPD2    H511835   1.634   0.782  11.868 -0.5134 -0.4066 -1.6357
  803MPD2    N111836   2.098   0.934  11.554 -1.0350 -0.4670 -0.1511
  803MPD2    H711837   2.134   0.989  11.631  1.7381 -3.4247  0.6633
  804MPD2     C11838   1.228   2.326  17.006 -0.7034  0.3041  0.2111
  804MPD2    C111839   1.300   2.253  17.097 -0.5027 -0.5737  0.4750
  804MPD2    C211840   1.350   2.312  17.212 -0.3794  0.3912 -0.8464
  804MPD2    C311841   1.349   2.451  17.222  0.0502 -0.7145  0.4312
  804MPD2    C411842   1.290   2.521  17.116  0.7405  0.1627  0.3703
  804MPD2    C511843   1.227   2.463  17.008 -0.2614  0.7318  0.0121
  804MPD2     H11844   1.413   2.258  17.281 -0.2974  1.0142 -0.4337
  804MPD2    H111845   1.285   2.629  17.117  0.0872  0.1460 -0.6466
  804MPD2    H211846   1.192   2.272  16.920  1.6314  1.0884 -1.2720
  804MPD2    H311847   1.186   2.526  16.930 -1.7525 -1.3363 -0.8863
  804MPD2     N11848   1.419   2.505  17.327  0.6593  0.0662  0.6197
  804MPD2    H511849   1.462   2.440  17.392 -0.5051 -1.0280  0.3038
  804MPD2    N111850   1.300   2.108  17.090 -0.2637  0.7091  0.3048
  804MPD2    H711851   1.335   2.056  17.170 -0.7493 -0.3703 -0.1930
  805MPD2     C11852   0.622   1.037  15.149  0.2044 -0.1517  0.5239
  805MPD2    C111853   0.653   0.920  15.212  0.9900 -0.4501  0.4112
  805MPD2    C211854   0.771   0.920  15.286 -0.2561  0.1154  0.3895
  805MPD2    C311855   0.849   1.034  15.312  0.8822  0.2547  0.5045
  805MPD2    C411856   0.803   1.151  15.258 -0.1487 -0.3334  0.1529
  805MPD2    C511857   0.690   1.151  15.178 -0.9149 -0.2258  0.0393
  805MPD2     H11858   0.805   0.828  15.331  0.4595 -0.0088 -0.3978
  805MPD2    H111859   0.851   1.248  15.256 -2.9792  1.0514 -0.0848
  805MPD2    H211860   0.542   1.050  15.076  0.3377  0.1772  0.4346
  805MPD2    H311861   0.664   1.240  15.121  1.0953 -0.2682 -0.9137
  805MPD2     N11862   0.962   1.029  15.396 -0.1760 -0.1992  0.6281
  805MPD2    H511863   0.970   0.937  15.440  0.1930  0.0799  1.1436
  805MPD2    N111864   0.592   0.801  15.190  0.1119 -0.3806  0.0207
  805MPD2    H711865   0.639   0.719  15.227  0.7201 -0.7251 -1.4973
  806MPD2     C11866   2.042   0.611   0.793 -0.7175  0.6198  0.2031
  806MPD2    C111867   1.945   0.674   0.869 -0.1171 -0.6781  0.5877
  806MPD2    C211868   1.881   0.786   0.807 -0.8001 -0.3425 -0.4765
  806MPD2    C311869   1.919   0.827   0.679  0.1546  0.6214 -0.3139
  806MPD2    C411870   2.011   0.758   0.603 -0.7056 -0.4489 -0.0799
  806MPD2    C511871   2.075   0.656   0.668  0.2471  0.4489  0.1843
  806MPD2     H11872   1.812   0.845   0.865 -1.7272 -0.9690 -0.9449
  806MPD2    H111873   2.041   0.788   0.503 -0.5674  1.7093  0.6024
  806MPD2    H211874   2.116   0.540   0.830  0.3827  1.6718  0.0300
  806MPD2    H311875   2.164   0.618   0.620  1.3112 -0.4903  2.8974
  806MPD2     N11876   1.853   0.941   0.634  0.7184 -0.0025 -0.1425
  806MPD2    H511877   1.812   1.000   0.706 -1.5314 -2.0945  0.2707
  806MPD2    N111878   1.920   0.624   0.997  0.3669  0.4350  0.2880
  806MPD2    H711879   1.964   0.537   1.024  1.6431  0.9689 -0.0526
  807MPD2     C11880   1.515   0.675   1.778  1.1348  0.2036  0.0942
  807MPD2    C111881   1.510   0.545   1.725 -0.4922 -0.2675  0.0445
  807MPD2    C211882   1.459   0.443   1.804  0.2608  1.4714 -0.4814
  807MPD2    C311883   1.406   0.467   1.928  0.3230 -0.0325  0.6300
  807MPD2    C411884   1.410   0.593   1.976 -0.8388 -0.9173 -0.0527
  807MPD2    C511885   1.464   0.696   1.900  0.4299  0.6809 -0.3697
  807MPD2     H11886   1.446   0.346   1.757  1.1166  0.9810  0.3091
  807MPD2    H111887   1.360   0.614   2.070  0.6744  2.6238 -0.0760
  807MPD2    H211888   1.547   0.761   1.722  0.2838 -1.1704 -2.4845
  807MPD2    H311889   1.467   0.796   1.940 -2.5387  0.0912  1.2899
  807MPD2     N11890   1.350   0.361   2.004  0.3325  0.0608 -0.2376
  807MPD2    H511891   1.353   0.269   1.962  0.3182 -0.9009  1.8483
  807MPD2    N111892   1.552   0.510   1.596 -0.4673  0.0637  0.5860
  807MPD2    H711893   1.556   0.413   1.566 -0.1351 -0.5116  2.5108
  808MPD2     C11894   0.956   1.679   9.429  0.4625 -0.3979  0.1309
  808MPD2    C111895   0.989   1.706   9.561  0.1630 -0.2011  0.5598
  808MPD2    C211896   1.097   1.791   9.594  0.1573 -0.2858  0.3087
  808MPD2    C311897   1.175   1.840   9.495 -0.2481  0.0741  0.1053
  808MPD2    C411898   1.143   1.802   9.361 -0.4346  0.1246  0.1294
  808MPD2    C511899   1.037   1.724   9.332  0.4184  0.0921  0.1667
  808MPD2     H11900   1.100   1.827   9.697 -0.7004 -1.9332  0.9076
  808MPD2    H111901   1.203   1.844   9.281 -0.5047 -0.8628 -0.4413
  808MPD2    H211902   0.877   1.611   9.401 -0.0211 -0.4913  1.7358
  808MPD2    H311903   1.003   1.710   9.230  0.7950 -0.8455  0.1712
  808MPD2     N11904   1.284   1.936   9.508  0.1472  0.1731 -0.1387
  808MPD2    H511905   1.312   1.976   9.419  0.1692 -1.4597 -0.8526
  808MPD2    N111906   0.911   1.661   9.667  0.0956 -0.1670  0.1403
  808MPD2    H711907   0.934   1.701   9.758 -0.8123 -0.3395  0.4472
  809MPD2     C11908   1.915   2.428   8.959  0.2004 -0.7851 -0.3536
  809MPD2    C111909   1.946   2.312   9.037  0.9293  0.4150 -0.4475
  809MPD2    C211910   1.859   2.276   9.136  0.5808  0.2391  0.0854
  809MPD2    C311911   1.758   2.359   9.178  0.6794  0.4643  0.5238
  809MPD2    C411912   1.724   2.463   9.095 -0.1269 -1.0292  0.1168
  809MPD2    C511913   1.803   2.497   8.990  0.7557 -0.1144 -0.0913
  809MPD2     H11914   1.880   2.190   9.198 -3.5151  0.1346  1.2846
  809MPD2    H111915   1.640   2.528   9.116  1.1695  1.0561 -1.1515
  809MPD2    H211916   1.987   2.457   8.884  1.4533  2.1392  1.9757
  809MPD2    H311917   1.784   2.590   8.937 -2.7079 -1.5807 -1.3811
  809MPD2     N11918   1.666   2.327   9.280  0.2664 -0.6250  0.2260
  809MPD2    H511919   1.594   2.398   9.292 -0.5027 -1.4012  0.2149
  809MPD2    N111920   2.054   2.231   9.008 -0.1162 -0.2051 -0.5274
  809MPD2    H711921   2.066   2.145   9.060  0.3989  1.6550  2.4305
  810MPD2     C11922   0.814   1.353  10.385 -0.5988 -0.4322 -0.2448
  810MPD2    C111923   0.705   1.294  10.447 -0.3905 -0.0396 -0.0036
  810MPD2    C211924   0.694   1.301  10.582 -0.4772  0.5290  0.2500
  810MPD2    C311925   0.775   1.402  10.653  0.8051  0.0669  0.0198
  810MPD2    C411926   0.871   1.469  10.584 -0.0438  0.0540 -0.0225
  810MPD2    C511927   0.878   1.451  10.450 -0.0499 -0.3482  0.6248
  810MPD2     H11928   0.634   1.226  10.632  0.5270  0.2307  1.0203
  810MPD2    H111929   0.936   1.545  10.625  0.1096 -0.6554  1.0413
  810MPD2    H211930   0.831   1.343  10.278 -1.5277  0.9497 -0.5235
  810MPD2    H311931   0.959   1.502  10.398 -0.9356  2.1906  1.7107
  810MPD2     N11932   0.790   1.399  10.792 -0.0477 -0.4585 -0.4132
  810MPD2    H511933   0.866   1.445  10.841  0.0672 -0.7097 -0.3561
  810MPD2    N111934   0.625   1.215  10.370  0.6797 -0.4397  0.0407
  810MPD2    H711935   0.644   1.217  10.270 -0.8734 -0.2577 -0.2531
  811MPD2     C11936   4.599   1.408   9.998  0.4849  0.1178 -0.2482
  811MPD2    C111937   4.725   1.445  10.030  0.4639 -0.4111 -0.2484
  811MPD2    C211938   0.050   1.568   9.999  0.1595  0.4369  0.8772
  811MPD2    C311939   4.701   1.650   9.920 -0.3412 -0.9573 -0.2806
  811MPD2    C411940   4.569   1.608   9.884 -0.3101 -0.3475 -0.1901
  811MPD2    C511941   4.521   1.490   9.932  0.2549 -0.0579 -0.4778
  811MPD2     H11942   0.146   1.600  10.037  1.2792  1.0864 -2.4930
  811MPD2    H111943   4.508   1.671   9.821  0.1766 -0.7828 -1.1025
  811MPD2    H211944   4.555   1.325  10.054 -0.2677  0.9342  0.3753
  811MPD2    H311945   4.416   1.463   9.925 -0.6109  2.7015  1.4342
  811MPD2     N11946   0.017   1.782   9.891  0.2410 -0.4028 -0.2704
  811MPD2    H511947   0.089   1.825   9.949 -0.1148 -0.8114  0.4785
  811MPD2    N111948   0.073   1.344  10.101 -0.3410  0.4217  0.0332
  811MPD2    H711949   0.020   1.269  10.145 -0.0408 -0.8834 -1.8506
  812MPD2     C11950   4.082   1.091  12.602  0.9709 -0.8064  1.4767
  812MPD2    C111951   4.140   1.216  12.562 -0.5125 -0.0677  0.0050
  812MPD2    C211952   4.222   1.275  12.656 -0.3757 -0.0687 -0.2034
  812MPD2    C311953   4.248   1.222  12.778 -0.3734  0.1495 -0.6955
  812MPD2    C411954   4.197   1.100  12.814 -0.0389 -0.1708  0.1421
  812MPD2    C511955   4.116   1.037  12.720 -1.1840 -0.7139  0.0716
  812MPD2     H11956   4.281   1.364  12.639  0.2476 -0.2724  0.8931
  812MPD2    H111957   4.214   1.064  12.915  2.7598  0.6318 -0.0298
  812MPD2    H211958   4.030   1.024  12.534  0.9733 -0.2849  0.9583
  812MPD2    H311959   4.069   0.945  12.754  0.8987 -1.7878 -0.0083
  812MPD2     N11960   4.346   1.289  12.867 -0.1941  0.0776  0.1158
  812MPD2    H511961   4.377   1.383  12.844 -3.7112  1.7237  2.1269
  812MPD2    N111962   4.103   1.268  12.435 -0.6306 -0.3048 -0.5250
  812MPD2    H711963   4.021   1.224  12.394 -1.6896  2.4465 -1.3003
  813MPD2     C11964   2.901   2.485  13.420 -0.3096  0.0485 -0.7377
  813MPD2    C111965   2.913   2.621  13.416 -0.2095 -0.6841  0.0244
  813MPD2    C211966   2.844   2.698  13.505  0.5553 -0.1169  0.1308
  813MPD2    C311967   2.752   2.648  13.591 -0.2660  0.1287 -0.2903
  813MPD2    C411968   2.737   2.509  13.592  0.0940 -0.2036 -0.4970
  813MPD2    C511969   2.812   2.427  13.507 -0.5606 -0.3273  1.4230
  813MPD2     H11970   2.864   2.804  13.514 -1.7341  0.4730 -1.5748
  813MPD2    H111971   2.672   2.463  13.666 -0.7031  1.8847  0.0825
  813MPD2    H211972   2.950   2.418  13.350  0.5203 -0.2494  0.1208
  813MPD2    H311973   2.808   2.319  13.515 -0.2766 -0.3828  0.8656
  813MPD2     N11974   2.690   2.732  13.685 -0.2157 -0.1482 -0.4909
  813MPD2    H511975   2.685   2.828  13.652 -0.2889 -0.9818 -2.9038
  813MPD2    N111976   3.013   2.668  13.330 -0.4444  0.1129 -0.3623
  813MPD2    H711977   3.081   2.601  13.295  0.3616  0.3032  0.8410
  814MPD2     C11978   3.885   4.092  12.565  0.2279  0.1631  0.0424
  814MPD2    C111979   3.900   4.160  12.442  0.4203 -0.1455  0.3711
  814MPD2    C211980   3.998   4.254  12.427 -0.2275 -0.1620 -0.4565
  814MPD2    C311981   4.074   4.290  12.538 -0.2093  0.2938 -0.3044
  814MPD2    C411982   4.056   4.227  12.658 -0.2246 -0.0278  0.8892
  814MPD2    C511983   3.957   4.131  12.672  0.6288 -0.0593  0.6104
  814MPD2     H11984   4.024   4.298  12.332 -2.4818  1.8926 -0.1303
  814MPD2    H111985   4.103   4.258  12.751 -1.2700 -2.0398  2.0900
  814MPD2    H211986   3.803   4.022  12.575 -0.0493  0.6480  1.1240
  814MPD2    H311987   3.931   4.078  12.762  0.0353 -0.5153  0.1701
  814MPD2     N11988   4.156   4.406  12.541 -0.6219  0.0509 -0.1684
  814MPD2    H511989   4.211   4.428  12.623 -0.1163  0.1989 -0.5457
  814MPD2    N111990   3.827   4.129  12.324 -0.0785  0.2655 -0.0161
  814MPD2    H711991   3.841   4.195  12.248  0.4467 -1.2848 -1.2746
  815MPD2     C11992   4.333   2.863  12.189 -0.5457  0.4634  0.2766
  815MPD2    C111993   4.319   2.737  12.136  0.8396  0.7574  0.1027
  815MPD2    C211994   4.202   2.669  12.162  0.3546  0.3360 -0.1157
  815MPD2    C311995   4.106   2.725  12.238  0.4272  0.3271 -0.1776
  815MPD2    C411996   4.129   2.839  12.304  1.0269  0.7970 -0.1660
  815MPD2    C511997   4.239   2.912  12.272  0.1919 -0.0332 -0.3392
  815MPD2     H11998   4.185   2.571  12.120 -1.4829 -0.1642  1.7760
  815MPD2    H111999   4.064   2.875  12.383  1.6634 -0.5854  0.9865
  815MPD2    H212000   4.411   2.927  12.150 -1.1095 -0.0237 -1.6482
  815MPD2    H312001   4.259   3.002  12.328 -0.6317  1.4506 -2.4381
  815MPD2     N12002   3.984   2.662  12.235 -0.7935  0.4011 -0.6874
  815MPD2    H512003   3.981   2.580  12.176  2.6303 -1.2494  1.3989
  815MPD2    N112004   4.427   2.682  12.055  0.3732  0.0599 -0.1987
  815MPD2    H712005   4.492   2.749  12.014 -0.0785  0.1130 -0.8257
  816MPD2     C12006   4.068   2.122  16.932 -0.3530  0.3016  0.6646
  816MPD2    C112007   4.155   2.175  17.021  0.5807 -0.9105  0.7060
  816MPD2    C212008   4.280   2.112  17.045 -0.2467 -0.2047  1.0754
  816MPD2    C312009   4.317   1.998  16.977 -0.8892 -0.1211  0.2182
  816MPD2    C412010   4.220   1.935  16.896  0.7786  0.8534 -0.0052
  816MPD2    C512011   4.099   2.000  16.873  0.2352  0.3594 -0.0444
  816MPD2     H12012   4.356   2.164  17.101 -1.2398  2.3855  0.0097
  816MPD2    H112013   4.234   1.843  16.841 -3.0716  0.3462 -0.1426
  816MPD2    H212014   3.980   2.167  16.888  0.4214 -0.0222 -1.2311
  816MPD2    H312015   4.025   1.949  16.812 -0.8884  2.3737 -0.3403
  816MPD2     N12016   4.447   1.948  16.998  0.5658 -0.5348 -0.4331
  816MPD2    H512017   4.510   2.003  17.055  2.3469 -0.3607 -2.5966
  816MPD2    N112018   4.118   2.299  17.085  0.3432 -0.6818 -0.4240
  816MPD2    H712019   4.032   2.337  17.049 -0.6179 -0.6851  1.8450
  817MPD2     C12020   3.585   3.595  10.109  0.4477  0.1828  0.3267
  817MPD2    C112021   3.635   3.621   9.986 -0.9184 -0.3676 -0.7447
  817MPD2    C212022   3.615   3.742   9.932  0.1860  0.1676  0.4612
  817MPD2    C312023   3.549   3.840  10.001 -1.0238  0.6868  0.1097
  817MPD2    C412024   3.501   3.816  10.133 -0.8020 -1.3136  0.1439
  817MPD2    C512025   3.520   3.689  10.187  0.9090  0.1269 -0.7882
  817MPD2     H12026   3.646   3.776   9.834 -0.5084  0.5784  0.3844
  817MPD2    H112027   3.442   3.878  10.199 -0.3177 -0.2999 -0.3874
  817MPD2    H212028   3.612   3.498  10.149 -0.4769 -0.6764 -1.1454
  817MPD2    H312029   3.478   3.668  10.284  1.1567 -2.0614 -1.1478
  817MPD2     N12030   3.513   3.964   9.939 -0.1702  0.2924  0.1376
  817MPD2    H512031   3.563   3.983   9.853  1.8444 -1.5203  0.9024
  817MPD2    N112032   3.707   3.523   9.913 -0.0670  0.3455 -0.3406
  817MPD2    H712033   3.714   3.536   9.813  1.0650 -2.5432 -0.6357
  818MPD2     C12034   2.544   3.494   9.912 -0.1480  0.0022 -0.3595
  818MPD2    C112035   2.619   3.408   9.991 -0.8756 -0.2338 -0.3590
  818MPD2    C212036   2.693   3.327   9.924 -0.4402  0.2977 -0.0735
  818MPD2    C312037   2.699   3.312   9.786 -0.1952 -0.1784  0.4742
  818MPD2    C412038   2.616   3.387   9.708  0.8646 -0.4187  0.2026
  818MPD2    C512039   2.540   3.477   9.775  0.1752 -0.1012 -0.0686
  818MPD2     H12040   2.747   3.255   9.985 -0.1416 -0.1822 -0.8887
  818MPD2    H112041   2.622   3.380   9.600  0.7177  2.5448  0.0041
  818MPD2    H212042   2.465   3.556   9.953 -0.9138  0.9130 -3.2002
  818MPD2    H312043   2.485   3.545   9.711 -0.0917  0.3064  0.5922
  818MPD2     N12044   2.768   3.211   9.716 -0.0031 -0.1286  0.2156
  818MPD2    H512045   2.754   3.205   9.615 -1.0366  0.6330  0.3095
  818MPD2    N112046   2.606   3.407  10.134  0.1178 -0.1864  0.4409
  818MPD2    H712047   2.645   3.326  10.182  1.0150  0.0552  0.1224
  819MPD2     C12048   1.270   0.357  15.657  0.5099 -0.1783  0.2504
  819MPD2    C112049   1.348   0.248  15.628  0.2931 -0.6259 -0.0474
  819MPD2    C212050   1.477   0.246  15.666  0.1954  0.9054 -0.0293
  819MPD2    C312051   1.525   0.341  15.749  1.0310  0.2986  0.0685
  819MPD2    C412052   1.439   0.440  15.801  0.5129 -0.3811 -0.0151
  819MPD2    C512053   1.317   0.453  15.750 -0.1869  0.0674 -0.5432
  819MPD2     H12054   1.544   0.169  15.628  1.1439  1.9627 -0.4669
  819MPD2    H112055   1.478   0.509  15.875  1.2521  0.6914 -1.4131
  819MPD2    H212056   1.167   0.368  15.625  0.7630 -0.2800 -0.5963
  819MPD2    H312057   1.255   0.539  15.772  1.1478  0.0395  3.3553
  819MPD2     N12058   1.662   0.324  15.784  0.0675 -0.2248  0.7007
  819MPD2    H512059   1.706   0.241  15.745 -2.1874 -0.7731 -0.6774
  819MPD2    N112060   1.294   0.142  15.548  0.8675  0.3948 -0.2849
  819MPD2    H712061   1.205   0.161  15.503  0.4471  1.0760  0.8223
  820MPD2     C12062   0.512   4.682  15.013 -0.0736  0.2295  0.2249
  820MPD2    C112063   0.581   0.066  15.065  0.2922  1.2133 -0.4440
  820MPD2    C212064   0.714   0.052  15.108  0.3622 -0.5632  0.0646
  820MPD2    C312065   0.780   4.657  15.098 -0.7771 -0.2248 -0.6370
  820MPD2    C412066   0.706   4.548  15.044 -0.1541  0.2977  0.2184
  820MPD2    C512067   0.581   4.566  14.998 -1.0827 -0.2771 -0.6723
  820MPD2     H12068   0.773   0.136  15.142 -0.4856  0.2021 -0.3341
  820MPD2    H112069   0.738   4.444  15.041  0.9148  0.5746  1.5643
  820MPD2    H212070   0.407   4.684  14.987  0.2117 -3.2275 -1.2867
  820MPD2    H312071   0.530   4.475  14.968 -1.1457 -0.7880  0.9889
  820MPD2     N12072   0.919   4.631  15.137  0.3935 -0.2889 -0.8112
  820MPD2    H512073   0.952   4.536  15.127 -0.6912 -0.8667  1.0936
  820MPD2    N112074   0.508   0.187  15.080  0.0439 -0.3644  0.2490
  820MPD2    H712075   0.421   0.189  15.028  0.9469 -0.5125 -1.2709
  821MPD2     C12076   0.489   1.892  13.127  0.0328 -0.6200 -0.4764
  821MPD2    C112077   0.605   1.821  13.124 -1.1901 -0.4539 -0.2284
  821MPD2    C212078   0.684   1.834  13.015  0.2435  0.8269  0.1959
  821MPD2    C312079   0.643   1.911  12.908  0.5848  0.8747 -0.6376
  821MPD2    C412080   0.531   1.988  12.912  0.3002 -0.2799 -0.0124
  821MPD2    C512081   0.445   1.971  13.024 -0.2283 -0.1807  0.2749
  821MPD2     H12082   0.786   1.798  13.024 -0.5450 -1.5740 -0.3635
  821MPD2    H112083   0.499   2.053  12.832  0.6312 -1.7888 -1.3683
  821MPD2    H212084   0.431   1.882  13.218 -1.4551  0.1250 -1.3497
  821MPD2    H312085   0.360   2.037  13.032 -0.5620 -0.2999 -2.2458
  821MPD2     N12086   0.722   1.917  12.794 -0.6864 -0.9725  0.2096
  821MPD2    H512087   0.695   1.980  12.720  0.1331 -1.7469 -0.7407
  821MPD2    N112088   0.654   1.746  13.233  0.7117 -0.1678  0.1710
  821MPD2    H712089   0.748   1.711  13.213 -0.5768 -2.7299 -1.3727
  822MPD2     C12090   2.088   1.847  15.680  0.6170 -0.2662 -0.2251
  822MPD2    C112091   2.057   1.774  15.798  0.0031 -0.4284 -0.4605
  822MPD2    C212092   1.974   1.835  15.890 -0.2515 -0.0664  0.3485
  822MPD2    C312093   1.941   1.970  15.886  0.3405 -0.4862 -0.1473
  822MPD2    C412094   1.968   2.041  15.773  0.2142  0.0964  0.0184
  822MPD2    C512095   2.036   1.975  15.669  0.1944 -0.4757  0.2456
  822MPD2     H12096   1.931   1.779  15.972  1.3579  0.7545  1.7600
  822MPD2    H112097   1.937   2.142  15.751 -2.0868 -0.5863  0.1802
  822MPD2    H212098   2.152   1.810  15.601  1.5705 -0.8985  0.8400
  822MPD2    H312099   2.040   2.032  15.577 -1.6726 -1.5867 -0.5355
  822MPD2     N12100   1.879   2.031  15.997  0.4187  0.4794 -0.0576
  822MPD2    H512101   1.844   1.968  16.069  1.5282  1.3484  1.2373
  822MPD2    N112102   2.101   1.644  15.818 -0.0837 -0.2796 -0.6136
  822MPD2    H712103   2.061   1.601  15.900 -3.7079  0.0657 -2.2088
  823MPD2     C12104   1.582   2.087  16.750  0.0685  0.3897 -0.0513
  823MPD2    C112105   1.580   2.010  16.634  0.0474 -0.1154  0.2412
  823MPD2    C212106   1.580   1.873  16.644  0.0612  0.0345 -0.0792
  823MPD2    C312107   1.569   1.806  16.767 -0.4074  0.1135 -0.1337
  823MPD2    C412108   1.565   1.883  16.878 -0.5943 -0.7044  0.0756
  823MPD2    C512109   1.581   2.021  16.868  0.2398  0.1442 -0.6257
  823MPD2     H12110   1.585   1.808  16.557 -1.9780 -0.9423  0.5356
  823MPD2    H112111   1.550   1.850  16.980 -0.5050  0.1517  0.3663
  823MPD2    H212112   1.588   2.195  16.750 -0.9635  0.4424 -0.7173
  823MPD2    H312113   1.562   2.075  16.960  1.3742  3.0370 -2.1154
  823MPD2     N12114   1.572   1.666  16.783  0.0264  0.6563 -0.2844
  823MPD2    H512115   1.577   1.628  16.877  1.3146 -0.2308 -0.7223
  823MPD2    N112116   1.594   2.087  16.518 -0.0973 -0.0546 -0.0340
  823MPD2    H712117   1.592   2.186  16.540  0.9985  0.4949 -2.4048
  824MPD2     C12118   2.176   0.884  15.575  0.8439 -0.1499  0.6296
  824MPD2    C112119   2.261   0.988  15.588 -0.9149  0.3080 -0.7142
  824MPD2    C212120   2.384   1.000  15.521 -0.4093 -0.0960 -0.6498
  824MPD2    C312121   2.425   0.895  15.438  0.6343  0.2014  0.5336
  824MPD2    C412122   2.347   0.780  15.440  0.8119  0.1987 -0.3705
  824MPD2    C512123   2.221   0.783  15.499 -0.0302 -0.3002  0.7703
  824MPD2     H12124   2.448   1.088  15.525  0.2224 -0.5560 -0.5333
  824MPD2    H112125   2.376   0.687  15.392  0.9524 -0.4742  0.9976
  824MPD2    H212126   2.076   0.883  15.616  0.9964 -0.1666  0.9967
  824MPD2    H312127   2.152   0.702  15.480  0.6636 -0.8961  0.8092
  824MPD2     N12128   2.562   0.899  15.396 -0.7286  0.0108 -0.4621
  824MPD2    H512129   2.617   0.981  15.416  0.7400 -1.1371  0.2164
  824MPD2    N112130   2.235   1.094  15.680  0.0561  0.4000  0.2208
  824MPD2    H712131   2.286   1.181  15.688 -0.8682  1.2187 -2.7829
  825MPD2     C12132   3.256   1.186  15.020  0.7254  0.6155  0.3347
  825MPD2    C112133   3.156   1.202  15.105  0.1124  0.6067 -0.1544
  825MPD2    C212134   3.124   1.330  15.146  0.4297  0.2979 -0.1668
  825MPD2    C312135   3.180   1.441  15.094 -0.6835  0.2188 -0.0371
  825MPD2    C412136   3.269   1.425  14.991  0.0179  0.0824 -0.2208
  825MPD2    C512137   3.319   1.300  14.965 -0.1475 -0.5089  0.0089
  825MPD2     H12138   3.029   1.346  15.197 -0.5862 -1.8376 -1.3619
  825MPD2    H112139   3.314   1.508  14.938  1.4949 -0.7184 -0.2267
  825MPD2    H212140   3.302   1.090  14.997 -0.4256  0.1939 -0.2452
  825MPD2    H312141   3.390   1.277  14.887 -1.7989  1.5774 -2.1138
  825MPD2     N12142   3.150   1.574  15.133  0.0140  0.1318 -0.1272
  825MPD2    H512143   3.209   1.643  15.087 -1.3397  1.1697 -0.2941
  825MPD2    N112144   3.100   1.088  15.166  0.1651 -0.2486  0.0888
  825MPD2    H712145   3.122   1.002  15.117 -0.1119  1.1932 -2.5980
  826MPD2     C12146   2.672   0.746  13.518 -0.0412 -0.1774 -0.3504
  826MPD2    C112147   2.652   0.774  13.383  0.4365  0.0212  0.4371
  826MPD2    C212148   2.578   0.884  13.343  0.3522 -0.1807  0.5855
  826MPD2    C312149   2.527   0.964  13.446 -0.0424  0.0775 -0.6358
  826MPD2    C412150   2.542   0.930  13.582  0.6417 -0.1183  0.8937
  826MPD2    C512151   2.615   0.820  13.619 -0.3215  0.0402  0.1419
  826MPD2     H12152   2.580   0.915  13.239 -2.0746  0.7250  0.8104
  826MPD2    H112153   2.491   0.980  13.663 -0.6061  0.6612 -0.3819
  826MPD2    H212154   2.736   0.667  13.557  1.0165  0.8727  0.0301
  826MPD2    H312155   2.616   0.790  13.723  2.7790 -1.2828 -0.2783
  826MPD2     N12156   2.440   1.070  13.429  0.1633  0.3286 -0.3563
  826MPD2    H512157   2.404   1.114  13.513  0.5543 -2.0240  1.0339
  826MPD2    N112158   2.711   0.686  13.289  0.1794 -0.0786  0.3158
  826MPD2    H712159   2.786   0.627  13.322  0.3581 -0.9410 -1.6126
  827MPD2     C12160   3.057   2.057  10.268  0.2330  0.8382  0.3251
  827MPD2    C112161   3.087   1.935  10.321  0.3103  0.3543  0.4123
  827MPD2    C212162   2.984   1.853  10.361  0.3354 -0.4478  0.1729
  827MPD2    C312163   2.848   1.882  10.335 -1.2640  0.0841  0.3153
  827MPD2    C412164   2.820   1.996  10.259  0.5275  0.5518 -0.2954
  827MPD2    C512165   2.921   2.084  10.236  0.2665  0.6424  0.5891
  827MPD2     H12166   3.009   1.763  10.416 -0.5198 -0.4752  0.5280
  827MPD2    H112167   2.723   2.035  10.231  0.4080  0.8545  0.5243
  827MPD2    H212168   3.128   2.138  10.253  0.3613  0.6565 -0.0449
  827MPD2    H312169   2.895   2.188  10.217 -0.9911  0.4534  1.3134
  827MPD2     N12170   2.751   1.793  10.390 -0.0461 -0.3072 -0.4993
  827MPD2    H512171   2.779   1.700  10.420  3.3328  0.8546 -0.0888
  827MPD2    N112172   3.222   1.914  10.350  0.0241  0.0466 -0.0691
  827MPD2    H712173   3.293   1.986  10.335 -0.0389 -0.1158 -1.1784
  828MPD2     C12174   1.492   1.769  12.258  0.0131 -0.3096 -0.0906
  828MPD2    C112175   1.515   1.863  12.150 -0.3370  0.7843 -0.1303
  828MPD2    C212176   1.639   1.857  12.086  0.4779  0.2868 -0.2326
  828MPD2    C312177   1.730   1.759  12.121  0.0001 -0.1468 -0.8328
  828MPD2    C412178   1.707   1.672  12.227 -0.2072 -0.0990 -0.0280
  828MPD2    C512179   1.583   1.672  12.283  0.9185 -0.0927  0.1041
  828MPD2     H12180   1.666   1.928  12.008 -0.0735  2.3954  1.5021
  828MPD2    H112181   1.773   1.591  12.256  0.7297  1.0223  0.9845
  828MPD2    H212182   1.411   1.766  12.330  0.0243  1.2960  0.0002
  828MPD2    H312183   1.564   1.598  12.360 -1.9698  1.2759  0.6874
  828MPD2     N12184   1.843   1.727  12.040  0.2133 -0.8480  0.2907
  828MPD2    H512185   1.899   1.651  12.076 -0.9952 -1.8260  0.1008
  828MPD2    N112186   1.419   1.955  12.107 -0.6434 -0.5041 -0.3706
  828MPD2    H712187   1.441   2.018  12.031  2.1963 -0.3078  0.6180
  829MPD2     C12188   1.676   2.651  11.740  0.2892 -0.3828  0.1340
  829MPD2    C112189   1.543   2.650  11.717 -0.0798 -0.2890  0.1656
  829MPD2    C212190   1.462   2.566  11.784  0.7104  0.3608 -0.3661
  829MPD2    C312191   1.520   2.490  11.889  0.2794  0.3701  0.2864
  829MPD2    C412192   1.654   2.495  11.912 -0.3381 -0.0632 -0.0902
  829MPD2    C512193   1.735   2.581  11.840  0.0181 -0.4784 -0.3475
  829MPD2     H12194   1.355   2.577  11.772  0.5242 -2.2955 -0.9659
  829MPD2    H112195   1.699   2.432  11.988 -0.5703  0.0648  0.1526
  829MPD2    H212196   1.736   2.728  11.693 -0.0425  1.2713  2.4189
  829MPD2    H312197   1.842   2.590  11.856 -0.1884  0.6757  0.3563
  829MPD2     N12198   1.446   2.405  11.970  0.4762  0.0327 -0.2843
  829MPD2    H512199   1.494   2.340  12.032  1.2175  1.7411  0.9230
  829MPD2    N112200   1.502   2.738  11.615  0.0606  0.3689  0.9557
  829MPD2    H712201   1.567   2.801  11.569  0.6651 -1.4784 -0.7115
  830MPD2     C12202   2.476   0.310  15.634  0.2207  0.7464  0.5145
  830MPD2    C112203   2.346   0.296  15.593  0.5314  0.2109 -0.0278
  830MPD2    C212204   2.307   0.323  15.467  0.1219 -1.3136  0.4120
  830MPD2    C312205   2.403   0.387  15.379 -0.6620  0.9147 -0.2938
  830MPD2    C412206   2.537   0.397  15.418  0.6835  0.5221  0.1482
  830MPD2    C512207   2.572   0.352  15.543 -0.2795 -0.4585 -0.2928
  830MPD2     H12208   2.206   0.323  15.429 -0.0083 -0.0597  0.7504
  830MPD2    H112209   2.614   0.442  15.357  1.0436  1.1977  1.0937
  830MPD2    H212210   2.500   0.282  15.736 -1.8871 -0.5762  0.6358
  830MPD2    H312211   2.672   0.373  15.579 -0.0170 -0.6228 -0.9248
  830MPD2     N12212   2.369   0.452  15.257  0.2850  0.4688 -0.6144
  830MPD2    H512213   2.443   0.501  15.208  1.8522 -1.6178 -0.3223
  830MPD2    N112214   2.258   0.273  15.708 -0.1222  0.1833  0.1957
  830MPD2    H712215   2.291   0.263  15.803  0.1206  1.6034  0.2613
  831MPD2     C12216   2.031   1.990  16.382  0.0010  0.1445  0.2798
  831MPD2    C112217   2.066   1.922  16.271  1.0400 -0.7419  0.1672
  831MPD2    C212218   2.004   1.803  16.239 -0.4410 -0.1718  0.4403
  831MPD2    C312219   1.893   1.754  16.305  0.2648  0.0066  0.3967
  831MPD2    C412220   1.866   1.817  16.427  0.7610 -0.0464  0.2620
  831MPD2    C512221   1.935   1.932  16.455 -0.2044  0.5480  0.6269
  831MPD2     H12222   2.036   1.743  16.155 -0.7891 -2.6627  2.0729
  831MPD2    H112223   1.789   1.785  16.496  1.0775 -0.5463  0.3838
  831MPD2    H212224   2.079   2.076  16.429  1.4667  0.0210 -0.9760
  831MPD2    H312225   1.898   1.985  16.542  1.6918 -0.2912  1.9598
  831MPD2     N12226   1.824   1.636  16.275 -0.2509 -0.3979 -0.6165
  831MPD2    H512227   1.744   1.615  16.335  1.8493 -0.0232  2.3191
  831MPD2    N112228   2.168   1.955  16.179  0.3045 -0.7726  0.5074
  831MPD2    H712229   2.199   1.879  16.118  0.4395  0.1316 -0.5538
  832MPD2     C12230   0.594   3.108  17.210 -0.8619 -0.5536  0.7867
  832MPD2    C112231   0.535   3.231  17.241 -0.2067  0.2644 -0.6953
  832MPD2    C212232   0.438   3.272  17.151  0.1493  0.0943 -0.5977
  832MPD2    C312233   0.382   3.184  17.057 -0.3619 -0.0595 -0.6936
  832MPD2    C412234   0.438   3.066  17.035 -0.7092 -0.1908 -0.0141
  832MPD2    C512235   0.553   3.031  17.107 -0.9809 -0.8131 -0.1986
  832MPD2     H12236   0.374   3.355  17.178  0.4642 -0.3474  1.4814
  832MPD2    H112237   0.397   3.000  16.959  0.3231 -0.2902 -0.4806
  832MPD2    H212238   0.666   3.066  17.280  1.9065  1.8976 -0.6239
  832MPD2    H312239   0.592   2.931  17.091 -0.6985 -0.6292 -0.6658
  832MPD2     N12240   0.273   3.225  16.977  0.2600  0.2403 -0.1301
  832MPD2    H512241   0.220   3.153  16.929  0.8344  0.1236 -0.5974
  832MPD2    N112242   0.570   3.295  17.360  0.1119  0.1695  0.4104
  832MPD2    H712243   0.652   3.258  17.409  1.2311  3.4064  1.0145
  833MPD2     C12244   2.164   4.542  13.082 -0.2362  0.5674  0.4380
  833MPD2    C112245   2.220   4.601  12.970 -0.5514 -0.0216  0.1727
  833MPD2    C212246   2.305   4.526  12.890  0.3868 -0.5742  0.5049
  833MPD2    C312247   2.335   4.390  12.916 -0.0074 -0.4342 -0.4180
  833MPD2    C412248   2.266   4.330  13.020 -0.0520 -0.2134 -0.3316
  833MPD2    C512249   2.186   4.410  13.104  0.7423 -0.5226 -0.6463
  833MPD2     H12250   2.358   4.581  12.813 -1.8358 -1.5018 -1.6818
  833MPD2    H112251   2.274   4.222  13.029 -0.7053 -0.3442 -1.3674
  833MPD2    H212252   2.097   4.601  13.144 -2.0263 -0.8851 -0.1242
  833MPD2    H312253   2.121   4.366  13.178  1.7756 -2.2657 -0.7878
  833MPD2     N12254   2.413   4.306  12.836 -0.3177  0.5557 -0.7959
  833MPD2    H512255   2.423   4.209  12.862  1.0080  1.6568  2.8927
  833MPD2    N112256   2.182   0.010  12.936  0.0219  0.4835 -0.2812
  833MPD2    H712257   2.115   0.049  13.002 -1.4403 -1.2572 -0.7448
  834MPD2     C12258   2.365   3.553  12.159 -1.0110  0.3288 -0.6247
  834MPD2    C112259   2.387   3.660  12.075  0.6251 -0.0516  0.2075
  834MPD2    C212260   2.422   3.778  12.131 -0.4910 -0.2393  0.0851
  834MPD2    C312261   2.421   3.797  12.267  0.4677 -0.4085 -0.7588
  834MPD2    C412262   2.391   3.693  12.352 -0.6746 -0.6766  0.3377
  834MPD2    C512263   2.358   3.572  12.292  0.4072 -0.0663  0.2487
  834MPD2     H12264   2.443   3.861  12.064 -0.4182 -0.8448 -0.6416
  834MPD2    H112265   2.396   3.703  12.460 -2.6051 -1.2751  0.4816
  834MPD2    H212266   2.354   3.454  12.116  0.0714 -0.8512  1.8333
  834MPD2    H312267   2.326   3.492  12.358 -0.7971  0.2744  0.0699
  834MPD2     N12268   2.464   3.920  12.318  0.4591  0.1619  0.5046
  834MPD2    H512269   2.497   3.992  12.255 -0.1128 -0.0799 -0.0651
  834MPD2    N112270   2.387   3.626  11.936  0.1897 -0.2863 -0.2512
  834MPD2    H712271   2.376   3.527  11.917 -0.1626 -0.0738 -1.1538
  835MPD2     C12272   2.443   2.644  11.291 -0.4329 -0.1966  0.3948
  835MPD2    C112273   2.333   2.725  11.267 -0.1404 -0.0522  0.2158
  835MPD2    C212274   2.270   2.770  11.379 -0.3018 -0.3998 -0.0799
  835MPD2    C312275   2.313   2.756  11.509 -0.5280  0.4246 -0.1648
  835MPD2    C412276   2.419   2.678  11.528  0.3012 -0.4440  0.1375
  835MPD2    C512277   2.483   2.614  11.420  0.3756  0.0590  0.3388
  835MPD2     H12278   2.188   2.838  11.361  1.6355  1.9514 -0.1404
  835MPD2    H112279   2.456   2.661  11.628 -1.3173  1.1737  0.9957
  835MPD2    H212280   2.507   2.597  11.218  0.7123  0.1713  1.1593
  835MPD2    H312281   2.561   2.540  11.431 -0.4986 -0.7543  1.0703
  835MPD2     N12282   2.242   2.814  11.618 -0.0304  0.4138  0.3094
  835MPD2    H512283   2.261   2.774  11.710 -0.4013 -1.5032 -0.4644
  835MPD2    N112284   2.270   2.744  11.142  0.0517  0.2295 -0.0319
  835MPD2    H712285   2.184   2.798  11.138  0.9446  1.4716 -2.8912
  836MPD2     C12286   1.522   3.185  11.583 -0.0782 -0.3620 -0.2462
  836MPD2    C112287   1.556   3.110  11.694 -0.3333  0.1972 -0.8939
  836MPD2    C212288   1.450   3.041  11.755  0.3316 -0.3369 -0.0980
  836MPD2    C312289   1.318   3.046  11.723  0.4323 -0.3161  0.2051
  836MPD2    C412290   1.295   3.108  11.602  0.5614  1.0964 -0.1722
  836MPD2    C512291   1.395   3.170  11.528  0.5413  0.2660  0.5607
  836MPD2     H12292   1.478   2.962  11.825  0.6866 -0.0372  0.0964
  836MPD2    H112293   1.197   3.095  11.558  0.2564  1.6578  0.3405
  836MPD2    H212294   1.605   3.235  11.535 -0.0649 -1.4254 -1.3345
  836MPD2    H312295   1.365   3.207  11.430 -0.8642 -0.0075  0.8860
  836MPD2     N12296   1.220   2.974  11.794  0.2041  0.5794  0.6148
  836MPD2    H512297   1.121   2.984  11.774  0.4388 -0.7688 -1.1298
  836MPD2    N112298   1.691   3.101  11.727 -0.5950 -1.0046  0.1451
  836MPD2    H712299   1.761   3.140  11.664 -1.2573 -0.2225 -0.1018
  837MPD2     C12300   0.488   2.269  10.200 -0.1172 -0.4957 -0.1363
  837MPD2    C112301   0.400   2.336  10.115  0.0271 -0.1305  0.1676
  837MPD2    C212302   0.399   2.470  10.123 -0.5414  0.3159 -0.3596
  837MPD2    C312303   0.460   2.544  10.223  0.1897 -0.3340 -0.0687
  837MPD2    C412304   0.519   2.473  10.325  0.0448  0.7248 -1.3087
  837MPD2    C512305   0.536   2.343  10.301  0.2585 -0.4805 -0.3437
  837MPD2     H12306   0.340   2.516  10.045 -0.0158  1.2131 -0.2220
  837MPD2    H112307   0.573   2.512  10.410 -4.4068  1.7459  1.0525
  837MPD2    H212308   0.515   2.165  10.206 -0.0301 -0.3776  1.3558
  837MPD2    H312309   0.599   2.285  10.367 -1.0523 -1.0521  0.4127
  837MPD2     N12310   0.441   2.683  10.222 -0.4812  0.4509 -0.3936
  837MPD2    H512311   0.385   2.724  10.148 -0.2471 -0.0179 -0.8289
  837MPD2    N112312   0.328   2.273  10.009 -0.8288  0.9933  0.4921
  837MPD2    H712313   0.260   2.336   9.968  1.8898  2.3879 -1.8296
  838MPD2     C12314   3.194   4.190  11.347 -0.0216 -0.5185  0.1092
  838MPD2    C112315   3.199   4.246  11.472  0.0775 -0.1873 -0.3289
  838MPD2    C212316   3.077   4.245  11.540 -0.1100 -0.3299 -0.2533
  838MPD2    C312317   2.964   4.195  11.488  0.3156 -1.2713  0.4105
  838MPD2    C412318   2.962   4.125  11.372  0.2265 -0.0143  0.0187
  838MPD2    C512319   3.078   4.124  11.305  0.3406 -1.2377  0.0676
  838MPD2     H12320   3.077   4.299  11.634  2.1982  1.5870 -1.3536
  838MPD2    H112321   2.874   4.082  11.326  1.3388 -1.5052 -0.7139
  838MPD2    H212322   3.273   4.186  11.274  1.3166 -0.6867  1.5687
  838MPD2    H312323   3.073   4.093  11.201 -0.0103 -1.1043  0.0442
  838MPD2     N12324   2.846   4.203  11.573 -0.3194  0.1104 -0.2997
  838MPD2    H512325   2.846   4.263  11.655 -2.0408 -0.1535 -0.1149
  838MPD2    N112326   3.306   4.316  11.533  0.2619  0.1683 -0.4389
  838MPD2    H712327   3.297   4.323  11.634  1.3744  1.2724 -0.4155
  839MPD2     C12328   3.381   4.024  12.311 -0.3021 -0.2529 -0.1237
  839MPD2    C112329   3.342   3.971  12.190  0.6014 -0.2630 -0.8047
  839MPD2    C212330   3.376   4.047  12.077  0.1795  0.7293 -0.6020
  839MPD2    C312331   3.441   4.165  12.083 -0.1954  0.3443 -0.0160
  839MPD2    C412332   3.474   4.221  12.207  0.1881 -0.2068 -0.1257
  839MPD2    C512333   3.431   4.152  12.321 -0.3495 -0.7602 -0.7372
  839MPD2     H12334   3.347   4.001  11.983 -1.3846 -0.7613  0.6167
  839MPD2    H112335   3.522   4.319  12.214 -1.2318  0.5316 -0.7578
  839MPD2    H212336   3.339   3.974  12.398  0.1923  0.1822  0.3606
  839MPD2    H312337   3.442   4.203  12.416 -2.9532  2.1615 -2.0213
  839MPD2     N12338   3.463   4.229  11.962  0.1920  0.0476 -0.0066
  839MPD2    H512339   3.435   4.177  11.880  1.1432 -2.1013  1.0158
  839MPD2    N112340   3.267   3.857  12.175  0.3697 -0.7526  0.6532
  839MPD2    H712341   3.216   3.843  12.089 -0.2214 -1.5243  1.1226
  840MPD2     C12342   3.657   2.294  10.194  0.1334  0.1224 -0.0760
  840MPD2    C112343   3.713   2.244  10.308 -0.9379  0.3203  0.6509
  840MPD2    C212344   3.813   2.314  10.373  0.1555  0.0493 -0.1292
  840MPD2    C312345   3.865   2.433  10.315 -0.5685 -0.4239 -0.4610
  840MPD2    C412346   3.799   2.494  10.208 -0.5445 -0.0285 -0.4514
  840MPD2    C512347   3.693   2.419  10.152  0.9787  0.1123  0.7611
  840MPD2     H12348   3.865   2.266  10.456  0.8397 -1.0634 -1.1937
  840MPD2    H112349   3.822   2.591  10.163  0.4341 -0.9144 -1.8507
  840MPD2    H212350   3.578   2.247  10.137 -0.1736 -2.7434  2.7290
  840MPD2    H312351   3.637   2.464  10.070  2.0060 -1.7045 -0.9131
  840MPD2     N12352   3.973   2.498  10.381 -0.2420  0.2061 -0.1100
  840MPD2    H512353   3.991   2.473  10.477 -2.0696 -0.3674  0.0860
  840MPD2    N112354   3.661   2.119  10.360  0.1249 -0.4408 -0.7136
  840MPD2    H712355   3.597   2.076  10.295 -1.6585  0.8993  0.1564
  841MPD2     C12356   4.021   1.354  14.655 -0.3070 -0.3720 -0.8500
  841MPD2    C112357   3.907   1.420  14.640  0.2245 -0.4360  0.5053
  841MPD2    C212358   3.904   1.558  14.633 -0.2099 -0.6697 -0.7839
  841MPD2    C312359   4.020   1.626  14.630  0.1615 -0.4005 -0.4294
  841MPD2    C412360   4.136   1.557  14.650  0.3363  0.5479  0.8543
  841MPD2    C512361   4.134   1.425  14.676 -0.4818  0.0769  0.7735
  841MPD2     H12362   3.806   1.606  14.637  0.5992  0.8276  0.7749
  841MPD2    H112363   4.228   1.607  14.677 -0.0386  1.6092  0.1972
  841MPD2    H212364   4.029   1.246  14.661 -2.0677 -0.4984 -0.8477
  841MPD2    H312365   4.226   1.375  14.705 -0.4922  1.2057  2.7341
  841MPD2     N12366   4.009   1.768  14.624  0.5888  0.8421 -0.6408
  841MPD2    H512367   3.921   1.819  14.630 -0.0414 -0.5182  2.0846
  841MPD2    N112368   3.784   1.358  14.629 -0.4833 -0.4593 -0.0808
  841MPD2    H712369   3.699   1.409  14.610  0.5457  1.2959  0.0227
  842MPD2     C12370   3.631   3.153  16.665 -0.0074  0.4671  0.3990
  842MPD2    C112371   3.729   3.255  16.655  0.0376  0.7486 -0.0368
  842MPD2    C212372   3.820   3.266  16.754  0.7003 -0.7443  1.0315
  842MPD2    C312373   3.825   3.173  16.860 -1.0320 -0.5094 -0.1390
  842MPD2    C412374   3.734   3.072  16.868 -0.1675 -0.2970 -0.1543
  842MPD2    C512375   3.637   3.063  16.774  0.4129  0.2465  0.6536
  842MPD2     H12376   3.907   3.330  16.743 -0.6732  1.3852  2.5460
  842MPD2    H112377   3.740   3.001  16.949  2.8042 -0.6741 -0.7060
  842MPD2    H212378   3.540   3.152  16.605  1.4417  0.4004 -1.8316
  842MPD2    H312379   3.560   2.988  16.769  0.0016  0.8787 -2.2005
  842MPD2     N12380   3.921   3.168  16.959  0.0956  0.2158 -0.6229
  842MPD2    H512381   3.921   3.087  17.020 -2.1749  0.9610  0.3434
  842MPD2    N112382   3.712   3.345  16.549 -0.3214 -0.2271 -0.3236
  842MPD2    H712383   3.626   3.335  16.496  0.1696  0.1732 -1.1878
  843MPD2     C12384   1.403   3.662  17.332 -0.2683 -0.4880 -0.0039
  843MPD2    C112385   1.445   3.581  17.437  0.0540  0.6371  0.0493
  843MPD2    C212386   1.569   3.597  17.498 -0.4387 -0.0174  0.2737
  843MPD2    C312387   1.653   3.692  17.444  0.4225  0.3238  0.0139
  843MPD2    C412388   1.611   3.767  17.334  0.3879  0.4345 -0.4386
  843MPD2    C512389   1.486   3.759  17.280  0.3237 -0.1528  0.3288
  843MPD2     H12390   1.581   3.558  17.598 -1.8407  0.0347  0.4675
  843MPD2    H112391   1.686   3.840  17.308 -0.0569  0.9472 -0.2636
  843MPD2    H212392   1.314   3.630  17.278  0.7234  0.5812 -2.2448
  843MPD2    H312393   1.458   3.810  17.189  0.6575 -0.4621  0.0555
  843MPD2     N12394   1.772   3.731  17.509  0.2622 -0.0681 -0.8784
  843MPD2    H512395   1.824   3.809  17.470  1.7951 -1.9225 -2.4807
  843MPD2    N112396   1.346   3.488  17.481  0.0912  1.0971  0.3327
  843MPD2    H712397   1.259   3.492  17.430  0.5874  0.3790 -0.5768
  844MPD2     C12398   4.715   3.031  16.493  0.5473  0.3221  0.2905
  844MPD2    C112399   0.088   2.939  16.506 -0.1227  0.6119  0.2016
  844MPD2    C212400   0.213   2.981  16.546  0.4624 -0.0707 -0.8887
  844MPD2    C312401   0.236   3.114  16.563  0.0377  0.2812 -0.0309
  844MPD2    C412402   0.131   3.207  16.559  1.0015 -0.2227  0.4787
  844MPD2    C512403   0.006   3.159  16.538  0.2951  0.1600  0.5915
  844MPD2     H12404   0.296   2.911  16.547  0.5309  0.0148  0.3057
  844MPD2    H112405   0.143   3.314  16.573 -1.0879  0.1215 -0.4597
  844MPD2    H212406   4.611   3.004  16.478  0.8216 -0.4871 -0.1517
  844MPD2    H312407   4.642   3.219  16.537  1.0729  1.3073 -0.2030
  844MPD2     N12408   0.362   3.162  16.603  0.0265  0.1454 -0.4140
  844MPD2    H512409   0.433   3.090  16.611 -0.0397  0.2813  1.4051
  844MPD2    N112410   0.068   2.800  16.482 -0.3848  0.2801 -0.5530
  844MPD2    H712411   0.155   2.751  16.493  0.0290  1.1282  0.0145
  845MPD2     C12412   0.562   3.939  17.162 -0.0019  0.6529  0.0983
  845MPD2    C112413   0.445   3.865  17.153  0.9665  0.7168  0.1229
  845MPD2    C212414   0.449   3.735  17.093 -0.0178 -0.5552  0.8690
  845MPD2    C312415   0.577   3.675  17.060  1.2532  0.0285 -0.4140
  845MPD2    C412416   0.689   3.753  17.089 -0.0410  0.1071  0.4366
  845MPD2    C512417   0.683   3.882  17.140  0.5233  0.4134 -0.2392
  845MPD2     H12418   0.364   3.671  17.068  0.8960 -1.5546  0.2956
  845MPD2    H112419   0.782   3.723  17.043  1.3767  2.6996  1.5905
  845MPD2    H212420   0.555   4.043  17.193  0.2806  0.9172 -0.7087
  845MPD2    H312421   0.768   3.948  17.152  1.5285 -1.0694  0.8657
  845MPD2     N12422   0.587   3.548  16.987  0.1794  0.1832 -0.3587
  845MPD2    H512423   0.499   3.499  16.971  0.9145 -1.9250  2.0302
  845MPD2    N112424   0.320   3.930  17.183 -0.0715  0.0058  0.2966
  845MPD2    H712425   0.321   4.024  17.221  1.3234 -0.0346  0.3596
  846MPD2     C12426   1.678   4.035  13.407  0.4583 -0.3120  0.8074
  846MPD2    C112427   1.636   4.159  13.464  0.2012  0.1349  0.0609
  846MPD2    C212428   1.645   4.181  13.603 -0.4375 -0.0495 -0.9823
  846MPD2    C312429   1.691   4.077  13.685  0.2644  0.1148 -0.5010
  846MPD2    C412430   1.728   3.962  13.622 -0.1391 -0.5230  0.5633
  846MPD2    C512431   1.711   3.941  13.489  0.5489 -0.8138 -0.0624
  846MPD2     H12432   1.614   4.274  13.650 -0.8825 -0.2036 -0.9701
  846MPD2    H112433   1.764   3.877  13.680 -1.9365 -3.3366 -2.4087
  846MPD2    H212434   1.676   4.022  13.299 -3.1454 -1.7754  1.0576
  846MPD2    H312435   1.734   3.844  13.446  1.0093 -1.0047  0.6078
  846MPD2     N12436   1.686   4.088  13.829 -0.1423  0.5317  0.5786
  846MPD2    H512437   1.658   4.177  13.868  0.9716  1.3082 -0.4333
  846MPD2    N112438   1.590   4.269  13.387  0.0392 -0.1857 -0.1324
  846MPD2    H712439   1.582   4.357  13.437  0.8704 -1.5638  2.4758
  847MPD2     C12440   1.933   0.292  13.695  0.4139  0.2989 -0.4665
  847MPD2    C112441   1.953   0.367  13.814  0.6549  0.0609 -0.4923
  847MPD2    C212442   2.009   0.306  13.920 -0.4981 -0.1052  0.7906
  847MPD2    C312443   2.019   0.169  13.926 -0.0628 -0.0663 -0.0611
  847MPD2    C412444   1.964   0.095  13.823  0.5009 -0.4612 -0.0456
  847MPD2    C512445   1.928   0.150  13.701  0.8040 -0.5024 -0.6287
  847MPD2     H12446   2.034   0.365  14.008  1.6717  1.3004 -0.7611
  847MPD2    H112447   1.957   4.713  13.831  2.0787 -0.4784  1.2395
  847MPD2    H212448   1.908   0.347  13.605  1.0911  0.4379 -0.5700
  847MPD2    H312449   1.898   0.095  13.613 -0.4230 -0.5986 -0.1420
  847MPD2     N12450   2.063   0.121  14.056  0.0938  0.0921 -0.3161
  847MPD2    H512451   2.097   0.187  14.125 -0.8087  1.6629 -1.4036
  847MPD2    N112452   1.936   0.504  13.838  1.0055  0.2635 -0.0884
  847MPD2    H712453   1.957   0.541  13.930  0.8311  0.8715 -0.2897
  848MPD2     C12454   0.304   3.661  16.396  0.0252 -0.1533 -0.2935
  848MPD2    C112455   0.175   3.663  16.436  0.6619  0.3876 -0.5439
  848MPD2    C212456   0.084   3.742  16.366  0.5385  0.5783  0.0991
  848MPD2    C312457   0.136   3.815  16.261 -0.5878 -0.5751  0.9542
  848MPD2    C412458   0.266   3.816  16.223  0.2271 -0.2496 -0.6318
  848MPD2    C512459   0.347   3.731  16.295 -0.6859  0.5039 -0.2330
  848MPD2     H12460   4.709   3.760  16.401  0.9659  0.5293  1.3702
  848MPD2    H112461   0.313   3.872  16.143 -0.6111  0.1466 -0.8439
  848MPD2    H212462   0.383   3.600  16.438 -0.6285 -1.6745 -1.2843
  848MPD2    H312463   0.453   3.733  16.274 -0.5308 -0.7802  0.4930
  848MPD2     N12464   0.063   3.922  16.209 -0.3097 -0.3824 -0.0671
  848MPD2    H512465   0.115   3.994  16.160  1.0919 -1.4409 -0.1146
  848MPD2    N112466   0.139   3.584  16.546  0.6233  0.2878  0.0565
  848MPD2    H712467   0.205   3.534  16.605 -0.1042 -0.6260  0.1047
  849MPD2     C12468   3.674   2.546  14.155  0.4001 -0.2144  1.0347
  849MPD2    C112469   3.774   2.599  14.082 -0.1206  0.7806 -0.2854
  849MPD2    C212470   3.813   2.726  14.115 -0.6127  0.5929  0.9024
  849MPD2    C312471   3.745   2.803  14.214  0.7867 -0.0299 -0.3511
  849MPD2    C412472   3.648   2.747  14.289  0.3066 -0.2317  0.0217
  849MPD2    C512473   3.611   2.616  14.253 -0.5614 -0.9077 -0.3297
  849MPD2     H12474   3.900   2.766  14.065 -0.6311 -1.0970 -0.4783
  849MPD2    H112475   3.583   2.801  14.358  0.3860 -1.2111  0.8736
  849MPD2    H212476   3.654   2.440  14.138  1.5220 -0.6004  2.1266
  849MPD2    H312477   3.529   2.563  14.299 -1.5096  1.0766  0.2926
  849MPD2     N12478   3.798   2.935  14.228  0.1505  0.3889  0.2512
  849MPD2    H512479   3.868   2.960  14.158  2.2679 -0.8851  1.9229
  849MPD2    N112480   3.843   2.535  13.982  0.2211  0.2952  0.1953
  849MPD2    H712481   3.917   2.589  13.939  1.1441 -2.2465 -1.4094
  850MPD2     C12482   1.796   1.486  14.587  0.4261  0.5230 -0.3039
  850MPD2    C112483   1.822   1.554  14.709 -0.2626 -0.4709  1.1337
  850MPD2    C212484   1.951   1.558  14.761 -0.6075  0.4669 -0.1972
  850MPD2    C312485   2.059   1.496  14.705  0.1563  0.2498 -0.8681
  850MPD2    C412486   2.031   1.434  14.584  0.3638 -0.2496  0.3590
  850MPD2    C512487   1.907   1.430  14.532  0.2785  0.0172 -0.3931
  850MPD2     H12488   1.972   1.608  14.855  0.3335 -0.2895  0.0047
  850MPD2    H112489   2.118   1.388  14.540  0.0494  1.5820 -2.1695
  850MPD2    H212490   1.695   1.476  14.549 -0.1336 -0.9952  1.5683
  850MPD2    H312491   1.897   1.378  14.437  3.2947  0.5058 -0.9765
  850MPD2     N12492   2.190   1.493  14.763 -0.0206  0.0738  0.2586
  850MPD2    H512493   2.258   1.457  14.695 -0.2685 -3.2462  1.7443
  850MPD2    N112494   1.710   1.620  14.764  0.3679 -0.4668 -0.1502
  850MPD2    H712495   1.627   1.627  14.707  1.2619 -0.3206 -1.4332
  851MPD2     C12496   2.260   1.327  15.269  0.4792 -0.3944  0.1187
  851MPD2    C112497   2.138   1.285  15.210  0.1630 -0.7789 -0.2334
  851MPD2    C212498   2.130   1.154  15.162  0.3125 -0.0725 -0.5220
  851MPD2    C312499   2.249   1.079  15.168 -0.4168  0.2221  0.4864
  851MPD2    C412500   2.367   1.131  15.209 -0.9996 -0.0283 -0.0926
  851MPD2    C512501   2.374   1.257  15.262  0.3134  0.1704 -0.3536
  851MPD2     H12502   2.038   1.112  15.123  0.4206  0.5041 -1.4030
  851MPD2    H112503   2.451   1.063  15.217  0.5042  1.9003  0.6188
  851MPD2    H212504   2.272   1.428  15.305  0.7832  0.1879 -1.6053
  851MPD2    H312505   2.468   1.303  15.291  2.1013 -1.7653 -3.1439
  851MPD2     N12506   2.233   0.954  15.104 -0.1212 -0.3172 -0.0598
  851MPD2    H512507   2.138   0.919  15.093 -0.2810 -0.2213  0.9955
  851MPD2    N112508   2.029   1.369  15.204 -0.0010 -0.2336 -0.4456
  851MPD2    H712509   2.033   1.455  15.256  1.8150 -0.9876  0.6659
  852MPD2     C12510   0.951   3.913   9.795  0.8276  0.2187  0.2504
  852MPD2    C112511   0.973   3.978   9.918  0.1252 -0.5016 -0.3542
  852MPD2    C212512   1.104   4.009   9.948 -0.1813  0.4795 -0.0280
  852MPD2    C312513   1.208   3.981   9.862 -0.0058  0.5566 -0.1252
  852MPD2    C412514   1.186   3.918   9.745 -0.7405  0.6660 -0.0663
  852MPD2    C512515   1.059   3.880   9.715  0.3380 -0.3614  0.8333
  852MPD2     H12516   1.129   4.068  10.035 -0.2868  0.1890  0.1989
  852MPD2    H112517   1.266   3.881   9.683  0.3538 -0.4360  1.9791
  852MPD2    H212518   0.848   3.892   9.771  0.2848 -0.8100  3.4446
  852MPD2    H312519   1.039   3.829   9.621 -1.7454  0.8273  0.6194
  852MPD2     N12520   1.338   4.034   9.895 -0.1190 -0.4146  0.1827
  852MPD2    H512521   1.352   4.088   9.980  0.5128  0.0370 -0.2118
  852MPD2    N112522   0.873   4.011  10.020  0.7178 -0.3441  0.2659
  852MPD2    H712523   0.907   4.043  10.110  1.8270  0.5143 -0.4654
  853MPD2     C12524   3.128   2.921  12.856 -0.0791 -0.0337 -0.4751
  853MPD2    C112525   3.119   3.048  12.801 -0.4734  0.4355  0.0147
  853MPD2    C212526   3.169   3.056  12.675  0.1992 -0.0101 -0.0249
  853MPD2    C312527   3.232   2.953  12.609  0.3599 -0.8629 -0.1163
  853MPD2    C412528   3.264   2.841  12.686  0.8467 -0.2654  0.5333
  853MPD2    C512529   3.204   2.823  12.800  0.6343  0.0263  0.0110
  853MPD2     H12530   3.158   3.150  12.623  0.2003 -0.7000 -1.2904
  853MPD2    H112531   3.339   2.774  12.646 -0.4359 -1.9674  0.9441
  853MPD2    H212532   3.092   2.906  12.957 -0.4295  2.8163 -0.1922
  853MPD2    H312533   3.230   2.728  12.845  1.2677 -0.5049 -1.4493
  853MPD2     N12534   3.264   2.957  12.473 -0.3574  0.3261  0.0982
  853MPD2    H512535   3.307   2.874  12.433 -0.1680 -0.2561  1.4934
  853MPD2    N112536   3.064   3.154  12.869  0.0372  0.2637 -0.1971
  853MPD2    H712537   3.021   3.123  12.956  1.7422 -1.3601  0.0685
  854MPD2     C12538   0.751   4.293  12.898  0.0409  0.7148 -0.1790
  854MPD2    C112539   0.684   4.199  12.826  0.5534 -0.2255 -0.7237
  854MPD2    C212540   0.750   4.085  12.783  0.2538  0.4610  0.0493
  854MPD2    C312541   0.875   4.056  12.825 -0.0471  0.4114  0.9776
  854MPD2    C412542   0.946   4.155  12.890 -0.1758 -0.1897  0.3740
  854MPD2    C512543   0.885   4.270  12.928  0.3305  0.1286 -0.8658
  854MPD2     H12544   0.700   4.007  12.726 -0.1255 -0.0836  1.1299
  854MPD2    H112545   1.050   4.137  12.917 -0.1537 -0.8374 -0.1355
  854MPD2    H212546   0.693   4.381  12.923  0.0254  1.0879 -1.5183
  854MPD2    H312547   0.936   4.348  12.982  1.0986 -0.9632 -0.0214
  854MPD2     N12548   0.939   3.932  12.793  0.3671  0.1300 -0.4857
  854MPD2    H512549   1.032   3.911  12.827  1.1694  1.5452 -1.7818
  854MPD2    N112550   0.556   4.225  12.782  0.5147  0.2719  0.0827
  854MPD2    H712551   0.509   4.303  12.826  0.8254  0.8748 -0.6527
  855MPD2     C12552   1.029   3.657  13.588 -0.3958  0.8184 -0.0105
  855MPD2    C112553   0.983   3.545  13.523 -0.0160  0.0460 -0.9738
  855MPD2    C212554   0.979   3.534  13.385  0.3227 -0.5757 -0.0011
  855MPD2    C312555   1.015   3.644  13.307 -0.6094  0.3603  0.2241
  855MPD2    C412556   1.045   3.759  13.375 -0.7461 -0.4296  0.5296
  855MPD2    C512557   1.052   3.771  13.511 -0.4063  0.0006 -0.0699
  855MPD2     H12558   0.936   3.451  13.330 -1.6920 -0.4702  1.4253
  855MPD2    H112559   1.066   3.850  13.319 -2.0502 -0.7905 -0.5565
  855MPD2    H212560   1.048   3.653  13.694 -3.1938  1.8635  0.5184
  855MPD2    H312561   1.091   3.864  13.549 -2.0640  1.2957 -1.5605
  855MPD2     N12562   1.014   3.650  13.167  0.0538  0.7746 -0.5597
  855MPD2    H512563   1.029   3.743  13.127 -1.8959  0.4178 -2.1285
  855MPD2    N112564   0.960   3.431  13.602  0.1327 -0.3491  0.4389
  855MPD2    H712565   0.976   3.431  13.702 -1.7653 -0.0098  0.7355
  856MPD2     C12566   2.445   4.236  13.800 -0.1137  0.1906  0.1260
  856MPD2    C112567   2.572   4.298  13.809 -0.5498 -0.4272 -0.0420
  856MPD2    C212568   2.578   4.435  13.777  0.0229  0.2055 -0.0103
  856MPD2    C312569   2.464   4.504  13.733  0.1161  1.0401  0.6159
  856MPD2    C412570   2.344   4.433  13.729  0.2280 -0.1217  0.2856
  856MPD2    C512571   2.341   4.305  13.776  0.1425  0.7402  0.0104
  856MPD2     H12572   2.680   4.473  13.783  0.2556 -0.5825  1.1051
  856MPD2    H112573   2.251   4.484  13.706  0.2850  0.1937  0.7501
  856MPD2    H212574   2.430   4.128  13.805  1.1010  0.0364  0.5312
  856MPD2    H312575   2.246   4.254  13.785 -0.4938  1.5775 -1.9200
  856MPD2     N12576   2.467   4.640  13.690  0.0451  0.3827  0.1827
  856MPD2    H512577   2.375   4.678  13.671 -0.0242 -0.0815 -0.4017
  856MPD2    N112578   2.697   4.223  13.842  0.3983  0.0515  0.2863
  856MPD2    H712579   2.777   4.281  13.818  0.6333 -0.9807 -1.4703
  857MPD2     C12580   4.363   2.305  12.465  0.0221  0.1616  0.2518
  857MPD2    C112581   4.396   2.286  12.599  0.2992  0.2602 -0.2133
  857MPD2    C212582   4.399   2.399  12.685 -0.2695 -0.7933  0.2843
  857MPD2    C312583   4.374   2.525  12.639 -1.0657 -0.0632  0.3882
  857MPD2    C412584   4.346   2.540  12.509 -0.3145  0.3064 -0.1612
  857MPD2    C512585   4.345   2.433  12.425  0.4099  0.4209 -0.1706
  857MPD2     H12586   4.415   2.390  12.792  2.3398  1.4205  0.0746
  857MPD2    H112587   4.316   2.633  12.461  1.4163  0.1057 -1.6243
  857MPD2    H212588   4.371   2.226  12.392  1.0235 -1.1080  1.7224
  857MPD2    H312589   4.320   2.448  12.321  0.6810  0.8514 -0.1732
  857MPD2     N12590   4.371   2.630  12.738 -0.3316 -0.0134 -0.4847
  857MPD2    H512591   4.391   2.603  12.833  0.5296 -0.7288 -0.8697
  857MPD2    N112592   4.438   2.161  12.642  0.2496 -0.1769  0.6092
  857MPD2    H712593   4.437   2.088  12.572  0.9885  0.7963 -0.4253
  858MPD2     C12594   0.065   0.677  16.520 -0.1773  0.2381 -0.2097
  858MPD2    C112595   0.196   0.629  16.540 -0.4823  0.1329  0.1904
  858MPD2    C212596   0.273   0.690  16.643  0.1742  0.8662 -0.1678
  858MPD2    C312597   0.211   0.776  16.735 -0.3237 -0.1039  0.8573
  858MPD2    C412598   0.081   0.819  16.703  0.2472 -0.2715 -0.3275
  858MPD2    C512599   0.009   0.771  16.600  0.5094  0.2674 -0.9251
  858MPD2     H12600   0.374   0.658  16.664  0.1316  0.7437 -0.1469
  858MPD2    H112601   0.030   0.887  16.770  1.2193 -0.8667  1.0139
  858MPD2    H212602   0.003   0.634  16.442  2.5731 -0.2682 -2.1145
  858MPD2    H312603   4.634   0.808  16.591 -0.5581 -2.3629  0.0538
  858MPD2     N12604   0.267   0.835  16.854  0.2001 -0.0486  0.1713
  858MPD2    H512605   0.215   0.903  16.908  0.1295 -0.4535  0.6182
  858MPD2    N112606   0.257   0.533  16.449  0.5398 -0.0727 -0.1758
  858MPD2    H712607   0.193   0.493  16.381  1.9741 -0.9679 -0.9918
  859MPD2     C12608   3.430   2.884  14.696  0.0081 -0.3384 -0.4968
  859MPD2    C112609   3.504   2.901  14.815  0.2291 -0.4792 -0.1737
  859MPD2    C212610   3.458   2.837  14.931  0.0511 -0.3548 -0.8248
  859MPD2    C312611   3.349   2.748  14.920  0.2244  0.6540 -0.0780
  859MPD2    C412612   3.282   2.723  14.803 -0.1735  0.0471 -0.2784
  859MPD2    C512613   3.334   2.786  14.694  0.3641  0.5258  1.1095
  859MPD2     H12614   3.507   2.872  15.022  1.8565 -0.5331 -1.7143
  859MPD2    H112615   3.202   2.651  14.791  1.3468 -1.6085 -0.6557
  859MPD2    H212616   3.469   2.933  14.607  0.3435  2.2716  1.0785
  859MPD2    H312617   3.282   2.754  14.604 -0.7505 -3.5289  3.1891
  859MPD2     N12618   3.301   2.666  15.032  0.1310 -0.0236 -0.2851
  859MPD2    H512619   3.227   2.597  15.020  0.2285  0.1262 -1.7348
  859MPD2    N112620   3.596   3.002  14.827  0.1723 -0.4478 -0.0520
  859MPD2    H712621   3.599   3.071  14.753  1.3380 -2.6101 -2.0205
  860MPD2     C12622   1.777   3.502  11.784 -0.3141  0.0668  0.1686
  860MPD2    C112623   1.701   3.433  11.879  0.0251 -0.4720 -0.0904
  860MPD2    C212624   1.569   3.424  11.855 -0.0978 -0.1191 -0.0731
  860MPD2    C312625   1.510   3.487  11.750  0.3780 -0.3145 -0.8230
  860MPD2    C412626   1.585   3.574  11.676 -0.5034 -0.0979  0.6713
  860MPD2    C512627   1.718   3.576  11.691 -0.0974  0.0810 -0.2961
  860MPD2     H12628   1.504   3.373  11.926  0.3895 -0.8492 -0.1499
  860MPD2    H112629   1.543   3.640  11.600 -1.2083 -0.4662  0.7396
  860MPD2    H212630   1.885   3.511  11.789 -0.1264 -2.5748  1.3071
  860MPD2    H312631   1.782   3.632  11.624  0.2495  1.9300  1.5872
  860MPD2     N12632   1.374   3.460  11.733 -0.3972  0.2246 -0.6942
  860MPD2    H512633   1.335   3.396  11.801  0.7444  0.0114 -0.2407
  860MPD2    N112634   1.763   3.353  11.986 -1.0616 -0.0286  0.2254
  860MPD2    H712635   1.707   3.290  12.043  1.5941 -1.5373  1.1626
  861MPD2     C12636   0.202   1.690  10.841  0.2204  0.8585 -0.8874
  861MPD2    C112637   0.145   1.771  10.938 -0.2834  0.0540 -0.4655
  861MPD2    C212638   0.037   1.854  10.915 -0.2393 -0.0996 -0.6334
  861MPD2    C312639   0.002   1.871  10.783 -0.5244 -0.4807 -0.8033
  861MPD2    C412640   0.063   1.791  10.685 -0.5781  0.6065 -0.0534
  861MPD2    C512641   0.165   1.703  10.716 -0.0750  0.1055 -0.0643
  861MPD2     H12642   4.703   1.899  10.993  0.7815  0.4625 -0.1590
  861MPD2    H112643   0.037   1.807  10.581 -2.0272 -0.1886  0.1844
  861MPD2    H212644   0.280   1.621  10.872 -0.4996  0.0256 -0.9211
  861MPD2    H312645   0.220   1.643  10.645 -1.2261 -0.6727 -0.3055
  861MPD2     N12646   4.618   1.951  10.744 -0.0136 -0.8739 -0.1252
  861MPD2    H512647   4.585   1.941  10.648  0.5826 -0.6801 -0.3540
  861MPD2    N112648   0.177   1.748  11.076 -0.0911 -0.5578  0.5543
  861MPD2    H712649   0.138   1.810  11.147  0.2793  0.4996 -0.1507
  862MPD2     C12650   4.167   2.221  10.304 -0.0136  0.1149  0.6925
  862MPD2    C112651   4.255   2.131  10.367  0.6835  0.2777  0.4817
  862MPD2    C212652   4.229   1.997  10.364 -0.1629 -0.3542  0.1006
  862MPD2    C312653   4.131   1.943  10.283 -0.2788 -0.0932  0.0115
  862MPD2    C412654   4.058   2.027  10.203 -0.4901  0.5505  0.1276
  862MPD2    C512655   4.075   2.167  10.218  0.1689 -0.4397  0.5824
  862MPD2     H12656   4.288   1.930  10.426 -1.8568 -1.6208  0.3428
  862MPD2    H112657   3.981   1.993  10.136  1.4119 -2.5716 -0.4998
  862MPD2    H212658   4.195   2.326  10.310 -1.9720  0.6539  0.2188
  862MPD2    H312659   4.017   2.239  10.163 -0.8181  0.3122  2.5812
  862MPD2     N12660   4.103   1.805  10.284  0.2361  0.0760 -0.0381
  862MPD2    H512661   4.040   1.779  10.208  1.0946 -0.1267 -0.6888
  862MPD2    N112662   4.356   2.175  10.452 -0.5312  0.2542 -0.0361
  862MPD2    H712663   4.415   2.105  10.497  1.1945 -0.3461 -3.2220
  863MPD2     C12664   3.577   4.628  16.525  0.1448  0.3341  0.2549
  863MPD2    C112665   3.537   4.703  16.630 -1.0098 -0.6986 -0.1662
  863MPD2    C212666   3.597   4.681  16.753  0.5160  0.0378 -0.2659
  863MPD2    C312667   3.701   4.595  16.761 -0.3397 -0.0834 -0.0969
  863MPD2    C412668   3.744   4.525  16.649  0.3430  0.0376  0.7235
  863MPD2    C512669   3.684   4.543  16.528 -1.3108 -0.3681 -0.3595
  863MPD2     H12670   3.580   0.007  16.847 -0.9458 -3.5402  1.4612
  863MPD2    H112671   3.835   4.467  16.648 -0.3568 -1.0568  0.0068
  863MPD2    H212672   3.526   4.644  16.431  1.0120  1.6480  0.0014
  863MPD2    H312673   3.720   4.498  16.437 -1.1787 -1.1834  0.0934
  863MPD2     N12674   3.769   4.575  16.884 -0.2920 -0.1318  0.1571
  863MPD2    H512675   3.866   4.552  16.869 -0.3469  0.1089 -0.5652
  863MPD2    N112676   3.421   0.064  16.612 -0.2458  0.7304 -0.1192
  863MPD2    H712677   3.374   0.078  16.524  2.9787  0.7194 -1.8413
  864MPD2     C12678   3.850   1.446  16.938  0.0298  0.1283 -0.3443
  864MPD2    C112679   3.932   1.342  16.915 -0.1207 -0.0920 -0.3831
  864MPD2    C212680   4.067   1.356  16.885 -0.0162  0.6547 -0.3319
  864MPD2    C312681   4.115   1.487  16.878 -0.0985 -0.5871  0.0243
  864MPD2    C412682   4.034   1.593  16.904  0.2709 -0.0314  0.0985
  864MPD2    C512683   3.901   1.571  16.939  0.0116 -0.2817 -0.1365
  864MPD2     H12684   4.125   1.269  16.860  0.3890  0.2218  2.0640
  864MPD2    H112685   4.070   1.695  16.897  0.0558  0.0787  0.6121
  864MPD2    H212686   3.743   1.430  16.943 -0.2937  3.0172  2.6562
  864MPD2    H312687   3.832   1.654  16.955 -2.7489 -2.5298 -0.4617
  864MPD2     N12688   4.246   1.521  16.838  0.5177  0.5863 -0.1853
  864MPD2    H512689   4.270   1.619  16.832 -1.7934  1.0453 -1.5992
  864MPD2    N112690   3.884   1.205  16.918  0.3378 -0.1583 -0.0345
  864MPD2    H712691   3.949   1.133  16.889 -0.8958 -2.0294  1.7866
  865MPD2     C12692   4.004   1.450  16.042 -0.4646  0.7206  0.1157
  865MPD2    C112693   4.085   1.346  16.074 -0.6662  0.3487  0.3125
  865MPD2    C212694   4.189   1.371  16.158  0.6231 -0.3324 -0.2530
  865MPD2    C312695   4.222   1.488  16.210  1.2545  0.2933 -0.1158
  865MPD2    C412696   4.135   1.597  16.185  0.3822 -0.7073 -0.1444
  865MPD2    C512697   4.020   1.574  16.105  0.4502  0.1214  0.6938
  865MPD2     H12698   4.256   1.287  16.172  0.1248 -0.8992 -1.2344
  865MPD2    H112699   4.154   1.697  16.223  0.7010 -0.7480 -0.1955
  865MPD2    H212700   3.914   1.442  15.981 -0.3517  2.7625 -0.3366
  865MPD2    H312701   3.955   1.657  16.078  1.6222  0.9514  0.4085
  865MPD2     N12702   4.331   1.500  16.300 -0.1843  0.0280 -0.0073
  865MPD2    H512703   4.389   1.420  16.319  0.2980  0.1583 -0.9861
  865MPD2    N112704   4.065   1.212  16.027 -0.4725 -0.3937  0.5571
  865MPD2    H712705   4.136   1.147  16.059  0.2211 -0.1758 -0.5635
  866MPD2     C12706   0.607   2.701  11.569  0.1539  0.4777 -0.4205
  866MPD2    C112707   0.647   2.643  11.458  0.0303 -0.2666  0.4343
  866MPD2    C212708   0.552   2.580  11.372 -0.2867  0.0999 -0.4321
  866MPD2    C312709   0.421   2.599  11.395  0.2186  0.2990 -0.0134
  866MPD2    C412710   0.381   2.682  11.503 -0.3449  0.1450 -0.0314
  866MPD2    C512711   0.472   2.724  11.582  0.1612  0.3852  0.3848
  866MPD2     H12712   0.584   2.512  11.293 -2.1515 -0.9753 -0.2628
  866MPD2    H112713   0.276   2.696  11.526 -0.6967 -0.8401 -1.0108
  866MPD2    H212714   0.675   2.754  11.635 -0.8410 -0.6463  1.5264
  866MPD2    H312715   0.435   2.782  11.666 -0.8843 -1.1476  0.9755
  866MPD2     N12716   0.314   2.538  11.321 -0.2965 -0.3327 -0.3730
  866MPD2    H512717   0.219   2.571  11.338 -0.4123 -1.1366  0.5211
  866MPD2    N112718   0.787   2.622  11.447 -0.4090  0.0261 -0.0748
  866MPD2    H712719   0.845   2.637  11.529 -1.6991  1.5408  0.5460
  867MPD2     C12720   2.704   1.442  16.655  0.0745 -0.2588 -0.3240
  867MPD2    C112721   2.757   1.357  16.757  0.0514  0.3723 -0.6897
  867MPD2    C212722   2.772   1.407  16.883 -0.3031 -0.3258  0.3038
  867MPD2    C312723   2.735   1.544  16.905 -0.4884  0.5800 -0.1664
  867MPD2    C412724   2.685   1.626  16.803 -0.3436  0.0638  0.4437
  867MPD2    C512725   2.685   1.580  16.674  0.5618  0.2075 -0.6289
  867MPD2     H12726   2.808   1.341  16.962  0.2481  0.1439  0.4422
  867MPD2    H112727   2.662   1.729  16.826  0.4504 -0.2009  2.4879
  867MPD2    H212728   2.694   1.402  16.555 -0.7448  0.5974 -0.5814
  867MPD2    H312729   2.663   1.641  16.587  0.8480 -0.7459 -1.3692
  867MPD2     N12730   2.756   1.611  17.027  0.2959 -0.0760 -0.3026
  867MPD2    H512731   2.736   1.711  17.029 -0.7321 -0.2890  0.2935
  867MPD2    N112732   2.784   1.218  16.719  0.4172 -0.2245  0.5417
  867MPD2    H712733   2.776   1.200  16.619  0.7315 -0.1759  0.5071
  868MPD2     C12734   4.243   0.369  13.468 -0.5435  0.1351  0.1285
  868MPD2    C112735   4.312   0.289  13.551 -0.1152 -0.3540  0.9967
  868MPD2    C212736   4.246   0.174  13.601  1.0505 -0.6423 -0.2736
  868MPD2    C312737   4.107   0.156  13.594  0.1134 -0.7484  0.5904
  868MPD2    C412738   4.039   0.253  13.527 -0.0209 -0.1986 -0.2525
  868MPD2    C512739   4.104   0.358  13.464  0.5250  0.1921 -0.1066
  868MPD2     H12740   4.313   0.102  13.647 -1.8178 -1.7071  2.2323
  868MPD2    H112741   3.932   0.264  13.519  0.1119  0.5720 -0.9306
  868MPD2    H212742   4.299   0.449  13.421 -0.2218 -0.6476 -0.8201
  868MPD2    H312743   4.036   0.420  13.408  0.4034  1.8854  1.8988
  868MPD2     N12744   4.036   0.038  13.640  0.1239  0.3459  0.0378
  868MPD2    H512745   4.098   4.695  13.682 -1.7049 -1.3994 -0.1109
  868MPD2    N112746   4.457   0.301  13.555  0.5308 -0.4040 -0.0906
  868MPD2    H712747   4.496   0.381  13.507 -2.4828 -0.9128 -3.4536
  869MPD2     C12748   1.517   2.600   1.115  0.6018 -0.4215 -0.0515
  869MPD2    C112749   1.422   2.628   1.210 -0.0012 -0.0479  0.1983
  869MPD2    C212750   1.339   2.742   1.189  0.2929 -0.7983  0.3249
  869MPD2    C312751   1.369   2.831   1.089 -0.3125 -0.9927 -0.0164
  869MPD2    C412752   1.473   2.803   1.003  0.0627  0.3695 -0.4196
  869MPD2    C512753   1.539   2.686   1.017 -0.1702 -0.2962 -0.3392
  869MPD2     H12754   1.249   2.755   1.249  0.5223 -2.5898  1.0577
  869MPD2    H112755   1.501   2.858   0.914  1.4428 -2.0688 -1.4925
  869MPD2    H212756   1.589   2.521   1.129  1.5528  0.2097 -1.4102
  869MPD2    H312757   1.616   2.671   0.942 -0.8512 -0.2215 -1.0619
  869MPD2     N12758   1.304   2.955   1.058  0.0885 -0.2549  0.4999
  869MPD2    H512759   1.335   3.005   0.975  0.1876 -1.6793 -0.3096
  869MPD2    N112760   1.416   2.543   1.323 -0.4413  0.2305  0.0864
  869MPD2    H712761   1.486   2.470   1.326  0.2606  0.7979 -2.3065
  870MPD2     C12762   4.717   2.862   1.005 -0.7110 -0.0305 -0.0530
  870MPD2    C112763   0.062   2.748   0.982 -0.0999 -0.2482 -0.3091
  870MPD2    C212764   0.123   2.729   0.859  0.2675 -0.1107  0.0247
  870MPD2    C312765   0.126   2.827   0.761 -0.5275 -0.6887 -0.0787
  870MPD2    C412766   0.063   2.946   0.790 -0.5506  0.2409  0.4815
  870MPD2    C512767   4.723   2.966   0.911 -0.3590  0.0993  0.2835
  870MPD2     H12768   0.181   2.638   0.847  1.4118  0.6968 -0.5826
  870MPD2    H112769   0.073   3.036   0.730  3.5115 -1.8407 -1.9268
  870MPD2    H212770   4.680   2.885   1.105  0.3269 -0.3355  0.4055
  870MPD2    H312771   4.685   3.063   0.941 -3.0831 -0.7103 -0.5612
  870MPD2     N12772   0.201   2.793   0.640 -0.4090  0.4004  0.0139
  870MPD2    H512773   0.226   2.696   0.622 -0.4816  0.4852 -0.5514
  870MPD2    N112774   0.066   2.651   1.087 -0.0938 -0.2101 -0.3241
  870MPD2    H712775   0.019   2.675   1.174 -1.7570  0.9945 -1.5593
  871MPD2     C12776   1.712   1.050  16.272 -0.9196 -0.8981 -0.1242
  871MPD2    C112777   1.736   1.032  16.409 -0.1830  0.4557 -0.5065
  871MPD2    C212778   1.835   0.941  16.447  0.3816 -0.0610 -0.6268
  871MPD2    C312779   1.903   0.871  16.347 -0.7633  0.5092  0.8017
  871MPD2    C412780   1.888   0.904  16.211  1.0974 -0.1138  0.3765
  871MPD2    C512781   1.797   0.996  16.174 -0.1594 -0.0854  0.2255
  871MPD2     H12782   1.866   0.921  16.549  2.5790  0.7801 -1.1502
  871MPD2    H112783   1.940   0.843  16.138  0.3972 -1.8233  1.3227
  871MPD2    H212784   1.651   1.135  16.242 -1.6263 -2.1798 -2.3468
  871MPD2    H312785   1.775   1.021  16.070 -1.1600 -0.7787  0.2735
  871MPD2     N12786   2.002   0.783  16.397 -0.3327  0.1158 -0.0406
  871MPD2    H512787   2.013   0.781  16.498  3.0545 -1.2023 -0.4214
  871MPD2    N112788   1.658   1.106  16.498 -0.3274 -0.1867  0.1156
  871MPD2    H712789   1.585   1.167  16.463 -1.0785 -1.2025 -0.0867
  872MPD2     C12790   2.452   3.337  13.719  0.2451 -0.2258 -0.0676
  872MPD2    C112791   2.523   3.371  13.827  0.0620  0.9548 -0.8214
  872MPD2    C212792   2.447   3.387  13.949  0.4760 -0.3531 -0.1304
  872MPD2    C312793   2.311   3.370  13.950  0.5039 -0.0092  0.2656
  872MPD2    C412794   2.244   3.361  13.829 -0.6731  0.1316  0.1676
  872MPD2    C512795   2.320   3.342  13.714  0.7426  0.1536 -0.6028
  872MPD2     H12796   2.506   3.440  14.023  0.7353  0.0225 -0.6016
  872MPD2    H112797   2.137   3.346  13.820 -0.5420  0.8586 -2.6074
  872MPD2    H212798   2.507   3.300  13.633 -2.1319 -0.7797 -1.3237
  872MPD2    H312799   2.264   3.332  13.622 -2.0904  1.1794  0.9975
  872MPD2     N12800   2.233   3.397  14.065  0.1339 -0.0884  0.0090
  872MPD2    H512801   2.132   3.411  14.060  0.0063 -0.9790 -0.0739
  872MPD2    N112802   2.665   3.378  13.816 -0.3726  0.1418  0.0461
  872MPD2    H712803   2.692   3.393  13.719 -0.9158  1.8722  0.1530
  873MPD2     C12804   0.080   3.594   0.986  0.4641  0.2690  0.4197
  873MPD2    C112805   0.176   3.625   1.079 -0.0283 -0.2695 -0.2181
  873MPD2    C212806   0.273   3.533   1.113 -0.6196  0.3847  0.3799
  873MPD2    C312807   0.278   3.405   1.053  0.1976  0.1709 -0.1332
  873MPD2    C412808   0.191   3.388   0.946 -0.4693  0.0243  0.2796
  873MPD2    C512809   0.089   3.481   0.918 -0.6071  0.1527  0.1721
  873MPD2     H12810   0.352   3.560   1.182 -1.3698 -1.4341  1.9603
  873MPD2    H112811   0.184   3.292   0.896 -3.7518 -0.8536  2.4417
  873MPD2    H212812   4.723   3.659   0.960 -1.6677 -1.9185  1.7942
  873MPD2    H312813   0.018   3.473   0.836  0.2950  0.4701 -0.6418
  873MPD2     N12814   0.387   3.311   1.066 -0.0163 -0.7671 -0.0179
  873MPD2    H512815   0.373   3.230   1.007 -0.4595 -0.3214 -0.5281
  873MPD2    N112816   0.162   3.748   1.142  0.2058 -0.5120 -0.4193
  873MPD2    H712817   0.080   3.803   1.117  1.0767  1.9866  2.1454
  874MPD2     C12818   3.856   4.047  15.931 -0.7781 -0.3098 -0.2313
  874MPD2    C112819   3.915   3.985  16.046 -1.1604  1.1094  0.0655
  874MPD2    C212820   4.051   4.013  16.074  0.8251  0.5998 -0.3188
  874MPD2    C312821   4.122   4.104  16.003  0.4947  0.8289  0.5649
  874MPD2    C412822   4.064   4.164  15.895  0.3041  0.1565 -0.2999
  874MPD2    C512823   3.935   4.128  15.860  0.0202 -0.3182  0.2553
  874MPD2     H12824   4.097   3.966  16.160  1.2895 -0.3459 -1.0812
  874MPD2    H112825   4.111   4.234  15.827  1.7750  1.1823  1.7691
  874MPD2    H212826   3.752   4.033  15.905 -0.0368 -0.0910 -3.2598
  874MPD2    H312827   3.890   4.168  15.770 -0.0535 -0.1853  0.3519
  874MPD2     N12828   4.250   4.133  16.054 -0.2599  0.2196  0.3902
  874MPD2    H512829   4.272   4.077  16.136 -1.0965 -3.7509 -2.0427
  874MPD2    N112830   3.848   3.881  16.110  1.2395 -0.1559  0.0288
  874MPD2    H712831   3.752   3.866  16.079  1.8195 -1.4768 -1.1344
  875MPD2     C12832   0.281   2.056  14.232  0.8176  0.4062  0.0404
  875MPD2    C112833   0.169   2.064  14.312 -1.5089 -0.1258 -0.4086
  875MPD2    C212834   0.177   2.082  14.448 -0.1792 -0.0342  0.1784
  875MPD2    C312835   0.303   2.089  14.511  0.4455  0.0887 -0.3233
  875MPD2    C412836   0.413   2.073  14.433  0.1820 -0.0210 -0.4086
  875MPD2    C512837   0.406   2.060  14.292  0.1552  0.0938 -0.1429
  875MPD2     H12838   0.091   2.098  14.512 -0.2322  0.9316 -0.1349
  875MPD2    H112839   0.513   2.089  14.470  1.0521  0.6600 -3.0155
  875MPD2    H212840   0.273   2.058  14.124 -1.0442  0.1124  0.1705
  875MPD2    H312841   0.493   2.068  14.228  1.1094 -0.9006  1.0486
  875MPD2     N12842   0.331   2.117  14.649  0.3458 -0.6863 -0.0966
  875MPD2    H512843   0.424   2.149  14.670 -0.4542 -0.4697  3.0785
  875MPD2    N112844   0.040   2.065  14.257  0.0614  0.2339 -0.2403
  875MPD2    H712845   4.688   2.068  14.321 -0.0637  0.2555 -0.3951
  876MPD2     C12846   3.958   3.260  16.111  0.5481 -0.4044  0.2149
  876MPD2    C112847   4.075   3.200  16.081 -0.4976  0.5714 -0.4540
  876MPD2    C212848   4.107   3.080  16.142 -0.0177 -0.0180  0.9307
  876MPD2    C312849   4.029   3.028  16.242  0.0034 -0.7506  0.5086
  876MPD2    C412850   3.917   3.097  16.282 -0.7282 -0.2033  0.2630
  876MPD2    C512851   3.884   3.211  16.218 -0.2736  0.4330  0.6063
  876MPD2     H12852   4.199   3.032  16.112 -0.5824 -0.7266  0.3235
  876MPD2    H112853   3.848   3.059  16.356 -2.6385  1.5975 -0.5857
  876MPD2    H212854   3.930   3.353  16.063 -0.1009 -0.5048  0.3945
  876MPD2    H312855   3.796   3.265  16.250  0.7426  1.9357  0.9077
  876MPD2     N12856   4.068   2.906  16.296  0.2691  0.0461  0.0817
  876MPD2    H512857   4.156   2.869  16.260  0.9310  1.3925  0.3008
  876MPD2    N112858   4.143   3.255  15.970  0.0565  0.3578  0.5025
  876MPD2    H712859   4.109   3.345  15.939 -1.3306  0.3439  2.0064
  877MPD2     C12860   4.050   3.578  15.390  0.0233 -0.5584  0.3249
  877MPD2    C112861   4.179   3.629  15.392  0.1767  0.8173 -0.0973
  877MPD2    C212862   4.228   3.689  15.275  0.3967  0.5855  0.0770
  877MPD2    C312863   4.156   3.698  15.157 -0.4147 -0.1606  0.1863
  877MPD2    C412864   4.032   3.640  15.155 -0.5794 -0.4500 -0.1169
  877MPD2    C512865   3.979   3.579  15.271 -0.1136 -0.3601 -0.0235
  877MPD2     H12866   4.334   3.711  15.285  0.7948 -0.5390 -1.5276
  877MPD2    H112867   3.972   3.641  15.065 -0.9572 -0.6338  0.1290
  877MPD2    H212868   4.003   3.538  15.479 -1.3238 -1.3275 -0.7432
  877MPD2    H312869   3.886   3.523  15.265 -2.1335  3.3602 -3.0651
  877MPD2     N12870   4.196   3.767  15.045 -0.3058  0.1413  0.6831
  877MPD2    H512871   4.134   3.773  14.965 -1.8294 -0.7861  1.7956
  877MPD2    N112872   4.262   3.602  15.502  0.1422  0.1763  0.1227
  877MPD2    H712873   4.359   3.628  15.488 -0.0503  1.9470  2.1018
  878MPD2     C12874   3.760   2.493  13.044 -0.0578 -0.2628  0.4254
  878MPD2    C112875   3.681   2.543  13.147 -0.8340  0.1911  0.0536
  878MPD2    C212876   3.715   2.516  13.275 -0.2341  0.3319 -0.4544
  878MPD2    C312877   3.828   2.433  13.299  0.3593  0.7759  0.1283
  878MPD2    C412878   3.903   2.384  13.196  0.0404  0.3041 -0.3909
  878MPD2    C512879   3.866   2.410  13.071  0.2198 -0.9639 -0.0574
  878MPD2     H12880   3.663   2.553  13.362 -1.6968 -0.1216 -1.1467
  878MPD2    H112881   3.963   2.294  13.199 -1.8174 -0.9674 -1.0350
  878MPD2    H212882   3.737   2.515  12.940  1.4803  0.6535  0.2894
  878MPD2    H312883   3.917   2.366  12.986  0.5825  2.9499 -1.8853
  878MPD2     N12884   3.863   2.407  13.439 -0.3548  0.3288 -0.5006
  878MPD2    H512885   3.798   2.444  13.508 -0.7277  0.2681 -0.8196
  878MPD2    N112886   3.581   2.633  13.115 -0.4286  0.1916  0.2757
  878MPD2    H712887   3.586   2.693  13.033 -1.8762  2.6784  2.0205
  879MPD2     C12888   4.689   0.059  16.902 -0.8656 -0.6671 -0.1340
  879MPD2    C112889   4.704   4.681  16.992  0.4521  0.8719  0.8362
  879MPD2    C212890   4.600   4.585  17.001  0.3846  0.8222  0.0733
  879MPD2    C312891   4.485   4.601  16.929 -0.4612  0.0440  0.3582
  879MPD2    C412892   4.475   4.703  16.842 -0.6025 -0.8499 -0.3088
  879MPD2    C512893   4.577   0.068  16.826 -0.3480  0.1153  0.1661
  879MPD2     H12894   4.622   4.500  17.064  0.8347  1.8482  1.2850
  879MPD2    H112895   4.386   4.711  16.782 -0.2699 -0.8456 -0.7973
  879MPD2    H212896   0.043   0.128  16.881 -1.0813 -0.2362  0.4706
  879MPD2    H312897   4.571   0.153  16.760  1.1999 -0.0111 -0.1517
  879MPD2     N12898   4.375   4.508  16.935  0.0179  0.3192 -0.0827
  879MPD2    H512899   4.294   4.532  16.879  0.9025  2.0354 -0.6311
  879MPD2    N112900   0.091   4.679  17.076  0.0762  0.1490  0.0776
  879MPD2    H712901   0.146   0.038  17.074 -0.8479  0.7508  0.1637
  880MPD2     C12902   1.367   1.977   0.709  0.1335 -0.3091  0.2430
  880MPD2    C112903   1.382   1.929   0.585  0.1440  0.6838  0.3094
  880MPD2    C212904   1.509   1.916   0.528  0.2144  0.8124  0.7700
  880MPD2    C312905   1.622   1.929   0.608 -0.9584  0.3904  0.1044
  880MPD2    C412906   1.605   1.953   0.739 -0.3116  0.3166  0.7305
  880MPD2    C512907   1.478   1.981   0.793  0.2526 -0.4083 -0.0870
  880MPD2     H12908   1.516   1.872   0.429 -1.9880  0.4405  0.7790
  880MPD2    H112909   1.686   1.965   0.811  0.4192  0.4687 -0.1104
  880MPD2    H212910   1.267   1.991   0.748 -0.4335 -0.4950 -1.1631
  880MPD2    H312911   1.467   2.021   0.893  0.8627  2.1420 -1.0351
  880MPD2     N12912   1.756   1.900   0.568 -0.1133  0.0523 -0.4765
  880MPD2    H512913   1.821   1.923   0.642 -2.3900 -0.3634  1.6548
  880MPD2    N112914   1.263   1.909   0.520 -0.1402 -0.0670  0.6465
  880MPD2    H712915   1.175   1.923   0.570 -0.6689  1.0717 -0.6076
  881MPD2     C12916   0.712   1.608  17.446  0.1242  0.1693  0.1959
  881MPD2    C112917   0.832   1.673  17.459  0.3445  0.4677 -0.5097
  881MPD2    C212918   0.871   1.719  17.585  0.1773  0.2642 -0.2302
  881MPD2    C312919   0.811   1.674  17.700  0.2041 -0.2833 -0.2567
  881MPD2    C412920   0.693   1.611  17.687  0.3015  0.0353 -0.0516
  881MPD2    C512921   0.644   1.589  17.560 -0.4310  0.3659 -1.2009
  881MPD2     H12922   0.965   1.773  17.593 -1.3303  2.6272  1.8647
  881MPD2    H112923   0.628   1.593   0.067  2.7560 -2.7498  1.2324
  881MPD2    H212924   0.662   1.589  17.351  1.0902  0.6692 -0.4105
  881MPD2    H312925   0.548   1.540  17.552  0.6361 -1.4652 -2.8545
  881MPD2     N12926   0.880   1.706   0.116  0.2926 -0.6269  0.0988
  881MPD2    H512927   0.958   1.771   0.106 -0.0480 -0.5086 -1.7535
  881MPD2    N112928   0.902   1.709  17.338  0.4486  0.5273  0.0341
  881MPD2    H712929   0.859   1.687  17.248 -0.0591 -0.8944  0.6246
  882MPD2     C12930   4.078   3.681  14.347  0.2451  0.3774  0.0737
  882MPD2    C112931   4.029   3.752  14.451 -0.4090  0.4815 -0.6627
  882MPD2    C212932   3.902   3.732  14.478 -0.4154 -0.3875 -0.4269
  882MPD2    C312933   3.815   3.633  14.423 -0.0019  0.3811  0.3975
  882MPD2    C412934   3.872   3.555  14.327 -0.1551 -0.5565 -0.0525
  882MPD2    C512935   4.004   3.586  14.287 -0.0240 -0.3639 -0.0902
  882MPD2     H12936   3.852   3.797  14.548  0.9722  0.1192  0.1017
  882MPD2    H112937   3.821   3.481  14.266 -0.7558  0.1315 -0.3837
  882MPD2    H212938   4.181   3.697  14.315 -0.1547 -0.1561 -1.4939
  882MPD2    H312939   4.048   3.546  14.197  3.0462  0.3761  1.0670
  882MPD2     N12940   3.680   3.626  14.456  0.3453 -0.3093  0.0159
  882MPD2    H512941   3.644   3.698  14.517 -2.3256 -1.5011 -0.1545
  882MPD2    N112942   4.122   3.843  14.518  0.4377  0.4649  0.1480
  882MPD2    H712943   4.220   3.824  14.502  0.7533  1.9892  0.2649
  883MPD2     C12944   1.427   4.203  16.621 -0.6317  0.8144  0.5105
  883MPD2    C112945   1.506   4.187  16.503 -0.5129  0.0903 -0.4855
  883MPD2    C212946   1.647   4.198  16.528 -0.4028 -0.0261 -0.6360
  883MPD2    C312947   1.695   4.199  16.659 -0.9279 -0.3415 -0.6814
  883MPD2    C412948   1.613   4.205  16.773 -0.3793  0.0259 -0.1556
  883MPD2    C512949   1.479   4.203  16.749  0.2441 -0.0234 -0.2353
  883MPD2     H12950   1.725   4.191  16.454 -0.2051  0.3347 -0.4614
  883MPD2    H112951   1.648   4.205  16.875  0.7887  0.3080 -0.5528
  883MPD2    H212952   1.319   4.214  16.618 -0.7034 -0.2166 -0.4997
  883MPD2    H312953   1.415   4.209  16.837 -3.0300  0.8069 -2.6488
  883MPD2     N12954   1.832   4.188  16.675  0.6251  0.2236  0.2162
  883MPD2    H512955   1.892   4.213  16.597 -0.9149  0.1402 -0.9902
  883MPD2    N112956   1.450   4.175  16.376  0.3298  0.4534  0.2790
  883MPD2    H712957   1.515   4.170  16.298  0.0188 -0.4614  0.0858
  884MPD2     C12958   3.102   4.213  15.099 -0.0545  0.1202 -0.2115
  884MPD2    C112959   3.151   4.314  15.015 -0.0099 -0.5910  0.1798
  884MPD2    C212960   3.064   4.421  14.987 -0.2522  0.1064 -0.1771
  884MPD2    C312961   2.944   4.437  15.055 -0.6240 -0.4763 -0.5838
  884MPD2    C412962   2.899   4.333  15.131 -0.3459  0.0443 -0.9702
  884MPD2    C512963   2.970   4.217  15.145 -0.3240  0.2877  0.6207
  884MPD2     H12964   3.098   4.504  14.925 -2.2224  1.4316  0.5218
  884MPD2    H112965   2.802   4.333  15.180  0.1469  0.0841  0.0031
  884MPD2    H212966   3.159   4.132  15.143 -1.2854 -0.8171 -0.3424
  884MPD2    H312967   2.938   4.136  15.210 -1.2504  1.4282  1.5979
  884MPD2     N12968   2.865   4.547  15.038 -0.4372 -0.0962 -0.4629
  884MPD2    H512969   2.886   4.611  14.962  2.2127  0.5089  0.7911
  884MPD2    N112970   3.290   4.316  14.977 -0.0808  0.3682  0.3989
  884MPD2    H712971   3.318   4.402  14.930  0.1564 -0.7631 -1.5528
  885MPD2     C12972   1.717   0.180   0.494  0.2169  0.5033  0.3286
  885MPD2    C112973   1.781   0.092   0.417  0.0459 -0.5031 -0.5647
  885MPD2    C212974   1.795   0.119   0.281 -0.0156  0.0698 -0.4039
  885MPD2    C312975   1.729   0.236   0.230 -0.4840  0.2781 -0.0942
  885MPD2    C412976   1.676   0.332   0.313  0.1869 -0.0484  0.0747
  885MPD2    C512977   1.672   0.300   0.446 -0.3965  0.5080  0.2171
  885MPD2     H12978   1.848   0.056   0.211  2.1827  0.8850  0.5341
  885MPD2    H112979   1.627   0.425   0.286  1.3316  0.5292  0.0017
  885MPD2    H212980   1.692   0.161   0.597  2.0613 -0.7573  0.5368
  885MPD2    H312981   1.634   0.375   0.514  1.3025  3.4399 -2.0462
  885MPD2     N12982   1.736   0.258   0.090  0.4990  0.0915  0.3559
  885MPD2    H512983   1.800   0.196   0.042  0.3118  1.1293 -1.2209
  885MPD2    N112984   1.824   4.698   0.487  0.1990  0.3946 -0.4948
  885MPD2    H712985   1.815   4.693   0.588  2.4155  1.0961 -0.2736
  886MPD2     C12986   2.647   3.372  15.562 -0.3611  0.0309 -0.3102
  886MPD2    C112987   2.738   3.323  15.475 -0.5937  0.6784  0.3740
  886MPD2    C212988   2.783   3.399  15.366  0.4582 -0.1143 -0.4060
  886MPD2    C312989   2.728   3.521  15.334  0.6999  0.8893  0.0382
  886MPD2    C412990   2.617   3.558  15.417  0.1175  0.0274 -0.0163
  886MPD2    C512991   2.585   3.478  15.523  0.3187 -1.1863  0.7493
  886MPD2     H12992   2.867   3.376  15.301 -0.8170 -2.0099 -1.3821
  886MPD2    H112993   2.560   3.650  15.415 -1.5126 -0.9812 -0.5367
  886MPD2    H212994   2.602   3.323  15.648 -1.6855  0.5446 -0.7040
  886MPD2    H312995   2.508   3.517  15.589  0.0943  1.4519 -1.0630
  886MPD2     N12996   2.787   3.594  15.233  0.2951  0.1575  0.3988
  886MPD2    H512997   2.874   3.559  15.195  1.0067  0.6503  1.5796
  886MPD2    N112998   2.791   3.199  15.481  0.3180  0.1199  0.5334
  886MPD2    H712999   2.864   3.172  15.415  1.5366  2.4530  0.9442
  887MPD2     C13000   3.456   3.035  15.309 -0.2576 -0.4900  0.5664
  887MPD2    C113001   3.349   3.108  15.362  0.3767  0.5401  0.0221
  887MPD2    C213002   3.347   3.242  15.343  0.6836  0.4323 -0.6202
  887MPD2    C313003   3.442   3.303  15.264  0.3771 -0.2199  0.0931
  887MPD2    C413004   3.547   3.225  15.217 -0.1843 -0.0422  0.1859
  887MPD2    C513005   3.554   3.092  15.233  0.2864 -0.3483 -0.3183
  887MPD2     H13006   3.280   3.310  15.395 -0.2422 -0.8920 -0.0931
  887MPD2    H113007   3.622   3.273  15.156 -1.2238  0.9965 -0.2695
  887MPD2    H213008   3.456   2.928  15.330 -1.9778 -0.9023 -1.5505
  887MPD2    H313009   3.648   3.042  15.214  1.1734  0.6518  1.4605
  887MPD2     N13010   3.419   3.438  15.220 -0.4917 -0.1999 -0.3451
  887MPD2    H513011   3.337   3.489  15.253  2.0877  3.1314  0.8498
  887MPD2    N113012   3.239   3.050  15.431 -0.2682 -0.0320 -0.1545
  887MPD2    H713013   3.163   3.116  15.440 -2.4966 -2.5884 -0.4312
  888MPD2     C13014   0.225   3.077  14.765  0.7129  0.3004 -0.0674
  888MPD2    C113015   0.300   3.070  14.882 -0.2018 -0.0576  0.8344
  888MPD2    C213016   0.415   3.148  14.892  0.6638 -0.4411 -0.0037
  888MPD2    C313017   0.448   3.243  14.800  0.2491 -0.0851 -0.1851
  888MPD2    C413018   0.369   3.250  14.690  0.8523 -0.2136 -0.3812
  888MPD2    C513019   0.262   3.170  14.672 -0.0964 -0.4408  0.1972
  888MPD2     H13020   0.463   3.145  14.989  0.7660  1.4812  0.0028
  888MPD2    H113021   0.383   3.322  14.610  0.0543  1.4936  1.0062
  888MPD2    H213022   0.148   3.006  14.737  0.9418 -0.7737  1.9587
  888MPD2    H313023   0.201   3.170  14.582  0.2507 -1.1835 -0.0426
  888MPD2     N13024   0.561   3.326  14.823  0.6363 -0.0611  0.0583
  888MPD2    H513025   0.596   3.315  14.918 -0.4333 -0.7230  0.3799
  888MPD2    N113026   0.270   2.983  14.987  0.4146 -0.0248 -0.8177
  888MPD2    H713027   0.313   2.988  15.079 -2.1277  2.0063  0.2604
  889MPD2     C13028   3.912   3.316  13.016 -0.6168 -0.0674 -0.7807
  889MPD2    C113029   4.039   3.315  13.054 -0.1206 -0.2706  0.0632
  889MPD2    C213030   4.074   3.425  13.138 -0.7073  0.5144 -0.2628
  889MPD2    C313031   4.008   3.544  13.149 -0.0879  1.6598  0.4401
  889MPD2    C413032   3.886   3.550  13.088  0.3096  1.0622 -0.4188
  889MPD2    C513033   3.835   3.431  13.039  0.4344 -0.0392 -0.0268
  889MPD2     H13034   4.170   3.423  13.189 -0.1158  0.1019 -1.3833
  889MPD2    H113035   3.819   3.634  13.082  0.0687  0.9480  0.7206
  889MPD2    H213036   3.853   3.226  13.001  0.7414 -0.8186 -1.5112
  889MPD2    H313037   3.729   3.417  13.019  0.3803 -0.2612  0.4063
  889MPD2     N13038   4.067   3.654  13.213  0.6380 -0.1685  0.0665
  889MPD2    H513039   4.164   3.644  13.242  0.7887  0.3486 -0.2397
  889MPD2    N113040   4.121   3.199  13.062 -0.0526 -0.2419  0.0763
  889MPD2    H713041   4.210   3.202  13.110 -0.1349  0.7985  0.1611
  890MPD2     C13042   4.018   4.428  14.707  0.0725 -0.0328 -0.8418
  890MPD2    C113043   4.133   4.492  14.740  1.1448 -0.3082  0.0802
  890MPD2    C213044   4.204   4.433  14.838 -0.3876  0.0036 -0.1334
  890MPD2    C313045   4.157   4.326  14.900  0.5216  0.6492  0.0296
  890MPD2    C413046   4.039   4.262  14.871  0.1622  0.4151 -0.5683
  890MPD2    C513047   3.970   4.318  14.767  0.7212  0.1179 -0.0310
  890MPD2     H13048   4.290   4.474  14.889 -0.1052  1.1298 -1.5157
  890MPD2    H113049   3.997   4.181  14.930  0.9227  0.9272  0.6799
  890MPD2    H213050   3.956   4.461  14.625 -2.7989 -4.3032 -0.3824
  890MPD2    H313051   3.881   4.274  14.722  1.7836  0.1623 -2.1757
  890MPD2     N13052   4.228   4.288  15.019 -0.0526 -0.7150 -0.1978
  890MPD2    H513053   4.310   4.345  15.035 -1.6038  0.9184  1.7359
  890MPD2    N113054   4.165   4.602  14.671 -0.4175 -0.5107  0.2117
  890MPD2    H713055   4.095   4.637  14.606 -1.1986  0.9551  1.8430
  891MPD2     C13056   2.046   2.462  16.919 -0.0050 -0.2573 -0.0886
  891MPD2    C113057   1.986   2.554  17.007 -0.5269  0.3364 -0.1176
  891MPD2    C213058   2.059   2.637  17.089  0.2011 -0.5027 -0.3573
  891MPD2    C313059   2.195   2.625  17.091  0.3038 -0.2297 -0.3490
  891MPD2    C413060   2.258   2.535  17.008 -0.2798  0.0310  0.5685
  891MPD2    C513061   2.182   2.459  16.920 -0.2619  1.2431 -0.1925
  891MPD2     H13062   2.014   2.715  17.150  1.4794  0.3365 -0.4985
  891MPD2    H113063   2.366   2.525  17.017 -0.1465 -0.5466 -1.7560
  891MPD2    H213064   1.985   2.404  16.850 -0.8482  2.0660 -1.3255
  891MPD2    H313065   2.244   2.390  16.865  1.9888  1.2579  2.3559
  891MPD2     N13066   2.263   2.729  17.153 -0.2932 -0.5892 -0.2155
  891MPD2    H513067   2.209   2.804  17.195 -0.7697 -0.6582 -0.7107
  891MPD2    N113068   1.846   2.571  16.985 -0.4791 -0.1066 -0.7692
  891MPD2    H713069   1.805   2.505  16.919  0.7524 -0.9746 -0.6695
  892MPD2     C13070   3.195   4.287  14.421 -0.7133 -0.4909  0.2814
  892MPD2    C113071   3.133   4.215  14.522  0.2243 -0.8343  0.5558
  892MPD2    C213072   3.169   4.080  14.528  0.4888  0.2391 -0.1037
  892MPD2    C313073   3.258   4.024  14.439 -0.2828  0.1895  0.6747
  892MPD2    C413074   3.323   4.096  14.343 -0.0016 -0.3464 -0.0596
  892MPD2    C513075   3.288   4.228  14.341 -0.0035 -0.1784 -0.1446
  892MPD2     H13076   3.126   4.011  14.599  0.7252  0.6228  0.4147
  892MPD2    H113077   3.401   4.053  14.281 -1.2325 -3.9971  0.9408
  892MPD2    H213078   3.177   4.390  14.394 -0.8606 -0.4191  0.6526
  892MPD2    H313079   3.331   4.300  14.272 -0.1000 -0.1103 -0.1337
  892MPD2     N13080   3.281   3.887  14.434 -0.4380 -0.3104  0.1220
  892MPD2    H513081   3.362   3.855  14.381 -0.1625  0.2581  0.2020
  892MPD2    N113082   3.017   4.272  14.589  0.4667  0.4423  0.5784
  892MPD2    H713083   2.996   4.366  14.555  1.2030 -0.1077 -1.3592
  893MPD2     C13084   0.264   2.857   2.388 -0.2341  0.4871 -0.0226
  893MPD2    C113085   0.192   2.889   2.272 -0.2337 -0.1645 -0.0171
  893MPD2    C213086   0.073   2.963   2.277 -0.6978  0.0050 -0.2654
  893MPD2    C313087   0.019   2.998   2.398  0.3079 -0.2711 -0.7401
  893MPD2    C413088   0.096   2.967   2.510  0.1246  0.6730  0.5426
  893MPD2    C513089   0.213   2.895   2.509 -0.1650 -0.6297  0.5390
  893MPD2     H13090   0.023   2.986   2.184 -0.2810  0.2387 -0.4305
  893MPD2    H113091   0.062   3.002   2.606  0.3094  1.5729  0.2835
  893MPD2    H213092   0.354   2.796   2.390 -0.7139 -0.2343 -0.3592
  893MPD2    H313093   0.264   2.890   2.604 -0.2430  1.1643  0.6797
  893MPD2     N13094   4.628   3.070   2.411 -0.1982  0.5013 -0.1962
  893MPD2    H513095   4.599   3.075   2.508  1.1983  4.0197  0.0608
  893MPD2    N113096   0.239   2.835   2.148  0.3255  0.0015  0.1659
  893MPD2    H713097   0.329   2.789   2.141 -0.5934 -1.5799 -1.2701
  894MPD2     C13098   2.675   0.033   1.270  0.1711  0.6784  0.1515
  894MPD2    C113099   2.616   0.093   1.379 -0.3092 -0.0804 -0.1271
  894MPD2    C213100   2.667   0.204   1.421 -0.0352 -0.0722  0.3630
  894MPD2    C313101   2.778   0.255   1.362  0.0497  0.2904 -0.5744
  894MPD2    C413102   2.840   0.199   1.261  0.5727 -1.0140  0.1627
  894MPD2    C513103   2.787   0.084   1.214 -0.2101  0.1824 -0.3480
  894MPD2     H13104   2.622   0.251   1.507 -0.6955  0.0603 -0.0629
  894MPD2    H113105   2.927   0.243   1.214  0.5086 -0.2538  0.7776
  894MPD2    H213106   2.639   4.665   1.229  0.6443  0.4337  0.3002
  894MPD2    H313107   2.833   0.032   1.131 -0.5244 -1.3873  0.4518
  894MPD2     N13108   2.831   0.376   1.413  0.1560  0.3991  0.5675
  894MPD2    H513109   2.767   0.440   1.458 -0.1848  0.8838 -0.6073
  894MPD2    N113110   2.488   0.052   1.429 -0.2758  0.1500 -0.1196
  894MPD2    H713111   2.445   0.111   1.499  0.3359  0.0573  0.3395
  895MPD2     C13112   2.113   3.093  14.317 -0.6527 -1.4456 -0.4270
  895MPD2    C113113   2.112   3.033  14.194  0.3678 -0.5487 -0.3191
  895MPD2    C213114   2.181   2.908  14.188 -0.3578  0.5795  0.3596
  895MPD2    C313115   2.268   2.875  14.295  0.0027  0.2612  0.3067
  895MPD2    C413116   2.281   2.955  14.407  0.6812 -0.1199 -0.1115
  895MPD2    C513117   2.197   3.058  14.420 -0.5790  0.5004  0.2716
  895MPD2     H13118   2.146   2.834  14.116 -3.0137  1.4610  0.7484
  895MPD2    H113119   2.318   2.921  14.503  0.2211 -0.2835  0.0092
  895MPD2    H213120   2.043   3.175  14.329 -0.7348 -1.7154  0.9004
  895MPD2    H313121   2.202   3.118  14.510 -0.4791 -0.9144  1.2152
  895MPD2     N13122   2.320   2.747  14.292  0.4022  0.2399 -0.2765
  895MPD2    H513123   2.292   2.683  14.218 -3.2843  0.8211  0.6072
  895MPD2    N113124   2.022   3.062  14.083  0.2245 -0.0504  0.0959
  895MPD2    H713125   2.000   2.997  14.009  0.7335  1.0537 -1.0105
  896MPD2     C13126   4.478   1.227   1.824  0.3724 -0.8752 -0.3987
  896MPD2    C113127   4.467   1.217   1.685 -0.0143  0.3033  0.1434
  896MPD2    C213128   4.345   1.162   1.634  0.5212  0.1992  0.4628
  896MPD2    C313129   4.241   1.130   1.716 -0.2786 -0.5790  0.3211
  896MPD2    C413130   4.253   1.152   1.851 -0.3962 -0.8181  0.2247
  896MPD2    C513131   4.372   1.195   1.903 -0.7253  0.5816  0.1384
  896MPD2     H13132   4.328   1.147   1.528  0.3468  1.0233  0.3692
  896MPD2    H113133   4.175   1.130   1.923  0.4296 -0.6804  1.1608
  896MPD2    H213134   4.568   1.265   1.871 -0.5592 -2.4118  2.6005
  896MPD2    H313135   4.384   1.214   2.009 -1.4222 -2.1465  0.7232
  896MPD2     N13136   4.123   1.088   1.662 -0.1774 -0.0583 -0.2638
  896MPD2    H513137   4.124   1.062   1.563  2.7281 -1.8337  0.2351
  896MPD2    N113138   4.565   1.258   1.595  0.3240 -0.1515  0.2424
  896MPD2    H713139   4.634   1.319   1.636  1.8299 -1.6098 -0.1289
  897MPD2     C13140   1.015   2.375  10.435  0.0865  0.9149 -0.3238
  897MPD2    C113141   1.008   2.506  10.468 -0.1747 -0.0931 -0.7883
  897MPD2    C213142   0.911   2.544  10.560 -0.4655 -0.5136  0.1125
  897MPD2    C313143   0.821   2.448  10.596  0.3365 -0.3843 -0.5230
  897MPD2    C413144   0.823   2.317  10.556  0.1987 -0.4835  0.4835
  897MPD2    C513145   0.927   2.280  10.480 -0.0197  0.0081 -0.1334
  897MPD2     H13146   0.887   2.648  10.579  1.4184  0.2149 -1.4999
  897MPD2    H113147   0.757   2.236  10.587 -0.1501  0.0348  1.1094
  897MPD2    H213148   1.082   2.345  10.355  0.9798  3.4970 -0.5422
  897MPD2    H313149   0.923   2.182  10.433  0.0276  0.7597 -1.6746
  897MPD2     N13150   0.703   2.499  10.657  0.0954 -0.2821 -0.4010
  897MPD2    H513151   0.702   2.600  10.669  0.5171 -0.6119  2.3498
  897MPD2    N113152   1.077   2.594  10.386  0.0614  0.5101 -0.2222
  897MPD2    H713153   1.118   2.562  10.299  0.4216  1.9034 -0.5662
  898MPD2     C13154   3.099   3.068   0.149 -0.0825  0.6860  0.1947
  898MPD2    C113155   3.169   3.169   0.087 -0.0038  0.2928  0.6547
  898MPD2    C213156   3.100   3.282   0.034 -0.0399  0.7556 -0.7044
  898MPD2    C313157   2.961   3.286   0.037 -1.2816 -0.0758 -0.4435
  898MPD2    C413158   2.890   3.184   0.102  0.0805 -0.6827 -0.4250
  898MPD2    C513159   2.961   3.082   0.160 -0.5262 -0.0413  0.1571
  898MPD2     H13160   3.163   3.361  17.701  2.0725 -0.9767 -0.8080
  898MPD2    H113161   2.786   3.194   0.130 -0.0222 -1.0633 -0.6772
  898MPD2    H213162   3.137   2.977   0.193  2.0771  2.2289  1.5421
  898MPD2    H313163   2.901   3.002   0.202  0.6435 -1.8347 -1.6454
  898MPD2     N13164   2.905   3.400  17.687  0.9505 -0.2457  0.7172
  898MPD2    H513165   2.972   3.463  17.643 -1.0057  1.6505  0.4378
  898MPD2    N113166   3.311   3.170   0.085  0.2140  0.0031  0.8621
  898MPD2    H713167   3.354   3.243   0.029  1.2412 -0.7031  0.7247
  899MPD2     C13168   3.446   4.407  17.583  0.1939 -0.6908 -0.1924
  899MPD2    C113169   3.583   4.408  17.580 -0.0563 -1.0171 -0.2848
  899MPD2    C213170   3.644   4.461  17.696  0.1781  0.4253 -0.0710
  899MPD2    C313171   3.571   4.512   0.094 -0.0761 -0.0363  0.1214
  899MPD2    C413172   3.435   4.510   0.089 -0.0835  0.3496  0.1000
  899MPD2    C513173   3.375   4.450  17.689  0.2410 -0.3989  0.6285
  899MPD2     H13174   3.751   4.475  17.693  0.1637  0.6399  0.4376
  899MPD2    H113175   3.372   4.553   0.166 -1.0725  0.8200 -0.9653
  899MPD2    H213176   3.382   4.369  17.505  1.0434 -2.2499 -0.1444
  899MPD2    H313177   3.269   4.432  17.681  0.5548 -1.1272 -2.0499
  899MPD2     N13178   3.625   4.581   0.207  0.0618  0.1926 -0.6750
  899MPD2    H513179   3.558   4.613   0.276 -0.3090  0.5272 -1.1959
  899MPD2    N113180   3.655   4.387  17.459 -0.2290 -0.5758 -0.0713
  899MPD2    H713181   3.600   4.383  17.374 -0.2681 -1.5295  0.0013
  900MPD2     C13182   3.436   0.752  12.387 -0.1230  0.6921  0.0375
  900MPD2    C113183   3.349   0.658  12.332 -0.1195 -0.1706  0.3438
  900MPD2    C213184   3.277   0.705  12.223 -0.1328  0.0165 -0.6812
  900MPD2    C313185   3.303   0.822  12.152 -0.6072  0.1770 -0.1641
  900MPD2    C413186   3.401   0.905  12.209  0.1357 -0.1586 -0.2333
  900MPD2    C513187   3.463   0.870  12.328  0.7416  0.0220  0.1589
  900MPD2     H13188   3.192   0.647  12.188 -1.3697  0.9310  0.8192
  900MPD2    H113189   3.416   1.005  12.168  1.2496 -1.4159 -2.8417
  900MPD2    H213190   3.489   0.729  12.479 -0.4487  1.8676  0.5152
  900MPD2    H313191   3.522   0.953  12.364  0.2289 -0.0082  1.0535
  900MPD2     N13192   3.217   0.868  12.048  0.2010 -1.2923 -0.0327
  900MPD2    H513193   3.151   0.796  12.022 -0.1880 -1.3613  1.1491
  900MPD2    N113194   3.335   0.536  12.397 -0.3716  0.1826  0.9199
  900MPD2    H713195   3.393   0.502  12.473  1.6727 -1.4584 -1.3774
  901MPD2     C13196   2.877   4.338  12.749  0.1723  0.1329 -0.0287
  901MPD2    C113197   2.996   4.292  12.700  0.2098  0.1177  0.8924
  901MPD2    C213198   3.079   4.380  12.633 -0.0599  0.6916 -0.7577
  901MPD2    C313199   3.047   4.518  12.632  0.2506 -0.0303 -0.2812
  901MPD2    C413200   2.932   4.555  12.699 -0.1541  0.9394 -0.0046
  901MPD2    C513201   2.846   4.466  12.754 -0.4488 -0.5573 -0.1340
  901MPD2     H13202   3.165   4.343  12.579 -2.0293 -3.2493 -1.2072
  901MPD2    H113203   2.905   4.660  12.700  0.4766  1.1130 -1.3614
  901MPD2    H213204   2.808   4.268  12.796  0.1845 -2.1662 -3.4574
  901MPD2    H313205   2.756   4.494  12.809 -0.4871  1.6649 -1.3141
  901MPD2     N13206   3.133   4.612  12.571 -0.3238  0.1379 -0.2390
  901MPD2    H513207   3.227   4.577  12.555 -0.4757  0.0980 -1.0040
  901MPD2    N113208   3.022   4.157  12.722  0.0887 -0.0886  0.1480
  901MPD2    H713209   2.944   4.099  12.752 -0.2312 -0.5206 -1.5427
  902MPD2     C13210   1.725   3.289  13.349 -0.1676  0.2181 -0.0187
  902MPD2    C113211   1.849   3.342  13.338  0.3726 -0.3743 -0.2294
  902MPD2    C213212   1.953   3.254  13.305 -0.1158  0.0161 -0.4435
  902MPD2    C313213   1.934   3.116  13.275 -0.0721 -0.2337  0.0979
  902MPD2    C413214   1.806   3.078  13.286  0.2112 -0.0531 -0.0567
  902MPD2    C513215   1.704   3.161  13.330  0.2243 -0.2196 -0.1353
  902MPD2     H13216   2.050   3.297  13.284  0.0010 -0.4565 -0.8944
  902MPD2    H113217   1.773   2.978  13.263  1.0644 -0.6145  1.1780
  902MPD2    H213218   1.638   3.336  13.393  0.6653  0.8765  0.9121
  902MPD2    H313219   1.607   3.117  13.353 -0.4499  0.3899 -1.7536
  902MPD2     N13220   2.034   3.032  13.227 -0.1142  0.1299  0.2415
  902MPD2    H513221   2.013   2.937  13.198  2.1196 -0.9050  2.0744
  902MPD2    N113222   1.871   3.480  13.359 -0.7801  0.0795 -0.4775
  902MPD2    H713223   1.790   3.541  13.366  1.2048  2.5278  0.8073
  903MPD2     C13224   2.577   3.214  12.669 -0.0324 -0.0722 -0.0236
  903MPD2    C113225   2.495   3.109  12.710  0.4413  0.0249 -0.6069
  903MPD2    C213226   2.385   3.080  12.622 -0.7444 -0.4375 -0.2314
  903MPD2    C313227   2.368   3.145  12.503 -0.0134  0.3540  0.4026
  903MPD2    C413228   2.451   3.250  12.466 -0.0687  0.5358 -0.0241
  903MPD2    C513229   2.561   3.276  12.546  0.2180 -0.2992 -1.1704
  903MPD2     H13230   2.322   2.993  12.639 -0.7683 -0.4968 -0.6393
  903MPD2    H113231   2.438   3.312  12.379  0.0071  1.4853  0.6369
  903MPD2    H213232   2.668   3.244  12.721  0.9497 -2.1908 -0.5283
  903MPD2    H313233   2.628   3.358  12.521 -0.3401  0.8954  1.2194
  903MPD2     N13234   2.254   3.113  12.426  0.4539  0.0436 -0.9390
  903MPD2    H513235   2.180   3.051  12.458 -1.0339  0.7130 -3.0680
  903MPD2    N113236   2.513   3.047  12.833  0.5135  0.0358  0.7072
  903MPD2    H713237   2.590   3.079  12.891  1.5506  0.1744 -0.7514
  904MPD2     C13238   1.998   2.442  14.935  0.3545 -0.5437  0.4282
  904MPD2    C113239   2.021   2.573  14.895 -0.9597  1.0113  0.2931
  904MPD2    C213240   2.136   2.629  14.940  0.0784 -0.0063 -0.5264
  904MPD2    C313241   2.226   2.568  15.023  0.9225  0.6048  0.9163
  904MPD2    C413242   2.193   2.441  15.068 -0.5701 -0.2944 -0.2690
  904MPD2    C513243   2.083   2.382  15.021  0.1673 -0.0928 -0.5619
  904MPD2     H13244   2.155   2.729  14.903  0.0908 -0.6779 -2.3345
  904MPD2    H113245   2.259   2.394  15.141 -2.2013 -1.1834  0.6511
  904MPD2    H213246   1.910   2.382  14.915  0.9429 -0.0610 -3.6337
  904MPD2    H313247   2.051   2.288  15.065 -3.2934  0.6264 -1.5533
  904MPD2     N13248   2.335   2.646  15.060 -0.1676 -0.3964 -0.0754
  904MPD2    H513249   2.344   2.725  14.996 -1.1038 -0.3732 -0.1731
  904MPD2    N113250   1.944   2.636  14.803  0.5031  0.2708 -0.6268
  904MPD2    H713251   1.988   2.715  14.756 -0.2259  1.3298  0.4860
  905MPD2     C13252   1.792   2.580  13.924  0.1015  0.1670 -0.5377
  905MPD2    C113253   1.869   2.620  14.031 -0.1558  0.1001 -0.1295
  905MPD2    C213254   2.006   2.586  14.040  0.4505 -1.2309  0.7461
  905MPD2    C313255   2.071   2.511  13.940  0.2998  0.9525  0.6080
  905MPD2    C413256   1.989   2.468  13.841  0.2743  0.0532 -0.0774
  905MPD2    C513257   1.858   2.505  13.829  0.3065 -0.2751 -0.0253
  905MPD2     H13258   2.064   2.632  14.119  0.1051  2.0780 -0.9548
  905MPD2    H113259   2.026   2.399  13.766 -1.9957  0.8482 -1.8929
  905MPD2    H213260   1.687   2.607  13.918  0.7106  2.8238  0.6335
  905MPD2    H313261   1.807   2.485  13.735  0.4129  1.8294 -0.5321
  905MPD2     N13262   2.200   2.462  13.953  0.1687 -0.7399  0.1966
  905MPD2    H513263   2.238   2.382  13.903 -1.4125 -0.6354 -1.1719
  905MPD2    N113264   1.804   2.673  14.147  0.2960  0.7892  0.5966
  905MPD2    H713265   1.707   2.701  14.135  0.8268  1.6723 -1.5864
  906MPD2     C13266   4.164   2.883  10.988  0.5247 -0.1634 -0.4378
  906MPD2    C113267   4.121   2.771  10.912  0.2039  0.0432 -0.2879
  906MPD2    C213268   4.092   2.661  10.987 -0.2647  0.2582  0.2790
  906MPD2    C313269   4.098   2.661  11.126 -0.4605 -0.5641 -0.0472
  906MPD2    C413270   4.138   2.775  11.194  0.0082  0.9167 -0.0187
  906MPD2    C513271   4.164   2.890  11.124 -0.0166 -0.1205  0.1954
  906MPD2     H13272   4.071   2.570  10.933  0.1132  1.2720 -1.6029
  906MPD2    H113273   4.155   2.770  11.300 -2.1326  1.8009  0.3630
  906MPD2    H213274   4.191   2.982  10.952 -0.5713  0.3920  0.2523
  906MPD2    H313275   4.201   2.976  11.179 -1.4769  1.9273 -1.9986
  906MPD2     N13276   4.089   2.544  11.203  0.0260 -0.4890  0.0013
  906MPD2    H513277   4.128   2.546  11.296  2.0275  1.2959 -0.8588
  906MPD2    N113278   4.127   2.754  10.771  0.2133  0.7083  0.2201
  906MPD2    H713279   4.075   2.675  10.734 -1.1441  1.3236  0.8198
  907MPD2     C13280   2.835   2.022  15.788  0.1652  0.0341 -0.6853
  907MPD2    C113281   2.965   1.965  15.756  0.5461  0.1426 -1.1015
  907MPD2    C213282   3.046   1.927  15.865 -0.4124 -0.0331  0.0885
  907MPD2    C313283   3.017   1.950  15.995  0.7010 -0.5831 -0.2637
  907MPD2    C413284   2.894   2.005  16.023 -0.3900 -0.1341 -0.1038
  907MPD2    C513285   2.803   2.035  15.922  0.1721 -0.3653 -0.7503
  907MPD2     H13286   3.143   1.884  15.840  0.1271  0.2135  1.7931
  907MPD2    H113287   2.857   2.019  16.124  1.0300  2.2683  0.0864
  907MPD2    H213288   2.761   2.052  15.715  1.1649  1.5440 -1.1001
  907MPD2    H313289   2.703   2.061  15.952 -0.4547 -0.3138 -2.8572
  907MPD2     N13290   3.120   1.923  16.080  0.2354  0.6219 -0.2417
  907MPD2    H513291   3.197   1.863  16.052  3.1764  2.4578  3.7755
  907MPD2    N113292   3.012   1.933  15.626 -0.5425 -0.1387  0.4135
  907MPD2    H713293   3.096   1.878  15.612 -1.0217 -0.4386 -1.3146
  908MPD2     C13294   1.150   2.544   9.553 -0.2328  0.6895 -0.0181
  908MPD2    C113295   1.131   2.464   9.661 -0.4094  1.1649 -0.0051
  908MPD2    C213296   1.139   2.520   9.790 -0.7568 -0.0883 -0.1706
  908MPD2    C313297   1.162   2.657   9.799  0.3200  0.0564  0.5656
  908MPD2    C413298   1.154   2.731   9.688 -0.1551  0.0222  1.5639
  908MPD2    C513299   1.151   2.673   9.565  0.2868 -0.6246  0.3096
  908MPD2     H13300   1.130   2.445   9.868 -1.2271 -0.6912 -0.8108
  908MPD2    H113301   1.168   2.839   9.691 -1.4616  0.2349 -0.3082
  908MPD2    H213302   1.132   2.511   9.452 -1.5852 -1.9698  1.0987
  908MPD2    H313303   1.137   2.734   9.477 -3.6130 -0.6686  0.9058
  908MPD2     N13304   1.159   2.720   9.928  0.5199 -0.1958  0.0984
  908MPD2    H513305   1.146   2.664  10.012 -0.2841 -0.1706 -0.0139
  908MPD2    N113306   1.081   2.332   9.646 -0.6431  0.1378 -0.6178
  908MPD2    H713307   1.045   2.286   9.729  0.8033 -1.1355 -0.6960
  909MPD2     C13308   0.928   1.130  12.140  0.0493 -0.3512  0.0666
  909MPD2    C113309   0.976   1.249  12.099 -0.1389  0.0746 -0.3632
  909MPD2    C213310   0.931   1.369  12.157 -0.2779  0.8862 -0.5121
  909MPD2    C313311   0.838   1.365  12.256 -0.4150 -0.2416 -0.0221
  909MPD2    C413312   0.797   1.241  12.308  0.1236 -0.4019  0.0558
  909MPD2    C513313   0.836   1.127  12.242  0.3167  0.2685 -0.3881
  909MPD2     H13314   0.957   1.461  12.107  1.1725  1.3524  1.1253
  909MPD2    H113315   0.726   1.224  12.388 -2.3328 -1.4369 -2.3780
  909MPD2    H213316   0.961   1.034  12.103  0.3795 -0.1993 -0.0259
  909MPD2    H313317   0.801   1.031  12.279  0.9443 -0.6363 -2.1262
  909MPD2     N13318   0.792   1.494  12.301 -0.2630  0.0104  0.6983
  909MPD2    H513319   0.832   1.574  12.254  0.1092  0.1307  1.2184
  909MPD2    N113320   1.065   1.268  11.991 -0.3485  0.2164 -0.0353
  909MPD2    H713321   1.098   1.360  11.961  1.9354 -0.6763 -0.2605
  910MPD2     C13322   2.369   2.622  16.676  0.3779  0.9315 -0.0274
  910MPD2    C113323   2.446   2.553  16.585 -0.4454  0.6905 -0.5343
  910MPD2    C213324   2.392   2.537  16.462 -0.3037  0.3071 -0.2064
  910MPD2    C313325   2.272   2.598  16.429  0.2689  0.6671 -0.3411
  910MPD2    C413326   2.197   2.656  16.523  0.1587 -0.5025  0.2494
  910MPD2    C513327   2.249   2.669  16.649  0.0082 -0.2215 -0.3903
  910MPD2     H13328   2.453   2.486  16.388 -0.6440 -0.0838 -0.2161
  910MPD2    H113329   2.103   2.709  16.509 -0.6896 -2.2144 -0.6410
  910MPD2    H213330   2.401   2.630  16.779 -1.7845 -0.9367  0.7930
  910MPD2    H313331   2.204   2.733  16.724  1.2447  1.0688 -0.7701
  910MPD2     N13332   2.213   2.590  16.306 -0.5136 -0.0882  0.2658
  910MPD2    H513333   2.125   2.641  16.297  0.8134  2.0299 -0.9352
  910MPD2    N113334   2.576   2.490  16.607  0.2984 -0.2894  0.5436
  910MPD2    H713335   2.620   2.443  16.529  0.3420 -0.5118  0.7006
  911MPD2     C13336   0.381   2.867  16.243 -0.3161  0.0414 -0.2883
  911MPD2    C113337   0.459   2.980  16.261  0.3979  0.0765 -0.1476
  911MPD2    C213338   0.410   3.108  16.244  0.0498  0.0592 -0.6793
  911MPD2    C313339   0.279   3.125  16.219 -0.0263  0.0233  0.4520
  911MPD2    C413340   0.192   3.023  16.205 -0.4100 -0.1005  0.5891
  911MPD2    C513341   0.247   2.894  16.219 -0.0400 -0.0616  0.4508
  911MPD2     H13342   0.474   3.195  16.248 -1.3343  0.9902  1.0102
  911MPD2    H113343   0.084   3.037  16.199 -0.4553  0.1954  2.1193
  911MPD2    H213344   0.418   2.766  16.252  2.2134  1.0450  0.6420
  911MPD2    H313345   0.173   2.815  16.207 -0.7307  0.7886 -0.9216
  911MPD2     N13346   0.216   3.251  16.212 -0.1223  0.1534 -0.2513
  911MPD2    H513347   0.117   3.240  16.194 -0.2810 -1.1528  1.4098
  911MPD2    N113348   0.590   2.951  16.290  0.9781  0.0545  0.6691
  911MPD2    H713349   0.621   2.854  16.294 -0.2556 -0.3122  1.3580
  912MPD2     C13350   4.685   3.059  15.742  0.0819  0.4394 -0.3797
  912MPD2    C113351   4.670   3.084  15.877 -0.2395 -1.2475 -0.2310
  912MPD2    C213352   4.650   2.977  15.962  0.0398  0.6480  0.3976
  912MPD2    C313353   4.669   2.847  15.924  0.8890 -0.3105 -0.3847
  912MPD2    C413354   4.714   2.827  15.794 -0.3647 -0.0768 -0.2006
  912MPD2    C513355   4.703   2.926  15.703 -0.2643 -0.1727 -0.1506
  912MPD2     H13356   4.636   2.985  16.069 -1.4418 -0.9878  0.3263
  912MPD2    H113357   0.013   2.725  15.766 -0.0411 -0.5543  1.7701
  912MPD2    H213358   4.700   3.142  15.674 -0.6168  0.7973 -0.0960
  912MPD2    H313359   0.010   2.897  15.604 -2.0778 -1.3009 -0.4307
  912MPD2     N13360   4.660   2.742  16.018 -0.2414  0.8351 -0.2093
  912MPD2    H513361   4.635   2.774  16.111  0.6350  2.2247 -0.4370
  912MPD2    N113362   4.672   3.220  15.918  0.0849  0.2374 -0.1249
  912MPD2    H713363   4.695   3.287  15.845  0.1505 -0.5992 -0.8716
  913MPD2     C13364   0.326   3.876  10.440 -0.0771  0.0550 -0.2155
  913MPD2    C113365   0.334   3.981  10.534  0.2106  1.2917  0.0951
  913MPD2    C213366   0.298   4.110  10.488 -0.3196 -0.1236 -0.1637
  913MPD2    C313367   0.243   4.124  10.360 -0.3886 -0.0419  0.4190
  913MPD2    C413368   0.233   4.012  10.275  0.3825 -0.2715 -0.9757
  913MPD2    C513369   0.267   3.886  10.317 -0.3015  0.5113 -0.4688
  913MPD2     H13370   0.306   4.195  10.555 -1.3488 -0.9327  0.9641
  913MPD2    H113371   0.201   4.028  10.172 -1.4851  0.1939 -0.3205
  913MPD2    H213372   0.375   3.782  10.462  1.7121  1.4548  1.7355
  913MPD2    H313373   0.253   3.809  10.243 -1.0656  0.3344 -0.1393
  913MPD2     N13374   0.217   4.248  10.307 -0.7992 -0.3639 -0.4712
  913MPD2    H513375   0.179   4.244  10.213  1.9081  1.3804 -1.6476
  913MPD2    N113376   0.408   3.958  10.657  0.6426  0.0634 -0.1275
  913MPD2    H713377   0.442   3.863  10.674  0.4135 -0.2787 -1.6206
  914MPD2     C13378   2.727   3.635  12.067 -0.1678  0.2861  0.1101
  914MPD2    C113379   2.747   3.766  12.098 -0.5945  0.2444  0.2979
  914MPD2    C213380   2.784   3.799  12.228  0.1955 -0.0196  0.0291
  914MPD2    C313381   2.821   3.701  12.317  0.5611  0.2582 -0.6254
  914MPD2    C413382   2.808   3.567  12.286  0.3234  0.3128  0.4679
  914MPD2    C513383   2.743   3.539  12.167 -0.5365 -0.0827  0.4415
  914MPD2     H13384   2.794   3.903  12.259  1.7410  0.5777 -2.4820
  914MPD2    H113385   2.843   3.481  12.341  0.0286 -0.8206 -1.1208
  914MPD2    H213386   2.681   3.594  11.977  0.4980  0.7467 -0.4406
  914MPD2    H313387   2.730   3.433  12.148 -1.8019 -0.2349  2.1542
  914MPD2     N13388   2.900   3.751  12.428 -1.2102 -0.3909 -0.0948
  914MPD2    H513389   2.922   3.849  12.422 -3.1475  0.1840  2.0342
  914MPD2    N113390   2.713   3.856  11.999  0.0793  0.0928 -0.2230
  914MPD2    H713391   2.694   3.823  11.904  1.2147  0.5087 -0.5911
  915MPD2     C13392   2.015   4.622  15.975 -0.1227  0.0626  0.1840
  915MPD2    C113393   1.901   4.660  15.911 -0.6956 -0.4289  0.1061
  915MPD2    C213394   1.794   4.711  15.986 -0.4653  0.3164 -0.2609
  915MPD2    C313395   1.809   0.005  16.122  0.1387  0.1542  0.2947
  915MPD2    C413396   1.923   4.690  16.192  0.1677 -0.0818 -0.1714
  915MPD2    C513397   2.022   4.632  16.111  0.0374 -0.4113 -0.2808
  915MPD2     H13398   1.702   0.016  15.936 -0.3582  3.2254  1.3292
  915MPD2    H113399   1.943   4.714  16.295 -1.1445  0.2075  0.0097
  915MPD2    H213400   2.104   4.587  15.923 -0.8991 -2.3977  0.5114
  915MPD2    H313401   2.118   4.612  16.157  0.7817  3.3054 -0.2731
  915MPD2     N13402   1.699   0.065  16.190  0.7686 -0.4508  0.1806
  915MPD2    H513403   1.627   0.092  16.123  1.8204 -2.0304 -1.6085
  915MPD2    N113404   1.902   4.643  15.766 -0.3029  0.6556  0.6656
  915MPD2    H713405   1.986   4.598  15.732 -0.8178  0.4796 -0.3886
  916MPD2     C13406   4.577   2.265  16.374  0.5857  0.2390 -0.2980
  916MPD2    C113407   4.472   2.301  16.299  0.5716 -0.2662  0.0704
  916MPD2    C213408   4.457   2.264  16.164  0.8920  0.0786  0.3254
  916MPD2    C313409   4.552   2.182  16.109 -0.5138 -0.6022  0.6751
  916MPD2    C413410   4.668   2.151  16.188 -0.0536  0.0418 -0.6026
  916MPD2    C513411   4.673   2.191  16.319 -0.3262 -0.0288  0.1370
  916MPD2     H13412   4.367   2.282  16.107  0.9240  0.6054  0.4409
  916MPD2    H113413   0.028   2.092  16.162 -0.8073 -1.3622  0.0953
  916MPD2    H213414   4.590   2.287  16.479 -1.3210 -0.4055  0.0703
  916MPD2    H313415   0.028   2.171  16.388  0.2850  0.1874 -0.5270
  916MPD2     N13416   4.531   2.145  15.976 -0.3715  0.3240  0.2535
  916MPD2    H513417   4.446   2.174  15.929 -1.4273  0.4932  2.2802
  916MPD2    N113418   4.386   2.392  16.370 -0.2295  0.0747  0.0405
  916MPD2    H713419   4.414   2.411  16.466  0.1061  1.6368 -0.3756
  917MPD2     C13420   4.205   0.295  11.306  0.6050 -0.0875 -0.6808
  917MPD2    C113421   4.268   0.353  11.416 -0.4846 -0.0940 -0.0344
  917MPD2    C213422   4.316   0.481  11.406 -0.0310 -0.3781 -0.2027
  917MPD2    C313423   4.323   0.544  11.281 -0.7409  0.2416  0.9686
  917MPD2    C413424   4.263   0.487  11.172  0.0085 -0.5869  0.7996
  917MPD2    C513425   4.208   0.357  11.191  0.3298 -0.2111  0.0411
  917MPD2     H13426   4.349   0.538  11.492  0.6690 -0.2126 -0.5855
  917MPD2    H113427   4.262   0.531  11.073 -1.0320 -1.6899  0.3212
  917MPD2    H213428   4.148   0.204  11.317 -0.4918  0.4770 -1.7811
  917MPD2    H313429   4.165   0.314  11.101 -0.5337 -2.0859  1.3532
  917MPD2     N13430   4.374   0.678  11.269  0.0555  0.4824  0.1057
  917MPD2    H513431   4.349   0.723  11.182  1.0703  1.4735  0.3240
  917MPD2    N113432   4.265   0.274  11.533  0.4457 -0.7500 -0.0039
  917MPD2    H713433   4.227   0.181  11.517  1.1314 -0.8690 -0.9693
  918MPD2     C13434   4.423   0.497  12.500  0.0511 -0.0361 -0.1978
  918MPD2    C113435   4.514   0.482  12.400  1.4018 -0.3368  0.2781
  918MPD2    C213436   4.470   0.437  12.276  0.6772  0.8172 -0.7835
  918MPD2    C313437   4.346   0.377  12.267 -0.2659 -0.1762 -0.3262
  918MPD2    C413438   4.257   0.387  12.369  0.2206  0.0972 -0.1237
  918MPD2    C513439   4.294   0.453  12.481 -0.2067 -0.0983  0.0619
  918MPD2     H13440   4.541   0.451  12.194 -0.6940 -1.4343 -2.3538
  918MPD2    H113441   4.158   0.344  12.364  0.6353 -0.9416  0.6844
  918MPD2    H213442   4.449   0.546  12.593 -1.2299  0.9475 -0.3638
  918MPD2    H313443   4.228   0.458  12.567  0.4250  0.3994  0.5102
  918MPD2     N13444   4.323   0.308  12.143 -0.7484  0.3077 -0.0387
  918MPD2    H513445   4.391   0.312  12.068 -0.7795  0.0134 -0.0835
  918MPD2    N113446   4.658   0.513  12.421 -0.4501 -0.0793  0.5333
  918MPD2    H713447   4.724   0.515  12.344 -1.1064  0.9891  0.0030
  919MPD2     C13448   0.210   4.207  11.729  0.1587  0.0017  0.2782
  919MPD2    C113449   0.235   4.085  11.677 -0.4685  0.1741  0.1756
  919MPD2    C213450   0.224   4.068  11.539  0.5962  0.3219 -0.6713
  919MPD2    C313451   0.203   4.178  11.457 -0.2046 -0.3758  0.2984
  919MPD2    C413452   0.181   4.300  11.512  0.4274 -0.7909  0.4480
  919MPD2    C513453   0.178   4.313  11.647  0.2821  0.6788  0.1442
  919MPD2     H13454   0.232   3.968  11.499  0.9923  0.1918 -0.2698
  919MPD2    H113455   0.159   4.395  11.465 -1.2706 -1.2020  0.4018
  919MPD2    H213456   0.219   4.236  11.833  1.3502 -0.4827  0.3064
  919MPD2    H313457   0.163   4.415  11.681 -0.6034 -0.0316  1.8583
  919MPD2     N13458   0.205   4.172  11.316 -0.0501  0.1868  0.1759
  919MPD2    H513459   0.189   4.255  11.260 -2.9100 -0.0382  0.6431
  919MPD2    N113460   0.263   3.968  11.752 -0.3571 -0.5147 -0.1073
  919MPD2    H713461   0.261   3.877  11.707 -3.3940 -1.7328  2.5433
  920MPD2     C13462   4.673   4.641  10.494  0.0616  0.3663 -0.0642
  920MPD2    C113463   4.641   4.519  10.450  0.6172  0.1723 -0.4783
  920MPD2    C213464   4.683   4.410  10.519  0.5550 -0.1096  0.0928
  920MPD2    C313465   0.050   4.427  10.631  0.1530  0.1951  0.2923
  920MPD2    C413466   0.085   4.553  10.671  0.5447  0.3891 -0.3363
  920MPD2    C513467   0.023   4.661  10.610  0.0115 -0.5677 -0.5177
  920MPD2     H13468   4.661   4.309  10.484 -0.3962 -0.4116  1.5654
  920MPD2    H113469   0.144   4.581  10.758 -0.8028  0.4413  0.5786
  920MPD2    H213470   4.642   0.011  10.455  0.2279  1.6409  2.9532
  920MPD2    H313471   0.044   0.039  10.630 -0.3694 -0.4572 -0.6833
  920MPD2     N13472   0.086   4.309  10.701  0.6655 -0.4952 -0.2437
  920MPD2    H513473   0.063   4.218  10.663 -1.5859  0.0594 -0.1845
  920MPD2    N113474   4.563   4.499  10.335 -0.3706 -0.6729  0.2515
  920MPD2    H713475   4.558   4.401  10.310  1.6535 -1.2773  2.2111
  921MPD2     C13476   1.423   3.263  16.825 -0.1356 -0.3916  0.3303
  921MPD2    C113477   1.363   3.145  16.859  0.1021  0.4312  0.1771
  921MPD2    C213478   1.244   3.107  16.795  0.3615  0.0048  0.7031
  921MPD2    C313479   1.197   3.181  16.686  0.3616 -0.6595 -0.0656
  921MPD2    C413480   1.259   3.300  16.663 -0.1668  0.0953  0.7027
  921MPD2    C513481   1.367   3.342  16.732 -0.2094  0.2569 -0.0939
  921MPD2     H13482   1.193   3.015  16.822  0.2245 -0.3472 -0.7518
  921MPD2    H113483   1.233   3.363  16.579 -0.9318  0.0898  0.9391
  921MPD2    H213484   1.520   3.287  16.865 -0.8010 -2.3698  3.1080
  921MPD2    H313485   1.413   3.432  16.692 -0.2561 -0.8446 -2.6198
  921MPD2     N13486   1.101   3.132  16.596  0.0241 -0.0435 -0.1915
  921MPD2    H513487   1.088   3.192  16.515  3.0599 -2.2347 -2.3053
  921MPD2    N113488   1.429   3.073  16.957 -0.2476  0.0200 -0.4600
  921MPD2    H713489   1.522   3.101  16.987 -1.2609  3.7865 -0.8653
  922MPD2     C13490   2.137   1.624  17.280 -0.0468  0.3125 -0.5792
  922MPD2    C113491   2.157   1.592  17.414  0.4489 -0.9857 -0.2643
  922MPD2    C213492   2.129   1.464  17.446  0.2464 -0.6109  0.3960
  922MPD2    C313493   2.100   1.366  17.358 -0.3890  0.6668 -0.3795
  922MPD2    C413494   2.088   1.398  17.223  0.5034  1.0864  0.1595
  922MPD2    C513495   2.106   1.527  17.188  0.2013 -0.3188 -0.3831
  922MPD2     H13496   2.152   1.443  17.550  1.3916 -2.2797 -0.1740
  922MPD2    H113497   2.081   1.335  17.134 -0.0268 -1.4833  2.0095
  922MPD2    H213498   2.159   1.722  17.238 -1.0971  0.3864 -0.9526
  922MPD2    H313499   2.104   1.545  17.082 -0.0399  0.8113 -0.1815
  922MPD2     N13500   2.086   1.234  17.405 -0.2466 -0.2718  0.5464
  922MPD2    H513501   2.095   1.221  17.505  1.2077  2.7552  0.8242
  922MPD2    N113502   2.216   1.677  17.504  0.7729 -0.9905  0.0492
  922MPD2    H713503   2.239   1.641  17.596  1.1329 -0.7536  0.0556
  923MPD2     C13504   3.090   2.419   9.111 -0.2931 -0.4355 -0.2211
  923MPD2    C113505   3.029   2.499   9.204 -0.3723  0.0172  0.7433
  923MPD2    C213506   3.085   2.515   9.329  0.1737 -0.3268 -0.1195
  923MPD2    C313507   3.203   2.447   9.363 -0.6554  0.5118  0.0551
  923MPD2    C413508   3.258   2.365   9.272  0.3521 -0.3054 -1.0616
  923MPD2    C513509   3.204   2.348   9.147  0.3403 -0.9390 -0.3289
  923MPD2     H13510   3.045   2.583   9.404  0.7937 -0.5602  0.4199
  923MPD2    H113511   3.346   2.305   9.294 -0.6797 -0.6289  2.2447
  923MPD2    H213512   3.042   2.404   9.014  0.2142  1.0993 -0.7097
  923MPD2    H313513   3.254   2.279   9.079  1.0748  0.8259 -1.5975
  923MPD2     N13514   3.283   2.471   9.477 -0.7388  0.1918 -0.0259
  923MPD2    H513515   3.356   2.403   9.496 -0.8217  0.0498 -0.2157
  923MPD2    N113516   2.907   2.559   9.160  0.1752  0.3458  0.2618
  923MPD2    H713517   2.887   2.544   9.062  0.2047 -2.9324  0.7554
  924MPD2     C13518   3.455   1.175  16.461  0.2214 -0.1760 -0.4439
  924MPD2    C113519   3.484   1.276  16.540 -0.0259 -0.6171  0.1793
  924MPD2    C213520   3.468   1.408  16.500  0.0658  0.0416 -0.6093
  924MPD2    C313521   3.426   1.435  16.372 -0.4866 -0.4375 -0.3964
  924MPD2    C413522   3.384   1.329  16.296  0.2183  0.1616 -0.7661
  924MPD2    C513523   3.394   1.201  16.335 -0.1923  0.5799 -0.1414
  924MPD2     H13524   3.482   1.484  16.575 -1.5153 -0.4651  0.1915
  924MPD2    H113525   3.346   1.358  16.198 -1.2212  1.0753  0.0644
  924MPD2    H213526   3.463   1.074  16.500  0.9718  0.8159  1.9837
  924MPD2    H313527   3.363   1.123  16.267  1.1643  2.1001 -2.5461
  924MPD2     N13528   3.412   1.563  16.320  0.5195  0.1745 -0.3418
  924MPD2    H513529   3.366   1.578  16.231 -2.2655  0.8098  1.2010
  924MPD2    N113530   3.503   1.236  16.674  0.0571  0.1535 -0.0762
  924MPD2    H713531   3.485   1.139  16.699 -0.4222  0.1246 -0.5341
  925MPD2     C13532   2.391   3.635  14.906  0.1318  0.2629 -0.4756
  925MPD2    C113533   2.255   3.648  14.876 -0.1596  0.8396 -0.9416
  925MPD2    C213534   2.174   3.691  14.980 -0.9988  0.9335  0.1079
  925MPD2    C313535   2.215   3.684  15.111  0.4459  0.3652  0.1295
  925MPD2    C413536   2.341   3.649  15.141  0.1872  1.3047 -0.4914
  925MPD2    C513537   2.428   3.644  15.036  0.6297  0.3428 -1.1072
  925MPD2     H13538   2.076   3.731  14.957 -0.7501  1.3619 -0.2021
  925MPD2    H113539   2.378   3.659  15.243  2.2636 -1.3541 -0.9963
  925MPD2    H213540   2.467   3.605  14.835  1.1155  0.2643  0.5774
  925MPD2    H313541   2.532   3.621  15.057  0.6029 -1.9452 -3.5418
  925MPD2     N13542   2.133   3.710  15.225 -0.5956 -0.2357 -0.1959
  925MPD2    H513543   2.170   3.671  15.311  4.3153 -1.3948 -2.7918
  925MPD2    N113544   2.205   3.642  14.741  0.3309  0.3328 -0.6065
  925MPD2    H713545   2.113   3.681  14.723  0.8789  1.8797 -0.0664
  926MPD2     C13546   0.677   2.375  13.678  0.0144 -0.8002  0.2911
  926MPD2    C113547   0.582   2.432  13.589 -0.6902 -0.1937  0.1086
  926MPD2    C213548   0.622   2.482  13.466 -0.2597 -0.2446  0.5720
  926MPD2    C313549   0.750   2.486  13.432 -0.4583 -1.1381  0.4599
  926MPD2    C413550   0.844   2.456  13.526  0.9412  0.2277 -0.4089
  926MPD2    C513551   0.803   2.394  13.642  0.3201 -0.2251  0.9047
  926MPD2     H13552   0.543   2.520  13.402 -0.3119 -3.2415 -1.1809
  926MPD2    H113553   0.948   2.469  13.499  1.0946  0.8339  0.4628
  926MPD2    H213554   0.651   2.340  13.777 -0.2016  1.2823  0.9496
  926MPD2    H313555   0.877   2.373  13.718 -1.2123  1.8970  2.9766
  926MPD2     N13556   0.793   2.539  13.301  0.2561 -0.9837  0.3379
  926MPD2    H513557   0.894   2.551  13.298  0.0454  1.1143  1.4696
  926MPD2    N113558   0.446   2.430  13.630  0.0196 -0.2366 -0.6261
  926MPD2    H713559   0.392   2.492  13.571 -1.6288 -3.1159 -2.1387
  927MPD2     C13560   1.390   3.883   0.790 -0.7286  0.0280  0.7260
  927MPD2    C113561   1.470   3.981   0.736  0.0928 -0.0792 -0.7206
  927MPD2    C213562   1.530   3.961   0.611 -0.4903  0.0235 -0.4837
  927MPD2    C313563   1.507   3.848   0.535 -0.2266 -0.5302  0.3503
  927MPD2    C413564   1.424   3.756   0.592 -0.4172 -0.3278  0.1030
  927MPD2    C513565   1.378   3.768   0.719  0.5866 -0.3196 -0.9054
  927MPD2     H13566   1.595   4.037   0.569 -1.2021  0.3374 -1.0167
  927MPD2    H113567   1.393   3.672   0.530 -2.3981 -0.4259  1.2547
  927MPD2    H213568   1.353   3.899   0.890 -1.7938  1.7589  0.0560
  927MPD2    H313569   1.329   3.679   0.757  3.0863 -1.0421  0.6757
  927MPD2     N13570   1.561   3.840   0.403 -0.1785 -0.2774 -0.1043
  927MPD2    H513571   1.628   3.912   0.379  1.2684 -1.9533 -1.0789
  927MPD2    N113572   1.487   4.102   0.812 -0.0783 -0.5124 -0.0403
  927MPD2    H713573   1.421   4.104   0.888  0.0528 -4.2283  0.1373
  928MPD2     C13574   4.371   2.998   1.259 -0.2882  0.4989  0.1704
  928MPD2    C113575   4.301   3.120   1.249  0.7626 -0.1981  0.2435
  928MPD2    C213576   4.286   3.180   1.121  0.0486 -0.9128 -0.2537
  928MPD2    C313577   4.339   3.116   1.008  0.2311 -0.0191 -0.0520
  928MPD2    C413578   4.400   2.995   1.025  0.5379  0.5873  0.0876
  928MPD2    C513579   4.409   2.937   1.147  0.7351  0.5475 -0.2760
  928MPD2     H13580   4.239   3.277   1.110 -1.1976 -1.4764  0.1433
  928MPD2    H113581   4.452   2.940   0.948 -0.2459  0.3140 -0.2504
  928MPD2    H213582   4.391   2.963   1.359  0.0569 -0.4352 -0.2292
  928MPD2    H313583   4.448   2.836   1.155  0.0173  0.0405 -3.3077
  928MPD2     N13584   4.342   3.174   0.878 -0.0530 -0.3887  0.3227
  928MPD2    H513585   4.372   3.119   0.799 -1.3839  0.0364 -0.4714
  928MPD2    N113586   4.254   3.188   1.364 -0.0945 -1.3389  0.3293
  928MPD2    H713587   4.283   3.154   1.455  0.1134 -2.5019 -0.1810
  929MPD2     C13588   3.353   2.954  10.321 -0.1662 -0.1244  0.8569
  929MPD2    C113589   3.356   2.834  10.253 -0.0086  0.4336  0.6374
  929MPD2    C213590   3.287   2.823  10.138 -0.1659 -0.1797 -0.4008
  929MPD2    C313591   3.212   2.927  10.082  0.3926 -0.2860 -0.5608
  929MPD2    C413592   3.216   3.051  10.150 -1.1033  0.3188  0.6266
  929MPD2    C513593   3.280   3.062  10.268  0.0493  0.1875  0.0346
  929MPD2     H13594   3.288   2.722  10.098  3.7813 -0.9460  1.7649
  929MPD2    H113595   3.157   3.134  10.114 -0.1841  1.0600  0.8139
  929MPD2    H213596   3.422   2.975  10.402 -0.5944 -0.4886  1.3162
  929MPD2    H313597   3.275   3.159  10.317 -0.3038  0.9107 -1.4401
  929MPD2     N13598   3.141   2.925   9.958 -0.3444  0.0214 -0.6857
  929MPD2    H513599   3.110   3.013   9.919 -0.6510  0.1496 -0.1515
  929MPD2    N113600   3.412   2.731  10.324  0.8330  0.1840  0.4914
  929MPD2    H713601   3.479   2.751  10.398  0.2916 -0.8071  1.2508
  930MPD2     C13602   1.065   0.227  14.459 -0.8884  0.3427 -0.6484
  930MPD2    C113603   0.967   0.317  14.499  0.2107  0.2512 -0.2448
  930MPD2    C213604   0.846   0.313  14.429  0.4446  0.8255  0.0081
  930MPD2    C313605   0.827   0.218  14.330 -0.3591  1.0539 -0.4832
  930MPD2    C413606   0.922   0.131  14.294 -0.7565  0.0806 -0.4530
  930MPD2    C513607   1.046   0.148  14.349  0.0297  0.0842  0.2325
  930MPD2     H13608   0.761   0.376  14.453 -0.2472  0.5055 -1.6117
  930MPD2    H113609   0.897   0.055  14.221 -1.4965  0.8553 -1.0087
  930MPD2    H213610   1.157   0.234  14.516 -0.6414  0.2658 -1.0366
  930MPD2    H313611   1.125   0.078  14.325 -1.0695 -1.3329  0.7325
  930MPD2     N13612   0.716   0.219  14.252  0.5522  0.3514 -0.1725
  930MPD2    H513613   0.714   0.142  14.186  0.3557 -0.1592  0.4313
  930MPD2    N113614   1.003   0.425  14.584  0.2431  0.4924 -0.2376
  930MPD2    H713615   1.104   0.427  14.593 -0.1735 -2.0740  5.5332
  931MPD2     C13616   1.608   4.570   1.522 -0.0282 -0.0875 -0.2444
  931MPD2    C113617   1.565   4.463   1.453  0.2769 -0.3708  0.4177
  931MPD2    C213618   1.517   4.351   1.517 -0.2160 -0.1171 -0.3984
  931MPD2    C313619   1.467   4.370   1.650 -0.0894  0.5053  0.2004
  931MPD2    C413620   1.493   4.489   1.716  0.1759 -0.6962 -0.0429
  931MPD2    C513621   1.562   4.584   1.653 -0.8428 -0.6323  0.0045
  931MPD2     H13622   1.476   4.267   1.462  1.2558  0.9033 -3.0530
  931MPD2    H113623   1.453   4.509   1.815  0.5708  0.4977 -0.1344
  931MPD2    H213624   1.653   4.656   1.476 -0.7395  0.9019  0.9149
  931MPD2    H313625   1.593   4.676   1.702  0.3722  0.2729 -2.5039
  931MPD2     N13626   1.397   4.267   1.722 -0.0825  0.1278  0.1719
  931MPD2    H513627   1.359   4.287   1.813  0.1056 -0.6837  0.4315
  931MPD2    N113628   1.578   4.474   1.311  0.2783 -0.4937  0.1660
  931MPD2    H713629   1.607   4.562   1.269  1.7490 -0.4239  1.3260
  932MPD2     C13630   2.650   3.076  11.614  0.3356  0.2629  0.2727
  932MPD2    C113631   2.543   3.117  11.689 -0.1767  0.4221  0.1676
  932MPD2    C213632   2.502   3.035  11.793  0.3500  1.0877  0.2183
  932MPD2    C313633   2.567   2.916  11.832  0.0487  0.1770  0.2571
  932MPD2    C413634   2.674   2.877  11.750 -0.3916  0.1708  0.2117
  932MPD2    C513635   2.715   2.955  11.644  0.7792  0.2366 -0.5901
  932MPD2     H13636   2.412   3.062  11.848 -0.6753  0.7864 -1.3351
  932MPD2    H113637   2.727   2.788  11.782 -0.5511 -0.0939 -0.2624
  932MPD2    H213638   2.690   3.140  11.537 -1.8183  0.8148 -0.3797
  932MPD2    H313639   2.792   2.922  11.576  0.9603 -1.4757  0.4498
  932MPD2     N13640   2.523   2.832  11.932  0.0515 -0.4568  0.0585
  932MPD2    H513641   2.578   2.747  11.935  0.5938 -0.2627 -4.4963
  932MPD2    N113642   2.475   3.241  11.668  0.7290  0.5128 -0.1804
  932MPD2    H713643   2.423   3.277  11.748  1.7878  1.7683 -0.0477
  933MPD2     C13644   3.659   3.447   1.978 -0.2834 -0.3117 -0.0009
  933MPD2    C113645   3.674   3.477   1.847  0.5564  1.0032  0.3788
  933MPD2    C213646   3.562   3.514   1.778  0.3747  0.4374  0.5494
  933MPD2    C313647   3.438   3.534   1.834  0.1761 -0.0461  0.2621
  933MPD2    C413648   3.420   3.500   1.967  0.1497  0.0945  0.3560
  933MPD2    C513649   3.533   3.465   2.033 -0.1477 -0.1214 -0.7746
  933MPD2     H13650   3.572   3.547   1.675  1.9846  1.4245  1.0286
  933MPD2    H113651   3.329   3.515   2.025  1.6213 -0.4649  2.8131
  933MPD2    H213652   3.746   3.424   2.040  0.4446  1.9299 -0.1770
  933MPD2    H313653   3.535   3.460   2.141  1.5542  1.2729 -0.7395
  933MPD2     N13654   3.340   3.592   1.756  0.7386 -0.2276  0.6429
  933MPD2    H513655   3.370   3.629   1.666  1.9675 -0.2238  1.0482
  933MPD2    N113656   3.807   3.466   1.797 -0.1405  0.9458  0.7631
  933MPD2    H713657   3.881   3.441   1.861 -0.8683 -0.2914  1.1138
  934MPD2     C13658   4.704   0.776   1.298 -0.2809 -0.2988 -0.1064
  934MPD2    C113659   4.694   0.840   1.422 -0.0650 -0.0110 -0.0177
  934MPD2    C213660   4.574   0.817   1.485  0.2126  0.4129  0.0844
  934MPD2    C313661   4.474   0.732   1.443  0.0639  0.1222  0.1077
  934MPD2    C413662   4.496   0.670   1.324  0.2998 -0.4009 -0.1522
  934MPD2    C513663   4.608   0.695   1.248 -0.6216 -0.2659 -0.3494
  934MPD2     H13664   4.569   0.855   1.586  1.3561  1.0846 -0.1179
  934MPD2    H113665   4.419   0.600   1.293  0.1600 -1.1832  1.9289
  934MPD2    H213666   0.056   0.790   1.223 -2.1582 -2.2311 -2.4143
  934MPD2    H313667   4.624   0.655   1.149  0.6452 -1.8743  0.4961
  934MPD2     N13668   4.367   0.690   1.517 -0.2457 -0.1234 -0.1033
  934MPD2    H513669   4.317   0.610   1.480 -1.1511 -1.6114  4.2461
  934MPD2    N113670   0.058   0.936   1.472  0.6755 -0.1305 -0.4136
  934MPD2    H713671   0.037   0.960   1.569  0.4998 -1.7903 -0.0489
  935MPD2     C13672   4.437   4.667   1.602 -0.6171  0.0512 -0.3673
  935MPD2    C113673   4.416   0.003   1.482  0.1591  1.1935 -0.4642
  935MPD2    C213674   4.325   0.104   1.479  0.2923  0.0725 -0.4433
  935MPD2    C313675   4.255   0.141   1.595 -0.1075  0.0185  0.0471
  935MPD2    C413676   4.279   0.073   1.716 -0.2220 -0.2861  0.0718
  935MPD2    C513677   4.362   4.692   1.711  0.9296 -0.2673  0.8651
  935MPD2     H13678   4.302   0.157   1.387 -3.4753 -1.5921 -0.4483
  935MPD2    H113679   4.217   0.094   1.803 -0.1098 -0.0216  0.0885
  935MPD2    H213680   4.513   4.590   1.612 -0.0723  0.2614 -2.7227
  935MPD2    H313681   4.384   4.639   1.803  0.7970 -0.4186  0.8087
  935MPD2     N13682   4.168   0.252   1.579  0.2936  0.2400  0.0804
  935MPD2    H513683   4.153   0.293   1.487  1.9618 -1.9484 -1.1703
  935MPD2    N113684   4.476   4.688   1.361  1.3018  0.3112  0.9334
  935MPD2    H713685   4.448   0.010   1.276  4.4285  1.7292  0.7320
  936MPD2     C13686   2.280   2.154  12.785 -0.2991 -0.1244  0.1379
  936MPD2    C113687   2.272   2.032  12.724 -0.1900 -0.4888  0.8030
  936MPD2    C213688   2.365   1.998  12.623  1.0622 -0.1509  0.4094
  936MPD2    C313689   2.454   2.094  12.572  0.6123 -0.4190  0.4783
  936MPD2    C413690   2.466   2.218  12.642 -0.0905 -0.4418 -0.2313
  936MPD2    C513691   2.373   2.243  12.743 -0.0690 -0.7662  0.5380
  936MPD2     H13692   2.346   1.906  12.568  0.1715  1.5314 -2.1240
  936MPD2    H113693   2.531   2.300  12.614 -0.5539  0.5680  1.6587
  936MPD2    H213694   2.227   2.187  12.873 -1.0602  1.5817 -0.9499
  936MPD2    H313695   2.372   2.339  12.793 -1.3299  0.3806 -1.6593
  936MPD2     N13696   2.535   2.082  12.459  0.4571 -0.1275 -0.2545
  936MPD2    H513697   2.588   2.163  12.429 -1.5117  0.9931 -0.6376
  936MPD2    N113698   2.178   1.930  12.758 -0.8291  0.4971  0.1301
  936MPD2    H713699   2.193   1.851  12.696 -0.9198 -0.5029  1.3822
  937MPD2     C13700   0.616   3.363  11.615  0.5731  0.3839  0.2263
  937MPD2    C113701   0.615   3.504  11.619  0.5251  0.6456 -0.5136
  937MPD2    C213702   0.669   3.565  11.499  0.2184  0.4713 -0.2311
  937MPD2    C313703   0.753   3.498  11.412  0.4337 -0.3167  0.1359
  937MPD2    C413704   0.754   3.364  11.422 -0.3409 -0.4416 -0.0505
  937MPD2    C513705   0.686   3.290  11.519 -0.3268 -0.0416  0.2014
  937MPD2     H13706   0.672   3.672  11.488 -1.5800  0.5676  0.1666
  937MPD2    H113707   0.810   3.302  11.353 -1.2896 -0.4682 -0.8010
  937MPD2    H213708   0.575   3.298  11.692  3.0061 -0.3712  0.8959
  937MPD2    H313709   0.679   3.183  11.527 -1.6609 -0.2315 -3.6719
  937MPD2     N13710   0.828   3.560  11.310  0.2800  0.2256 -0.5878
  937MPD2    H513711   0.819   3.661  11.305 -1.9161  0.1528  1.4368
  937MPD2    N113712   0.526   3.577  11.705  0.6180 -0.2775 -0.2766
  937MPD2    H713713   0.508   3.670  11.671 -0.6391 -0.4103  0.0335
  938MPD2     C13714   2.987   4.590   0.923 -0.0827  0.2778 -0.5629
  938MPD2    C113715   3.056   4.653   1.031 -0.1603  0.1801  0.0796
  938MPD2    C213716   3.098   4.573   1.137 -0.1606 -0.5958  0.2948
  938MPD2    C313717   3.068   4.438   1.142 -0.5652  0.5492  0.4573
  938MPD2    C413718   2.995   4.382   1.039  0.7984 -0.8769 -0.1456
  938MPD2    C513719   2.959   4.457   0.926 -0.2893  0.0252  0.7827
  938MPD2     H13720   3.151   4.624   1.216  0.6663 -3.6204  1.6915
  938MPD2    H113721   2.951   4.284   1.035 -0.3456 -0.4360  1.6595
  938MPD2    H213722   2.955   4.640   0.832 -0.3654 -0.1606 -0.7010
  938MPD2    H313723   2.919   4.406   0.838  1.7501  0.5794 -0.4674
  938MPD2     N13724   3.091   4.365   1.263 -0.0294 -0.1370  0.6348
  938MPD2    H513725   3.054   4.271   1.271 -0.2816 -0.3346 -2.9920
  938MPD2    N113726   3.082   0.069   1.031 -0.0501  0.4000 -0.3561
  938MPD2    H713727   3.136   0.105   1.109  0.2835 -0.2655 -0.2757
  939MPD2     C13728   4.407   0.634   0.620 -0.1820 -0.2983 -0.5913
  939MPD2    C113729   4.402   0.758   0.574  0.7267 -1.1227  0.2393
  939MPD2    C213730   4.518   0.822   0.529  0.0619 -0.1110 -0.2389
  939MPD2    C313731   4.643   0.766   0.547  0.2860  0.2073 -0.2206
  939MPD2    C413732   4.648   0.646   0.613 -0.1165  0.0239  0.2926
  939MPD2    C513733   4.531   0.578   0.645  0.0671  0.0149 -0.5604
  939MPD2     H13734   4.508   0.924   0.493 -2.0871 -1.1817 -2.6558
  939MPD2    H113735   0.011   0.595   0.650  1.3912  2.2778 -0.2244
  939MPD2    H213736   4.316   0.590   0.659  0.5859 -2.4325 -1.1794
  939MPD2    H313737   4.539   0.481   0.692  2.5372  0.4678 -0.0359
  939MPD2     N13738   0.036   0.838   0.526 -0.0890 -0.0181 -0.4727
  939MPD2    H513739   0.024   0.935   0.500  2.7138 -0.0778 -2.0185
  939MPD2    N113740   4.273   0.809   0.557 -0.0871 -0.2706  0.3854
  939MPD2    H713741   4.203   0.736   0.570  0.7753 -1.1636  0.0779
  940MPD2     C13742   2.989   1.483  13.075 -0.1061  0.2617  0.3236
  940MPD2    C113743   3.124   1.451  13.059  0.2455 -0.0958  0.3228
  940MPD2    C213744   3.172   1.471  12.928  0.1075 -0.5046 -0.0269
  940MPD2    C313745   3.098   1.521  12.824 -0.1784 -0.1430 -0.3826
  940MPD2    C413746   2.966   1.550  12.848 -0.2052 -0.5619  0.0375
  940MPD2    C513747   2.912   1.518  12.970  0.5898  0.0642  0.1249
  940MPD2     H13748   3.277   1.444  12.918  0.7698  1.7111  0.9742
  940MPD2    H113749   2.900   1.592  12.773 -1.7154  0.9120  2.1943
  940MPD2    H213750   2.930   1.466  13.164 -0.1157 -0.0195  0.2648
  940MPD2    H313751   2.805   1.528  12.983  0.6007  0.7781 -0.3333
  940MPD2     N13752   3.150   1.560  12.699  0.4106  0.3170  0.2806
  940MPD2    H513753   3.084   1.582  12.625  0.3052  0.5486  0.4407
  940MPD2    N113754   3.192   1.387  13.160  0.1733 -0.0483 -0.0119
  940MPD2    H713755   3.279   1.342  13.135 -0.8563 -1.4951 -1.0620
  941MPD2     C13756   2.099   1.306  10.185 -0.6145 -0.2785 -0.5117
  941MPD2    C113757   2.203   1.230  10.144  0.3085  0.6516 -0.3806
  941MPD2    C213758   2.215   1.110  10.205  0.4935  0.4602 -0.8687
  941MPD2    C313759   2.119   1.058  10.287 -0.0303  0.6519  0.6472
  941MPD2    C413760   2.009   1.132  10.327 -0.4620 -0.9094 -1.0888
  941MPD2    C513761   2.000   1.256  10.270  0.1095 -0.2166 -0.5362
  941MPD2     H13762   2.309   1.059  10.189 -0.3912 -1.0439 -1.2594
  941MPD2    H113763   1.918   1.096  10.373  0.4069 -2.9511 -0.9513
  941MPD2    H213764   2.073   1.402  10.142  0.0487 -0.5283 -1.4793
  941MPD2    H313765   1.913   1.317  10.291  0.5210 -0.1561  0.9836
  941MPD2     N13766   2.116   0.927  10.339 -0.0932 -0.6757 -0.7831
  941MPD2    H513767   2.040   0.902  10.401 -0.0175  2.4071  0.5566
  941MPD2    N113768   2.296   1.281  10.052 -0.0578  0.3373 -0.3809
  941MPD2    H713769   2.374   1.219  10.031  0.1993 -0.3290  2.5041
  942MPD2     C13770   2.314   2.602   8.902 -0.7334 -0.0240 -0.6516
  942MPD2    C113771   2.308   2.619   9.041  0.4233  0.0408 -0.2280
  942MPD2    C213772   2.402   2.560   9.126  0.6743  0.0695  0.4044
  942MPD2    C313773   2.499   2.480   9.070  0.4526  0.3645 -0.6381
  942MPD2    C413774   2.508   2.472   8.928 -0.1609  0.6427 -0.5620
  942MPD2    C513775   2.414   2.533   8.849  0.3867 -0.3294 -0.7485
  942MPD2     H13776   2.388   2.569   9.233 -1.4548 -1.8360  0.2923
  942MPD2    H113777   2.573   2.400   8.879  0.1567  0.6836 -0.2007
  942MPD2    H213778   2.234   2.627   8.833 -0.2887 -1.3464 -1.6450
  942MPD2    H313779   2.406   2.505   8.745 -0.5312 -0.5053 -0.6311
  942MPD2     N13780   2.590   2.402   9.146  0.1863 -0.0757 -0.0180
  942MPD2    H513781   2.659   2.350   9.093  2.1331  0.6916  1.7571
  942MPD2    N113782   2.192   2.678   9.097 -0.8210 -0.3433  0.2343
  942MPD2    H713783   2.164   2.658   9.193 -1.2377  0.8359  0.3504
  943MPD2     C13784   1.006   1.197   9.781  0.5031  0.5380 -0.0558
  943MPD2    C113785   0.982   1.119   9.893 -0.1553 -0.1824  0.7156
  943MPD2    C213786   1.018   1.167  10.017 -0.1168  0.1137 -0.0921
  943MPD2    C313787   1.099   1.276  10.028  0.1778 -0.3718 -0.5462
  943MPD2    C413788   1.121   1.349   9.915 -0.4073 -0.0068 -0.0300
  943MPD2    C513789   1.077   1.314   9.793  0.9855  0.6474 -0.6440
  943MPD2     H13790   0.997   1.107  10.105  2.2022 -1.4801 -0.6215
  943MPD2    H113791   1.177   1.441   9.917 -2.0674  0.9511  1.5274
  943MPD2    H213792   0.962   1.179   9.684  0.5253  0.1197  0.0110
  943MPD2    H313793   1.083   1.380   9.707  0.9467  1.4401 -0.0431
  943MPD2     N13794   1.142   1.318  10.158  0.1274  0.3730  0.0858
  943MPD2    H513795   1.191   1.406  10.162  0.5938  0.0228  1.8023
  943MPD2    N113796   0.918   0.993   9.868  0.4198  0.1594 -0.1928
  943MPD2    H713797   0.906   0.965   9.771 -3.2178  5.0748 -1.1701
  944MPD2     C13798   0.818   0.328  10.897  0.4228  0.4042  0.4489
  944MPD2    C113799   0.881   0.443  10.926 -0.2532 -0.7869  0.2037
  944MPD2    C213800   0.842   0.516  11.035 -0.2571  0.6061  0.7228
  944MPD2    C313801   0.744   0.465  11.112  0.4059  0.5479  0.1854
  944MPD2    C413802   0.686   0.340  11.100  0.2329 -0.0533  0.0782
  944MPD2    C513803   0.727   0.271  10.986 -0.1659 -0.8566  0.5882
  944MPD2     H13804   0.869   0.620  11.049  1.8757 -0.0714  1.6433
  944MPD2    H113805   0.612   0.300  11.169 -0.9443  2.0641  0.0607
  944MPD2    H213806   0.844   0.268  10.811 -0.5182 -0.6364  0.8993
  944MPD2    H313807   0.679   0.174  10.983 -1.4358 -0.2316  0.6249
  944MPD2     N13808   0.715   0.546  11.226  0.1248 -0.6907  0.3071
  944MPD2    H513809   0.771   0.630  11.237 -1.5222  0.5054 -0.5216
  944MPD2    N113810   0.963   0.509  10.828 -0.6356  0.0568 -0.2417
  944MPD2    H713811   0.999   0.599  10.857 -1.3828 -0.1171  1.1863
    1TCq1    O113812   4.326   0.740  14.314 -0.0083  0.3170  0.1399
    1TCq1    C113813   4.340   0.630  14.390  0.0346 -0.5039  0.5694
    1TCq1    O213814   4.295   0.521  14.360 -0.1481 -0.1900 -0.7258
    1TCq1    C213815   4.448   0.657  14.484 -0.5040 -0.0587 -0.4515
    1TCq1    C313816   4.521   0.545  14.514 -0.0235 -0.4370  0.1275
    1TCq1    C413817   4.637   0.561  14.588 -0.4331 -1.2537 -0.7815
    1TCq1    C513818   4.679   0.689  14.628 -0.0006 -0.1785  0.6587
    1TCq1    C613819   4.604   0.794  14.584 -0.4062  0.5714  1.0102
    1TCq1    C713820   4.482   0.784  14.519 -0.5156 -0.2133 -0.7856
    1TCq1    C813821   4.656   0.924  14.614  0.2108  0.2509  0.1246
    1TCq1    O413822   0.012   0.949  14.700  0.4867  0.0981  0.5025
    1TCq1    C913823   0.007   0.458  14.597 -0.2695  0.0584 -0.5650
    1TCq1    O513824   0.126   0.492  14.609 -0.2132 -0.1357 -0.0468
    1TCq1    O613825   4.688   0.339  14.577 -0.5045 -0.6611  0.1780
    1TCq1    H113826   4.376   0.821  14.337  0.7736  0.0436 -0.5851
    1TCq1    H213827   4.497   0.446  14.477 -1.4008 -0.5370  1.3206
    1TCq1    H313828   0.047   0.701  14.680  1.0282  0.2642 -1.2976
    1TCq1    H413829   4.409   0.863  14.506 -0.2261  0.0287 -0.9509
    2MPD2     C13830   4.632   1.430  14.579 -0.8339 -0.1833 -0.1710
    2MPD2    C113831   4.540   1.378  14.494 -0.1550 -0.4817  0.1557
    2MPD2    C213832   4.527   1.238  14.492  0.2821 -0.7460 -0.2322
    2MPD2    C313833   4.616   1.160  14.562  0.0202 -0.4840  0.3600
    2MPD2    C413834   4.713   1.214  14.642 -0.2056 -0.3339  0.4432
    2MPD2    C513835   4.716   1.348  14.650 -0.0280 -0.0989 -0.7178
    2MPD2     H13836   4.460   1.184  14.427  0.7853 -0.9194 -0.5995
    2MPD2    H113837   0.061   1.161  14.700 -1.5181 -0.5871  1.8840
    2MPD2    H213838   4.637   1.537  14.595 -0.0588 -0.2114 -0.1988
    2MPD2    H313839   0.063   1.397  14.714  1.2187  0.0136 -2.2097
    2MPD2     N13840   4.595   1.022  14.544 -1.1677 -0.6393  0.0267
    2MPD2    H513841   4.528   0.983  14.477  0.6333  0.2321 -2.2908
    2MPD2    N113842   4.468   1.455  14.403  0.6508  0.8307 -0.4463
    2MPD2    H713843   4.481   1.555  14.392  1.7875  0.7185 -0.1267
    3TMC2    C113844   4.310   1.495  14.226 -0.0246  0.0254 -0.0846
    3TMC2    C213845   4.290   1.614  14.287 -0.0185 -0.1396  0.2576
    3TMC2    C313846   4.219   1.701  14.217 -0.3439  0.0019 -0.0867
    3TMC2    C413847   4.262   1.464  14.095  0.3596 -0.0398 -0.7416
    3TMC2    C513848   4.194   1.568  14.035  0.1952  0.1496  0.4549
    3TMC2    C613849   4.168   1.689  14.089  0.0162 -0.2680  1.1218
    3TMC2     C13850   4.386   1.402  14.297  0.3925  0.3825 -0.4436
    3TMC2     O13851   4.381   1.283  14.256  0.2230 -0.6715  0.4983
    3TMC2     H13852   4.321   1.640  14.388  1.6315 -0.7252 -0.0948
    3TMC2    H113853   4.277   1.368  14.047 -1.0666  0.2798 -1.8057
    3TMC2    H213854   4.130   1.777  14.039  0.9240 -1.2097 -1.2262
    3TMC2    C713855   4.141   1.529  13.907 -0.7750  0.2784 -0.2024
    3TMC2    C813856   4.229   1.839  14.258  0.1990  0.0484  0.5618
    3TMC2    O113857   4.149   1.411  13.884 -0.0517  0.2750  0.4322
    3TMC2    O213858   4.136   1.919  14.248  0.1892 -0.7965 -0.5014
    3TMC2    O513859   4.352   1.861  14.304 -0.2076 -0.4102 -0.1802
    3TMC2    H513860   4.417   1.788  14.294 -1.7043 -2.2188  3.4242
    4MPD2     C13861   2.951   2.019  13.562  1.0604  0.1580 -0.2481
    4MPD2    C113862   2.969   2.090  13.448  0.0000  0.0887 -0.3834
    4MPD2    C213863   3.099   2.141  13.412 -0.1026  0.3239 -0.7082
    4MPD2    C313864   3.199   2.107  13.495  0.3420 -0.3159 -0.6390
    4MPD2    C413865   3.181   2.038  13.618 -0.3996  0.2181  0.0622
    4MPD2    C513866   3.054   2.002  13.652 -0.3514  0.2630  0.3341
    4MPD2     H13867   3.114   2.194  13.320 -0.6325 -0.0970 -1.0385
    4MPD2    H113868   3.254   2.016  13.695 -1.4218 -2.7300  0.1778
    4MPD2    H213869   2.852   1.979  13.583  1.7834 -2.7845 -2.4542
    4MPD2    H313870   3.030   1.944  13.741 -1.0245  1.0264  0.6540
    4MPD2     N13871   3.322   2.149  13.449  0.2294  0.0759 -0.7942
    4MPD2    H513872   3.323   2.191  13.357 -0.0885  2.4197  0.2584
    4MPD2    N113873   2.849   2.100  13.362  0.2843  0.1227 -0.5224
    4MPD2    H713874   2.764   2.059  13.400 -0.3902 -2.3479 -4.6417
    5TCq2    C113875   3.442   2.148  13.514 -0.5661  0.2528  0.1436
    5TCq2    O213876   3.466   2.110  13.626  0.0090  0.4417 -0.0187
    5TCq2    C213877   3.558   2.130  13.422 -0.2901 -0.9968 -0.1868
    5TCq2    C313878   3.541   2.105  13.288 -0.6970  0.5214 -1.2317
    5TCq2    C413879   3.654   2.063  13.219  1.0936 -0.6501 -0.0178
    5TCq2    C513880   3.771   2.028  13.280 -0.1568  0.1981  0.0304
    5TCq2    C613881   3.780   2.048  13.417 -0.3441  0.4587 -0.2495
    5TCq2    C713882   3.675   2.103  13.487 -0.5033  0.0401  0.4802
    5TCq2    C813883   3.862   1.961  13.501 -0.2357  0.6023  0.4273
    5TCq2    O413884   3.858   1.990  13.623 -0.2217 -0.2891 -0.0943
    5TCq2    C913885   3.633   2.016  13.082 -0.1930 -0.6265  0.4290
    5TCq2    O513886   3.719   1.934  13.048 -1.0454  0.1755  0.7372
    5TCq2    O613887   3.521   2.042  13.027  1.0115 -0.0183  0.1922
    5TCq2    H213888   3.453   2.128  13.229  0.8008 -2.0722 -4.5387
    5TCq2    H313889   3.853   1.989  13.221 -0.4752  1.4228 -1.2211
    5TCq2    H413890   3.699   2.148  13.583 -0.0137 -1.3873  1.0283
    6MPD1     C13891   2.066   3.701  12.956  0.0886  0.4972  0.6826
    6MPD1    C113892   2.192   3.742  13.003  0.2138 -0.5285  0.4645
    6MPD1    C213893   2.271   3.658  13.085  0.4331 -0.1895 -0.3321
    6MPD1    C313894   2.238   3.525  13.100  0.0912 -0.0421 -0.1611
    6MPD1    C413895   2.122   3.482  13.046  0.4766  0.6941 -0.5616
    6MPD1    C513896   2.039   3.567  12.972  0.1305 -0.2893  0.0906
    6MPD1     H13897   2.365   3.695  13.125  0.7104 -1.9750  0.6671
    6MPD1    H113898   2.110   3.374  13.053  0.4202  0.7509  0.1636
    6MPD1    H213899   2.004   3.766  12.897  1.8916  1.9911  0.4263
    6MPD1    H313900   1.943   3.531  12.937  0.5129 -3.0530  1.8510
    6MPD1     N13901   2.324   3.432  13.170 -0.1358  0.0248 -0.1116
    6MPD1    H513902   2.293   3.336  13.184  1.1414 -0.3861 -0.0979
    6MPD1    N113903   2.221   3.883  13.004 -0.1402  0.0599  0.0635
    6MPD1    H613904   2.317   3.917  13.016  0.4311 -0.7449 -2.2456
    6MPD1    H713905   2.189   3.922  12.916  2.6502 -0.4251 -1.1819
    7MPD2     C13906   2.340   2.780  13.610 -0.2148 -0.4467 -0.1920
    7MPD2    C113907   2.416   2.783  13.489 -0.4672 -0.0158  0.3355
    7MPD2    C213908   2.450   2.667  13.420 -1.0723 -0.5323 -0.3943
    7MPD2    C313909   2.409   2.541  13.463 -0.3889 -0.7602 -0.1685
    7MPD2    C413910   2.333   2.533  13.572  0.3660 -0.5419  0.5318
    7MPD2    C513911   2.314   2.650  13.648  0.3303  0.3077 -0.1521
    7MPD2     H13912   2.524   2.677  13.342 -0.4367 -2.3593 -0.0441
    7MPD2    H113913   2.310   2.435  13.614 -1.8023 -0.9188 -1.5932
    7MPD2    H213914   2.305   2.864  13.668  1.5832  0.8674 -0.9997
    7MPD2    H313915   2.264   2.648  13.744  4.4734 -0.0653  1.9905
    7MPD2     N13916   2.438   2.428  13.387 -0.1167  0.1171 -0.5289
    7MPD2    H513917   2.392   2.343  13.419 -3.4639  1.2083 -2.5333
    7MPD2    N113918   2.467   2.899  13.429 -0.3239 -0.4556 -0.0968
    7MPD2    H713919   2.520   2.882  13.345 -1.2591  1.9970 -1.1738
    8TMC3    C113920   2.511   2.300  13.200 -0.3085 -0.0304 -0.6623
    8TMC3    C213921   2.612   2.228  13.256  0.1469  0.8249 -0.0259
    8TMC3    C313922   2.713   2.186  13.174 -0.0357  0.6584 -0.2550
    8TMC3    C413923   2.520   2.327  13.059  0.4468 -0.1625 -0.1975
    8TMC3    C513924   2.624   2.288  12.983 -0.0788 -0.5298 -0.1827
    8TMC3    C613925   2.727   2.213  13.039  0.9627 -0.4620  0.0967
    8TMC3     C13926   2.511   2.425  13.268 -0.4855 -0.1000  0.1322
    8TMC3     O13927   2.585   2.510  13.218  0.1289 -0.0967  0.1314
    8TMC3     H13928   2.601   2.193  13.358  1.2429 -0.5154 -0.3538
    8TMC3    H113929   2.445   2.397  13.022 -0.7750 -1.1316  0.4148
    8TMC3    H213930   2.807   2.174  12.977  0.9921 -0.6451  0.2497
    8TMC3    C713931   2.690   2.394  12.902  0.1508  0.8732 -0.8516
    8TMC3    C813932   2.840   2.159  13.240  0.4622 -0.5443 -0.5651
    8TMC3    O113933   2.760   2.362  12.808 -0.0712 -0.0346 -0.3496
    8TMC3    O213934   2.934   2.201  13.170  0.0742 -0.6250 -0.2620
    9TMC3    C113935   2.520   3.321  13.240  0.1295  0.3692  0.5728
    9TMC3    C213936   2.626   3.280  13.164 -0.1764  0.0083  0.6025
    9TMC3    C313937   2.674   3.151  13.185 -0.4836  0.5076 -0.2747
    9TMC3    C413938   2.472   3.249  13.350  0.4983 -0.5879  0.6390
    9TMC3    C513939   2.526   3.124  13.372 -0.2709  0.4782 -0.7120
    9TMC3    C613940   2.621   3.073  13.284  0.4893  0.3274  0.5858
    9TMC3     C13941   2.462   3.444  13.187  0.2622 -0.0760 -0.0468
    9TMC3     O13942   2.532   3.515  13.120 -0.2139  0.4679  0.0629
    9TMC3     H13943   2.666   3.333  13.078 -2.3824 -1.1632 -1.1430
    9TMC3    H113944   2.407   3.296  13.423 -1.1814 -0.3101 -1.0219
    9TMC3    H213945   2.660   2.973  13.297  2.3185  0.7083 -2.0159
    9TMC3    C713946   2.445   3.035  13.456  0.1344  0.5851  0.0776
    9TMC3    C813947   2.741   3.092  13.077  0.1400  0.1160 -0.0277
    9TMC3    O113948   2.353   3.072  13.526 -0.3431 -0.1010 -0.6671
    9TMC3    O213949   2.731   3.143  12.966 -0.8389 -0.2530  0.1196
   10MPD2     C13950   2.765   2.653  12.808  0.2682  0.3162  0.3955
   10MPD2    C113951   2.736   2.636  12.940 -0.2451  0.2752 -0.1263
   10MPD2    C213952   2.750   2.736  13.036 -0.4301  0.4479 -0.2621
   10MPD2    C313953   2.783   2.867  13.002  0.1602  0.1936 -1.4812
   10MPD2    C413954   2.809   2.895  12.868  0.0252 -0.2918  0.7707
   10MPD2    C513955   2.803   2.785  12.772 -0.1521 -0.7609 -0.1147
   10MPD2     H13956   2.723   2.717  13.139 -0.4400  1.5465 -0.0583
   10MPD2    H113957   2.840   2.990  12.826  0.5445 -0.4418  0.8083
   10MPD2    H213958   2.768   2.571  12.738 -0.9982  1.1115 -0.5978
   10MPD2    H313959   2.833   2.820  12.674  2.3692 -0.5177  0.7658
   10MPD2     N13960   2.781   2.963  13.109  0.0805  0.4021 -0.8088
   10MPD2    H513961   2.781   2.933  13.206 -1.5213 -0.6739 -1.1331
   10MPD2    N113962   2.684   2.510  12.979  0.1847  0.7832  0.4642
   10MPD2    H713963   2.646   2.503  13.073  0.0421  2.3335  0.5144
   11MPD2     C13964   4.034   1.493  13.635 -0.0338 -0.1638 -0.0093
   11MPD2    C113965   4.042   1.615  13.704 -0.6221 -0.2415 -0.2124
   11MPD2    C213966   4.004   1.728  13.630  0.0049 -0.6319  0.4492
   11MPD2    C313967   3.948   1.725  13.506 -0.2448  0.4798 -0.1023
   11MPD2    C413968   3.934   1.603  13.450 -0.2475  0.1960  0.2423
   11MPD2    C513969   3.977   1.490  13.512 -0.2889 -0.0852 -0.3195
   11MPD2     H13970   4.017   1.830  13.666 -0.0119 -0.2226 -0.6942
   11MPD2    H113971   3.884   1.585  13.355  2.0189 -3.4069 -0.2465
   11MPD2    H213972   4.078   1.402  13.675  1.4059  1.2905  1.7170
   11MPD2    H313973   3.965   1.401  13.452 -1.6571 -0.5782  0.6763
   11MPD2     N13974   3.886   1.844  13.442  0.1700 -0.6613  1.0667
   11MPD2    H513975   3.839   1.826  13.353 -1.2592 -0.7843  1.8464
   11MPD2    N113976   4.088   1.631  13.835  0.0496 -0.0654  0.4009
   11MPD2    H713977   4.098   1.726  13.869  0.4349 -0.2880  0.9086
    1MPD1     C13978   1.343   2.982   0.010 -0.6267  1.0013 -0.1609
    1MPD1    C113979   1.294   3.000  17.585  0.0179  0.1401 -0.5686
    1MPD1    C213980   1.366   3.071  17.488  0.8949 -0.0009  0.1300
    1MPD1    C313981   1.480   3.140  17.531  0.0576  0.4197 -0.5096
    1MPD1    C413982   1.515   3.133  17.664  0.5278 -0.3927 -0.2846
    1MPD1    C513983   1.446   3.058   0.049  0.6233 -0.5253  0.4534
    1MPD1     H13984   1.340   3.069  17.383 -0.2994  2.4455  0.3640
    1MPD1    H113985   1.596   3.192  17.704 -0.0172  1.0949 -1.3410
    1MPD1    H213986   1.291   2.931   0.090  0.1621  0.6702  0.1437
    1MPD1    H313987   1.471   3.054   0.154 -0.0997  1.7883  0.7207
    1MPD1     N13988   1.557   3.223  17.443 -0.0930  0.2612  0.8673
    1MPD1    H513989   1.638   3.274  17.478  0.7376 -0.1228 -0.5188
    1MPD1    N113990   1.178   2.924  17.548 -0.3542  0.2433 -0.0597
    1MPD1    H613991   1.143   2.956  17.458 -0.5373 -0.6391 -0.3001
    1MPD1    H713992   1.106   2.902  17.616 -0.1631  0.9146  0.3578
    2MPD1     C13993   2.406   3.198  16.916  0.9960  0.0873 -0.6698
    2MPD1    C113994   2.311   3.097  16.944 -0.0057 -0.0607  0.6332
    2MPD1    C213995   2.205   3.139  17.013 -0.3939 -0.7054 -0.1176
    2MPD1    C313996   2.189   3.263  17.070 -0.4877  0.2669  0.1320
    2MPD1    C413997   2.288   3.354  17.056 -0.2518 -0.4228  0.3317
    2MPD1    C513998   2.401   3.318  16.982 -1.2799 -0.1983  0.6333
    2MPD1     H13999   2.125   3.067  17.020 -1.0039 -0.0199 -0.0710
    2MPD1    H114000   2.277   3.450  17.105 -0.2467  0.5608 -1.5982
    2MPD1    H214001   2.493   3.178  16.854  1.4802 -0.7827  0.2758
    2MPD1    H314002   2.479   3.390  16.959 -0.2019 -1.3604  0.6130
    2MPD1     N14003   2.065   3.306  17.130  0.0968  0.4546 -0.5682
    2MPD1    H514004   2.063   3.396  17.176 -0.6892  0.0085  0.2665
    2MPD1    N114005   2.305   2.970  16.882 -0.0411  0.6120 -0.2158
    2MPD1    H614006   2.399   2.938  16.857  0.0770 -0.0317  1.0600
    2MPD1    H714007   2.260   2.896  16.936 -1.2637  0.7556 -1.0321
    3TMC3    C114008   1.839   3.326  17.177 -0.3423  0.0253 -0.3198
    3TMC3    C214009   1.825   3.447  17.116 -0.2324 -0.1432 -0.5761
    3TMC3    C314010   1.702   3.505  17.121 -0.2264  0.2411 -0.1508
    3TMC3    C414011   1.745   3.260  17.247  0.7256  0.1225 -0.8130
    3TMC3    C514012   1.616   3.323  17.240 -0.8376  0.0497 -0.3761
    3TMC3    C614013   1.591   3.438  17.172  0.0851 -1.2264  0.4460
    3TMC3     C14014   1.945   3.246  17.121 -0.5622  0.3351  0.9462
    3TMC3     O14015   1.913   3.132  17.095 -0.4618 -0.2634 -0.0058
    3TMC3     H14016   1.900   3.493  17.052  1.3725 -3.3471 -0.9754
    3TMC3    H114017   1.752   3.165  17.298  0.5002  1.1053  1.0674
    3TMC3    H214018   1.491   3.479  17.178 -0.1187 -1.6875  0.1506
    3TMC3    C714019   1.521   3.257  17.315  0.2649 -0.5310 -0.3506
    3TMC3    C814020   1.676   3.613  17.028 -0.3341 -0.5679  0.1292
    3TMC3    O114021   1.421   3.238  17.245  0.2018 -0.5896  0.6494
    3TMC3    O214022   1.770   3.689  17.007  0.6078 -0.5529 -0.3024
    4MPD1     C14023   1.410   3.821  16.650  0.3759 -0.5042  0.1219
    4MPD1    C114024   1.323   3.735  16.716 -0.2955  0.0695 -0.4731
    4MPD1    C214025   1.382   3.660  16.820 -0.2321 -0.7467 -0.1491
    4MPD1    C314026   1.509   3.683  16.867  0.3540  0.9973  0.1566
    4MPD1    C414027   1.582   3.780  16.808 -0.2650 -0.4641 -0.0011
    4MPD1    C514028   1.533   3.850  16.706 -0.4545  0.7474  0.1406
    4MPD1     H14029   1.332   3.586  16.881  0.0386 -0.1174  0.8573
    4MPD1    H114030   1.688   3.791  16.825  0.2326  0.2196 -3.4716
    4MPD1    H214031   1.374   3.879  16.566 -2.0119 -0.4197  1.2111
    4MPD1    H314032   1.599   3.923  16.660  1.1782 -0.0186  1.2967
    4MPD1     N14033   1.557   3.600  16.970 -0.1753 -0.1536  0.5688
    4MPD1    H514034   1.501   3.519  16.996 -2.3354  0.1925 -2.9976
    4MPD1    N114035   1.199   3.700  16.661 -0.2091 -0.1381  0.1528
    4MPD1    H614036   1.161   3.769  16.596 -0.4031  1.6455  2.1502
    4MPD1    H714037   1.127   3.696  16.732  0.7123  0.9879  1.1664
    1TCq1    O114038   3.350   2.657  11.921 -0.4831  0.5172  0.1514
    1TCq1    C114039   3.322   2.694  11.791  0.1333 -0.0503  0.5934
    1TCq1    O214040   3.396   2.762  11.724  0.3486  0.2253 -0.2523
    1TCq1    C214041   3.198   2.638  11.756 -0.6665 -0.0895  1.0691
    1TCq1    C314042   3.142   2.539  11.839  0.7071 -0.2250  0.2099
    1TCq1    C414043   3.025   2.488  11.800 -0.4794 -0.9239  0.1339
    1TCq1    C514044   2.981   2.500  11.668 -0.8335  0.2724 -0.4540
    1TCq1    C614045   3.035   2.603  11.595  0.4099  0.1932 -0.4171
    1TCq1    C714046   3.141   2.680  11.638  0.3085 -0.1235  0.5700
    1TCq1    C814047   2.948   2.648  11.491  0.5280 -0.3023  0.7154
    1TCq1    O414048   2.834   2.599  11.488  0.2744  0.4582  0.3397
    1TCq1    C914049   2.980   2.356  11.864 -0.5919  0.4864 -0.2518
    1TCq1    O514050   2.907   2.282  11.800  0.6098 -0.1061  0.1995
    1TCq1    O614051   3.008   2.344  11.988  0.0857  0.3505 -0.3889
    1TCq1    H114052   3.268   2.676  11.972 -1.5663 -0.0569 -1.4062
    1TCq1    H214053   3.201   2.484  11.911 -1.0967 -0.2917  1.6526
    1TCq1    H314054   2.905   2.430  11.634  0.8619 -0.4539 -2.7314
    1TCq1    H414055   3.201   2.752  11.582  0.5963 -1.8893 -1.3642
    2MPD1     C14056   2.812   3.039  11.179  0.5867  0.6826 -0.5261
    2MPD1    C114057   2.952   3.024  11.172 -0.1161 -0.3151 -0.2474
    2MPD1    C214058   3.016   2.935  11.260 -0.6125  1.7376  0.3387
    2MPD1    C314059   2.936   2.850  11.336 -0.0971 -0.1197  0.5417
    2MPD1    C414060   2.799   2.855  11.328 -0.1514  0.1536 -0.6242
    2MPD1    C514061   2.735   2.944  11.244  0.5289 -0.3125  0.4564
    2MPD1     H14062   3.122   2.931  11.283 -1.1395 -0.5852  2.4026
    2MPD1    H114063   2.736   2.789  11.386  0.5151  1.2459  1.3678
    2MPD1    H214064   2.762   3.124  11.134  3.0944  1.6474 -1.4884
    2MPD1    H314065   2.626   2.941  11.242  0.4845  0.5719  1.0717
    2MPD1     N14066   3.005   2.756  11.419  0.1315 -0.0299  0.4583
    2MPD1    H514067   3.103   2.768  11.444  0.3225 -2.1596  0.6861
    2MPD1    N114068   3.035   3.114  11.111  0.1420  0.0670 -0.2464
    2MPD1    H614069   3.112   3.061  11.070  2.7136  3.1981  0.5752
    2MPD1    H714070   2.986   3.166  11.038  0.6997 -1.2418 -1.5557
    1TCq1    O114071   1.214   3.905   0.244 -0.3342  0.6124 -0.0001
    1TCq1    C114072   1.245   4.030   0.271 -0.8267 -0.2155 -1.2675
    1TCq1    O214073   1.273   4.119   0.190 -0.1263  0.1283 -0.0253
    1TCq1    C214074   1.217   4.049   0.408  0.2588 -0.0657  0.5817
    1TCq1    C314075   1.123   3.971   0.478 -0.3029  0.2993  0.4319
    1TCq1    C414076   1.073   4.013   0.598 -0.0223  0.3694  0.1995
    1TCq1    C514077   1.113   4.131   0.648 -0.2727 -0.2172 -0.3321
    1TCq1    C614078   1.206   4.205   0.579 -0.2929 -0.2033  0.3972
    1TCq1    C714079   1.254   4.168   0.458  0.3890 -0.8707 -0.8678
    1TCq1    C814080   1.223   4.353   0.606  0.1456 -0.1594 -0.0640
    1TCq1    O414081   1.213   4.429   0.511 -0.0028  0.3107 -0.4498
    1TCq1    C914082   0.937   3.979   0.638  0.3833  0.4220 -0.1892
    1TCq1    O514083   0.893   3.863   0.610  0.1150  0.5055 -0.2695
    1TCq1    O614084   0.875   4.078   0.680 -0.0299  0.3947 -0.4593
    1TCq1    H114085   1.197   3.854   0.326  1.2290  2.0808  1.2430
    1TCq1    H214086   1.075   3.894   0.420  1.5443 -2.3393  2.4300
    1TCq1    H314087   1.079   4.170   0.743  1.9407  0.3704  0.2201
    1TCq1    H414088   1.295   4.253   0.406 -0.9617  0.1206 -0.3159
    2MPD1     C14089   1.273   0.037   0.919  1.1868  0.3377  0.0119
    2MPD1    C114090   1.295   4.646   0.992 -0.1882  0.3550  0.9245
    2MPD1    C214091   1.270   4.522   0.926  0.4063  0.7505  0.4332
    2MPD1    C314092   1.244   4.514   0.790 -0.1647 -0.1785 -0.0259
    2MPD1    C414093   1.241   4.631   0.715 -0.3641 -0.6783  0.3559
    2MPD1    C514094   1.245   0.023   0.781 -1.0969 -0.0078  0.3387
    2MPD1     H14095   1.280   4.425   0.975  0.5768 -0.5152 -2.1225
    2MPD1    H114096   1.227   4.624   0.607  4.0149  0.6586 -0.2639
    2MPD1    H214097   1.268   0.139   0.955 -0.1447 -0.7015  2.7393
    2MPD1    H314098   1.219   0.110   0.721 -0.2535  2.3068  3.2756
    2MPD1     N14099   1.239   4.388   0.736  0.3282 -0.3487 -0.4205
    2MPD1    H514100   1.240   4.311   0.802 -0.4868  0.4441  0.5280
    2MPD1    N114101   1.332   4.654   1.123  0.4236 -0.1448  0.3354
    2MPD1    H614102   1.296   0.007   1.176 -1.5812 -1.2339  0.6046
    2MPD1    H714103   1.313   4.568   1.173  1.9758  0.2858  1.6613
    1MPD1     C14104   3.856   3.186  11.969  0.4581  0.0815  0.0991
    1MPD1    C114105   3.822   3.303  11.909  0.2136  0.2938 -0.1180
    1MPD1    C214106   3.920   3.396  11.894 -0.3343  0.6518  0.0665
    1MPD1    C314107   4.047   3.373  11.936  0.1555 -0.2503  0.6910
    1MPD1    C414108   4.076   3.259  12.012 -0.2803 -0.0588  0.9349
    1MPD1    C514109   3.981   3.159  12.028 -0.1628 -0.8448 -0.6381
    1MPD1     H14110   3.910   3.489  11.839 -0.7891  2.7091  3.5642
    1MPD1    H114111   4.177   3.220  12.016  0.0804  0.6587 -1.2492
    1MPD1    H214112   3.782   3.110  11.993 -0.6655  1.4111  0.8687
    1MPD1    H314113   4.002   3.062  12.071  1.1339  0.6307  2.0869
    1MPD1     N14114   4.152   3.463  11.901  0.6674 -0.0659  0.4711
    1MPD1    H514115   4.132   3.524  11.822 -1.5935  0.3961  1.4073
    1MPD1    N114116   3.701   3.316  11.832  0.0423  0.3882  0.0770
    1MPD1    H614117   3.623   3.262  11.870  2.2263 -0.9962  2.5973
    1MPD1    H714118   3.674   3.412  11.812 -1.1831  0.9617  4.4563
    2MPD1     C14119   4.243   4.077  10.937  0.2624 -0.3429  0.4984
    2MPD1    C114120   4.288   4.055  10.810  0.2735  0.3808 -0.2763
    2MPD1    C214121   4.284   3.924  10.765  0.4021 -0.5503 -0.2315
    2MPD1    C314122   4.231   3.823  10.840 -0.4030  0.2646  0.0461
    2MPD1    C414123   4.180   3.848  10.963  0.0584  0.6463  0.0122
    2MPD1    C514124   4.190   3.971  11.017 -0.1551  0.0576 -0.6794
    2MPD1     H14125   4.323   3.899  10.667 -0.6838 -1.8951 -0.3236
    2MPD1    H114126   4.150   3.766  11.028 -0.9067 -0.3393 -1.6870
    2MPD1    H214127   4.257   4.175  10.980 -0.5535 -0.5102  1.1505
    2MPD1    H314128   4.180   3.990  11.123 -0.3013 -1.4481 -0.4279
    2MPD1     N14129   4.224   3.691  10.785  0.2167 -0.0079  0.2285
    2MPD1    H514130   4.205   3.613  10.848 -0.9209  1.6769  1.9625
    2MPD1    N114131   4.341   4.162  10.737  0.0593  0.0119 -0.3344
    2MPD1    H614132   4.312   4.254  10.769 -1.7166 -0.1279 -1.5915
    2MPD1    H714133   4.309   4.140  10.643 -0.0993  0.0860 -0.2977
    3MPD1     C14134   3.861   2.945  10.189 -0.1665  0.5459 -0.2280
    3MPD1    C114135   3.804   3.054  10.255  0.0246  0.4421 -0.0065
    3MPD1    C214136   3.885   3.144  10.311 -0.1683  0.1664  0.1735
    3MPD1    C314137   4.020   3.131  10.319 -0.5719 -0.5913 -0.6537
    3MPD1    C414138   4.077   3.035  10.237 -0.6316 -0.4193  0.0624
    3MPD1    C514139   3.997   2.939  10.183 -0.3357 -0.5038 -0.6050
    3MPD1     H14140   3.838   3.226  10.365 -0.6104  0.2807 -0.3849
    3MPD1    H114141   4.184   3.017  10.238 -1.2300 -3.9397 -1.0086
    3MPD1    H214142   3.806   2.859  10.154 -1.6502  2.1002 -1.7220
    3MPD1    H314143   4.041   2.840  10.172 -1.5713 -1.1232 -0.0162
    3MPD1     N14144   4.091   3.222  10.393 -0.1549  0.1155  0.1667
    3MPD1    H514145   4.037   3.283  10.454  0.1792 -1.2202  1.7813
    3MPD1    N114146   3.667   3.052  10.278 -0.4752  0.5856  0.2025
    3MPD1    H614147   3.635   3.145  10.304  0.7152  1.0791 -0.0653
    3MPD1    H714148   3.624   3.006  10.199  0.2049 -1.1830  0.8672
    4MPD2     C14149   4.497   3.722  11.310  0.9627  0.1466  0.8148
    4MPD2    C114150   4.579   3.680  11.410  0.3199  0.0517 -0.2589
    4MPD2    C214151   4.710   3.641  11.377 -0.3870 -0.1444  0.1496
    4MPD2    C314152   0.029   3.638  11.249 -0.2924  0.0735 -0.4132
    4MPD2    C414153   4.668   3.677  11.149 -0.5972  0.1761  0.2805
    4MPD2    C514154   4.538   3.723  11.178 -0.1333  0.7803  0.5214
    4MPD2     H14155   0.054   3.617  11.457 -0.8715  4.1217  1.8353
    4MPD2    H114156   4.700   3.686  11.045 -1.0121  0.8753  0.2178
    4MPD2    H214157   4.395   3.759  11.323  0.8212 -0.4698  1.4302
    4MPD2    H314158   4.459   3.745  11.107  2.5466  1.0000 -2.3733
    4MPD2     N14159   0.161   3.593  11.210 -0.4547 -0.1813  0.4422
    4MPD2    H514160   0.188   3.592  11.112  0.6983  0.0385  0.7544
    4MPD2    N114161   4.538   3.693  11.544  0.0582 -0.2771 -0.4247
    4MPD2    H714162   4.616   3.673  11.606  0.2252  0.1583 -0.4982
    5TMC3    C114163   4.423   3.721  11.740 -0.2041  0.0969  0.2576
    5TMC3    C214164   4.334   3.630  11.795  0.3150  0.5978 -0.2208
    5TMC3    C314165   4.376   3.554  11.896 -0.6346  0.5337  0.4604
    5TMC3    C414166   4.553   3.730  11.789 -0.8469 -0.7954 -0.2549
    5TMC3    C514167   4.592   3.636  11.884  0.3487 -0.3847 -0.2679
    5TMC3    C614168   4.503   3.553  11.945 -0.2210  1.1185  0.1004
    5TMC3     C14169   4.412   3.721  11.593  0.2064  0.2136  0.0419
    5TMC3     O14170   4.303   3.707  11.539 -0.2801 -0.3101 -0.4561
    5TMC3     H14171   4.236   3.626  11.750  0.6109 -0.1800 -0.8027
    5TMC3    H114172   4.626   3.807  11.764  0.2722 -1.3894  1.1954
    5TMC3    H214173   4.528   3.494  12.032  0.9538 -0.3944 -1.2652
    5TMC3    C714174   4.704   3.576  11.831 -0.7034 -0.2267 -0.1790
    5TMC3    C814175   4.278   3.461  11.957 -0.8360 -0.0788 -0.5560
    5TMC3    O114176   0.036   3.634  11.738 -0.2945 -0.3389 -0.2593
    5TMC3    O214177   4.327   3.386  12.039 -0.2360 -0.4574  0.1478
    6TMC3    C114178   4.257   3.510  10.638 -0.4831 -0.5457 -0.2849
    6TMC3    C214179   4.223   3.446  10.522 -0.2019 -1.1042 -0.2266
    6TMC3    C314180   4.260   3.313  10.518 -0.4614  0.5775 -0.9661
    6TMC3    C414181   4.338   3.447  10.737  0.6590  0.3710 -0.8372
    6TMC3    C514182   4.357   3.309  10.730  0.4765 -0.4442  0.1316
    6TMC3    C614183   4.334   3.246  10.612  0.2652 -0.2455 -0.4911
    6TMC3     C14184   4.235   3.652  10.652 -0.9426 -0.0843 -0.1475
    6TMC3     O14185   4.232   3.723  10.553 -0.1540  0.4261 -0.9461
    6TMC3     H14186   4.157   3.496  10.453 -2.6658 -0.5304  2.5073
    6TMC3    H114187   4.368   3.499  10.827  1.0889 -0.9440 -0.2134
    6TMC3    H214188   4.361   3.142  10.594 -2.1763 -1.1359  1.0842
    6TMC3    C714189   4.437   3.245  10.834 -0.0071 -0.1553 -1.3512
    6TMC3    C814190   4.228   3.234  10.406  0.6732  0.5057  0.9021
    6TMC3    O114191   4.479   3.325  10.922 -0.2984 -0.6986 -0.3785
    6TMC3    O214192   4.308   3.153  10.359 -0.1535 -0.3962  0.1992
    7MPD2     C14193   0.235   3.147  11.732  0.0633  0.1881  0.1225
    7MPD2    C114194   0.238   3.266  11.666 -0.4322  0.2217 -0.3318
    7MPD2    C214195   0.163   3.377  11.718 -0.1159  0.3999 -0.1686
    7MPD2    C314196   0.105   3.366  11.843 -0.5665  0.3360  0.6456
    7MPD2    C414197   0.115   3.248  11.910 -0.2591  0.5631  0.3952
    7MPD2    C514198   0.178   3.142  11.854  0.4419  0.8551  0.0323
    7MPD2     H14199   0.170   3.467  11.658  0.8765 -0.3840 -1.2303
    7MPD2    H114200   0.052   3.229  11.996  0.1332  0.1800  0.5924
    7MPD2    H214201   0.296   3.067  11.691  0.9770  0.8629  0.1737
    7MPD2    H314202   0.188   3.051  11.912  0.9555  0.9166  0.0327
    7MPD2     N14203   0.024   3.466  11.902 -0.4477 -0.5630 -0.2096
    7MPD2    H514204   4.712   3.437  11.991 -0.4143  0.0201 -0.0004
    7MPD2    N114205   0.293   3.283  11.536 -0.3194 -0.3559  1.0997
    7MPD2    H714206   0.296   3.376  11.494 -1.4308 -1.1764 -0.7708
    8TMC3    C114207   0.377   3.240  11.318 -0.3080  0.7842  0.1226
    8TMC3    C214208   0.330   3.184  11.205 -0.8087  0.2511  0.4866
    8TMC3    C314209   0.297   3.268  11.100  0.2160  0.3352  0.0823
    8TMC3    C414210   0.402   3.370  11.323  0.1855  0.5958  0.4574
    8TMC3    C514211   0.359   3.453  11.224  0.0988  0.3997  0.4637
    8TMC3    C614212   0.311   3.404  11.113  0.4480 -0.0628  0.5046
    8TMC3     C14213   0.344   3.186  11.453 -0.2509  0.2906 -0.7736
    8TMC3     O14214   0.340   3.063  11.453 -0.3613 -0.4338 -0.2107
    8TMC3     H14215   0.297   3.081  11.213 -0.1785 -0.0382 -0.5108
    8TMC3    H114216   0.443   3.406  11.417 -1.8742  1.4946  0.9975
    8TMC3    H214217   0.271   3.461  11.029 -1.1239 -1.0304  0.5952
    8TMC3    C714218   0.259   3.538  11.289  0.0473 -0.5230  0.3866
    8TMC3    C814219   0.218   3.219  10.985 -0.3817 -0.0344  0.7713
    8TMC3    O114220   0.265   3.552  11.412 -0.1203 -0.1353  0.3025
    8TMC3    O214221   0.184   3.294  10.894 -0.0654 -0.0875 -0.4326
    9MPD2     C14222   0.083   2.898  10.905 -0.2415  0.0352  0.8259
    9MPD2    C114223   0.079   3.032  10.937  0.6250  0.1522 -0.1386
    9MPD2    C214224   4.700   3.116  10.894 -0.1139  0.1790  0.2727
    9MPD2    C314225   4.582   3.056  10.843 -0.3132  0.4218  0.9633
    9MPD2    C414226   4.584   2.922  10.834  0.0626 -0.0232  0.0810
    9MPD2    C514227   4.698   2.850  10.848  0.4534 -0.0903 -0.3815
    9MPD2     H14228   4.696   3.222  10.914 -0.9778 -0.1479  1.8838
    9MPD2    H114229   4.500   2.869  10.789 -0.1928 -2.7916  3.7891
    9MPD2    H214230   0.158   2.821  10.922 -0.6745 -0.6230 -0.2793
    9MPD2    H314231   4.702   2.743  10.835 -0.7762 -0.1374 -0.3571
    9MPD2     N14232   4.466   3.115  10.802  0.3266  0.0645  0.4398
    9MPD2    H514233   4.394   3.058  10.760  0.3677  0.8298 -0.6568
    9MPD2    N114234   0.195   3.083  10.992 -0.0208 -0.3014 -0.0933
    9MPD2    H714235   0.257   3.022  11.043 -1.8610 -1.8376  0.3049
    1MPD1     C14236   0.086   1.766  16.460  0.4254  0.1872 -0.9500
    1MPD1    C114237   0.085   1.653  16.383  0.3791  0.0886  0.8679
    1MPD1    C214238   0.007   1.654  16.269 -0.1402  0.0032 -0.2522
    1MPD1    C314239   4.639   1.750  16.245  0.5553 -0.5095 -0.5030
    1MPD1    C414240   4.626   1.855  16.333 -0.3383  0.0681  0.0039
    1MPD1    C514241   4.718   1.865  16.436  0.1837  0.5258 -0.1677
    1MPD1     H14242   0.008   1.576  16.194 -0.5223 -1.9424  1.7488
    1MPD1    H114243   4.560   1.938  16.313  0.1305 -0.2088 -2.7380
    1MPD1    H214244   0.163   1.789  16.534  0.5440 -1.7593 -0.4779
    1MPD1    H314245   0.003   1.950  16.503  1.6151  0.3796 -0.2229
    1MPD1     N14246   4.540   1.755  16.145 -0.5864 -0.2986  0.2668
    1MPD1    H514247   4.482   1.839  16.143  2.9480  2.1516  0.6486
    1MPD1    N114248   0.187   1.558  16.403  0.1977  0.2182  0.7241
    1MPD1    H614249   0.154   1.463  16.392 -0.4382  0.7114 -1.5841
    1MPD1    H714250   0.230   1.573  16.494 -1.4676  2.7726  1.0993
    2MPD1     C14251   3.978   1.246  15.364 -0.3867 -0.5397 -0.0832
    2MPD1    C114252   3.998   1.375  15.324  1.2281  0.0182  0.9416
    2MPD1    C214253   4.061   1.461  15.411 -0.0746 -0.2421  0.5566
    2MPD1    C314254   4.122   1.422  15.526  0.3199  0.2215  0.5453
    2MPD1    C414255   4.113   1.289  15.556  0.2537 -0.2588 -0.1644
    2MPD1    C514256   4.033   1.205  15.476 -0.8850  0.8625 -0.3773
    2MPD1     H14257   4.065   1.565  15.380  0.0120 -1.0366 -2.1403
    2MPD1    H114258   4.148   1.252  15.651  2.1609 -3.0660 -1.9466
    2MPD1    H214259   3.929   1.174  15.298  0.5989  0.6915 -2.1528
    2MPD1    H314260   4.023   1.099  15.498  2.1657  0.9664  1.5670
    2MPD1     N14261   4.186   1.514  15.611 -0.2606 -0.1591 -0.2616
    2MPD1    H514262   4.177   1.614  15.598  2.1765 -0.1719 -2.0695
    2MPD1    N114263   3.918   1.420  15.220 -0.0707 -0.1444 -0.3339
    2MPD1    H614264   3.953   1.511  15.190  4.7499 -2.1498 -0.8053
    2MPD1    H714265   3.900   1.352  15.146 -1.0277 -0.1098 -0.1321
    3TCq2    C114266   4.249   1.490  15.730 -0.7508  0.0053 -0.1746
    3TCq2    O214267   4.291   1.386  15.774  0.1611  0.6067  0.1829
    3TCq2    C214268   4.285   1.610  15.799 -0.1733  0.0430 -0.0750
    3TCq2    C314269   4.194   1.710  15.815  0.1417 -0.0242  0.2841
    3TCq2    C414270   4.220   1.815  15.905  0.8881 -0.5338 -0.4139
    3TCq2    C514271   4.342   1.811  15.976  0.4496  0.8281 -0.5374
    3TCq2    C614272   4.427   1.702  15.956  0.6920  0.1131 -0.5073
    3TCq2    C714273   4.401   1.605  15.866 -0.1362  0.2649 -0.2451
    3TCq2    C814274   4.531   1.670  16.042 -0.0800  0.3113 -0.4449
    3TCq2    O414275   4.588   1.560  16.024 -0.2455  0.1189  0.3636
    3TCq2    C914276   4.114   1.915  15.921  0.0513  0.1706  0.2213
    3TCq2    O514277   4.131   2.006  16.005 -0.1540 -0.8377 -0.1275
    3TCq2    O614278   4.004   1.891  15.862 -0.9830 -0.2486 -0.0116
    3TCq2    H214279   4.102   1.714  15.758 -1.0038 -0.1964  2.1178
    3TCq2    H314280   4.369   1.897  16.036  0.7101  2.3927 -2.9446
    3TCq2    H414281   4.462   1.516  15.852  0.1258  0.0546  2.1441
    1TCq1    O114282   1.788   1.381  12.476  0.6926  0.5634  0.6904
    1TCq1    C114283   1.918   1.365  12.472  0.0823  0.0174 -0.2674
    1TCq1    O214284   1.995   1.458  12.445 -0.1870  0.1597  0.5722
    1TCq1    C214285   1.955   1.237  12.516  0.5146  0.6755 -0.6794
    1TCq1    C314286   1.878   1.174  12.606 -0.2264  0.4300  0.4246
    1TCq1    C414287   1.940   1.076  12.688 -0.0991 -0.4178 -0.0551
    1TCq1    C514288   2.075   1.049  12.676  0.1131 -0.5588 -0.1134
    1TCq1    C614289   2.145   1.123  12.579 -0.1663 -0.0250 -0.0180
    1TCq1    C714290   2.086   1.215  12.501  0.7727 -0.2347 -0.7303
    1TCq1    C814291   2.285   1.102  12.574 -0.4021  0.4659 -0.5664
    1TCq1    O414292   2.341   1.139  12.469 -0.2004  0.1066  0.5349
    1TCq1    C914293   1.877   1.017  12.808  0.3680  0.2937  0.3502
    1TCq1    O514294   1.951   0.964  12.890 -0.5099  0.0045 -0.3212
    1TCq1    O614295   1.755   1.047  12.825  0.1680 -1.1150 -0.1000
    1TCq1    H114296   1.755   1.290  12.492  0.1432  0.3593 -1.5929
    1TCq1    H214297   1.778   1.194  12.641  0.0179  1.6157  0.4205
    1TCq1    H314298   2.122   0.976  12.742  1.2545  0.4469  0.1822
    1TCq1    H414299   2.134   1.259  12.415 -3.3653  0.1628 -2.8164
    2MPD2     C14300   2.569   1.028  12.634  0.3015 -0.1656 -0.5399
    2MPD2    C114301   2.475   1.045  12.730 -0.4293  0.4338  0.3518
    2MPD2    C214302   2.511   1.038  12.862  0.6888  0.0152  0.8020
    2MPD2    C314303   2.642   1.046  12.900  0.1017 -0.5884 -0.0538
    2MPD2    C414304   2.736   1.018  12.801  0.3131 -0.3451  0.1033
    2MPD2    C514305   2.696   1.000  12.671 -0.2824 -0.5071 -0.3337
    2MPD2     H14306   2.436   1.046  12.939 -0.8090 -2.0949 -0.4467
    2MPD2    H114307   2.839   1.003  12.829 -0.1227 -0.5544  1.6407
    2MPD2    H214308   2.554   1.016  12.528 -0.2785  0.2758 -0.5052
    2MPD2    H314309   2.767   0.962  12.597 -0.0755 -2.5788  0.9336
    2MPD2     N14310   2.672   1.071  13.035 -0.0979  0.4361  0.1786
    2MPD2    H514311   2.594   1.090  13.097 -1.4487 -1.4639 -0.9399
    2MPD2    N114312   2.339   1.072  12.696 -0.0411  0.4657 -0.3277
    2MPD2    H714313   2.276   1.091  12.773  1.5233  1.9446  0.5733
    3TCq1    O114314   2.866   1.012  13.640 -0.0083  0.4153 -0.3564
    3TCq1    C114315   2.950   1.016  13.535 -0.3059 -0.5237 -0.3260
    3TCq1    O214316   3.039   0.935  13.516  0.0214 -0.0091  0.3764
    3TCq1    C214317   2.888   1.103  13.442 -0.5077 -0.6175  1.0276
    3TCq1    C314318   2.823   1.218  13.473 -0.1951 -0.2102 -0.2370
    3TCq1    C414319   2.740   1.279  13.389  0.3361  0.1618 -0.4429
    3TCq1    C514320   2.736   1.241  13.255  0.4834 -0.5911 -0.5192
    3TCq1    C614321   2.805   1.126  13.224 -0.2003  0.6892 -0.2645
    3TCq1    C714322   2.883   1.060  13.315  0.0779 -0.5046 -0.5392
    3TCq1    C814323   2.805   1.072  13.082  0.1518  0.1189  0.1239
    3TCq1    O414324   2.905   1.015  13.042 -0.1117  0.2772  0.3348
    3TCq1    C914325   2.681   1.400  13.437 -0.3356 -0.0101  0.2488
    3TCq1    O514326   2.646   1.400  13.560  0.3528 -0.1497 -0.0503
    3TCq1    O614327   2.659   1.484  13.346  0.2493  0.0274  0.6117
    3TCq1    H114328   2.783   1.065  13.635  0.8509  1.6783 -1.0904
    3TCq1    H214329   2.835   1.265  13.570  1.7321  0.5958 -0.8621
    3TCq1    H314330   2.684   1.299  13.180  1.7304 -1.4110 -1.9956
    3TCq1    H414331   2.938   0.972  13.286  0.3183 -0.5236 -0.0201
    1MPD2     C14332   1.656   2.185  15.295  0.1353  0.2248  0.6545
    1MPD2    C114333   1.672   2.154  15.164 -0.8300 -0.0444 -0.2859
    1MPD2    C214334   1.797   2.108  15.122 -0.0666 -0.0653  0.3678
    1MPD2    C314335   1.902   2.090  15.213 -0.7055 -0.1186 -0.3304
    1MPD2    C414336   1.879   2.130  15.345 -0.3020  0.3319  0.2869
    1MPD2    C514337   1.756   2.173  15.383  0.0025 -0.2269 -0.0453
    1MPD2     H14338   1.807   2.078  15.018 -2.9356  1.3082 -0.3253
    1MPD2    H114339   1.957   2.118  15.419 -0.6821 -0.2042  0.5981
    1MPD2    H214340   1.566   2.230  15.335 -0.8808 -0.1750 -1.2056
    1MPD2    H314341   1.742   2.193  15.488 -0.3297 -0.3999 -0.0557
    1MPD2     N14342   2.015   2.025  15.166  0.3675  0.2333  0.1381
    1MPD2    H514343   2.009   1.989  15.072 -1.5198  0.3916  0.1808
    1MPD2    N114344   1.568   2.170  15.073 -0.1322 -0.4168  0.0036
    1MPD2    H714345   1.482   2.199  15.119  1.3468  4.4208 -0.3408
    2TMC3    C114346   1.449   2.114  14.863  0.0642  0.0445  0.0321
    2TMC3    C214347   1.467   2.010  14.781  0.3529  0.4819 -0.2623
    2TMC3    C314348   1.449   2.022  14.642  0.2321 -0.0583 -0.0757
    2TMC3    C414349   1.394   2.229  14.815  0.4444  0.1496  0.4457
    2TMC3    C514350   1.382   2.239  14.677 -0.5432 -0.4156 -0.4268
    2TMC3    C614351   1.402   2.138  14.590  0.4712  0.0869 -0.3973
    2TMC3     C14352   1.568   2.134  14.935  0.0226  1.0905 -0.6376
    2TMC3     O14353   1.662   2.104  14.865 -0.2565  0.2298 -0.4551
    2TMC3     H14354   1.522   1.924  14.818 -0.5873 -0.9565 -2.1622
    2TMC3    H114355   1.384   2.314  14.882 -0.2699  0.2695  0.1906
    2TMC3    H214356   1.385   2.143  14.483  0.3253 -1.4059 -0.4447
    2TMC3    C714357   1.361   2.371  14.614 -0.2298  0.2293  0.6089
    2TMC3    C814358   1.540   1.953  14.549  0.0308  0.5222  0.0599
    2TMC3    O114359   1.324   2.383  14.499 -0.1054  0.1147 -0.1946
    2TMC3    O214360   1.509   1.922  14.433  0.0143 -0.3714 -0.0756
    3TCq1    O114361   1.794   3.499  15.106  0.0771 -0.1569 -0.0671
    3TCq1    C114362   1.713   3.464  15.007  0.0215 -0.2498  0.3869
    3TCq1    O214363   1.670   3.543  14.920  0.7268  0.1038 -0.5980
    3TCq1    C214364   1.711   3.318  15.006 -0.0259  0.3481 -0.8111
    3TCq1    C314365   1.718   3.243  15.127 -0.1699 -0.4765 -0.4249
    3TCq1    C414366   1.680   3.113  15.123 -0.4403 -0.4052  0.3429
    3TCq1    C514367   1.636   3.051  15.007  0.4639  0.3631  0.1951
    3TCq1    C614368   1.621   3.135  14.897  0.5214 -0.7084  0.3630
    3TCq1    C714369   1.653   3.265  14.893  0.0241  0.3873 -0.0717
    3TCq1    C814370   1.577   3.070  14.774 -0.8427  0.0548  0.5911
    3TCq1    O414371   1.533   3.146  14.686 -0.8969 -0.4977  0.1723
    3TCq1    C914372   1.691   3.032  15.235 -0.1936 -0.3003 -0.3807
    3TCq1    O514373   1.766   3.065  15.329 -0.3699  0.4268 -0.3323
    3TCq1    O614374   1.638   2.918  15.235  0.1960  0.1555 -0.4519
    3TCq1    H114375   1.832   3.427  15.162 -0.5758 -0.0412  0.5211
    3TCq1    H214376   1.722   3.294  15.222  1.4886 -0.9230 -0.2524
    3TCq1    H314377   1.609   2.946  15.011 -3.0282  1.2430  0.1110
    3TCq1    H414378   1.633   3.324  14.805 -0.9619  0.8835  0.4876
    4MPD2     C14379   1.478   2.875  14.567  0.0978 -0.7387  0.8787
    4MPD2    C114380   1.499   2.842  14.697 -0.0133  0.3772  0.8698
    4MPD2    C214381   1.469   2.710  14.739  0.5973  0.1711  0.1263
    4MPD2    C314382   1.431   2.610  14.646  0.2624 -0.1383 -0.1508
    4MPD2    C414383   1.416   2.648  14.514 -1.5089  0.3654  0.9583
    4MPD2    C514384   1.424   2.783  14.482  0.6502  0.2971 -0.5857
    4MPD2     H14385   1.478   2.687  14.845 -0.9044  0.1852  0.2579
    4MPD2    H114386   1.389   2.588  14.428  0.0649  1.7794 -0.5322
    4MPD2    H214387   1.505   2.973  14.531  3.1888 -1.9693 -0.1244
    4MPD2    H314388   1.404   2.819  14.381 -1.3080  0.2642 -0.2147
    4MPD2     N14389   1.405   2.477  14.694  0.2874 -0.6362 -0.1480
    4MPD2    H514390   1.425   2.458  14.792  2.2527 -0.5741 -0.5437
    4MPD2    N114391   1.547   2.936  14.790  0.6073  0.0612  0.1333
    4MPD2    H714392   1.561   2.894  14.881  0.0386 -1.8184 -0.6450
    5TMC2    C114393   2.212   1.887  14.936  0.2185  0.0198  0.2177
    5TMC2    C214394   2.304   1.982  14.901 -0.3367 -0.0064 -0.3913
    5TMC2    C314395   2.355   2.060  15.000  0.0968 -0.4416  0.2152
    5TMC2    C414396   2.184   1.862  15.068  0.2154  0.7056 -1.1819
    5TMC2    C514397   2.238   1.947  15.160 -0.0816  0.0817 -0.0116
    5TMC2    C614398   2.331   2.037  15.129  0.0994 -0.3161 -0.8070
    5TMC2     C14399   2.094   1.890  14.855 -0.7632 -0.7071  0.3718
    5TMC2     O14400   1.999   1.913  14.926 -0.6654 -0.4225 -0.6222
    5TMC2     H14401   2.313   2.009  14.797 -0.1601  0.6684 -0.1992
    5TMC2    H114402   2.105   1.792  15.094 -0.9002  1.9238 -1.2379
    5TMC2    H214403   2.352   2.124  15.191 -0.4493  0.2007 -1.3504
    5TMC2    C714404   2.135   2.007  15.239  0.5032 -0.3310  0.1720
    5TMC2    C814405   2.448   2.163  14.960 -0.4166  0.3721 -0.4609
    5TMC2    O114406   2.168   2.046  15.354 -0.9015  0.4286  0.0313
    5TMC2    O214407   2.532   2.204  15.041 -0.1700 -1.7405  1.2563
    5TMC2    O514408   2.402   2.226  14.851 -0.1284 -0.0120 -0.7583
    5TMC2    H514409   2.314   2.195  14.822 -1.8969  3.2078  1.1999
    6MPD2     C14410   1.798   1.838  14.447 -0.2669  0.1662 -0.0185
    6MPD2    C114411   1.776   1.893  14.569 -0.5346  0.3003  0.2598
    6MPD2    C214412   1.879   1.898  14.662  0.7483 -0.3741  0.4114
    6MPD2    C314413   2.005   1.854  14.634  0.0145  0.2852 -0.4301
    6MPD2    C414414   2.025   1.799  14.505 -0.3750 -0.1386 -0.0803
    6MPD2    C514415   1.921   1.798  14.411 -0.4610  0.3330 -0.2693
    6MPD2     H14416   1.844   1.926  14.761 -1.3630  0.8752 -0.6849
    6MPD2    H114417   2.122   1.765  14.469 -0.0625  1.0230 -0.3308
    6MPD2    H214418   1.718   1.817  14.377  1.1042 -2.5553 -0.7737
    6MPD2    H314419   1.929   1.742  14.318 -1.9501 -1.0656  0.4383
    6MPD2     N14420   2.112   1.861  14.721 -0.0342 -0.1493  0.5441
    6MPD2    H514421   2.201   1.822  14.691  0.5453  2.6342 -1.3320
    6MPD2    N114422   1.661   1.952  14.609 -0.1030  0.0890 -0.3026
    6MPD2    H714423   1.669   1.979  14.707  2.2825 -2.7541  0.2801
  945NH3     N114424   1.748   1.772   1.730  0.3306  0.1492  0.1376
  945NH3     H214425   1.682   1.792   1.655  0.7213 -0.9961 -0.5162
  945NH3     H314426   1.720   1.684   1.772 -1.8854  0.7549 -0.0627
  945NH3     H414427   1.713   1.838   1.799  0.5123  0.5928 -0.2000
  946SOD     NA14428   2.573   1.581  13.669 -0.4141  0.1913 -0.0243
  947SOD     NA14429   1.758   2.832  15.391 -0.4942  0.0361 -0.0045
  948SOD     NA14430   3.201   4.157   2.294  0.0509 -0.0755 -0.0867
  949SOD     NA14431   1.811   4.194  11.263  0.0989  0.5324  0.1176
  950SOD     NA14432   2.926   2.050   1.289 -0.5220 -0.1701  0.2644
  951SOD     NA14433   2.758   2.271  15.441 -0.4466  0.0097  0.2020
  952SOD     NA14434   0.493   0.914  12.026  0.1336 -0.1310  0.1640
  953SOD     NA14435   1.812   3.648   2.530  0.1241 -0.4597 -0.2741
  954SOD     NA14436   0.171   0.269  14.568 -0.2227 -0.3523 -0.0284
  955SOD     NA14437   0.116   4.144  15.232 -0.0072 -0.3601 -0.0351
  956SOD     NA14438   0.239   0.722   5.852 -0.2851 -0.3205  0.4704
  957SOD     NA14439   2.886   1.016  11.168 -0.0065  0.3518 -0.0244
  958SOD     NA14440   1.813   3.629  12.734  0.0615  0.0186  0.0770
  959SOD     NA14441   3.025   1.088  15.809 -0.5554 -0.3062 -0.2781
  960SOD     NA14442   3.011   0.414  11.721 -0.1173  0.2127  0.1301
  961SOD     NA14443   0.486   4.649   1.173  0.8221 -0.1370 -0.2069
  962SOD     NA14444   2.918   2.584  14.590 -0.1634  0.0307  0.2960
  963SOD     NA14445   1.167   4.135   6.514 -0.0850  0.2983 -0.1167
  964SOD     NA14446   0.345   1.196   2.411  0.5680  0.2664 -0.4822
  965SOD     NA14447   1.173   3.423   9.882  0.0865 -0.0423 -0.0502
  966SOD     NA14448   1.143   3.180  15.429  1.1939  0.2204 -0.1002
  967SOD     NA14449   0.940   0.867   9.443 -0.0827 -0.0053 -0.0515
  968SOD     NA14450   2.492   0.488   4.676  0.1328 -0.0207 -0.1557
  969SOD     NA14451   1.489   1.724  10.347 -0.1407 -0.5038  0.0711
  970SOD     NA14452   3.594   1.752   1.183  0.4697  0.1655  0.2747
  971SOD     NA14453   1.069   2.067  13.288  0.4856  0.7127  0.1705
  972SOD     NA14454   2.699   2.266  11.864  0.2646 -0.5161 -0.1002
  973SOD     NA14455   0.932   4.183  11.628 -0.1038  0.0277  0.1428
  974SOD     NA14456   4.019   2.161  15.518  0.0218  0.5373  0.5039
  975SOD     NA14457   0.569   1.874  10.571  0.1333  0.0711  0.4135
  976SOD     NA14458   4.215   2.678  15.794  0.0028 -0.3919 -0.5760
  977SOD     NA14459   2.974   1.469  11.561  0.0857  0.2949  0.5286
  978SOD     NA14460   2.853   1.233  11.353  0.1232 -0.2659 -0.2977
  979SOD     NA14461   0.300   0.614  14.640 -0.3048  0.1692 -0.7280
  980SOD     NA14462   3.794   3.917  12.975  0.0845 -0.4348  0.5022
  981SOD     NA14463   4.675   4.236   0.060 -0.1002 -0.0631 -0.1989
  982SOD     NA14464   0.733   3.847   0.465  0.5504  0.3616 -0.0717
  983SOD     NA14465   1.014   0.556   9.416  0.3521 -0.6013  0.1308
  984SOD     NA14466   4.070   1.068  10.665 -0.2302  0.2593  0.1109
  985SOD     NA14467   3.198   3.302   0.572 -0.5151  0.5371  0.2114
  986SOD     NA14468   1.650   1.087   6.291 -0.3188  0.1211  0.0150
  987SOD     NA14469   3.440   2.796  15.679  0.3616  0.0134 -0.1994
  988SOD     NA14470   0.024   1.772   0.562  0.3071  0.1021  0.0370
  989SOD     NA14471   2.588   0.620   0.811  0.0349 -0.0728 -0.5613
  990SOD     NA14472   0.715   2.992  17.578  0.4511  0.6540  0.1043
  991SOD     NA14473   3.644   1.001  14.216  0.2463 -0.1731 -0.2447
  992SOD     NA14474   0.452   2.948  12.884 -0.5731  0.4086  0.2356
  993SOD     NA14475   1.577   1.334  11.152 -0.1733 -0.1659 -0.3621
  994SOD     NA14476   1.644   4.077  11.010 -0.2712  0.2135 -1.0202
  995SOD     NA14477   3.923   2.712  15.323 -0.3323 -0.0826  0.5941
  996SOD     NA14478   1.191   1.879  10.400  0.0496 -0.4552 -0.1185
  997SOD     NA14479   2.425   1.194  12.278  0.0562  0.4526  0.1922
  998SOD     NA14480   0.302   0.363   2.144  0.1337 -0.4190 -0.4522
  999SOD     NA14481   3.473   2.234   1.578  0.4665  0.1988  0.8448
 1000SOD     NA14482   0.023   4.067   3.413  0.3369 -0.2812 -0.3341
 1001SOD     NA14483   3.340   2.044  12.440 -0.2889  0.2701 -0.1646
 1002SOD     NA14484   3.787   1.819  12.877  0.0451  0.0372 -0.0486
 1003SOD     NA14485   4.545   0.264   4.602 -0.5725  0.1799 -0.1850
 1004SOD     NA14486   0.052   0.700  13.291 -0.2017 -0.0941  0.2450
 1005SOD     NA14487   1.708   0.498  15.050  0.1048  0.1152 -0.1150
 1006SOD     NA14488   1.796   3.319  10.227  0.0683 -0.6519 -0.2598
 1007SOD     NA14489   1.307   1.198  11.053  0.1633  0.3941  0.3745
 1008SOD     NA14490   0.302   1.662  13.533 -0.5917  0.3265  0.1100
 1009SOD     NA14491   2.879   4.164  17.416 -0.1465 -0.4098 -0.3190
 1010SOD     NA14492   4.451   4.179   9.241  0.3274  0.0139  0.1833
 1011SOD     NA14493   1.425   4.141  11.292  0.7562  0.4521  0.1809
 1012SOL     OW14494   3.683   0.144   8.081  0.5445 -0.3766 -0.0415
 1012SOL    HW114495   3.674   0.237   8.103 -0.3371 -0.4827  0.0574
 1012SOL    HW214496   3.736   0.144   8.001 -1.2615  1.4580 -1.2382
 1013SOL     OW14497   1.282   3.252  10.897 -0.2481  0.3213  0.6472
 1013SOL    HW114498   1.320   3.258  10.985 -0.5110 -0.8385  0.8459
 1013SOL    HW214499   1.193   3.233  10.927 -0.9498  0.4186 -1.3773
 1014SOL     OW14500   2.246   2.801   7.804  0.7821  0.3329 -0.2179
 1014SOL    HW114501   2.204   2.814   7.889 -1.3991  0.3845 -1.2922
 1014SOL    HW214502   2.243   2.706   7.794 -1.9681  0.2966  1.0908
 1015SOL     OW14503   4.537   3.023   2.671 -0.1753  0.4297 -0.2389
 1015SOL    HW114504   4.515   3.030   2.764 -1.3203  0.4210 -0.5081
 1015SOL    HW214505   4.483   2.946   2.653  1.2111  0.1265 -3.0748
 1016SOL     OW14506   4.132   3.147   9.047  0.4870  0.1179  0.2655
 1016SOL    HW114507   4.159   3.237   9.030 -0.6666  0.4364  0.1025
 1016SOL    HW214508   4.053   3.151   8.994 -0.7527 -0.4269  2.0521
 1017SOL     OW14509   0.386   2.795   8.031  0.2020  0.5201 -0.0268
 1017SOL    HW114510   0.455   2.861   8.042 -1.0232  1.9843 -1.1633
 1017SOL    HW214511   0.418   2.746   7.955  0.4119 -2.5766  2.0651
 1018SOL     OW14512   2.937   2.494   2.222 -0.5667 -0.6950 -0.2841
 1018SOL    HW114513   2.884   2.455   2.152 -1.9190  0.4030  0.1172
 1018SOL    HW214514   2.889   2.576   2.237  2.4402  0.8058  1.1558
 1019SOL     OW14515   4.118   3.850   2.317  0.3920  0.2016 -0.6812
 1019SOL    HW114516   4.033   3.834   2.277 -0.9582  0.7442  1.9526
 1019SOL    HW214517   4.106   3.796   2.395  0.2065  1.3661  0.1004
 1020SOL     OW14518   0.048   2.623  14.742 -0.0912 -1.0661 -0.3475
 1020SOL    HW114519   0.008   2.662  14.664  0.3829 -0.1983 -0.1533
 1020SOL    HW214520   0.083   2.698  14.789 -0.2777  0.6008 -2.8689
 1021SOL     OW14521   3.590   1.248   2.594 -0.2455 -0.3337 -0.6483
 1021SOL    HW114522   3.668   1.295   2.564 -0.3012 -0.4789 -1.0209
 1021SOL    HW214523   3.516   1.294   2.556 -1.6607 -1.5197  0.6603
 1022SOL     OW14524   1.203   0.895   2.414 -0.2859 -0.4470 -0.8626
 1022SOL    HW114525   1.273   0.956   2.394 -0.8947  0.3807 -0.4640
 1022SOL    HW214526   1.182   0.854   2.330 -2.8618 -0.8033 -0.0379
 1023SOL     OW14527   0.485   0.531   2.083 -0.5506 -0.2101  0.0251
 1023SOL    HW114528   0.520   0.523   1.994  0.2456 -2.5065  0.5511
 1023SOL    HW214529   0.546   0.501   2.150  2.6851 -1.2600 -3.4096
 1024SOL     OW14530   0.797   4.609   3.340 -0.3041  0.1814  0.4254
 1024SOL    HW114531   0.725   4.573   3.289  0.1818 -0.8676  0.4878
 1024SOL    HW214532   0.866   4.551   3.306 -0.7840  0.8728 -1.7093
 1025SOL     OW14533   3.798   0.182  16.772 -0.6755 -0.1507  0.5228
 1025SOL    HW114534   3.771   0.111  16.713 -1.9912  0.9225 -0.1599
 1025SOL    HW214535   3.894   0.180  16.769 -0.6895  1.4214 -1.0696
 1026SOL     OW14536   1.211   1.935  15.912  0.1550 -0.7768 -0.0174
 1026SOL    HW114537   1.276   1.873  15.944  1.3888 -0.3246 -1.6404
 1026SOL    HW214538   1.170   1.956  15.996  0.9326  0.1724  0.1233
 1027SOL     OW14539   2.293   0.307   0.874  0.0532 -0.0058 -0.6464
 1027SOL    HW114540   2.373   0.359   0.882  0.9867 -1.3846 -0.9174
 1027SOL    HW214541   2.333   0.243   0.815 -2.2986 -0.7559 -1.3959
 1028SOL     OW14542   2.000   3.813  15.792 -0.3211 -0.4216  0.2529
 1028SOL    HW114543   1.965   3.864  15.864  0.1281 -0.4961  0.5198
 1028SOL    HW214544   1.975   3.726  15.823  1.4656 -0.8003  0.5967
 1029SOL     OW14545   1.549   1.065   6.655  0.1797 -0.3496  0.2987
 1029SOL    HW114546   1.639   1.077   6.685  0.5118  1.1984 -1.2808
 1029SOL    HW214547   1.545   0.971   6.638  1.1958 -0.2523 -0.4764
 1030SOL     OW14548   4.047   0.036   4.667 -0.5606 -0.3474 -0.3289
 1030SOL    HW114549   4.108   4.690   4.683 -0.3536  0.2469  1.5731
 1030SOL    HW214550   4.090   0.105   4.617 -1.1262  1.1544  1.2494
 1031SOL     OW14551   3.196   3.254   0.790 -0.5899 -0.0511 -0.1572
 1031SOL    HW114552   3.110   3.250   0.832 -0.0930  0.1947  0.8842
 1031SOL    HW214553   3.252   3.220   0.860 -1.0871  0.5635  0.5405
 1032SOL     OW14554   3.752   0.840  15.134  0.0399 -0.0094 -0.0238
 1032SOL    HW114555   3.814   0.857  15.064 -1.3838 -0.6566 -1.4354
 1032SOL    HW214556   3.733   0.747  15.124  3.0793 -0.5098 -1.1494
 1033SOL     OW14557   4.565   1.665   0.644  0.1425  0.0327 -0.2513
 1033SOL    HW114558   4.489   1.661   0.703 -0.8875 -0.6726 -1.6382
 1033SOL    HW214559   4.552   1.580   0.601 -2.0595  0.7743 -1.0450
 1034SOL     OW14560   2.627   3.848   8.459 -0.0198 -0.1744 -0.0173
 1034SOL    HW114561   2.550   3.870   8.407 -0.9171 -2.4032  0.3450
 1034SOL    HW214562   2.700   3.889   8.414 -1.2604  0.2468 -1.6346
 1035SOL     OW14563   3.321   2.480   5.510  0.1443  0.4022 -0.3418
 1035SOL    HW114564   3.392   2.477   5.575  2.1751 -0.0681 -2.6063
 1035SOL    HW214565   3.250   2.522   5.558  2.1502  3.9882 -0.5076
 1036SOL     OW14566   1.135   1.597   1.855 -0.1808 -0.0810  0.5169
 1036SOL    HW114567   1.084   1.564   1.781  0.4631 -0.7113  0.3522
 1036SOL    HW214568   1.102   1.686   1.869  1.7238  0.7474 -0.2118
 1037SOL     OW14569   4.253   3.316   8.757 -0.1697 -0.1079 -0.4195
 1037SOL    HW114570   4.210   3.230   8.758 -1.1679  0.3736 -1.3692
 1037SOL    HW214571   4.232   3.358   8.840  0.5947  0.6382 -0.6071
 1038SOL     OW14572   1.753   0.333   3.329  0.4216 -0.1363  0.0461
 1038SOL    HW114573   1.768   0.260   3.389 -1.3022 -0.7347 -0.2597
 1038SOL    HW214574   1.736   0.402   3.394 -1.4242  1.7615 -2.4396
 1039SOL     OW14575   2.525   1.713   6.150  0.4110  0.5710 -0.2917
 1039SOL    HW114576   2.465   1.787   6.161 -0.2840 -0.3865  2.3096
 1039SOL    HW214577   2.507   1.692   6.058 -0.7694 -1.3522  0.3897
 1040SOL     OW14578   0.156   0.928  12.650 -0.0870  0.1695  0.0329
 1040SOL    HW114579   0.081   0.872  12.632  0.5239 -0.5768 -0.1877
 1040SOL    HW214580   0.115   1.014  12.643 -0.0435  0.2672  0.9453
 1041SOL     OW14581   1.300   2.620   3.146  0.4638  0.4833 -0.1723
 1041SOL    HW114582   1.317   2.667   3.228 -2.8420  0.6773  0.4043
 1041SOL    HW214583   1.301   2.527   3.168  1.8225  0.5505  0.0447
 1042SOL     OW14584   3.807   4.654  12.014 -0.0512  0.4254 -0.6476
 1042SOL    HW114585   3.730   4.612  12.052 -0.2269  1.1822 -0.1613
 1042SOL    HW214586   3.873   4.647  12.083  0.6846  0.3273 -1.3569
 1043SOL     OW14587   4.510   0.372   1.472  0.2970 -0.1262  0.0215
 1043SOL    HW114588   4.602   0.345   1.481 -0.0704 -1.5050 -0.5006
 1043SOL    HW214589   4.490   0.386   1.565  1.7787 -2.5806  0.7119
 1044SOL     OW14590   1.663   1.728   8.488 -0.5406  0.1272 -0.7403
 1044SOL    HW114591   1.626   1.769   8.566  0.1874  1.4550 -1.0885
 1044SOL    HW214592   1.749   1.701   8.519 -0.1013  1.8786 -0.4575
 1045SOL     OW14593   0.486   3.519   7.712  0.2620 -0.7345 -0.3726
 1045SOL    HW114594   0.404   3.470   7.720 -2.0366  3.0333 -0.9276
 1045SOL    HW214595   0.495   3.529   7.617 -1.9945 -0.3407 -0.5522
 1046SOL     OW14596   2.533   4.441   6.072 -0.1148  0.3293  0.0210
 1046SOL    HW114597   2.611   4.423   6.123  0.4949 -0.2679 -1.1105
 1046SOL    HW214598   2.560   4.401   5.989 -1.9170  0.2348 -0.5215
 1047SOL     OW14599   1.393   1.096  13.060  0.1191 -0.0066  0.2627
 1047SOL    HW114600   1.430   1.168  13.110  2.5082 -1.4196  0.5441
 1047SOL    HW214601   1.473   1.044  13.063  0.4049  0.5040  1.2015
 1048SOL     OW14602   2.344   4.468  16.317 -0.5164  0.2384  0.5862
 1048SOL    HW114603   2.385   4.521  16.248 -0.7689  0.3541  0.5237
 1048SOL    HW214604   2.281   4.419  16.263 -0.2611 -2.6211  2.9318
 1049SOL     OW14605   0.701   4.320   6.712  0.3636  0.3759  0.0471
 1049SOL    HW114606   0.657   4.271   6.642  0.4961 -0.5438  0.6061
 1049SOL    HW214607   0.713   4.237   6.758  3.1711  0.5264 -0.4146
 1050SOL     OW14608   4.554   1.186   6.215 -0.4011  0.3732 -0.1120
 1050SOL    HW114609   4.491   1.114   6.210 -1.6868  1.3267  2.8270
 1050SOL    HW214610   4.611   1.148   6.282  0.5897 -0.0384 -1.1819
 1051SOL     OW14611   4.299   3.522  13.365  0.6705 -0.6287 -0.1206
 1051SOL    HW114612   4.393   3.508  13.359  0.9156  1.5776 -1.3405
 1051SOL    HW214613   4.289   3.504  13.459 -1.3390  3.2290  0.4179
 1052SOL     OW14614   0.648   0.667   1.257  0.0474  0.3841  0.5664
 1052SOL    HW114615   0.599   0.585   1.250 -0.3803  0.6685  0.2584
 1052SOL    HW214616   0.589   0.727   1.211 -1.3446 -1.5432 -0.2024
 1053SOL     OW14617   1.313   2.561   4.953 -0.0963  0.1248  0.3426
 1053SOL    HW114618   1.256   2.634   4.930 -0.3496  0.1793  1.1550
 1053SOL    HW214619   1.341   2.594   5.038 -3.1077 -2.5669  2.3663
 1054SOL     OW14620   3.085   0.344  11.931  0.0386 -0.1227 -0.0134
 1054SOL    HW114621   3.066   0.276  11.995 -0.4951  0.3996  0.3841
 1054SOL    HW214622   3.172   0.377  11.950 -0.2819  0.7125  0.0045
 1055SOL     OW14623   2.952   0.055   4.141  0.0787 -0.2882 -0.0004
 1055SOL    HW114624   3.004   4.719   4.090 -1.1240 -1.0259 -0.3428
 1055SOL    HW214625   3.001   0.136   4.131  0.5154 -0.3079  1.8558
 1056SOL     OW14626   4.039   0.121   3.513 -0.0855  0.3822 -0.8275
 1056SOL    HW114627   4.020   0.211   3.487  1.1658  0.4895 -1.3675
 1056SOL    HW214628   3.954   0.078   3.518 -0.0861  0.5199  0.2700
 1057SOL     OW14629   4.647   2.059   8.669 -0.4948  0.2192 -0.2224
 1057SOL    HW114630   4.592   1.984   8.647 -1.0077 -0.3339  2.9768
 1057SOL    HW214631   0.001   2.052   8.617 -1.4519 -0.0433 -1.6424
 1058SOL     OW14632   4.598   3.890   4.487  0.2693 -0.1883  0.2057
 1058SOL    HW114633   4.590   3.857   4.397 -0.9804 -0.2129  0.3233
 1058SOL    HW214634   4.513   3.871   4.527  0.7658 -0.6850  1.0215
 1059SOL     OW14635   0.081   1.867   8.407 -0.5749  0.1618  0.5856
 1059SOL    HW114636   0.113   1.951   8.441  0.2353 -0.6363  1.7941
 1059SOL    HW214637   4.722   1.891   8.369 -1.6420 -1.6311  1.8714
 1060SOL     OW14638   1.933   1.254   4.642  0.5247 -0.0093  0.3743
 1060SOL    HW114639   1.922   1.349   4.638  1.9232  0.0995 -1.1141
 1060SOL    HW214640   2.010   1.242   4.586  0.9140 -0.1983  0.9542
 1061SOL     OW14641   2.042   2.437   2.351  0.0589 -0.4683  0.6767
 1061SOL    HW114642   2.119   2.448   2.297  0.5456 -2.0592  1.0543
 1061SOL    HW214643   2.010   2.526   2.337  0.9155 -0.1790  0.5708
 1062SOL     OW14644   1.388   2.915   6.070  0.2843 -0.2848 -0.3902
 1062SOL    HW114645   1.325   2.845   6.088 -0.1920  0.6798  1.6428
 1062SOL    HW214646   1.364   2.945   5.982  1.0242  0.4095 -0.3522
 1063SOL     OW14647   1.383   1.971   7.646 -0.2088 -0.4753  0.4139
 1063SOL    HW114648   1.349   1.883   7.627 -1.5445  0.3678 -1.1028
 1063SOL    HW214649   1.376   1.966   7.742  0.3846  1.5869  0.5578
 1064SOL     OW14650   3.253   2.252   4.583  0.1674  1.2460  0.7121
 1064SOL    HW114651   3.318   2.195   4.624  1.6294  1.9315 -0.6737
 1064SOL    HW214652   3.177   2.251   4.642 -0.4652  0.8612 -0.1161
 1065SOL     OW14653   3.046   1.427   1.862  0.0777 -0.7487 -0.0025
 1065SOL    HW114654   3.050   1.510   1.815 -1.1906 -0.0743  1.0854
 1065SOL    HW214655   2.965   1.384   1.833 -0.6635  0.2998  0.5057
 1066SOL     OW14656   4.166   4.719  11.441  0.2487 -0.0513  0.2759
 1066SOL    HW114657   4.083   4.692  11.401  1.4810 -0.4426 -2.0740
 1066SOL    HW214658   4.235   4.698  11.377 -0.1304  1.8708 -0.7686
 1067SOL     OW14659   1.278   0.943   0.653 -0.4734 -0.1361 -0.3402
 1067SOL    HW114660   1.227   0.998   0.712  2.3152  0.7179  1.2658
 1067SOL    HW214661   1.330   1.012   0.612 -1.8688  1.1931  0.1247
 1068SOL     OW14662   3.344   3.222   8.109  0.0049  0.3709  0.0613
 1068SOL    HW114663   3.407   3.236   8.180  1.0036  0.3660 -0.8306
 1068SOL    HW214664   3.265   3.244   8.159 -0.2573  0.3423 -0.3454
 1069SOL     OW14665   1.514   0.259  11.835  0.3078  0.4534  0.0811
 1069SOL    HW114666   1.555   0.344  11.851  1.1248  0.1879 -0.6076
 1069SOL    HW214667   1.523   0.248  11.740  0.9556 -1.4035  0.3530
 1070SOL     OW14668   3.539   4.398   5.512 -0.0442 -0.3013 -0.6229
 1070SOL    HW114669   3.463   4.456   5.516 -0.4904 -0.9720  0.4085
 1070SOL    HW214670   3.549   4.391   5.417  0.3290 -3.0908 -0.3684
 1071SOL     OW14671   4.139   3.580   3.650  0.1658  0.7545 -0.1263
 1071SOL    HW114672   4.227   3.541   3.649  0.0346  0.4813 -1.3930
 1071SOL    HW214673   4.110   3.558   3.562  0.3383 -0.3252  0.0871
 1072SOL     OW14674   4.421   3.350   6.907  0.3477 -0.4129  0.2589
 1072SOL    HW114675   4.435   3.268   6.859  1.2792 -0.1600  0.1119
 1072SOL    HW214676   4.495   3.397   6.869 -0.2026  0.7109  0.6018
 1073SOL     OW14677   2.703   3.255   6.059 -0.5008 -0.5125  0.0239
 1073SOL    HW114678   2.612   3.274   6.081 -0.5781 -1.5377  0.6005
 1073SOL    HW214679   2.735   3.237   6.148 -1.0329  0.3709  0.3929
 1074SOL     OW14680   0.974   1.813  16.175  0.2638  0.0292 -0.0549
 1074SOL    HW114681   0.991   1.903  16.145  0.2687 -0.1170 -0.4925
 1074SOL    HW214682   1.062   1.776  16.165 -0.5917 -2.2001  0.6737
 1075SOL     OW14683   2.930   3.226  10.479 -0.5843 -0.1555  0.4303
 1075SOL    HW114684   2.869   3.295  10.506 -0.6959  0.5917 -1.6837
 1075SOL    HW214685   2.905   3.154  10.536 -0.1251 -0.0490  0.7625
 1076SOL     OW14686   1.822   0.377   6.757  0.4573 -0.2197 -0.0433
 1076SOL    HW114687   1.842   0.410   6.670  0.7531 -0.2993 -0.0062
 1076SOL    HW214688   1.775   0.297   6.732  0.2718 -0.5242  1.2708
 1077SOL     OW14689   0.373   3.862   9.373 -0.0803  0.4751  0.3387
 1077SOL    HW114690   0.450   3.916   9.358 -0.0359  1.0642  2.7232
 1077SOL    HW214691   0.375   3.808   9.293  0.3456  1.9517 -0.6512
 1078SOL     OW14692   0.735   4.141   2.733  0.1915  0.3695  0.4543
 1078SOL    HW114693   0.672   4.141   2.806 -0.4574  2.2298 -0.1113
 1078SOL    HW214694   0.671   4.138   2.662 -0.2373  0.5814  0.8288
 1079SOL     OW14695   1.032   2.042  16.408  1.1978 -0.1807 -0.5064
 1079SOL    HW114696   1.111   2.052  16.461  0.4210 -1.8959  0.9793
 1079SOL    HW214697   1.002   1.954  16.432  1.0878  0.1339  0.5126
 1080SOL     OW14698   1.982   3.504   5.894  0.1010 -0.5823 -0.2784
 1080SOL    HW114699   1.959   3.593   5.865  0.2415  0.0591  1.5957
 1080SOL    HW214700   1.950   3.490   5.983 -1.0733  1.9311 -0.2838
 1081SOL     OW14701   3.749   4.053   6.070  0.4802 -0.1098 -1.3273
 1081SOL    HW114702   3.712   3.973   6.107 -1.0717  1.7868  1.2397
 1081SOL    HW214703   3.670   4.090   6.031 -0.1034 -1.5342 -1.5133
 1082SOL     OW14704   2.570   0.688  12.797 -0.2760  0.5319 -0.5225
 1082SOL    HW114705   2.542   0.687  12.889  1.1981  0.6815 -0.0719
 1082SOL    HW214706   2.621   0.770  12.798  0.3433  0.1107  1.7861
 1083SOL     OW14707   1.804   4.351   1.817  0.2495  0.2411 -0.0534
 1083SOL    HW114708   1.810   4.367   1.723 -2.6901  0.5914 -0.1697
 1083SOL    HW214709   1.803   4.441   1.848 -2.7980 -1.0011  3.3912
 1084SOL     OW14710   0.191   2.636   6.038 -0.3147 -0.7279 -0.2770
 1084SOL    HW114711   0.114   2.579   6.047 -2.5348  2.0746 -1.6124
 1084SOL    HW214712   0.187   2.697   6.111 -1.2378 -0.4259 -0.5795
 1085SOL     OW14713   1.450   0.168  12.096 -0.2133 -0.1624  0.0510
 1085SOL    HW114714   1.443   0.256  12.132 -0.7102  0.1223 -0.7618
 1085SOL    HW214715   1.443   0.186  12.002  2.1679 -0.9328 -0.2841
 1086SOL     OW14716   4.355   4.346   4.068  0.8259  0.0468 -0.0067
 1086SOL    HW114717   4.425   4.281   4.076  0.6452 -0.1701 -0.1933
 1086SOL    HW214718   4.393   4.394   3.994  0.3362  1.8723  0.9203
 1087SOL     OW14719   1.699   2.563  15.151 -0.2985  0.3517 -0.4178
 1087SOL    HW114720   1.691   2.557  15.246  1.8739 -0.6675 -0.3106
 1087SOL    HW214721   1.626   2.625  15.143 -2.1158 -1.9031 -1.4374
 1088SOL     OW14722   4.578   4.184   2.139  0.6212 -0.4172 -0.5176
 1088SOL    HW114723   4.620   4.106   2.103  0.4058 -0.8323  0.1227
 1088SOL    HW214724   4.554   4.145   2.224 -1.8274  0.7787 -0.6502
 1089SOL     OW14725   2.620   2.348  12.377  0.1686  0.1523 -0.0104
 1089SOL    HW114726   2.567   2.337  12.298  1.3331 -0.1763 -0.7418
 1089SOL    HW214727   2.603   2.441  12.393 -1.5109  0.4348 -3.4541
 1090SOL     OW14728   1.848   4.397   7.766  0.4286  0.5173  0.6842
 1090SOL    HW114729   1.846   4.385   7.671  1.2696  0.6949  0.6409
 1090SOL    HW214730   1.866   4.305   7.787 -0.1223  0.0094 -1.0538
 1091SOL     OW14731   3.905   0.562   5.274 -0.2141 -0.2623 -0.3249
 1091SOL    HW114732   3.985   0.612   5.290  0.3620 -1.4290  0.4517
 1091SOL    HW214733   3.894   0.574   5.180 -0.4925 -0.2063 -0.2837
 1092SOL     OW14734   3.917   3.059   7.808  0.1704  0.1143 -0.7757
 1092SOL    HW114735   3.895   3.151   7.793  2.1105  0.7613  0.2457
 1092SOL    HW214736   4.013   3.064   7.805  0.2849 -0.7517  1.4493
 1093SOL     OW14737   0.024   2.544   8.769  0.2552 -0.6691 -0.0393
 1093SOL    HW114738   4.678   2.593   8.729 -0.5968 -0.9773  1.0969
 1093SOL    HW214739   4.707   2.481   8.827  1.3824 -0.8986  0.5494
 1094SOL     OW14740   2.288   0.077   8.356  0.5453 -0.3511  0.2592
 1094SOL    HW114741   2.303   0.084   8.450  0.1656  0.8988  0.2272
 1094SOL    HW214742   2.206   0.030   8.346 -0.0854  0.6767  0.6592
 1095SOL     OW14743   2.964   3.833  16.014  0.2008  0.3057  0.2668
 1095SOL    HW114744   2.907   3.761  16.043  0.8775 -0.0141  0.7881
 1095SOL    HW214745   2.946   3.900  16.081 -2.1029  1.7272 -1.7899
 1096SOL     OW14746   0.484   1.779   0.624 -0.1850  0.3913  0.7646
 1096SOL    HW114747   0.573   1.781   0.658 -0.2193 -2.6867  1.1084
 1096SOL    HW214748   0.484   1.696   0.576 -0.1877  0.7132  0.2159
 1097SOL     OW14749   1.656   0.772  15.951 -0.0793 -0.6894  0.5895
 1097SOL    HW114750   1.740   0.807  15.921 -0.3725  0.2423  0.8489
 1097SOL    HW214751   1.670   0.678  15.939  1.5529 -0.3749 -0.0820
 1098SOL     OW14752   4.475   3.625   0.910  1.0914  0.7092  0.4489
 1098SOL    HW114753   4.512   3.707   0.943  2.7426 -0.1484  0.7357
 1098SOL    HW214754   4.510   3.629   0.821 -0.2148 -0.6307 -0.1217
 1099SOL     OW14755   0.501   1.530  10.399 -0.6284  0.0771  0.1853
 1099SOL    HW114756   0.546   1.598  10.348 -1.0483  0.7405  0.7002
 1099SOL    HW214757   0.548   1.554  10.478 -0.5691  0.5487  0.0092
 1100SOL     OW14758   0.666   4.639   6.679  0.1635 -0.2389  0.7996
 1100SOL    HW114759   0.581   4.677   6.655  1.5607  1.3117 -1.7366
 1100SOL    HW214760   0.679   4.560   6.627 -1.8223 -0.4775  0.6740
 1101SOL     OW14761   3.655   0.637   5.900 -0.1995  0.0711  0.0517
 1101SOL    HW114762   3.682   0.587   5.978 -2.0244  1.2493  1.4341
 1101SOL    HW214763   3.605   0.708   5.940 -0.1171 -0.0394  0.3511
 1102SOL     OW14764   4.718   2.639   6.762  0.2092  0.5058  0.4049
 1102SOL    HW114765   0.030   2.633   6.675  3.8523 -0.5611  2.0869
 1102SOL    HW214766   4.719   2.544   6.774 -1.0713  1.0240  4.8631
 1103SOL     OW14767   1.466   4.445   6.302 -0.5727 -0.0099  0.1366
 1103SOL    HW114768   1.553   4.407   6.290 -0.0011  1.5874 -0.7666
 1103SOL    HW214769   1.473   4.516   6.238 -3.1009  0.6221  0.5480
 1104SOL     OW14770   2.991   2.228   2.008 -0.0368 -0.1995 -0.2059
 1104SOL    HW114771   3.055   2.174   2.053  2.0986  1.2637 -1.5105
 1104SOL    HW214772   2.910   2.210   2.056  0.2904 -0.2001  0.3480
 1105SOL     OW14773   2.201   4.191   4.126 -0.3242 -0.9155 -0.2523
 1105SOL    HW114774   2.289   4.202   4.090 -0.6702  0.0363 -0.8031
 1105SOL    HW214775   2.150   4.201   4.046  0.0368 -3.6445 -0.8028
 1106SOL     OW14776   3.351   2.842   4.753 -0.4244 -0.2594 -0.6882
 1106SOL    HW114777   3.447   2.841   4.752 -0.3993 -2.1514  3.6517
 1106SOL    HW214778   3.329   2.769   4.811  1.2110 -0.2344 -0.0303
 1107SOL     OW14779   1.380   3.163   5.656 -0.0319  0.4422  0.5254
 1107SOL    HW114780   1.412   3.139   5.569 -0.2517 -2.2572  1.1849
 1107SOL    HW214781   1.358   3.254   5.638  0.6847  0.3267 -0.9079
 1108SOL     OW14782   4.348   1.205   0.688  0.6557  0.0765  0.2377
 1108SOL    HW114783   4.285   1.159   0.744 -0.2062  1.3486  0.3052
 1108SOL    HW214784   4.345   1.142   0.617 -0.5420  0.5609 -0.1519
 1109SOL     OW14785   2.909   2.496   1.176  0.2626 -0.4207  0.7102
 1109SOL    HW114786   2.958   2.578   1.175  1.7730 -1.3338  0.2745
 1109SOL    HW214787   2.882   2.479   1.266  1.2118  0.1562  1.0980
 1110SOL     OW14788   4.009   4.674   1.181 -0.2116  0.4899  0.0144
 1110SOL    HW114789   4.032   4.641   1.095  1.8544 -1.0164  1.1266
 1110SOL    HW214790   3.932   4.726   1.159 -0.2922  0.8367  1.0720
 1111SOL     OW14791   3.417   3.254  14.941 -0.1659 -0.2040  0.4656
 1111SOL    HW114792   3.394   3.229  15.031  2.2091  2.3940  1.7751
 1111SOL    HW214793   3.338   3.242  14.888 -0.8582 -0.1819  1.4970
 1112SOL     OW14794   0.471   3.824  11.452 -0.6924 -0.2358  1.0660
 1112SOL    HW114795   0.403   3.786  11.397  1.7609 -1.0354 -1.4000
 1112SOL    HW214796   0.448   3.915  11.435 -0.7320 -0.3247  0.6448
 1113SOL     OW14797   0.934   2.242  17.081 -0.1292 -0.2578  0.2692
 1113SOL    HW114798   1.026   2.249  17.057 -0.2362  1.9418  0.4917
 1113SOL    HW214799   0.896   2.190  17.011  0.3494  0.9000 -0.8642
 1114SOL     OW14800   0.003   2.489  17.700  0.3119  0.0691  0.1222
 1114SOL    HW114801   4.671   2.450  17.635  0.2051 -1.1542  0.9663
 1114SOL    HW214802   4.705   2.582  17.692 -0.2755  0.0601  1.7824
 1115SOL     OW14803   4.454   3.376   5.660  0.5051 -0.0412  0.0201
 1115SOL    HW114804   4.458   3.288   5.698  1.1631 -0.8261 -1.8895
 1115SOL    HW214805   4.390   3.415   5.719 -0.5443  0.3562 -1.3711
 1116SOL     OW14806   3.270   1.780   3.317 -0.1069  0.2734 -0.2559
 1116SOL    HW114807   3.325   1.795   3.240 -1.9045  0.6835 -1.4502
 1116SOL    HW214808   3.201   1.838   3.286 -0.6534  0.0789  0.6074
 1117SOL     OW14809   2.298   1.601  16.704  0.2689 -0.1983  0.2069
 1117SOL    HW114810   2.274   1.510  16.721 -1.6888  0.4405  0.8602
 1117SOL    HW214811   2.331   1.591  16.615 -0.5332  2.1122 -0.3336
 1118SOL     OW14812   1.826   0.159   3.521  0.5958  1.1358 -0.7981
 1118SOL    HW114813   1.776   0.079   3.533  0.5072  1.2902 -0.1505
 1118SOL    HW214814   1.909   0.114   3.509 -0.1678 -0.6673  0.8260
 1119SOL     OW14815   1.523   3.828   1.752  0.2763 -0.9055 -0.3582
 1119SOL    HW114816   1.529   3.733   1.763  0.1459 -0.7026  1.4502
 1119SOL    HW214817   1.576   3.856   1.677 -0.1695  1.7206  0.3240
 1120SOL     OW14818   2.406   1.695   4.152  0.3559  0.4362 -0.3072
 1120SOL    HW114819   2.470   1.637   4.193  0.8886  1.7756  0.7648
 1120SOL    HW214820   2.475   1.740   4.102  0.4102  1.2401  0.4899
 1121SOL     OW14821   2.279   2.175   2.775  0.0441  0.1271 -0.4351
 1121SOL    HW114822   2.362   2.155   2.819 -0.0632  0.8156  0.0864
 1121SOL    HW214823   2.314   2.222   2.700  1.0953 -0.5093 -0.3361
 1122SOL     OW14824   0.825   2.067   0.125  0.3600  0.2291  0.2549
 1122SOL    HW114825   0.913   2.070   0.162  1.4861 -1.0907 -2.2999
 1122SOL    HW214826   0.795   2.155   0.102  0.0235 -0.1179 -0.6425
 1123SOL     OW14827   3.769   2.494   5.011  0.4038 -0.2280  0.2048
 1123SOL    HW114828   3.755   2.563   4.946  0.5813 -0.0362  0.3717
 1123SOL    HW214829   3.752   2.412   4.965 -1.2836  1.5442 -2.3924
 1124SOL     OW14830   4.419   2.335   4.291 -0.0746 -0.1392  0.3267
 1124SOL    HW114831   4.409   2.279   4.215  0.2937  0.0636  0.1289
 1124SOL    HW214832   4.497   2.302   4.336 -0.7112 -0.2159  1.3749
 1125SOL     OW14833   3.994   3.586   9.155 -0.5324  0.7027 -0.4952
 1125SOL    HW114834   4.019   3.555   9.241 -1.6664 -2.5290 -1.3194
 1125SOL    HW214835   3.899   3.573   9.165 -0.5407  0.7520 -0.5085
 1126SOL     OW14836   2.055   0.694   4.721  0.3167  0.0645 -0.4627
 1126SOL    HW114837   2.024   0.782   4.699  0.0166  0.2252  0.5886
 1126SOL    HW214838   2.034   0.699   4.815 -4.7863  4.6481 -1.8082
 1127SOL     OW14839   4.045   2.585   4.922 -0.1728 -0.2785  0.3723
 1127SOL    HW114840   4.062   2.499   4.884 -2.3797 -1.4174  2.0221
 1127SOL    HW214841   3.972   2.581   4.984 -0.2266 -2.6318  0.1587
 1128SOL     OW14842   2.453   3.843   4.072  0.4060  0.3172  0.1868
 1128SOL    HW114843   2.418   3.771   4.021  2.3495  2.2926 -3.9526
 1128SOL    HW214844   2.529   3.870   4.020  0.2345  1.2539  0.4244
 1129SOL     OW14845   3.809   0.199   1.728 -0.3612  0.0916  0.1874
 1129SOL    HW114846   3.716   0.184   1.713 -0.3978  0.2870  0.2162
 1129SOL    HW214847   3.832   0.202   1.635 -1.3447 -0.4156 -0.0679
 1130SOL     OW14848   1.603   0.028   9.408  0.1895  0.5887 -0.0739
 1130SOL    HW114849   1.659   4.698   9.462 -2.1535 -2.1178 -0.4693
 1130SOL    HW214850   1.566   0.084   9.477  0.3663  1.2282 -0.4948
 1131SOL     OW14851   3.624   2.396  15.829  0.2053 -0.7260 -0.0923
 1131SOL    HW114852   3.608   2.490  15.820 -1.1963 -0.9809 -0.2524
 1131SOL    HW214853   3.678   2.387  15.907  0.4141 -0.5264 -0.2141
 1132SOL     OW14854   4.281   4.668   3.900  0.6480 -0.4535  0.5473
 1132SOL    HW114855   4.348   4.600   3.891  1.1439  0.2042 -0.7334
 1132SOL    HW214856   4.337   0.016   3.876  0.4367 -0.7303 -0.8008
 1133SOL     OW14857   0.554   3.120   5.902 -0.3946  0.2045 -0.3226
 1133SOL    HW114858   0.493   3.159   5.839  0.7419  1.3239 -0.7417
 1133SOL    HW214859   0.576   3.041   5.853 -0.0478 -0.7695  1.4350
 1134SOL     OW14860   3.098   2.359   5.670  0.6131  0.5641 -0.3842
 1134SOL    HW114861   3.120   2.317   5.587  0.9571  0.6782 -0.3478
 1134SOL    HW214862   3.059   2.287   5.720 -0.3261  0.7944 -0.7929
 1135SOL     OW14863   2.476   4.685   8.996  0.5731 -0.1465 -0.0576
 1135SOL    HW114864   2.513   0.032   8.945  0.5304  1.1143  1.7354
 1135SOL    HW214865   2.403   4.658   8.940 -0.6643 -0.7781  1.8979
 1136SOL     OW14866   1.633   2.856  10.724 -0.1503  0.3006  0.3020
 1136SOL    HW114867   1.547   2.885  10.694 -0.3517 -1.5936 -1.0189
 1136SOL    HW214868   1.687   2.924  10.684 -0.0394  1.2018  1.9973
 1137SOL     OW14869   3.377   0.540   7.336 -0.0786 -0.4118  0.0415
 1137SOL    HW114870   3.304   0.480   7.327 -0.9129  0.5385  0.4671
 1137SOL    HW214871   3.355   0.575   7.423  0.7433 -0.0375  0.1018
 1138SOL     OW14872   0.810   4.305   0.593  0.3677  0.1144  0.3175
 1138SOL    HW114873   0.753   4.278   0.521 -1.3741 -0.1215  1.8029
 1138SOL    HW214874   0.845   4.222   0.625  0.2400  0.9997  2.7467
 1139SOL     OW14875   3.959   1.684   5.702 -0.1858  0.0619  0.2532
 1139SOL    HW114876   3.975   1.762   5.756 -0.7906 -0.1768  0.7791
 1139SOL    HW214877   3.875   1.657   5.740 -0.4065  0.8998  0.3815
 1140SOL     OW14878   0.436   3.176   7.572 -0.1711  0.3800 -0.5633
 1140SOL    HW114879   0.398   3.229   7.642 -0.8307 -1.2948  0.3442
 1140SOL    HW214880   0.397   3.222   7.498 -0.5170 -1.6295 -1.6395
 1141SOL     OW14881   0.036   3.315  11.287  0.6360 -1.0920 -0.1772
 1141SOL    HW114882   4.673   3.307  11.252  0.2670  0.7055  0.3612
 1141SOL    HW214883   0.044   3.410  11.297 -0.4274 -0.8597 -1.3256
 1142SOL     OW14884   2.611   4.480  16.433 -0.0402 -0.2232  0.2113
 1142SOL    HW114885   2.526   4.466  16.390 -1.1474  1.7242  1.7547
 1142SOL    HW214886   2.646   4.394  16.456 -1.1729 -1.2090 -1.7252
 1143SOL     OW14887   4.602   1.777   4.030  0.6835 -0.1188 -0.8519
 1143SOL    HW114888   4.587   1.819   4.115  1.0268 -1.5426 -0.0991
 1143SOL    HW214889   4.534   1.710   4.029  0.0682  0.4635  1.4466
 1144SOL     OW14890   2.554   1.309   6.579 -0.5881 -0.5720 -0.5599
 1144SOL    HW114891   2.649   1.299   6.577 -0.5132  0.4624 -2.0476
 1144SOL    HW214892   2.528   1.334   6.668  0.9175 -0.8278 -0.0501
 1145SOL     OW14893   2.451   1.566   5.546  0.2662  0.0187 -0.1263
 1145SOL    HW114894   2.477   1.527   5.463  0.9172 -2.3083  1.1628
 1145SOL    HW214895   2.520   1.627   5.571 -0.2536  0.2521  0.7740
 1146SOL     OW14896   3.872   0.092   8.477  0.2291 -0.1697  0.9636
 1146SOL    HW114897   3.958   0.089   8.518  1.7479 -0.9729 -2.2459
 1146SOL    HW214898   3.833   0.144   8.547  0.6435  0.3729  0.7887
 1147SOL     OW14899   3.532   3.016  15.614 -0.1984 -0.1438 -0.5581
 1147SOL    HW114900   3.540   3.090  15.675 -0.3307  1.3954 -2.4194
 1147SOL    HW214901   3.507   3.070  15.539 -2.4318 -0.8426 -0.3397
 1148SOL     OW14902   2.680   0.681  10.967 -0.3093 -0.0064  0.4270
 1148SOL    HW114903   2.647   0.642  10.887 -0.4254  2.9017 -0.9486
 1148SOL    HW214904   2.767   0.641  10.966 -0.5185 -0.4333 -0.7111
 1149SOL     OW14905   2.180   1.235   6.859 -0.6305 -0.0488  0.4334
 1149SOL    HW114906   2.124   1.292   6.806 -0.0695  0.5615  0.4873
 1149SOL    HW214907   2.260   1.238   6.807  0.6675  1.1527  2.5161
 1150SOL     OW14908   4.169   4.366   2.500 -0.1440 -0.1931 -0.4378
 1150SOL    HW114909   4.262   4.383   2.486  0.1553 -0.3141  1.3931
 1150SOL    HW214910   4.174   4.271   2.485 -3.3773 -0.7439  1.8811
 1151SOL     OW14911   3.504   3.431   8.425 -0.2825 -0.5661 -0.0317
 1151SOL    HW114912   3.493   3.455   8.517  1.9364 -0.5591  0.2258
 1151SOL    HW214913   3.483   3.338   8.416 -0.2656 -0.4901 -0.8910
 1152SOL     OW14914   2.783   2.893   6.235 -0.4243 -0.3467 -0.3391
 1152SOL    HW114915   2.806   2.860   6.148 -1.6645 -0.4378 -0.6294
 1152SOL    HW214916   2.782   2.810   6.283  2.1405  0.0452  0.3728
 1153SOL     OW14917   1.236   4.682   4.968  0.0941  0.7407  0.2558
 1153SOL    HW114918   1.183   0.034   4.948 -1.6925 -0.2407  1.1583
 1153SOL    HW214919   1.273   4.707   5.053  0.7181 -0.6892  0.3940
 1154SOL     OW14920   2.908   0.944   8.592  0.2890  0.3806  0.1137
 1154SOL    HW114921   2.879   0.992   8.670 -1.9091  1.3256 -1.2641
 1154SOL    HW214922   2.831   0.951   8.535  0.5274 -1.1697 -0.3936
 1155SOL     OW14923   4.355   0.501   6.390  0.1872  0.4241  0.5525
 1155SOL    HW114924   4.427   0.547   6.348  1.9794  0.8853  4.2191
 1155SOL    HW214925   4.384   0.496   6.480  0.2532  0.7606  0.5476
 1156SOL     OW14926   3.426   4.170   6.809 -0.0100 -0.0007  0.5442
 1156SOL    HW114927   3.517   4.143   6.813 -0.2127 -0.7246  0.3916
 1156SOL    HW214928   3.422   4.204   6.719 -0.3617  0.5581  0.7734
 1157SOL     OW14929   4.162   0.304   8.700 -0.1410 -0.2877 -0.0232
 1157SOL    HW114930   4.110   0.338   8.774 -1.2847 -2.3158  0.0876
 1157SOL    HW214931   4.248   0.304   8.742  0.1226 -1.2069 -0.5812
 1158SOL     OW14932   4.638   4.201  14.522  0.1794 -0.1335  0.1303
 1158SOL    HW114933   4.581   4.199  14.599  1.0880 -1.4071  0.7853
 1158SOL    HW214934   4.651   4.294  14.503 -1.7962  0.3264  1.0561
 1159SOL     OW14935   2.545   2.337  15.373  0.0617 -0.1760  0.3951
 1159SOL    HW114936   2.495   2.356  15.452  0.2097 -2.3031  1.0071
 1159SOL    HW214937   2.504   2.383  15.300 -0.7373  0.0702  1.0016
 1160SOL     OW14938   4.443   1.756   7.162  0.6639  1.0021 -0.2318
 1160SOL    HW114939   4.357   1.734   7.126  1.3943 -1.7267 -0.3432
 1160SOL    HW214940   4.430   1.726   7.252  1.0400  0.4661 -0.3594
 1161SOL     OW14941   2.455   2.342   4.635  0.5928  0.5219  0.3539
 1161SOL    HW114942   2.423   2.254   4.614 -0.1659  0.5940  1.1849
 1161SOL    HW214943   2.504   2.358   4.555  1.0774 -0.6252  0.4256
 1162SOL     OW14944   0.860   1.253   9.457  0.4750  0.0316  0.1050
 1162SOL    HW114945   0.827   1.326   9.511  0.3336 -0.0011  0.0642
 1162SOL    HW214946   0.849   1.302   9.375 -0.2911  0.3722  0.4071
 1163SOL     OW14947   3.204   1.554  10.155 -0.1152 -0.6249  0.0920
 1163SOL    HW114948   3.165   1.639  10.174  2.4615  0.7655 -0.9118
 1163SOL    HW214949   3.203   1.516  10.243 -0.7351  2.0176  1.2088
 1164SOL     OW14950   2.937   4.514   3.306 -0.4380  0.4657  0.5397
 1164SOL    HW114951   2.960   4.497   3.215 -1.7604  3.7909 -0.4181
 1164SOL    HW214952   2.918   4.608   3.302 -1.8248  0.1701  0.1277
 1165SOL     OW14953   3.815   2.751   5.267 -0.0550  0.6971 -0.0800
 1165SOL    HW114954   3.860   2.812   5.209 -1.0513  0.0346 -1.5390
 1165SOL    HW214955   3.753   2.816   5.299  0.1082  1.1672 -0.7338
 1166SOL     OW14956   4.531   3.120   9.659 -0.5205 -0.0708 -0.2116
 1166SOL    HW114957   4.467   3.053   9.684 -1.5732  0.2237 -2.1060
 1166SOL    HW214958   4.539   3.102   9.565 -2.2979 -0.0262 -0.3767
 1167SOL     OW14959   3.744   2.105  16.559 -0.1858  0.0470 -0.3813
 1167SOL    HW114960   3.770   2.012  16.560 -0.4141 -0.0031  0.5567
 1167SOL    HW214961   3.819   2.134  16.609  0.1769  0.4239 -1.1458
 1168SOL     OW14962   2.118   0.718   6.728  0.0874 -0.3340 -0.0527
 1168SOL    HW114963   2.095   0.677   6.645 -1.1634  2.3882 -1.0447
 1168SOL    HW214964   2.161   0.643   6.769 -0.7744 -1.0162 -0.3872
 1169SOL     OW14965   1.043   0.384  15.283  0.0756  0.0393 -0.0519
 1169SOL    HW114966   1.028   0.291  15.266  0.2129 -0.5162  2.8828
 1169SOL    HW214967   1.117   0.387  15.221  1.7474  0.6855  1.9781
 1170SOL     OW14968   1.468   0.223   6.500 -0.1669 -0.2065  0.7691
 1170SOL    HW114969   1.417   0.211   6.580 -1.9020  1.4527 -0.0981
 1170SOL    HW214970   1.510   0.137   6.504 -1.6083 -0.9393 -0.0914
 1171SOL     OW14971   4.200   2.635   3.613  0.1919  0.2582  0.5293
 1171SOL    HW114972   4.176   2.608   3.525  0.8221 -1.0718  0.7671
 1171SOL    HW214973   4.162   2.723   3.623 -0.5277 -0.1417  1.3109
 1172SOL     OW14974   2.035   3.104   2.524  0.0126  0.4305 -0.4836
 1172SOL    HW114975   1.955   3.146   2.554 -0.7355 -2.2405  1.2443
 1172SOL    HW214976   2.004   3.098   2.434 -0.0887  0.2531 -0.4350
 1173SOL     OW14977   1.857   1.417   6.489 -0.1549 -0.4092 -0.3143
 1173SOL    HW114978   1.882   1.495   6.439  0.2289 -2.5273 -3.4469
 1173SOL    HW214979   1.783   1.453   6.538  0.8872 -0.2869  1.1767
 1174SOL     OW14980   2.711   0.625   0.609  0.2109 -0.7787 -0.1036
 1174SOL    HW114981   2.780   0.691   0.617 -3.9838  3.5866  0.0973
 1174SOL    HW214982   2.714   0.628   0.513  0.6988 -0.1678 -0.0695
 1175SOL     OW14983   3.887   4.468   2.193  0.2329 -0.5005 -0.6240
 1175SOL    HW114984   3.978   4.443   2.177  0.3182 -1.1603  0.8919
 1175SOL    HW214985   3.893   4.555   2.231  2.4644 -0.1934 -1.6975
 1176SOL     OW14986   3.299   0.003   2.462 -0.1703  0.0409 -0.4862
 1176SOL    HW114987   3.299   4.705   2.369  0.3815 -0.7382 -0.2890
 1176SOL    HW214988   3.246   4.659   2.499 -1.0684  0.2715 -1.3472
 1177SOL     OW14989   1.786   2.074   3.767 -0.0622  0.5428 -0.4286
 1177SOL    HW114990   1.765   1.988   3.729  0.2301 -0.0253  0.7110
 1177SOL    HW214991   1.870   2.047   3.804 -0.3700 -0.7842 -0.6952
 1178SOL     OW14992   3.996   0.390   3.635  0.3038 -0.5252 -0.2373
 1178SOL    HW114993   3.984   0.341   3.716  0.9650  1.5708  1.1201
 1178SOL    HW214994   3.906   0.385   3.603 -0.5231  0.2036  1.9906
 1179SOL     OW14995   2.305   3.248  11.207 -0.0428 -0.3799  0.2239
 1179SOL    HW114996   2.288   3.217  11.296 -2.1495 -1.2326 -0.4788
 1179SOL    HW214997   2.225   3.298  11.193 -1.0975 -2.6925 -1.9663
 1180SOL     OW14998   0.625   4.670  13.299  0.1167 -0.2480 -0.2246
 1180SOL    HW114999   0.625   4.584  13.340  2.1876  0.7323  1.7927
 1180SOL    HW215000   0.691   4.658  13.230 -0.1629 -0.7146 -0.4132
 1181SOL     OW15001   2.106   0.783   2.776  0.2892  1.0727 -0.0550
 1181SOL    HW115002   2.200   0.778   2.757 -0.2123 -0.2027 -2.2390
 1181SOL    HW215003   2.090   0.744   2.862 -0.0110 -1.1681 -1.1330
 1182SOL     OW15004   3.924   2.596  17.475 -0.2862 -0.3620  0.4562
 1182SOL    HW115005   3.882   2.562  17.555 -4.1437  0.3010 -1.2736
 1182SOL    HW215006   3.892   2.686  17.467  1.6039 -0.0904 -3.7137
 1183SOL     OW15007   0.217   3.617   2.510 -0.1588 -0.2369  0.2295
 1183SOL    HW115008   0.195   3.688   2.570 -0.8975 -0.3414  0.0786
 1183SOL    HW215009   0.148   3.608   2.444  1.0967 -0.9306 -1.0005
 1184SOL     OW15010   1.613   4.062  11.417 -0.2115  0.1533 -0.6170
 1184SOL    HW115011   1.647   4.013  11.342 -3.3472 -1.1147 -1.2278
 1184SOL    HW215012   1.693   4.052  11.469 -0.8560 -0.6926  0.2104
 1185SOL     OW15013   3.224   2.953   6.749  0.2210  0.0446  0.1888
 1185SOL    HW115014   3.286   2.971   6.820 -0.6212 -0.3609  1.0199
 1185SOL    HW215015   3.221   3.027   6.688 -0.6764  1.6654  2.2188
 1186SOL     OW15016   4.530   0.105  11.938 -0.3133 -0.0452 -0.1361
 1186SOL    HW115017   4.510   0.090  12.031 -0.0400 -0.0577 -0.0793
 1186SOL    HW215018   4.568   0.193  11.948 -2.8351  0.9765  0.4035
 1187SOL     OW15019   1.235   2.795   2.569 -0.7326 -0.3934  0.3803
 1187SOL    HW115020   1.273   2.713   2.538 -0.6704 -0.8264  1.6095
 1187SOL    HW215021   1.241   2.852   2.492  2.4982 -0.8957  0.2785
 1188SOL     OW15022   1.547   4.690  11.192  0.0740  0.1175  0.1368
 1188SOL    HW115023   1.587   4.612  11.154 -1.9085 -1.3890  1.1510
 1188SOL    HW215024   1.491   4.706  11.116  1.2927 -0.6075 -0.9181
 1189SOL     OW15025   4.604   0.387  11.954 -0.1247  0.0746  0.1559
 1189SOL    HW115026   4.635   0.468  11.994  0.4237 -0.1224  0.1184
 1189SOL    HW215027   4.597   0.414  11.862 -1.6406  0.0132  0.2422
 1190SOL     OW15028   2.578   0.027  11.323  0.0608  0.0950  0.5310
 1190SOL    HW115029   2.555   4.660  11.321 -1.6606  0.5889 -1.9211
 1190SOL    HW215030   2.496   0.072  11.300  3.0215  3.0296 -4.2328
 1191SOL     OW15031   0.392   3.130   8.728  0.4252 -0.0436 -0.2559
 1191SOL    HW115032   0.438   3.075   8.664  1.3537  0.5811 -0.1176
 1191SOL    HW215033   0.324   3.174   8.677 -1.0018 -4.0207 -1.8301
 1192SOL     OW15034   1.698   0.824   2.754  0.0112 -0.3795  0.2898
 1192SOL    HW115035   1.641   0.801   2.680  1.1783  1.6055 -1.2436
 1192SOL    HW215036   1.708   0.739   2.795  0.5917 -0.6852 -0.4996
 1193SOL     OW15037   2.093   1.274   3.780 -0.1924  0.1079 -0.4973
 1193SOL    HW115038   2.065   1.324   3.857  1.7364 -1.2381  1.0854
 1193SOL    HW215039   2.027   1.288   3.713 -1.6466 -0.5842  0.7785
 1194SOL     OW15040   0.953   0.074   8.715  0.3997  0.2827  0.4952
 1194SOL    HW115041   1.011   0.057   8.640  2.6739  0.9711  2.0855
 1194SOL    HW215042   0.870   0.040   8.682  0.8950 -0.8080  0.3816
 1195SOL     OW15043   0.268   1.733  14.972  0.3647  0.5923 -0.2451
 1195SOL    HW115044   0.198   1.669  14.963  0.8939  0.1458 -1.2691
 1195SOL    HW215045   0.314   1.737  14.888  1.3865  0.5925  0.3128
 1196SOL     OW15046   1.260   0.415   7.118  0.6165  0.6399 -0.3552
 1196SOL    HW115047   1.174   0.425   7.159  0.8028  2.7462 -0.4552
 1196SOL    HW215048   1.298   0.351   7.179 -2.2224 -0.8235 -0.1183
 1197SOL     OW15049   3.634   2.891   4.684 -0.7926  0.1540  0.2391
 1197SOL    HW115050   3.717   2.900   4.637  0.3020 -2.9221  1.5497
 1197SOL    HW215051   3.575   2.882   4.609 -2.2030 -1.3194  1.5201
 1198SOL     OW15052   3.980   1.763   8.712  0.1547  0.0831  0.0332
 1198SOL    HW115053   4.027   1.697   8.763 -0.6925  0.3998  1.2257
 1198SOL    HW215054   4.046   1.824   8.679 -0.8295  0.9582 -0.3089
 1199SOL     OW15055   4.640   4.101   9.170 -0.6318  0.0816  0.1157
 1199SOL    HW115056   4.669   4.017   9.133  0.4091  0.7536 -0.5743
 1199SOL    HW215057   4.685   4.162   9.112 -0.8188 -1.7272 -1.9316
 1200SOL     OW15058   1.420   2.842   5.468  0.3857 -0.3274  0.4633
 1200SOL    HW115059   1.481   2.913   5.490  2.1619 -1.6925 -0.0388
 1200SOL    HW215060   1.479   2.775   5.434 -0.5897 -0.8174 -0.2305
 1201SOL     OW15061   1.046   3.478  15.803 -0.2815  0.1242 -0.0371
 1201SOL    HW115062   0.963   3.510  15.838 -1.7694 -1.5947 -2.0454
 1201SOL    HW215063   1.092   3.563  15.803 -1.4287  0.7281 -3.2318
 1202SOL     OW15064   1.724   2.161   6.909  0.5472 -0.5625 -0.0286
 1202SOL    HW115065   1.792   2.094   6.907  0.0350 -1.0483 -0.9984
 1202SOL    HW215066   1.690   2.161   6.820  0.5959 -1.5797 -0.0385
 1203SOL     OW15067   2.150   0.613   3.930 -0.1676 -0.3475 -0.2063
 1203SOL    HW115068   2.114   0.702   3.933 -0.2293 -0.3145 -1.8073
 1203SOL    HW215069   2.148   0.595   3.836 -0.3521  1.3645 -0.5358
 1204SOL     OW15070   0.173   0.052  11.420  0.1412  0.4973  0.3520
 1204SOL    HW115071   0.164   4.721  11.496 -1.1832 -2.7146 -2.2223
 1204SOL    HW215072   0.157   0.136  11.463 -1.6410 -0.4485  1.5241
 1205SOL     OW15073   1.396   0.915  16.436 -0.3072 -0.5678 -0.3760
 1205SOL    HW115074   1.448   0.889  16.359  1.2204 -1.6835  1.0214
 1205SOL    HW215075   1.310   0.901  16.398  0.6786  0.1851 -2.9006
 1206SOL     OW15076   1.261   2.165   2.877 -0.6185  0.2795 -0.0800
 1206SOL    HW115077   1.339   2.166   2.822  1.3596 -1.0672  2.7478
 1206SOL    HW215078   1.292   2.209   2.957 -0.3887 -2.1772  1.1772
 1207SOL     OW15079   3.522   0.688  12.696  0.6703 -0.3670  0.5082
 1207SOL    HW115080   3.485   0.761  12.746 -0.8548 -1.9131  1.6577
 1207SOL    HW215081   3.589   0.729  12.642 -1.6203  1.2021 -1.1173
 1208SOL     OW15082   2.694   4.097   4.214  0.4491 -0.0136  0.2010
 1208SOL    HW115083   2.725   4.185   4.194  0.8753  0.4524  2.9162
 1208SOL    HW215084   2.651   4.073   4.132 -1.4768  2.9481  0.3575
 1209SOL     OW15085   1.861   4.106  11.969 -0.2038  0.1615  0.0594
 1209SOL    HW115086   1.924   4.043  12.004  0.2654  0.8779  0.5265
 1209SOL    HW215087   1.884   4.093  11.877  0.1652  0.5256  0.1004
 1210SOL     OW15088   0.944   0.630  11.472 -0.4014 -0.0870 -0.4929
 1210SOL    HW115089   0.966   0.672  11.555  0.3896 -1.2610 -0.1075
 1210SOL    HW215090   0.981   0.543  11.487 -1.7022 -0.4148  0.7874
 1211SOL     OW15091   3.940   3.595   8.407  0.1080  0.5546 -0.0748
 1211SOL    HW115092   3.876   3.536   8.368 -0.7219  1.7254 -0.4988
 1211SOL    HW215093   4.018   3.540   8.411 -0.1692  0.3072  1.6623
 1212SOL     OW15094   1.584   3.070   3.171 -0.1059  0.4608 -0.4910
 1212SOL    HW115095   1.618   3.145   3.123  0.2563  1.5196  1.4326
 1212SOL    HW215096   1.591   3.088   3.264  0.4286 -0.2696 -0.3912
 1213SOL     OW15097   1.394   0.017   2.908 -0.0824 -0.2982 -0.0915
 1213SOL    HW115098   1.412   0.063   2.990  0.8433 -0.1534 -0.3768
 1213SOL    HW215099   1.418   4.658   2.944  0.0342  1.1836  3.3187
 1214SOL     OW15100   1.485   0.706   2.300 -0.3179 -0.4192 -0.6095
 1214SOL    HW115101   1.403   0.696   2.251 -1.1687  2.2154  0.3211
 1214SOL    HW215102   1.549   0.664   2.241  0.5027  0.0370 -0.0375
 1215SOL     OW15103   1.489   4.380  15.591 -0.0613 -0.1183 -0.1337
 1215SOL    HW115104   1.410   4.432  15.605  1.2222  1.6716  0.4310
 1215SOL    HW215105   1.473   4.316  15.660  1.4122  1.2801  1.5137
 1216SOL     OW15106   2.976   4.414  16.270 -0.6032  1.0508  0.1972
 1216SOL    HW115107   2.974   4.484  16.335  0.5115  1.3894 -0.1225
 1216SOL    HW215108   3.070   4.414  16.250 -0.5133 -2.7052  0.5181
 1217SOL     OW15109   3.249   0.086   6.944  0.5659  0.0791  0.2577
 1217SOL    HW115110   3.343   0.086   6.930  0.6370  1.1897  0.7721
 1217SOL    HW215111   3.224   4.722   6.926 -0.0895  0.4508 -0.7223
 1218SOL     OW15112   1.906   1.103  13.131  0.2117  0.2611 -0.4937
 1218SOL    HW115113   1.992   1.138  13.111  0.2700 -0.2930 -1.2011
 1218SOL    HW215114   1.887   1.052  13.052  1.6926 -0.5061 -0.3571
 1219SOL     OW15115   1.323   0.405   8.435  0.4011  0.2325  0.4971
 1219SOL    HW115116   1.260   0.442   8.497 -0.5896 -0.4283 -0.1059
 1219SOL    HW215117   1.387   0.474   8.420 -1.0879  1.3391 -0.7618
 1220SOL     OW15118   4.672   3.506   3.891  0.1008  0.1495  0.2038
 1220SOL    HW115119   4.701   3.472   3.976  0.3163 -0.8313 -0.2711
 1220SOL    HW215120   4.710   3.594   3.897  5.1297 -2.1205  0.9895
 1221SOL     OW15121   3.837   3.575  11.067 -0.0162 -0.2818  0.0370
 1221SOL    HW115122   3.873   3.654  11.108 -1.0118 -0.5062  1.3611
 1221SOL    HW215123   3.752   3.571  11.112 -0.6488 -0.2632 -1.1444
 1222SOL     OW15124   1.876   0.397   8.182  0.2152 -0.5390  0.6018
 1222SOL    HW115125   1.821   0.396   8.103 -0.6458 -0.9194  1.2074
 1222SOL    HW215126   1.954   0.358   8.142  1.8474  0.4439  2.8166
 1223SOL     OW15127   2.689   1.755   7.630 -0.0667  0.1554 -0.5484
 1223SOL    HW115128   2.696   1.731   7.538 -0.5804  3.6771 -1.4920
 1223SOL    HW215129   2.599   1.786   7.628  0.4606  1.8392  1.4434
 1224SOL     OW15130   3.912   2.853  12.895  0.4621 -0.9679  0.2515
 1224SOL    HW115131   3.933   2.946  12.891  1.2541 -1.2164 -1.5381
 1224SOL    HW215132   3.973   2.823  12.828  1.1526 -0.3827  0.6099
 1225SOL     OW15133   4.204   1.775   2.563  0.2336  0.1635 -0.1288
 1225SOL    HW115134   4.167   1.809   2.482  4.2495  0.7244 -1.6819
 1225SOL    HW215135   4.283   1.734   2.530  1.0826  0.0504  2.0481
 1226SOL     OW15136   0.492   2.311  11.561  0.1236  0.2725  1.0584
 1226SOL    HW115137   0.457   2.393  11.526 -2.4956 -2.7090 -3.2297
 1226SOL    HW215138   0.580   2.300  11.525 -0.4954 -0.2788 -0.2492
 1227SOL     OW15139   0.786   2.078   6.086 -0.4542  0.2812  0.0179
 1227SOL    HW115140   0.769   2.157   6.139 -0.8024  0.9398 -1.0784
 1227SOL    HW215141   0.839   2.030   6.151  1.3857  1.9209 -0.2674
 1228SOL     OW15142   4.133   1.405   3.310  0.6530 -0.4824 -0.0514
 1228SOL    HW115143   4.135   1.366   3.223  0.8911  2.1695 -1.2385
 1228SOL    HW215144   4.051   1.367   3.340  0.9186 -1.9887 -1.2270
 1229SOL     OW15145   3.501   3.897   0.172  0.2040  0.0656 -0.9351
 1229SOL    HW115146   3.574   3.914   0.231 -1.6185  0.1095  1.3105
 1229SOL    HW215147   3.539   3.829   0.116  1.7601  0.7019 -0.6661
 1230SOL     OW15148   1.108   0.609  16.510  0.8518  0.8899 -0.0161
 1230SOL    HW115149   1.033   0.649  16.554  0.6078  1.7768 -1.2295
 1230SOL    HW215150   1.070   0.578  16.428 -1.3271  0.9268  0.9789
 1231SOL     OW15151   0.778   0.309  13.119 -0.1974  0.2518  0.3929
 1231SOL    HW115152   0.854   0.350  13.161 -1.7025  0.7170  2.6817
 1231SOL    HW215153   0.703   0.367  13.135 -0.4648 -0.4621  1.7072
 1232SOL     OW15154   3.122   1.649   5.942 -0.3455  0.3933  0.1016
 1232SOL    HW115155   3.030   1.649   5.968  0.0135  1.3402  1.3879
 1232SOL    HW215156   3.148   1.578   6.000 -3.4504 -1.3026 -0.6064
 1233SOL     OW15157   4.502   4.625   5.421 -0.3363 -0.4616  0.1207
 1233SOL    HW115158   4.478   4.715   5.441 -1.2911 -0.4697 -1.0097
 1233SOL    HW215159   4.571   4.640   5.356  1.7996 -1.4735  2.1240
 1234SOL     OW15160   4.000   2.937  13.598 -0.2120 -0.1979  0.3486
 1234SOL    HW115161   3.963   3.021  13.571  1.7356  0.0485 -1.5596
 1234SOL    HW215162   4.010   2.954  13.692  0.5142  0.0833  0.2205
 1235SOL     OW15163   1.650   3.545  16.627 -0.3197 -0.4300 -0.2773
 1235SOL    HW115164   1.578   3.608  16.626 -0.5384 -0.7021 -1.4057
 1235SOL    HW215165   1.674   3.551  16.535  0.0842 -1.6163 -0.2592
 1236SOL     OW15166   0.855   2.953   4.461 -0.4948 -0.1453  0.1770
 1236SOL    HW115167   0.809   3.025   4.505 -1.1696 -0.3910 -0.1220
 1236SOL    HW215168   0.782   2.911   4.415  0.3301  0.1953 -1.4634
 1237SOL     OW15169   3.942   1.759  14.996 -0.5203 -0.2162 -0.5505
 1237SOL    HW115170   3.884   1.697  14.953 -1.5242  0.5683 -0.3510
 1237SOL    HW215171   4.013   1.702  15.026  0.0836  1.5025  1.3395
 1238SOL     OW15172   3.606   2.796  12.885 -0.2978  0.0753  0.4144
 1238SOL    HW115173   3.577   2.817  12.796 -2.4224 -1.5989  0.7242
 1238SOL    HW215174   3.701   2.809  12.878 -0.4730  0.8308 -0.5118
 1239SOL     OW15175   4.502   1.334   9.609  0.0078  0.2664  0.2472
 1239SOL    HW115176   4.583   1.356   9.563  0.0967  1.4671  0.9533
 1239SOL    HW215177   4.542   1.278   9.675 -0.7673 -2.0345 -1.2495
 1240SOL     OW15178   2.359   0.222   7.068 -0.2673  0.3377  0.7452
 1240SOL    HW115179   2.427   0.156   7.084 -1.5962 -1.0022  0.8982
 1240SOL    HW215180   2.316   0.222   7.153  1.0091 -2.0471  1.3879
 1241SOL     OW15181   0.692   3.553   3.730  0.4933  0.2720  0.4330
 1241SOL    HW115182   0.787   3.569   3.726  0.2594  1.9431  1.7116
 1241SOL    HW215183   0.690   3.475   3.785  0.3590  0.3918  0.5956
 1242SOL     OW15184   3.433   3.251  14.210  0.0775  0.0822  0.2566
 1242SOL    HW115185   3.491   3.282  14.280 -0.4579  2.0671 -0.1598
 1242SOL    HW215186   3.402   3.337  14.181  2.2359  0.5826 -0.6270
 1243SOL     OW15187   2.692   0.771   8.907 -0.5338  0.6948 -0.2585
 1243SOL    HW115188   2.709   0.863   8.930 -0.4063  1.1828 -2.2773
 1243SOL    HW215189   2.749   0.743   8.836  0.6521  0.4638  0.7750
 1244SOL     OW15190   3.815   2.583   8.436 -0.5639 -1.0301 -0.0148
 1244SOL    HW115191   3.806   2.575   8.531  2.1693 -0.4725  0.2845
 1244SOL    HW215192   3.759   2.514   8.399 -0.7233 -0.9758  0.1291
 1245SOL     OW15193   2.373   2.377   0.167 -0.2081  0.1189  0.3934
 1245SOL    HW115194   2.428   2.300   0.181 -0.7362  0.0028  1.8100
 1245SOL    HW215195   2.293   2.335   0.135 -0.4474  1.6936 -1.0480
 1246SOL     OW15196   2.945   2.940  10.273 -0.2731 -0.0453  0.0013
 1246SOL    HW115197   2.889   2.923  10.197 -0.7630 -0.9649  0.5562
 1246SOL    HW215198   3.031   2.916  10.238  0.1839  0.0108  1.0868
 1247SOL     OW15199   2.135   4.469   4.177  0.2857 -0.2232 -0.1016
 1247SOL    HW115200   2.166   4.412   4.247  0.4579  0.5089  0.4193
 1247SOL    HW215201   2.064   4.413   4.147  2.2355 -2.2149 -0.9575
 1248SOL     OW15202   2.083   3.066   6.156 -0.1726 -0.3040  0.0866
 1248SOL    HW115203   2.154   3.052   6.219  0.1485  0.0169 -0.2006
 1248SOL    HW215204   2.017   3.000   6.175  0.6253 -0.7489  1.3176
 1249SOL     OW15205   4.469   1.237   3.306  0.3247 -0.6359 -0.1269
 1249SOL    HW115206   4.470   1.207   3.397  0.3478  1.5445  0.5750
 1249SOL    HW215207   4.431   1.323   3.319 -0.5020 -1.2354  1.4590
 1250SOL     OW15208   2.315   1.989   5.803 -0.0731  0.2716 -0.6801
 1250SOL    HW115209   2.225   2.024   5.801 -0.2409 -0.2279 -1.9102
 1250SOL    HW215210   2.357   2.033   5.877 -4.8896  1.1339  1.5368
 1251SOL     OW15211   2.023   0.753  10.861 -0.1399 -0.8524 -0.2763
 1251SOL    HW115212   2.049   0.801  10.939 -1.0926  0.5698 -0.8150
 1251SOL    HW215213   1.928   0.754  10.872 -0.4661 -0.9984 -3.0462
 1252SOL     OW15214   2.963   0.004   0.333  0.0286 -0.0298  0.0154
 1252SOL    HW115215   2.983   4.652   0.386  3.6179  0.2026 -1.0035
 1252SOL    HW215216   3.023   4.713   0.261  1.2030 -0.5283  1.0956
 1253SOL     OW15217   4.085   3.437   6.594 -0.3454 -0.2628  0.3202
 1253SOL    HW115218   4.104   3.465   6.684 -2.3962  0.5351  0.5050
 1253SOL    HW215219   4.098   3.343   6.595 -0.3849 -0.2732 -0.1375
 1254SOL     OW15220   1.322   4.722  12.286  0.6327 -0.0228 -0.9854
 1254SOL    HW115221   1.384   0.034  12.225  0.8119  0.9281 -0.2005
 1254SOL    HW215222   1.255   0.061  12.269 -1.8481 -1.6643  2.3525
 1255SOL     OW15223   1.480   0.477   2.826  0.3023  0.8587  0.4662
 1255SOL    HW115224   1.467   0.410   2.893  0.1138  1.2471  0.8252
 1255SOL    HW215225   1.544   0.533   2.872  1.1886 -0.9706  1.4424
 1256SOL     OW15226   4.044   4.616   2.628  0.6286  0.1663  0.2976
 1256SOL    HW115227   4.090   4.546   2.581  0.4692  0.0886  0.2602
 1256SOL    HW215228   3.957   4.621   2.590  0.4697 -0.4662  0.5782
 1257SOL     OW15229   3.410   1.385   5.004  0.2828 -0.4833 -0.3685
 1257SOL    HW115230   3.434   1.346   5.087 -2.1307  1.6176  1.3179
 1257SOL    HW215231   3.408   1.479   5.021 -1.0703 -0.4622 -0.6381
 1258SOL     OW15232   1.698   2.101  12.351  0.1305  0.0275 -0.2041
 1258SOL    HW115233   1.641   2.027  12.371  1.1092 -1.4454 -2.7889
 1258SOL    HW215234   1.698   2.164  12.423  0.5642 -1.1042  0.7737
 1259SOL     OW15235   1.937   2.067   7.641  0.1891  0.4709 -0.0474
 1259SOL    HW115236   1.968   2.157   7.637  0.1362  0.4465 -1.0158
 1259SOL    HW215237   1.875   2.075   7.713  1.4460  1.3634  0.9271
 1260SOL     OW15238   4.252   0.620   5.668  0.2654 -0.2922  0.6248
 1260SOL    HW115239   4.215   0.565   5.737  2.0135 -1.3302  0.7246
 1260SOL    HW215240   4.253   0.702   5.718 -1.6094  0.9422 -1.3519
 1261SOL     OW15241   1.636   4.060   6.395 -0.1809  0.0180  0.0783
 1261SOL    HW115242   1.703   4.056   6.463 -0.9289 -1.0482  0.7333
 1261SOL    HW215243   1.644   3.976   6.350  1.9301 -0.0950  0.6476
 1262SOL     OW15244   2.651   3.783  11.386 -0.1921  0.3209  0.1716
 1262SOL    HW115245   2.668   3.871  11.420  0.2552  0.7669 -1.2015
 1262SOL    HW215246   2.683   3.726  11.456 -0.4814  0.7694  0.6642
 1263SOL     OW15247   0.452   0.428   3.934  0.0508  0.0847  0.5165
 1263SOL    HW115248   0.486   0.346   3.898  1.1123 -0.6986  3.2980
 1263SOL    HW215249   0.530   0.478   3.956  0.4207  1.2823 -3.5356
 1264SOL     OW15250   1.611   3.053   5.438  0.0007 -0.4577  0.5240
 1264SOL    HW115251   1.558   3.126   5.405  0.3541  0.3492  1.7523
 1264SOL    HW215252   1.682   3.045   5.374 -0.1155 -0.5155  0.4024
 1265SOL     OW15253   3.534   1.150  13.867  0.1830 -0.1100  0.2367
 1265SOL    HW115254   3.600   1.220  13.864 -0.0908  0.1397 -0.0322
 1265SOL    HW215255   3.584   1.073  13.894 -0.0980 -0.1835  0.5384
 1266SOL     OW15256   0.607   4.567   0.685  0.6244 -0.2108 -0.7530
 1266SOL    HW115257   0.687   4.516   0.669 -0.4284 -1.7862 -1.0109
 1266SOL    HW215258   0.641   4.616   0.760 -0.1594  0.3807 -0.7918
 1267SOL     OW15259   3.165   3.110  10.648  0.2278  1.0096  0.6965
 1267SOL    HW115260   3.194   3.060  10.571  0.6176  2.4112 -0.0745
 1267SOL    HW215261   3.106   3.173  10.608 -1.6048 -1.7868 -1.0013
 1268SOL     OW15262   3.133   1.777   3.664 -0.4652  0.0234  0.0465
 1268SOL    HW115263   3.225   1.799   3.649 -0.7649  1.9942  1.1271
 1268SOL    HW215264   3.121   1.811   3.753 -0.2565  1.4375 -0.4694
 1269SOL     OW15265   4.076   2.312  15.367 -0.3023 -0.2349  0.0672
 1269SOL    HW115266   4.027   2.382  15.324 -1.7249 -0.8733  0.6369
 1269SOL    HW215267   4.151   2.305  15.308 -2.0447  1.2231 -2.3230
 1270SOL     OW15268   3.880   4.119   4.999 -0.0765  0.5163  0.4535
 1270SOL    HW115269   3.945   4.157   5.058  0.5266  0.7302 -0.3467
 1270SOL    HW215270   3.915   4.030   5.011 -3.1803 -0.5155  1.9438
 1271SOL     OW15271   4.161   2.097   4.275 -0.3773 -0.3995 -0.8235
 1271SOL    HW115272   4.150   2.143   4.192 -2.4082 -1.5631 -1.1966
 1271SOL    HW215273   4.116   2.150   4.340  3.4988  1.6529  0.1813
 1272SOL     OW15274   0.275   4.483  12.317  0.3332  0.1761  0.8455
 1272SOL    HW115275   0.242   4.528  12.239  1.9279 -1.1269 -0.5820
 1272SOL    HW215276   0.263   4.389  12.302  0.7651  0.1685  0.5480
 1273SOL     OW15277   1.674   1.316   2.176  0.1247  0.4246  0.5848
 1273SOL    HW115278   1.699   1.270   2.257 -0.9754  2.8397  2.2775
 1273SOL    HW215279   1.688   1.407   2.201  0.8494  0.5123 -0.1345
 1274SOL     OW15280   0.968   2.921   6.707 -0.0560 -0.1614 -0.1759
 1274SOL    HW115281   1.054   2.938   6.668 -0.2928 -2.3853 -1.6721
 1274SOL    HW215282   0.967   2.825   6.709  0.7668 -0.1627  0.2507
 1275SOL     OW15283   1.285   1.697   3.679  0.5759 -0.0297 -0.5367
 1275SOL    HW115284   1.226   1.667   3.610 -0.1561 -0.9547  0.4881
 1275SOL    HW215285   1.357   1.633   3.669  1.9069  1.5813 -1.2165
 1276SOL     OW15286   1.461   2.812   7.001 -0.6161 -0.0515 -0.4582
 1276SOL    HW115287   1.420   2.835   7.084 -1.7729  0.8167 -1.2770
 1276SOL    HW215288   1.547   2.851   7.016 -0.8434  0.3074 -0.0966
 1277SOL     OW15289   1.815   2.128   7.874 -0.1928 -0.4173  0.1102
 1277SOL    HW115290   1.725   2.102   7.895 -0.2697 -0.6596 -0.5447
 1277SOL    HW215291   1.821   2.224   7.882 -0.0764 -0.4947  0.9968
 1278SOL     OW15292   1.101   1.045   9.298  0.1133  0.1534 -0.1312
 1278SOL    HW115293   1.143   1.032   9.213  1.7464 -1.9925  1.0043
 1278SOL    HW215294   1.083   1.139   9.302 -1.3994 -0.1285 -0.2104
 1279SOL     OW15295   4.561   4.682  10.935 -0.0788  0.2474  0.1862
 1279SOL    HW115296   4.654   4.661  10.942  0.1189  1.6610  1.7198
 1279SOL    HW215297   4.534   4.664  11.025  1.6754 -0.9993  0.4692
 1280SOL     OW15298   1.984   3.692  12.113 -0.0155 -0.2407 -0.5510
 1280SOL    HW115299   1.996   3.615  12.056 -0.2007  1.1572 -2.4601
 1280SOL    HW215300   1.996   3.750  12.038  0.2551  0.5335  0.1004
 1281SOL     OW15301   0.149   1.935   7.394 -0.3279  0.4419  0.4824
 1281SOL    HW115302   0.065   1.939   7.347 -0.6194 -3.7242  0.7047
 1281SOL    HW215303   0.139   1.870   7.463 -0.3078  2.8873  2.7880
 1282SOL     OW15304   0.417   0.633   9.504  0.2612 -0.4057 -0.2399
 1282SOL    HW115305   0.379   0.553   9.470  1.2224 -1.5110  1.2961
 1282SOL    HW215306   0.502   0.609   9.541  0.2060 -0.3243 -0.0624
 1283SOL     OW15307   4.689   3.043   4.501  0.0870  0.0489  0.4851
 1283SOL    HW115308   0.017   3.017   4.426 -1.6974 -1.7267 -0.2120
 1283SOL    HW215309   4.603   3.016   4.468 -0.7020  1.7353  1.1585
 1284SOL     OW15310   2.301   3.829   1.960 -0.0707 -0.1938 -0.4833
 1284SOL    HW115311   2.274   3.892   1.893 -0.2787 -1.6753 -1.7817
 1284SOL    HW215312   2.247   3.842   2.038  0.6680 -0.6184  0.0951
 1285SOL     OW15313   2.526   0.778  17.580 -0.3202  0.1309 -0.2973
 1285SOL    HW115314   2.583   0.854  17.570  0.9401 -0.7317  0.3856
 1285SOL    HW215315   2.463   0.813  17.643 -0.5441  0.4599 -0.7021
 1286SOL     OW15316   0.370   0.723   1.645  0.2107 -0.5129  0.4287
 1286SOL    HW115317   0.276   0.701   1.644  0.2832 -0.7899 -0.9557
 1286SOL    HW215318   0.397   0.634   1.622  2.1866  0.2382 -0.1245
 1287SOL     OW15319   3.124   1.798   1.812  0.1546  0.4183 -0.0377
 1287SOL    HW115320   3.046   1.816   1.865  1.5655  2.2560  1.3960
 1287SOL    HW215321   3.127   1.873   1.752  1.2045  0.4324  0.0311
 1288SOL     OW15322   2.014   1.774   1.691 -0.6286  0.3945  0.5885
 1288SOL    HW115323   2.044   1.695   1.736  1.8624  0.1563 -1.4668
 1288SOL    HW215324   1.921   1.764   1.707 -0.8087  0.8328 -0.1790
 1289SOL     OW15325   4.147   2.885   7.152 -0.1587  0.8339 -0.2478
 1289SOL    HW115326   4.082   2.937   7.105 -0.2325 -0.8688 -2.0509
 1289SOL    HW215327   4.210   2.953   7.176 -2.5132  2.9496 -0.0397
 1290SOL     OW15328   1.799   2.174  11.925 -0.1572 -0.4769 -0.6778
 1290SOL    HW115329   1.824   2.084  11.903  1.8009 -1.0546  3.8733
 1290SOL    HW215330   1.841   2.227  11.858  0.1776 -0.1132 -0.1819
 1291SOL     OW15331   2.062   0.502   7.342  0.2559 -0.5262  0.0399
 1291SOL    HW115332   1.978   0.499   7.296  0.9398  1.0461 -1.3370
 1291SOL    HW215333   2.081   0.595   7.336  1.0020 -0.5985  1.1259
 1292SOL     OW15334   4.184   4.703   8.348  0.2263 -0.1045  0.4984
 1292SOL    HW115335   4.130   4.635   8.388 -0.0926 -0.8761 -1.2526
 1292SOL    HW215336   4.163   0.047   8.410  0.3631  1.9519 -1.7609
 1293SOL     OW15337   1.306   0.029   5.229  0.0922 -0.1965  0.2530
 1293SOL    HW115338   1.400   0.027   5.250  0.4937  0.0970 -1.5114
 1293SOL    HW215339   1.265   0.005   5.312 -1.1670 -0.5852 -0.4760
 1294SOL     OW15340   3.734   0.837  15.687 -0.3993  0.7428  0.0674
 1294SOL    HW115341   3.811   0.846  15.632 -0.4325 -1.8640 -0.3765
 1294SOL    HW215342   3.710   0.752  15.651 -1.5831  0.4964  1.4166
 1295SOL     OW15343   1.214   0.195  13.913  0.3392 -0.6456 -0.4511
 1295SOL    HW115344   1.270   0.136  13.964  1.4534 -0.1101 -1.0484
 1295SOL    HW215345   1.189   0.262  13.977 -0.8213 -0.3159 -1.2446
 1296SOL     OW15346   2.865   4.023   1.237 -0.1243 -0.3199  0.1944
 1296SOL    HW115347   2.812   4.102   1.227 -2.1421 -1.3338  2.9480
 1296SOL    HW215348   2.803   3.955   1.211  0.2840 -0.0169 -1.5526
 1297SOL     OW15349   3.511   3.408   6.930  0.6845  0.1328  0.7009
 1297SOL    HW115350   3.506   3.411   6.834 -0.1135  0.7934  0.7743
 1297SOL    HW215351   3.553   3.321   6.929 -2.6897 -1.4713  0.2149
 1298SOL     OW15352   4.560   2.733   3.654  0.3466  0.0960 -0.0863
 1298SOL    HW115353   4.621   2.669   3.616 -1.6918 -1.9663  0.0970
 1298SOL    HW215354   4.588   2.802   3.594 -1.3222  1.5366  0.8051
 1299SOL     OW15355   0.141   3.040   5.966  0.5423 -0.3239 -0.2377
 1299SOL    HW115356   0.220   3.058   6.017  0.2401  0.5148 -0.0675
 1299SOL    HW215357   0.089   3.120   5.976 -0.7512 -1.0890 -0.7372
 1300SOL     OW15358   0.470   0.318   3.148 -0.0325  0.5939 -0.4579
 1300SOL    HW115359   0.377   0.322   3.123 -0.2505 -2.4319 -0.1059
 1300SOL    HW215360   0.475   0.389   3.212  1.5341  0.6135 -0.6144
 1301SOL     OW15361   1.896   2.214   6.206 -0.0072  0.4725 -0.0099
 1301SOL    HW115362   1.940   2.190   6.288  1.3730 -0.7172 -1.1075
 1301SOL    HW215363   1.889   2.310   6.212 -0.7049  0.5659 -2.5419
 1302SOL     OW15364   3.383   3.037   2.802 -0.3165  0.0548  0.2627
 1302SOL    HW115365   3.420   3.089   2.730 -1.1249 -0.7491 -0.7343
 1302SOL    HW215366   3.342   2.969   2.748  0.7531 -2.1428  2.2319
 1303SOL     OW15367   3.739   1.566  13.890 -0.0461 -0.5644  0.2121
 1303SOL    HW115368   3.753   1.624  13.965  0.2486 -0.7594  0.3108
 1303SOL    HW215369   3.746   1.630  13.819 -1.5889 -1.2629 -0.5668
 1304SOL     OW15370   1.493   1.923   5.907 -0.2867  0.4620 -0.8368
 1304SOL    HW115371   1.470   1.962   5.823  0.6424  2.4828 -0.1406
 1304SOL    HW215372   1.430   1.957   5.970 -1.8777  1.8359 -3.1815
 1305SOL     OW15373   3.202   3.461   6.742  0.1675  0.0356  0.4360
 1305SOL    HW115374   3.236   3.543   6.777  1.4432 -0.1679 -0.3223
 1305SOL    HW215375   3.157   3.431   6.821  0.2383 -1.7904 -0.2061
 1306SOL     OW15376   1.659   0.702   5.686 -0.4808 -0.3091 -0.3722
 1306SOL    HW115377   1.703   0.728   5.605  1.2936 -1.6418  0.1446
 1306SOL    HW215378   1.726   0.689   5.753 -1.3909 -0.6715  0.4620
 1307SOL     OW15379   1.338   0.215   2.593 -0.6859  0.6655 -0.5682
 1307SOL    HW115380   1.268   0.176   2.646  2.5114  0.5143  3.5531
 1307SOL    HW215381   1.313   0.306   2.576 -0.7009  0.9817  1.1071
 1308SOL     OW15382   1.654   3.285   8.185  0.1370 -0.4738  0.7982
 1308SOL    HW115383   1.576   3.265   8.236  0.1501  1.7747  1.6712
 1308SOL    HW215384   1.707   3.327   8.252  1.6511  1.1791 -1.4150
 1309SOL     OW15385   0.436   1.380   8.266 -0.4205  0.2030  0.1446
 1309SOL    HW115386   0.404   1.425   8.344  2.1128  1.2263  0.5724
 1309SOL    HW215387   0.385   1.300   8.282  0.1310 -0.6228 -2.2467
 1310SOL     OW15388   2.731   2.002   7.903  0.4068 -0.8085  0.1727
 1310SOL    HW115389   2.781   1.924   7.927 -1.9082 -2.7181 -1.1488
 1310SOL    HW215390   2.680   2.010   7.984  1.4860  0.0100  0.7730
 1311SOL     OW15391   0.359   2.887   6.525 -0.2884  0.3700  0.8849
 1311SOL    HW115392   0.334   2.894   6.432 -1.1775 -0.9073  1.0295
 1311SOL    HW215393   0.452   2.909   6.524 -0.0647 -0.6903 -0.9423
 1312SOL     OW15394   0.333   3.237  12.148  0.1441 -0.0804  0.1114
 1312SOL    HW115395   0.303   3.146  12.146  0.1422 -0.1397  2.2629
 1312SOL    HW215396   0.426   3.230  12.169  0.4493  1.6782 -0.7139
 1313SOL     OW15397   0.824   0.560   6.106 -0.2846  0.7437  0.1088
 1313SOL    HW115398   0.875   0.640   6.117  0.8550 -0.2513  2.0836
 1313SOL    HW215399   0.841   0.515   6.188  0.8739 -0.7174 -0.9289
 1314SOL     OW15400   1.295   0.953   5.965 -0.1912 -0.2377  0.7564
 1314SOL    HW115401   1.386   0.942   5.937 -0.7632 -2.5618 -0.2003
 1314SOL    HW215402   1.256   0.956   5.877 -2.0747  1.5994  1.6402
 1315SOL     OW15403   0.493   1.242  12.100  0.6743 -0.0854 -0.1343
 1315SOL    HW115404   0.408   1.275  12.068  1.2960  0.6400 -1.0363
 1315SOL    HW215405   0.553   1.267  12.029  0.7393  0.8596  0.2463
 1316SOL     OW15406   1.161   0.923  13.057 -0.6311  0.2057  0.3047
 1316SOL    HW115407   1.110   0.975  12.996 -0.2558  0.6418  0.3626
 1316SOL    HW215408   1.237   0.980  13.066 -1.6176  1.6613 -0.5170
 1317SOL     OW15409   1.661   1.242   5.497 -0.4101 -0.5663  0.0198
 1317SOL    HW115410   1.734   1.192   5.532 -1.4525 -0.5211  2.2071
 1317SOL    HW215411   1.667   1.321   5.551 -0.9650 -1.7645  1.8118
 1318SOL     OW15412   0.371   1.557   6.600 -0.1753 -0.4722  0.1527
 1318SOL    HW115413   0.309   1.550   6.528 -1.6966 -1.3289  1.5427
 1318SOL    HW215414   0.457   1.575   6.561 -0.8669  1.2214 -0.6050
 1319SOL     OW15415   3.314   1.782   4.916  0.1623  0.0731  0.0267
 1319SOL    HW115416   3.324   1.713   4.982  1.7304  0.5924  0.3355
 1319SOL    HW215417   3.396   1.825   4.939  0.6706 -0.1784 -1.3063
 1320SOL     OW15418   2.553   3.151   4.053  0.1711 -0.5672 -0.2191
 1320SOL    HW115419   2.502   3.085   4.100  3.2347 -1.4476  1.8518
 1320SOL    HW215420   2.577   3.195   4.135 -0.7827  0.1456 -0.3144
 1321SOL     OW15421   3.425   3.410  16.649  0.5222 -0.3630 -0.5542
 1321SOL    HW115422   3.419   3.351  16.725 -0.0930  1.4249  0.7911
 1321SOL    HW215423   3.433   3.493  16.695  0.6352 -0.7519  0.1326
 1322SOL     OW15424   3.005   0.913   9.212 -0.4314 -0.6874 -0.2675
 1322SOL    HW115425   3.024   0.930   9.119  1.2534 -2.4383 -0.2320
 1322SOL    HW215426   3.082   0.858   9.229  0.4407  0.1157 -1.5736
 1323SOL     OW15427   2.932   1.895   1.480 -0.5525 -0.3925 -0.6950
 1323SOL    HW115428   2.953   1.805   1.504 -2.9185 -0.6657  0.3523
 1323SOL    HW215429   2.871   1.922   1.549  0.7323 -0.0975  0.3334
 1324SOL     OW15430   3.337   0.052   8.384 -0.0489  0.0111  0.0060
 1324SOL    HW115431   3.375   0.089   8.464 -2.2887 -0.6455  1.3851
 1324SOL    HW215432   3.382   4.694   8.378 -1.1543 -0.7911  2.9005
 1325SOL     OW15433   3.719   3.996   7.575  0.0478  0.3918  0.3074
 1325SOL    HW115434   3.689   4.019   7.663  2.3276  1.9566  0.6704
 1325SOL    HW215435   3.705   3.902   7.577  0.6849  0.2807 -0.5068
 1326SOL     OW15436   2.159   3.606   8.936 -0.3151 -0.1610 -0.7506
 1326SOL    HW115437   2.102   3.576   9.007  2.6389 -2.0573  0.8473
 1326SOL    HW215438   2.240   3.558   8.955 -0.8107  0.1001  1.9809
 1327SOL     OW15439   0.949   3.913   2.378 -0.0767 -0.0119 -0.3505
 1327SOL    HW115440   0.895   3.884   2.452 -0.9981  1.4583 -0.4486
 1327SOL    HW215441   0.987   3.989   2.422  0.7683 -0.8461  0.3690
 1328SOL     OW15442   1.702   3.213   2.431 -0.4058 -0.1323 -0.2085
 1328SOL    HW115443   1.681   3.184   2.520  1.2484  0.8889  0.5287
 1328SOL    HW215444   1.718   3.127   2.394 -2.9084 -1.3942  1.6270
 1329SOL     OW15445   0.724   2.764  15.776 -0.8770  0.0312 -0.0871
 1329SOL    HW115446   0.666   2.777  15.701 -1.3664  0.9043  0.4393
 1329SOL    HW215447   0.759   2.853  15.783 -1.8119  0.5028 -1.4868
 1330SOL     OW15448   2.939   3.628   5.995  0.0409  0.9841 -0.1062
 1330SOL    HW115449   2.929   3.618   6.089 -2.1280 -3.4124 -0.7834
 1330SOL    HW215450   2.975   3.715   5.984  0.1089  0.9284 -0.3310
 1331SOL     OW15451   3.521   0.816   2.811 -0.2125  0.8654  0.3258
 1331SOL    HW115452   3.599   0.819   2.756  0.1807  1.6611  0.9233
 1331SOL    HW215453   3.487   0.905   2.805 -0.8883  0.6596  1.0283
 1332SOL     OW15454   1.257   1.579   7.830 -0.6015 -0.6489  0.2782
 1332SOL    HW115455   1.240   1.548   7.919 -2.4401  0.9680  0.4849
 1332SOL    HW215456   1.177   1.631   7.824 -0.8761 -0.9488  1.3144
 1333SOL     OW15457   3.610   1.977   3.146  0.1398  0.0875 -0.4429
 1333SOL    HW115458   3.621   1.900   3.202  3.4854  1.6678  1.0445
 1333SOL    HW215459   3.577   2.034   3.215  0.8549  3.1394 -2.6295
 1334SOL     OW15460   0.280   1.618   4.613  0.5571 -0.3661 -0.0267
 1334SOL    HW115461   0.280   1.598   4.520 -1.5594 -0.3630 -0.0264
 1334SOL    HW215462   0.290   1.531   4.652 -0.7751 -0.1045  0.9184
 1335SOL     OW15463   2.243   1.000  16.189  0.3845  0.1049 -0.2690
 1335SOL    HW115464   2.312   0.992  16.254  0.5002 -0.6635 -0.4926
 1335SOL    HW215465   2.197   0.917  16.202 -0.1228  0.3692 -0.3295
 1336SOL     OW15466   3.944   2.937  13.257 -0.0647 -0.0874 -0.7127
 1336SOL    HW115467   4.034   2.936  13.290  1.2042 -3.7617 -4.2637
 1336SOL    HW215468   3.911   2.868  13.314 -0.5236 -0.4117 -1.3744
 1337SOL     OW15469   1.966   2.675   2.234  0.9571  0.0333 -0.5887
 1337SOL    HW115470   1.885   2.719   2.206  0.9288 -0.5580 -1.4280
 1337SOL    HW215471   2.020   2.751   2.256  0.9490  0.1504 -0.9816
 1338SOL     OW15472   0.338   4.127   4.640  0.1325  0.0865 -0.2449
 1338SOL    HW115473   0.256   4.098   4.599  0.6815 -0.7120 -0.7784
 1338SOL    HW215474   0.368   4.042   4.672 -1.7359 -0.4173  0.1925
 1339SOL     OW15475   2.651   2.306  15.644 -0.3549  0.5277  0.4087
 1339SOL    HW115476   2.557   2.296  15.662 -0.3973 -1.9460 -1.2188
 1339SOL    HW215477   2.683   2.317  15.734  0.2842  0.5181  0.1793
 1340SOL     OW15478   0.181   1.626   4.333  0.5949  0.4918  0.0666
 1340SOL    HW115479   0.111   1.646   4.395  0.8176 -0.3569  0.5953
 1340SOL    HW215480   0.123   1.592   4.263  0.7210 -1.0983  0.7301
 1341SOL     OW15481   1.227   0.081   1.316 -0.1268 -0.3327 -0.7827
 1341SOL    HW115482   1.276   0.163   1.312 -3.0116  1.3692 -0.8622
 1341SOL    HW215483   1.164   0.087   1.387 -0.2210  1.1664 -0.9895
 1342SOL     OW15484   1.475   3.947   6.835 -0.1740 -0.0760  0.2190
 1342SOL    HW115485   1.568   3.963   6.848 -0.1239  0.7864 -1.2167
 1342SOL    HW215486   1.444   3.940   6.926  1.1457 -2.3267  0.5015
 1343SOL     OW15487   0.918   0.836  11.967 -0.5586  0.5429 -0.2419
 1343SOL    HW115488   0.832   0.875  11.982 -0.3260  0.6417  0.8218
 1343SOL    HW215489   0.974   0.913  11.964  0.1845 -0.0171 -0.7902
 1344SOL     OW15490   1.134   0.568   4.753  0.0666  0.0403  0.2002
 1344SOL    HW115491   1.194   0.508   4.709 -2.3151 -1.7522 -0.6221
 1344SOL    HW215492   1.143   0.530   4.840  0.1232 -1.2536 -0.3756
 1345SOL     OW15493   2.929   1.675   8.200 -0.8826 -0.1664 -0.3411
 1345SOL    HW115494   3.006   1.628   8.231 -1.1260  0.6324  1.5114
 1345SOL    HW215495   2.859   1.621   8.236  1.7472 -2.0444  1.9369
 1346SOL     OW15496   4.211   0.753  13.397  0.0408 -0.6889 -0.0897
 1346SOL    HW115497   4.189   0.724  13.309  2.5695 -2.4627 -0.1510
 1346SOL    HW215498   4.136   0.710  13.439 -0.8733  0.0622 -0.9478
 1347SOL     OW15499   1.583   0.486   7.352  0.1830  0.3373  0.0172
 1347SOL    HW115500   1.629   0.435   7.286  1.7391  2.7001 -0.6934
 1347SOL    HW215501   1.647   0.493   7.423  0.0008 -2.6465  0.4653
 1348SOL     OW15502   3.151   2.077  17.586  0.3081  0.3285 -0.5459
 1348SOL    HW115503   3.063   2.061  17.551 -0.1242  0.2592  0.5461
 1348SOL    HW215504   3.197   2.047  17.508  2.4902 -0.0201  0.8652
 1349SOL     OW15505   3.075   0.224   3.338  0.7138 -0.4681 -0.1034
 1349SOL    HW115506   2.996   0.172   3.320  0.9473 -0.4584 -1.1766
 1349SOL    HW215507   3.134   0.194   3.269 -0.0091 -1.4873 -0.2922
 1350SOL     OW15508   0.943   2.383   3.347  0.2299  0.3090  0.1861
 1350SOL    HW115509   0.992   2.340   3.417  1.2479 -1.4308 -1.6057
 1350SOL    HW215510   0.964   2.474   3.367  0.5459  0.3203 -0.1821
 1351SOL     OW15511   0.979   2.739   9.101  0.2415 -0.2142 -0.4984
 1351SOL    HW115512   0.986   2.667   9.164 -0.8949 -0.5840 -0.7998
 1351SOL    HW215513   0.915   2.801   9.137  0.6731  0.1728 -0.4007
 1352SOL     OW15514   3.918   4.397   5.513  0.1776  0.4095  0.3210
 1352SOL    HW115515   3.886   4.472   5.463  0.3407 -0.0110 -0.4230
 1352SOL    HW215516   3.906   4.418   5.605 -0.8444  2.4851 -0.2788
 1353SOL     OW15517   4.042   0.786   4.808 -0.0877  0.6344 -0.3284
 1353SOL    HW115518   3.971   0.844   4.780  0.2920  1.4393  0.3620
 1353SOL    HW215519   4.114   0.848   4.821  0.4293  0.2592 -1.4590
 1354SOL     OW15520   3.373   4.473   9.033  0.6508 -0.1417  0.2449
 1354SOL    HW115521   3.290   4.456   8.988  0.5200  1.7879 -0.2228
 1354SOL    HW215522   3.430   4.412   8.986  0.3998 -1.8126  2.0700
 1355SOL     OW15523   2.986   2.657  13.828 -0.1980  0.2268  0.2839
 1355SOL    HW115524   3.074   2.645  13.793 -1.5104  2.8400 -3.9961
 1355SOL    HW215525   2.944   2.644  13.742 -1.2167 -0.6533  0.9161
 1356SOL     OW15526   2.443   2.414   2.964 -0.0632  0.1598  1.0223
 1356SOL    HW115527   2.476   2.327   2.985  2.2748  0.0661 -3.0672
 1356SOL    HW215528   2.474   2.464   3.040  1.1195  0.4608  0.3419
 1357SOL     OW15529   2.749   4.608   7.191 -0.6341 -0.2616 -0.0312
 1357SOL    HW115530   2.746   4.636   7.282  0.1502  1.6906 -0.6017
 1357SOL    HW215531   2.828   4.554   7.186 -0.8672 -0.5506 -0.6667
 1358SOL     OW15532   3.824   2.612   7.133  0.0868 -0.0451 -0.4852
 1358SOL    HW115533   3.766   2.536   7.142 -1.3192  0.9173 -1.3401
 1358SOL    HW215534   3.786   2.653   7.055 -2.2275 -1.6737 -0.2001
 1359SOL     OW15535   2.126   3.203   8.529  0.3027  0.2314  0.2678
 1359SOL    HW115536   2.156   3.229   8.616 -0.8301  0.3248  0.6232
 1359SOL    HW215537   2.181   3.262   8.477 -1.5660 -0.7919 -2.8456
 1360SOL     OW15538   4.361   1.164  15.911 -0.1558  0.2481  0.3120
 1360SOL    HW115539   4.343   1.095  15.847 -1.9360 -0.8005  1.9451
 1360SOL    HW215540   4.321   1.241  15.871 -1.6317 -1.1661 -0.9118
 1361SOL     OW15541   1.066   0.915  16.702  0.5755 -0.1933  0.2385
 1361SOL    HW115542   1.065   0.929  16.797 -0.3277 -0.0228  0.1962
 1361SOL    HW215543   0.985   0.957  16.675 -0.1760 -0.8224  1.4888
 1362SOL     OW15544   3.542   2.252   5.214 -0.8318  0.2479 -0.0950
 1362SOL    HW115545   3.517   2.344   5.222  1.4623  0.8855 -0.2717
 1362SOL    HW215546   3.499   2.222   5.293 -2.3691  1.2803 -0.5494
 1363SOL     OW15547   4.096   4.623  12.934 -0.0557  0.1529 -0.5193
 1363SOL    HW115548   4.142   4.708  12.932 -0.0966  0.1496 -1.6667
 1363SOL    HW215549   4.053   4.621  13.019 -0.0343 -1.1831 -0.5441
 1364SOL     OW15550   4.510   2.537  16.603 -0.3504  0.2747 -0.7723
 1364SOL    HW115551   4.509   2.630  16.625  0.7867 -0.1605  1.1575
 1364SOL    HW215552   4.447   2.508  16.669 -1.1305  0.6511 -1.3495
 1365SOL     OW15553   4.414   4.332   8.279  0.1701 -0.0871 -0.1926
 1365SOL    HW115554   4.319   4.320   8.275  0.2960 -0.8520 -0.8740
 1365SOL    HW215555   4.423   4.418   8.321 -1.7148 -0.4792  1.0088
 1366SOL     OW15556   2.353   3.761   1.346  0.1983 -0.1558  0.4074
 1366SOL    HW115557   2.322   3.735   1.433 -0.3076 -1.0013 -0.0221
 1366SOL    HW215558   2.409   3.834   1.373 -0.7028  0.5524  0.3741
 1367SOL     OW15559   4.015   0.950   2.120 -0.3551 -0.0503  0.3525
 1367SOL    HW115560   4.003   0.868   2.169 -1.3707 -0.9476 -1.3827
 1367SOL    HW215561   3.972   0.920   2.040  0.5140  0.4905 -0.3097
 1368SOL     OW15562   3.459   2.960   8.008 -0.3495 -0.0500 -0.5737
 1368SOL    HW115563   3.411   3.019   7.950  2.1469  0.9745 -1.5814
 1368SOL    HW215564   3.509   3.033   8.044  2.5011 -1.2831 -2.0292
 1369SOL     OW15565   3.436   0.226   1.378 -0.2352 -0.3165 -0.1221
 1369SOL    HW115566   3.507   0.223   1.314 -0.6991  0.0813 -0.6578
 1369SOL    HW215567   3.464   0.187   1.461  0.5244 -1.9519 -1.1539
 1370SOL     OW15568   0.549   4.052   6.255 -0.0277  0.0579 -0.4035
 1370SOL    HW115569   0.510   3.966   6.267 -1.5388  0.5799 -1.4704
 1370SOL    HW215570   0.476   4.080   6.200 -1.1561 -1.0630  0.5294
 1371SOL     OW15571   0.206   1.944  17.650  0.1633 -0.0354  0.4741
 1371SOL    HW115572   0.281   1.970  17.595  0.5175 -0.0098  0.9718
 1371SOL    HW215573   0.216   1.988   0.029  0.5812 -2.3747  1.6331
 1372SOL     OW15574   2.924   0.595  10.997 -0.0093  0.0675 -0.2385
 1372SOL    HW115575   2.941   0.656  11.069 -0.8881  2.1708 -1.7889
 1372SOL    HW215576   2.923   0.516  11.049  1.6417  0.5396  0.5000
 1373SOL     OW15577   1.400   4.676   2.454 -0.0074 -0.6825  0.4318
 1373SOL    HW115578   1.358   0.035   2.469  0.1953 -0.6010  0.5331
 1373SOL    HW215579   1.488   4.705   2.431  0.5576 -4.0109 -1.5498
 1374SOL     OW15580   4.647   1.582   1.743  0.3330  0.5228  0.2846
 1374SOL    HW115581   4.697   1.627   1.675  0.8867 -1.1759 -0.4555
 1374SOL    HW215582   4.702   1.504   1.735  2.7664  2.3858 -0.9790
 1375SOL     OW15583   2.993   1.400  11.950  0.1703  0.0991  0.2352
 1375SOL    HW115584   2.977   1.374  11.859 -2.5756  0.3699  0.6276
 1375SOL    HW215585   2.908   1.399  11.994  0.3602 -1.4512  0.5744
 1376SOL     OW15586   3.100   2.939  14.434 -0.2567  0.1750 -0.2273
 1376SOL    HW115587   3.188   2.976  14.428 -0.4755  0.8864  0.9882
 1376SOL    HW215588   3.046   3.019  14.428 -2.9700 -1.6709 -0.4014
 1377SOL     OW15589   1.617   1.583   0.573 -0.1406  0.1680 -0.5222
 1377SOL    HW115590   1.609   1.659   0.515  2.9286  2.0345  1.4845
 1377SOL    HW215591   1.538   1.587   0.627  1.3474  1.7030  1.5116
 1378SOL     OW15592   0.631   1.346   0.323  0.3890 -0.2307 -0.2366
 1378SOL    HW115593   0.545   1.328   0.362  0.4555 -0.5286 -0.2295
 1378SOL    HW215594   0.632   1.442   0.326 -1.0922 -0.1852 -1.0736
 1379SOL     OW15595   3.537   0.881   4.775  0.3098  0.4338 -0.0334
 1379SOL    HW115596   3.483   0.881   4.696 -0.3517  1.0184  0.4135
 1379SOL    HW215597   3.499   0.813   4.831  0.0572  0.1957 -0.4990
 1380SOL     OW15598   0.695   1.010  11.918 -0.4679  0.4753 -0.2589
 1380SOL    HW115599   0.734   0.992  11.833 -0.9402  1.3303 -0.6576
 1380SOL    HW215600   0.724   1.100  11.930 -1.6848  0.3648  3.6845
 1381SOL     OW15601   3.731   2.707  16.864  0.2099  0.2722 -0.5281
 1381SOL    HW115602   3.758   2.624  16.904  3.9491  1.8815  0.3413
 1381SOL    HW215603   3.802   2.765  16.893 -1.1316  2.8038 -2.2710
 1382SOL     OW15604   2.764   0.063   5.913 -0.6527  0.6135  0.4567
 1382SOL    HW115605   2.823   0.133   5.883  0.3702 -0.0364  0.9627
 1382SOL    HW215606   2.689   0.120   5.929 -0.5178  1.3276 -1.4372
 1383SOL     OW15607   0.587   0.667   8.746  0.0217  0.3452  0.5165
 1383SOL    HW115608   0.542   0.746   8.776 -3.7835 -0.7405 -2.4763
 1383SOL    HW215609   0.673   0.708   8.738  0.4188 -0.4269  0.7949
 1384SOL     OW15610   0.322   0.289   0.579 -0.5989  0.1179  0.3450
 1384SOL    HW115611   0.354   0.348   0.647  3.0246 -0.5940 -0.7351
 1384SOL    HW215612   0.323   0.207   0.628  0.9597  0.9380  1.6403
 1385SOL     OW15613   3.242   2.420   6.647 -0.0116  0.0667  0.0411
 1385SOL    HW115614   3.327   2.432   6.687 -0.9336 -1.3868  2.4217
 1385SOL    HW215615   3.206   2.508   6.655 -1.3010 -0.3696 -0.8558
 1386SOL     OW15616   1.251   1.008   9.082 -0.3407  0.0682  0.0971
 1386SOL    HW115617   1.321   1.071   9.064  0.6768 -1.1188 -0.1724
 1386SOL    HW215618   1.269   0.949   9.008 -0.1602  0.0595  0.1469
 1387SOL     OW15619   3.216   2.827   5.761 -0.4103 -0.3275  0.4777
 1387SOL    HW115620   3.156   2.753   5.768 -0.5504 -0.3156 -0.5946
 1387SOL    HW215621   3.152   2.889   5.728  1.6814  1.6998  0.1685
 1388SOL     OW15622   4.534   3.777   9.028 -0.4855  0.2170  0.0444
 1388SOL    HW115623   4.625   3.799   9.049 -0.6710 -0.1026  1.1504
 1388SOL    HW215624   4.538   3.705   8.965 -1.3655  0.2305 -0.0312
 1389SOL     OW15625   2.016   2.896   0.306 -0.0591 -0.0974 -0.5385
 1389SOL    HW115626   2.103   2.875   0.272  1.1217  0.5649  2.1709
 1389SOL    HW215627   2.023   2.877   0.399  1.8762 -0.5018 -0.7599
 1390SOL     OW15628   0.056   3.318   7.314  0.2143 -0.0449 -0.5205
 1390SOL    HW115629   0.125   3.369   7.357 -2.5293  0.6841  3.0062
 1390SOL    HW215630   0.006   3.280   7.386  0.8864 -0.8765 -0.4966
 1391SOL     OW15631   2.690   0.441   1.743 -0.3311 -0.1972 -0.1872
 1391SOL    HW115632   2.731   0.521   1.713  0.1847 -0.8325 -1.1852
 1391SOL    HW215633   2.601   0.468   1.763  0.1092  0.7647  0.4644
 1392SOL     OW15634   2.418   4.050   4.878 -0.3798 -0.1264  0.5995
 1392SOL    HW115635   2.476   4.055   4.954 -1.0339  1.2803  0.9978
 1392SOL    HW215636   2.416   4.139   4.843 -0.7127 -0.1393  0.5876
 1393SOL     OW15637   4.250   3.705   6.544  0.7983 -0.2605  0.3302
 1393SOL    HW115638   4.320   3.650   6.509  0.2630 -0.6002 -0.2093
 1393SOL    HW215639   4.244   3.671   6.633 -4.0265 -0.0911  0.0682
 1394SOL     OW15640   2.382   2.066   6.928 -0.7892  0.1457 -0.3809
 1394SOL    HW115641   2.435   1.987   6.935  1.2966  1.8256  2.6279
 1394SOL    HW215642   2.335   2.053   6.845 -0.7509 -1.4520 -0.1509
 1395SOL     OW15643   0.790   2.080  15.965  0.4465  0.1620 -0.7137
 1395SOL    HW115644   0.859   2.079  16.031  3.1095 -3.8099 -3.5447
 1395SOL    HW215645   0.721   2.128  16.009  0.2582 -1.3029  0.5933
 1396SOL     OW15646   1.686   0.147   6.704 -0.3915 -0.5413  0.0926
 1396SOL    HW115647   1.598   0.117   6.724 -0.6562  1.2323  1.5560
 1396SOL    HW215648   1.706   0.078   6.641  1.1358 -0.8588  0.9276
 1397SOL     OW15649   3.150   0.474   6.721  0.1271  0.1603 -0.3681
 1397SOL    HW115650   3.075   0.484   6.780 -1.2189 -0.1842 -2.0301
 1397SOL    HW215651   3.129   0.407   6.656 -1.7094  1.3644 -1.0211
 1398SOL     OW15652   2.748   0.839   7.597  0.3871 -0.1368  0.2568
 1398SOL    HW115653   2.816   0.881   7.545  0.2301 -1.0287 -0.6743
 1398SOL    HW215654   2.672   0.898   7.592 -0.6428 -1.3469  1.5753
 1399SOL     OW15655   0.482   2.970  11.919 -0.5639  0.7492  0.4826
 1399SOL    HW115656   0.551   2.904  11.916  0.1767  1.5700 -0.4147
 1399SOL    HW215657   0.527   3.048  11.949  0.5948  0.3517 -0.2257
 1400SOL     OW15658   1.627   3.699  15.851 -0.1655  0.3933 -0.3140
 1400SOL    HW115659   1.572   3.737  15.919  1.8872 -0.5086  1.8323
 1400SOL    HW215660   1.610   3.761  15.780  1.9945  1.1603 -0.1741
 1401SOL     OW15661   2.121   2.040   3.839  0.3310  0.3452 -0.3956
 1401SOL    HW115662   2.121   2.132   3.812  0.0217  0.7874  1.0816
 1401SOL    HW215663   2.201   2.011   3.796 -0.1587 -0.7369 -0.5679
 1402SOL     OW15664   3.667   0.043   6.351  0.0224  0.0105  0.4748
 1402SOL    HW115665   3.595   0.086   6.398 -1.2108 -1.1856 -0.3498
 1402SOL    HW215666   3.640   4.678   6.348 -1.4089  0.3522  2.5534
 1403SOL     OW15667   1.912   3.827  12.680  0.5197 -0.1251 -0.0427
 1403SOL    HW115668   2.003   3.857  12.684  0.6663 -1.0611  4.0028
 1403SOL    HW215669   1.865   3.910  12.676  1.1896  0.2286 -0.6242
 1404SOL     OW15670   1.310   2.298   2.201  0.2293 -0.0139 -0.4195
 1404SOL    HW115671   1.310   2.333   2.112  0.4524 -0.0736 -0.4454
 1404SOL    HW215672   1.392   2.248   2.199 -0.4680 -1.1235 -1.4502
 1405SOL     OW15673   4.650   2.270   0.132 -0.6079 -0.0315 -0.3670
 1405SOL    HW115674   4.648   2.224   0.048 -0.0731 -2.4759  0.9277
 1405SOL    HW215675   4.684   2.351   0.096 -1.6918  0.1924 -0.8864
 1406SOL     OW15676   2.096   0.647   5.709 -0.1085  0.0409 -0.1551
 1406SOL    HW115677   2.167   0.688   5.758  0.6267  0.9563 -1.9903
 1406SOL    HW215678   2.153   0.615   5.639  0.3180 -0.5293  0.4468
 1407SOL     OW15679   2.096   3.979   1.711 -0.1499  0.1358  0.0974
 1407SOL    HW115680   2.190   3.991   1.698 -0.4551  1.4340 -0.9131
 1407SOL    HW215681   2.073   3.913   1.646 -3.8791  2.9943 -1.5315
 1408SOL     OW15682   2.812   0.525  10.640 -0.1341 -0.6548 -0.3073
 1408SOL    HW115683   2.849   0.610  10.660  1.0212 -0.6995 -2.2536
 1408SOL    HW215684   2.895   0.483  10.617  0.6015  1.1207 -0.8770
 1409SOL     OW15685   1.754   2.353  16.783  0.0386 -0.0164  0.1818
 1409SOL    HW115686   1.816   2.284  16.761 -0.6468 -0.5286 -0.1603
 1409SOL    HW215687   1.732   2.380  16.694  0.0262  0.9040  0.4735
 1410SOL     OW15688   4.055   0.052  11.106  0.3952 -0.0760  0.3809
 1410SOL    HW115689   4.028   0.009  11.186  1.0451 -0.1034  0.5861
 1410SOL    HW215690   3.992   0.011  11.046  1.0833  0.8136 -0.9511
 1411SOL     OW15691   2.972   4.099  13.356  0.2171 -0.9655  0.2579
 1411SOL    HW115692   2.887   4.117  13.316  1.4083  2.2007 -0.7648
 1411SOL    HW215693   2.973   4.162  13.428 -1.8198  0.8082 -1.2569
 1412SOL     OW15694   3.310   3.278  16.836  0.5532 -0.2113  0.2536
 1412SOL    HW115695   3.216   3.285  16.819  0.8694  3.3498 -0.0085
 1412SOL    HW215696   3.320   3.350  16.898 -1.1227  1.9449 -2.0194
 1413SOL     OW15697   0.053   4.326   0.845  0.2774 -0.0161 -0.0462
 1413SOL    HW115698   4.707   4.338   0.783 -0.4229 -3.7136  0.0432
 1413SOL    HW215699   0.012   4.269   0.911  0.0571 -0.8759 -0.9224
 1414SOL     OW15700   2.015   3.561   4.956 -0.0032 -0.1058  0.5130
 1414SOL    HW115701   1.989   3.569   4.865 -1.0932 -2.1958  0.6369
 1414SOL    HW215702   2.061   3.644   4.968 -1.2272  0.7898 -1.1020
 1415SOL     OW15703   4.039   0.535   4.095  0.3783 -0.7225 -0.4599
 1415SOL    HW115704   4.083   0.582   4.024 -0.6574 -0.2611 -0.7898
 1415SOL    HW215705   4.064   0.582   4.175 -2.0457 -0.6699  0.2675
 1416SOL     OW15706   3.226   0.189  13.853  0.1641 -0.0648 -0.0324
 1416SOL    HW115707   3.242   0.225  13.766 -1.9979  1.8993  0.3562
 1416SOL    HW215708   3.187   0.269  13.889  0.1936  0.4058 -1.0283
 1417SOL     OW15709   1.206   3.326   2.949 -0.0193 -0.2548 -0.1142
 1417SOL    HW115710   1.240   3.240   2.972  0.1182  0.3772  2.0583
 1417SOL    HW215711   1.157   3.307   2.869 -0.5236  0.5417 -0.0003
 1418SOL     OW15712   0.249   3.245   6.416 -0.7949  0.4469  0.1385
 1418SOL    HW115713   0.268   3.158   6.449 -0.1738  0.6276  0.2647
 1418SOL    HW215714   0.270   3.297   6.494 -1.1665 -0.5078  0.8717
 1419SOL     OW15715   3.110   1.743   2.660 -0.1019  0.1889 -0.3971
 1419SOL    HW115716   3.147   1.814   2.607  1.0171 -1.5226 -1.9692
 1419SOL    HW215717   3.083   1.674   2.599  0.4751 -1.0141  0.6918
 1420SOL     OW15718   3.293   1.754  14.929 -0.5658  0.4411  0.4947
 1420SOL    HW115719   3.355   1.720  14.864 -1.3935 -1.1904  0.5475
 1420SOL    HW215720   3.353   1.813  14.976  1.6770 -1.0584 -0.4958
 1421SOL     OW15721   1.363   3.257   3.702  0.8460 -0.1755 -0.5576
 1421SOL    HW115722   1.272   3.278   3.722  1.1736  0.5195  0.1754
 1421SOL    HW215723   1.399   3.345   3.700 -1.1445  0.6228 -1.0283
 1422SOL     OW15724   3.157   2.819   3.041  0.6308 -0.0305  0.5188
 1422SOL    HW115725   3.129   2.728   3.050  0.1786 -0.0336 -0.9501
 1422SOL    HW215726   3.247   2.811   3.073  0.5668 -0.0468  0.6921
 1423SOL     OW15727   2.191   4.482   9.123 -0.0661 -0.4617 -0.2148
 1423SOL    HW115728   2.210   4.545   9.192 -1.2262  3.4285 -3.4386
 1423SOL    HW215729   2.098   4.463   9.134 -0.6152  2.1394 -0.2847
 1424SOL     OW15730   4.424   4.039  10.423 -0.3437 -0.1785 -0.1024
 1424SOL    HW115731   4.396   3.949  10.406 -0.4916  0.0519 -1.0626
 1424SOL    HW215732   4.338   4.074  10.447  0.6008  0.3389  2.5506
 1425SOL     OW15733   4.704   2.243   4.952  0.2734 -0.1588 -0.1637
 1425SOL    HW115734   4.722   2.179   5.021  0.9765 -1.4093 -1.5108
 1425SOL    HW215735   4.610   2.246   4.966  0.5975 -1.6146  2.3436
 1426SOL     OW15736   0.975   4.439  13.703 -0.0169 -0.0986 -0.6302
 1426SOL    HW115737   1.032   4.397  13.768 -1.2700 -0.6447  0.1118
 1426SOL    HW215738   0.992   4.529  13.730 -0.2990 -0.5575  1.0591
 1427SOL     OW15739   4.090   1.565   8.855  0.3312 -0.1122  0.3247
 1427SOL    HW115740   4.140   1.483   8.857  0.8402  0.1613 -0.8914
 1427SOL    HW215741   4.092   1.579   8.950 -1.3061 -2.4879  0.7219
 1428SOL     OW15742   4.356   4.600  15.109 -0.6129 -0.3239 -0.2277
 1428SOL    HW115743   4.284   4.653  15.074 -0.6150  0.7987  1.4682
 1428SOL    HW215744   4.428   4.662  15.097 -0.6319 -0.4980 -1.2812
 1429SOL     OW15745   0.835   1.344   4.787 -0.3844  0.7770  0.4466
 1429SOL    HW115746   0.885   1.296   4.853 -0.5666 -1.8558 -1.3022
 1429SOL    HW215747   0.905   1.357   4.723 -1.0521  0.5191 -0.3424
 1430SOL     OW15748   0.633   1.139   3.397  0.6744 -0.1858 -0.5188
 1430SOL    HW115749   0.617   1.048   3.421 -2.2381  1.0253  2.2494
 1430SOL    HW215750   0.718   1.166   3.430  0.0339  1.4634 -0.2109
 1431SOL     OW15751   3.480   0.428   5.053 -0.3694 -0.7713  0.6285
 1431SOL    HW115752   3.547   0.363   5.030 -0.1314  0.0768 -1.0626
 1431SOL    HW215753   3.416   0.405   4.985 -0.7363  2.9447 -0.3008
 1432SOL     OW15754   0.667   3.508   4.357  0.5798 -0.8132 -0.7058
 1432SOL    HW115755   0.592   3.481   4.411 -0.7617  1.8988 -1.2277
 1432SOL    HW215756   0.662   3.603   4.361  0.6579 -0.9408  2.5372
 1433SOL     OW15757   1.247   0.648   4.434 -0.3082 -0.2947  0.2541
 1433SOL    HW115758   1.171   0.598   4.405  0.4748 -1.9482  1.0496
 1433SOL    HW215759   1.233   0.741   4.419 -0.3010 -0.6410 -1.8852
 1434SOL     OW15760   4.312   0.453   9.762 -0.4285 -0.9334  0.2087
 1434SOL    HW115761   4.278   0.364   9.754  0.3617 -1.0413 -1.9722
 1434SOL    HW215762   4.406   0.444   9.782  0.2115 -1.0007 -2.8717
 1435SOL     OW15763   3.539   4.159  14.557 -0.1212 -0.1761 -0.2422
 1435SOL    HW115764   3.468   4.172  14.494 -0.6986  2.7419  1.0145
 1435SOL    HW215765   3.588   4.089  14.514  0.3301 -0.1536  0.2395
 1436SOL     OW15766   1.135   1.569  12.950 -0.0521  0.1101 -0.2017
 1436SOL    HW115767   1.100   1.559  12.862 -0.7684 -0.2759  0.1257
 1436SOL    HW215768   1.171   1.656  12.932 -2.8484  1.2763 -0.0544
 1437SOL     OW15769   3.534   4.149   5.946 -0.3177 -0.4097  0.3281
 1437SOL    HW115770   3.584   4.163   5.866  1.3729 -1.6759  1.1894
 1437SOL    HW215771   3.480   4.226   5.966 -0.3446 -0.1631 -0.6521
 1438SOL     OW15772   4.371   1.238   6.500 -0.2917  0.5870  0.2087
 1438SOL    HW115773   4.360   1.326   6.537  0.1016  0.7926 -0.1496
 1438SOL    HW215774   4.439   1.250   6.433 -1.6256  0.4396 -1.1758
 1439SOL     OW15775   2.724   1.633   7.350  0.1570 -0.0101 -0.1718
 1439SOL    HW115776   2.662   1.562   7.331 -2.5132  1.6328  2.3568
 1439SOL    HW215777   2.745   1.665   7.262 -1.0953 -1.7680 -1.1106
 1440SOL     OW15778   3.421   3.915   8.864  0.2184  0.3448  0.8684
 1440SOL    HW115779   3.457   3.892   8.779 -0.3799 -2.9087  1.4982
 1440SOL    HW215780   3.354   3.848   8.878  0.1059 -0.1262 -2.0974
 1441SOL     OW15781   0.032   1.132  15.920  0.4263 -0.4069 -0.3572
 1441SOL    HW115782   4.669   1.148  15.949  0.4134 -1.3469  0.1360
 1441SOL    HW215783   0.074   1.162  16.000  0.4622  0.9255 -0.8847
 1442SOL     OW15784   2.757   4.413   2.893 -0.5556  0.0077 -0.2040
 1442SOL    HW115785   2.764   4.496   2.847 -1.6855  0.1448 -0.1348
 1442SOL    HW215786   2.742   4.441   2.984  1.1300  0.3968 -0.0426
 1443SOL     OW15787   1.366   0.349   9.146  0.6954  0.3490 -0.4275
 1443SOL    HW115788   1.383   0.374   9.056  2.3347 -0.2453 -0.2942
 1443SOL    HW215789   1.440   0.392   9.189 -0.3108  0.6711  1.0018
 1444SOL     OW15790   4.042   4.584   8.865  0.3780  0.2204 -0.0279
 1444SOL    HW115791   4.038   4.490   8.885  1.9778  0.0764 -0.4550
 1444SOL    HW215792   3.987   4.597   8.788  1.6477  0.5328 -0.8770
 1445SOL     OW15793   2.245   0.347   6.576  0.0202  0.3149  0.3612
 1445SOL    HW115794   2.207   0.367   6.661 -0.4026  3.0916 -0.4874
 1445SOL    HW215795   2.212   0.259   6.560 -0.1151  0.1655  1.4740
 1446SOL     OW15796   1.518   3.646   5.097 -0.0129 -0.2666  0.0362
 1446SOL    HW115797   1.581   3.660   5.168 -0.5455  0.8122  0.2816
 1446SOL    HW215798   1.468   3.577   5.140  0.8554 -0.8656  0.1075
 1447SOL     OW15799   1.323   0.842  11.978 -0.1262  0.1123  0.8121
 1447SOL    HW115800   1.390   0.777  11.959  0.1341  0.8627 -0.8225
 1447SOL    HW215801   1.253   0.800  12.028 -0.2204  0.5050  1.0057
 1448SOL     OW15802   1.842   1.497   1.198  0.1375 -0.1649 -0.3901
 1448SOL    HW115803   1.754   1.522   1.171  0.2552  1.5739  0.8797
 1448SOL    HW215804   1.873   1.578   1.238  0.0262 -0.5499  0.4760
 1449SOL     OW15805   1.566   4.529   7.565  0.5265  0.3226  0.0921
 1449SOL    HW115806   1.477   4.564   7.559  0.9224  1.2435 -0.5249
 1449SOL    HW215807   1.621   4.565   7.495  1.0244 -0.8153 -0.1091
 1450SOL     OW15808   2.100   2.322   3.282 -1.1811  0.0106  0.4970
 1450SOL    HW115809   2.077   2.282   3.366  0.7961  0.0878  1.0927
 1450SOL    HW215810   2.157   2.256   3.244 -0.9148  0.7032 -0.2992
 1451SOL     OW15811   4.416   3.179   5.181  0.0738 -0.1674 -0.0144
 1451SOL    HW115812   4.451   3.192   5.269 -1.8906 -3.0368  1.1632
 1451SOL    HW215813   4.326   3.213   5.179  0.0434 -0.2033  0.8966
 1452SOL     OW15814   4.563   3.564   8.836 -0.1612  0.3938  0.5856
 1452SOL    HW115815   4.497   3.529   8.776 -0.4692  0.8505  0.6571
 1452SOL    HW215816   4.608   3.485   8.866  0.6872 -0.5410 -3.1280
 1453SOL     OW15817   0.779   1.786   2.496 -0.4598 -0.6915 -0.5268
 1453SOL    HW115818   0.735   1.706   2.524 -0.3223 -0.1662  1.2120
 1453SOL    HW215819   0.849   1.795   2.560 -0.4133  0.8091 -0.7804
 1454SOL     OW15820   4.439   2.771   6.090 -0.2910  0.1565  0.3748
 1454SOL    HW115821   4.483   2.843   6.134  0.6962  0.3299 -0.8809
 1454SOL    HW215822   4.456   2.694   6.144 -2.4846  0.8363  2.0472
 1455SOL     OW15823   4.427   0.191   3.890 -0.3006  0.0205  0.3118
 1455SOL    HW115824   4.333   0.193   3.909 -0.0371  0.3699  1.6061
 1455SOL    HW215825   4.425   0.273   3.840 -1.0017  0.3699  0.9200
 1456SOL     OW15826   3.418   2.345   1.948  0.4931 -0.0056 -0.3538
 1456SOL    HW115827   3.417   2.371   1.856 -0.5138  2.0866  0.2610
 1456SOL    HW215828   3.481   2.413   1.971  0.9715 -0.8235  0.7450
 1457SOL     OW15829   3.741   0.817   6.118  0.1231 -0.4050 -0.5420
 1457SOL    HW115830   3.715   0.841   6.207  1.0195  1.1561 -0.6947
 1457SOL    HW215831   3.744   0.721   6.119 -2.8570 -0.4840  0.3829
 1458SOL     OW15832   4.581   2.150   6.397 -1.2313 -0.2483 -0.1706
 1458SOL    HW115833   4.487   2.142   6.413 -1.0190 -0.8127  0.7641
 1458SOL    HW215834   4.610   2.150   6.489  0.1938  2.0936 -0.6106
 1459SOL     OW15835   2.313   3.739   5.122  0.1239 -0.1393  0.1595
 1459SOL    HW115836   2.307   3.650   5.088 -1.4342 -0.1718  0.4975
 1459SOL    HW215837   2.369   3.728   5.199  2.1185  1.7512 -1.0283
 1460SOL     OW15838   3.205   2.948   3.731  0.2124 -1.2059  0.2226
 1460SOL    HW115839   3.279   2.895   3.702  1.3045 -0.2566  1.3075
 1460SOL    HW215840   3.225   2.949   3.824  0.5171 -0.6058  0.1477
 1461SOL     OW15841   1.109   3.682   1.971 -0.2076 -0.3834 -0.0579
 1461SOL    HW115842   1.114   3.726   2.056  2.4238 -1.9987  0.6181
 1461SOL    HW215843   1.016   3.659   1.971 -0.1425 -0.6585  0.2296
 1462SOL     OW15844   0.567   3.552   7.440 -0.0010  0.2537 -0.4325
 1462SOL    HW115845   0.504   3.501   7.389 -0.3280 -0.0920  0.3153
 1462SOL    HW215846   0.648   3.528   7.396  0.7844  1.0455  0.6079
 1463SOL     OW15847   0.308   3.319   3.984 -0.0103 -0.3966 -0.3648
 1463SOL    HW115848   0.218   3.330   4.015 -1.3965 -2.4769 -3.6343
 1463SOL    HW215849   0.351   3.382   4.042  1.1793 -1.8905  0.3655
 1464SOL     OW15850   4.725   2.133   6.613  0.0249 -0.3496 -0.1064
 1464SOL    HW115851   4.695   2.042   6.604 -1.1353 -0.2351  2.8077
 1464SOL    HW215852   0.020   2.142   6.706 -0.1012  0.5309 -0.1674
 1465SOL     OW15853   4.454   3.029  17.177 -0.0710  0.5669  0.0666
 1465SOL    HW115854   4.457   3.084  17.255 -0.3042 -2.4202  2.1784
 1465SOL    HW215855   4.488   3.090  17.110  0.4613 -0.7973 -0.9102
 1466SOL     OW15856   1.480   2.491   3.533  0.0705 -0.0743 -0.1289
 1466SOL    HW115857   1.481   2.569   3.589  0.1543  0.9534 -1.5466
 1466SOL    HW215858   1.522   2.422   3.583  0.1831 -1.2205 -1.8048
 1467SOL     OW15859   4.675   4.620   7.254 -0.6150  0.0165  0.2429
 1467SOL    HW115860   4.616   4.676   7.204  1.9254  0.9818 -1.7180
 1467SOL    HW215861   4.609   4.577   7.308  0.4989  0.2069  1.7518
 1468SOL     OW15862   2.029   4.588   1.995 -0.6110  0.0955 -0.4219
 1468SOL    HW115863   2.109   4.573   1.946  0.6600  1.0329  1.3516
 1468SOL    HW215864   1.960   4.589   1.929  0.4782 -0.2807 -1.5540
 1469SOL     OW15865   0.652   4.640   7.578 -0.0620 -0.0127  0.2095
 1469SOL    HW115866   0.683   4.717   7.626  4.8096 -0.0827 -2.8449
 1469SOL    HW215867   0.571   4.679   7.546  0.0081  0.4285  0.5604
 1470SOL     OW15868   1.245   1.825  12.937 -0.9264 -0.0252  0.0412
 1470SOL    HW115869   1.336   1.802  12.955 -0.8478 -0.5701 -1.0557
 1470SOL    HW215870   1.255   1.912  12.898 -0.6813  0.5088  1.3073
 1471SOL     OW15871   4.240   1.677   2.802 -0.3755 -0.5055 -0.1477
 1471SOL    HW115872   4.195   1.662   2.719 -0.3152  1.3297 -0.5120
 1471SOL    HW215873   4.311   1.722   2.755  0.6400 -0.3579  1.5085
 1472SOL     OW15874   0.539   2.595  17.469  0.2830  0.0378 -0.4960
 1472SOL    HW115875   0.586   2.656  17.412 -0.0182  1.0110  0.2865
 1472SOL    HW215876   0.532   2.649  17.548 -4.3988  0.7313 -1.3829
 1473SOL     OW15877   3.340   0.250  10.090  0.3774  0.0988  0.3979
 1473SOL    HW115878   3.382   0.182  10.038  1.2915  1.0252 -0.0853
 1473SOL    HW215879   3.376   0.247  10.179 -0.6192  1.0131  0.8356
 1474SOL     OW15880   1.616   2.303   8.856 -0.1044  0.4779 -0.3101
 1474SOL    HW115881   1.675   2.291   8.929  1.8027 -1.8210 -2.2270
 1474SOL    HW215882   1.618   2.220   8.808 -0.6346 -0.3613  1.1159
 1475SOL     OW15883   0.384   2.988   9.588  0.3503  0.7910 -0.4240
 1475SOL    HW115884   0.333   2.925   9.638 -0.1992 -0.0318 -2.0070
 1475SOL    HW215885   0.417   3.040   9.661 -0.5631  2.0421 -0.9020
 1476SOL     OW15886   2.335   3.563  13.506  0.0958  0.9407  0.4784
 1476SOL    HW115887   2.317   3.588  13.596  2.5377  2.7477  0.4853
 1476SOL    HW215888   2.251   3.534  13.471  0.5939 -0.3147  0.3363
 1477SOL     OW15889   2.693   0.247   5.060 -0.1255 -0.3342 -0.1305
 1477SOL    HW115890   2.783   0.275   5.074 -0.0379 -1.4611  1.5104
 1477SOL    HW215891   2.684   0.152   5.059  1.2591 -0.4893  2.4366
 1478SOL     OW15892   0.324   3.063   3.413 -0.1088 -0.4791  0.4946
 1478SOL    HW115893   0.276   3.007   3.474 -1.1376 -0.5310 -0.3706
 1478SOL    HW215894   0.408   3.079   3.456 -0.1010 -0.0081  0.3113
 1479SOL     OW15895   0.862   4.147   4.180  0.6332  0.4051 -0.2671
 1479SOL    HW115896   0.782   4.176   4.224  0.0851  0.3049 -1.1963
 1479SOL    HW215897   0.827   4.064   4.147  1.3251 -0.3153  0.7880
 1480SOL     OW15898   1.205   0.036   7.299 -0.6829 -0.2563 -0.4913
 1480SOL    HW115899   1.269   0.106   7.296 -0.5265 -0.4007 -0.4961
 1480SOL    HW215900   1.256   4.707   7.358  0.7620 -0.9360 -2.3511
 1481SOL     OW15901   2.060   2.302  16.438 -0.0263 -0.6076 -0.4831
 1481SOL    HW115902   2.103   2.256  16.367  1.0679 -1.0129  0.4374
 1481SOL    HW215903   2.092   2.392  16.434  0.3932 -0.6736  1.2689
 1482SOL     OW15904   3.345   0.003   5.035  0.2767  0.4686 -0.0006
 1482SOL    HW115905   3.409   0.057   5.081  0.8163 -0.2325  0.0635
 1482SOL    HW215906   3.300   4.688   5.109  1.6696 -0.2930  0.4178
 1483SOL     OW15907   3.652   2.104   1.509  0.1777 -0.3430 -0.1941
 1483SOL    HW115908   3.698   2.133   1.430 -1.6065 -1.4986 -1.6494
 1483SOL    HW215909   3.723   2.099   1.573  1.8492 -0.0978 -2.0415
 1484SOL     OW15910   2.908   3.881   2.827  0.2895  0.2990 -0.2855
 1484SOL    HW115911   2.898   3.976   2.830 -0.9546  0.1930 -0.8592
 1484SOL    HW215912   2.886   3.849   2.915  0.3278  0.5938 -0.1690
 1485SOL     OW15913   0.344   4.694   6.785 -0.3085 -0.7035  0.3480
 1485SOL    HW115914   0.383   4.608   6.800  0.0001 -1.0940 -2.8476
 1485SOL    HW215915   0.249   4.680   6.793  0.1194 -3.5300  0.5819
 1486SOL     OW15916   2.763   0.171  11.974  0.2640  1.0333 -0.3427
 1486SOL    HW115917   2.780   0.078  11.993  2.3202  1.3597 -0.5760
 1486SOL    HW215918   2.811   0.202  12.051 -2.2216  0.4589  1.4444
 1487SOL     OW15919   1.120   0.459   6.537  0.7396  0.6114 -0.2878
 1487SOL    HW115920   1.081   0.448   6.624  3.4987 -2.4858  0.5521
 1487SOL    HW215921   1.128   0.367   6.511  2.6501 -0.0815  2.6419
 1488SOL     OW15922   1.148   4.321   6.859 -0.4487 -0.4883  0.7435
 1488SOL    HW115923   1.134   4.369   6.777  2.0281 -0.2481  0.4560
 1488SOL    HW215924   1.180   4.238   6.824 -1.0948 -1.4776  2.4856
 1489SOL     OW15925   3.711   1.343  11.157 -0.4817  0.5352 -0.3132
 1489SOL    HW115926   3.721   1.248  11.147 -0.4909  0.4029  0.9202
 1489SOL    HW215927   3.665   1.345  11.241  2.1615  2.0412  1.1066
 1490SOL     OW15928   2.593   3.199   5.796 -0.0040  0.1704 -0.3080
 1490SOL    HW115929   2.632   3.284   5.777  2.0673 -0.6230  0.4112
 1490SOL    HW215930   2.567   3.228   5.883  3.0867  0.8466  0.4115
 1491SOL     OW15931   1.545   3.991   7.333 -0.0263 -0.5544  0.2416
 1491SOL    HW115932   1.598   4.071   7.334 -1.0632  0.1095  1.5425
 1491SOL    HW215933   1.533   3.975   7.426 -1.8599 -0.5177  0.0192
 1492SOL     OW15934   1.597   0.069   2.717 -0.1659 -0.0884  0.2650
 1492SOL    HW115935   1.568   0.046   2.805  0.4728  0.3472  0.5879
 1492SOL    HW215936   1.516   0.108   2.682 -0.5821 -0.0433  1.2675
 1493SOL     OW15937   4.105   1.800  15.472  0.1370  0.8581 -0.8045
 1493SOL    HW115938   4.150   1.797  15.387 -0.6506 -0.7417 -1.1612
 1493SOL    HW215939   4.130   1.890  15.495 -0.2728  0.1845  2.2712
 1494SOL     OW15940   0.946   4.518   0.590 -0.5655  0.7358 -0.2440
 1494SOL    HW115941   1.034   4.504   0.556 -0.2871  1.5122  0.1464
 1494SOL    HW215942   0.896   4.437   0.588  2.9384 -1.3524 -3.0135
 1495SOL     OW15943   2.052   3.875  13.752  0.8490  0.0802 -0.3262
 1495SOL    HW115944   2.050   3.966  13.722  0.2596  0.3885  0.6452
 1495SOL    HW215945   1.974   3.881  13.807  1.5501 -3.4791  1.0763
 1496SOL     OW15946   1.441   3.538  14.796  0.1575 -0.3803  0.1891
 1496SOL    HW115947   1.510   3.583  14.846  2.2848 -1.7270 -1.5378
 1496SOL    HW215948   1.496   3.504  14.725 -1.3498 -2.2174 -0.0964
 1497SOL     OW15949   3.186   1.462   6.117 -0.1897  0.7606  0.6933
 1497SOL    HW115950   3.227   1.434   6.199  0.1649  0.8433  0.5484
 1497SOL    HW215951   3.139   1.382   6.095  1.9867 -0.1356 -0.7800
 1498SOL     OW15952   2.932   2.551   7.001 -0.0477  0.3877 -1.3062
 1498SOL    HW115953   2.862   2.596   7.048  0.9520  1.9777 -1.3450
 1498SOL    HW215954   2.977   2.622   6.956 -0.6896  1.3502 -0.4261
 1499SOL     OW15955   2.387   2.214   5.617  0.0257  0.1339  0.1090
 1499SOL    HW115956   2.371   2.155   5.690  1.4574  0.4450  0.6655
 1499SOL    HW215957   2.297   2.245   5.609 -0.1995 -0.7648 -0.8214
 1500SOL     OW15958   0.075   4.056  16.515  0.1616  0.0708  0.4166
 1500SOL    HW115959   4.713   4.023  16.534  0.3554 -0.3741  0.5219
 1500SOL    HW215960   0.117   3.977  16.480 -0.4081 -0.3249  0.6316
 1501SOL     OW15961   1.010   1.057   0.931  0.4391  0.6214 -0.4412
 1501SOL    HW115962   1.003   0.976   0.880  2.0178 -0.9204  1.7565
 1501SOL    HW215963   0.971   1.029   1.013  1.8298 -0.4681 -0.1444
 1502SOL     OW15964   4.428   0.688   6.091 -0.1651  0.5263 -0.6081
 1502SOL    HW115965   4.474   0.679   6.174 -3.4802 -0.6213  1.1136
 1502SOL    HW215966   4.464   0.615   6.041 -0.3868 -0.9517  1.3995
 1503SOL     OW15967   3.008   2.968   5.287  0.0227  0.0837 -0.1267
 1503SOL    HW115968   3.095   2.977   5.323  0.3460 -1.8088 -0.4187
 1503SOL    HW215969   3.003   3.042   5.227  1.8391  0.2707 -0.0228
 1504SOL     OW15970   0.676   2.143  14.041  0.5506  0.1419  0.3406
 1504SOL    HW115971   0.652   2.070  13.984  2.5800 -0.6637  0.5330
 1504SOL    HW215972   0.755   2.106  14.081  1.4866  0.5172 -1.1734
 1505SOL     OW15973   3.804   4.493   9.131  0.4061 -0.0756  0.4716
 1505SOL    HW115974   3.724   4.543   9.144  2.0184  2.0387  2.3793
 1505SOL    HW215975   3.806   4.503   9.036  0.2813 -0.3856  0.4356
 1506SOL     OW15976   2.173   3.796   0.816 -0.5212 -0.2097 -0.4214
 1506SOL    HW115977   2.140   3.751   0.738  1.2531 -1.8208 -0.2497
 1506SOL    HW215978   2.102   3.859   0.827  0.0935  0.1827  1.3581
 1507SOL     OW15979   2.628   0.069   4.390  0.3098  0.4988  0.4802
 1507SOL    HW115980   2.710   0.117   4.379  0.2991  0.5521  0.6295
 1507SOL    HW215981   2.616   0.064   4.485 -1.2957  2.2583  0.3936
 1508SOL     OW15982   0.330   4.279  12.080  0.2957  0.1616  0.0328
 1508SOL    HW115983   0.299   4.211  12.021  0.5393  0.0623  0.0171
 1508SOL    HW215984   0.299   4.248  12.164 -0.4853  0.8113 -0.0148
 1509SOL     OW15985   2.278   1.181  17.034 -0.1990  0.6102 -0.1152
 1509SOL    HW115986   2.331   1.226  17.100  1.4766 -1.0826 -0.3201
 1509SOL    HW215987   2.203   1.140  17.077 -0.0916  0.9802  0.4278
 1510SOL     OW15988   0.640   1.474   1.945 -0.7902 -0.3460 -0.0750
 1510SOL    HW115989   0.694   1.484   1.866  1.0731  0.0549  1.2531
 1510SOL    HW215990   0.695   1.418   1.999 -1.0347  0.9269  1.4863
 1511SOL     OW15991   1.669   0.663   3.883 -0.4682 -0.4677  0.3823
 1511SOL    HW115992   1.622   0.588   3.846 -0.1879  0.3350 -1.6148
 1511SOL    HW215993   1.757   0.628   3.866 -1.3364 -3.2998  1.6890
 1512SOL     OW15994   2.751   1.904   0.660  0.1232 -0.5578  0.4384
 1512SOL    HW115995   2.742   1.901   0.755 -2.1709 -0.5376  0.2142
 1512SOL    HW215996   2.809   1.828   0.655  0.9486  0.0933  0.2004
 1513SOL     OW15997   1.328   4.194  10.948  0.5837 -0.4828 -0.3763
 1513SOL    HW115998   1.236   4.213  10.968 -0.4350 -2.1383 -3.4998
 1513SOL    HW215999   1.351   4.135  11.020  0.2623  2.0938  1.8056
 1514SOL     OW16000   2.774   3.599  16.112 -0.0484  0.0631  0.6005
 1514SOL    HW116001   2.751   3.526  16.169 -3.6318 -0.0273 -0.9835
 1514SOL    HW216002   2.695   3.635  16.073 -0.6078 -0.8751  0.8779
 1515SOL     OW16003   2.435   0.496   8.470  0.0163  0.2145  0.1569
 1515SOL    HW116004   2.485   0.561   8.420 -0.4964 -1.1517 -2.1655
 1515SOL    HW216005   2.508   0.467   8.523  0.0181  1.8911  1.0781
 1516SOL     OW16006   2.037   4.130   3.918 -0.1624 -0.0136  0.2954
 1516SOL    HW116007   2.113   4.133   3.859  0.5565 -1.5048  1.1625
 1516SOL    HW216008   2.022   4.036   3.914  1.9606 -0.3989  1.2931
 1517SOL     OW16009   3.920   0.431   2.898  0.4055 -0.0928 -0.0326
 1517SOL    HW116010   3.879   0.376   2.831 -0.6836  2.1435 -1.2135
 1517SOL    HW216011   3.949   0.509   2.851 -0.4520  0.8323  1.0049
 1518SOL     OW16012   4.626   0.328   1.978 -0.1016  0.1758  0.1681
 1518SOL    HW116013   4.574   0.354   2.054 -1.0786 -0.3250 -0.3277
 1518SOL    HW216014   4.617   0.232   1.977  0.3791  0.1402 -1.2240
 1519SOL     OW16015   4.459   3.484   1.405  0.1431 -0.1286 -0.1947
 1519SOL    HW116016   4.515   3.411   1.430  2.5206  2.4419  2.0662
 1519SOL    HW216017   4.441   3.454   1.316 -1.4911  1.2211 -0.3250
 1520SOL     OW16018   4.138   2.417   2.685  0.7272  0.3824 -0.4729
 1520SOL    HW116019   4.168   2.409   2.776 -0.5729  1.5314  0.0609
 1520SOL    HW216020   4.219   2.392   2.640  1.4419 -0.6931  1.3878
 1521SOL     OW16021   0.281   3.314   7.744  0.4301 -0.6128 -0.2692
 1521SOL    HW116022   0.293   3.299   7.838 -0.4486 -1.4081 -0.2822
 1521SOL    HW216023   0.188   3.337   7.737  0.5676  0.5442  1.5639
 1522SOL     OW16024   3.766   0.614   6.573  0.2487 -0.2406  0.5931
 1522SOL    HW116025   3.802   0.538   6.527  2.1944 -0.3095  2.2173
 1522SOL    HW216026   3.691   0.569   6.611  0.3964  1.0853  2.4543
 1523SOL     OW16027   0.463   4.058  15.285 -0.6144 -0.1561 -0.3160
 1523SOL    HW116028   0.492   4.035  15.196 -1.2839  0.3053 -0.6529
 1523SOL    HW216029   0.459   4.152  15.272  1.6405 -0.0535 -0.2776
 1524SOL     OW16030   0.342   1.934   7.811 -0.3935  0.1966  0.1291
 1524SOL    HW116031   0.316   1.842   7.800 -1.8450  0.5811  0.2926
 1524SOL    HW216032   0.419   1.931   7.868  0.2757  3.0673 -0.6387
 1525SOL     OW16033   0.786   2.715   6.307 -0.1623  0.0289 -0.4635
 1525SOL    HW116034   0.804   2.809   6.307  1.6287 -0.3216 -0.3156
 1525SOL    HW216035   0.717   2.710   6.241 -0.6813  0.8033  0.0213
 1526SOL     OW16036   4.162   2.830   0.630  0.6196 -0.2191  0.1718
 1526SOL    HW116037   4.099   2.886   0.584  1.4633  1.3347  0.9310
 1526SOL    HW216038   4.242   2.881   0.622  0.4960  0.1075  1.1485
 1527SOL     OW16039   1.166   4.086   2.133  0.4415 -0.2515 -0.6879
 1527SOL    HW116040   1.118   4.157   2.174 -0.5973 -0.6523 -1.2200
 1527SOL    HW216041   1.226   4.139   2.080 -0.3234 -0.0195 -1.3157
 1528SOL     OW16042   1.606   4.023   8.799  0.4552 -0.0504  0.2499
 1528SOL    HW116043   1.562   4.045   8.717  0.7027  0.7254  0.3244
 1528SOL    HW216044   1.533   4.014   8.860 -0.0074  3.1304  0.1555
 1529SOL     OW16045   3.999   4.130   8.441  0.0147 -0.2789  0.0651
 1529SOL    HW116046   3.972   4.040   8.455  0.9344 -0.5328  0.1824
 1529SOL    HW216047   4.094   4.128   8.452  0.0283  1.2015  0.1804
 1530SOL     OW16048   4.394   4.370   6.432 -0.5825 -0.1667  0.2428
 1530SOL    HW116049   4.416   4.454   6.472 -0.2035  0.4827 -1.3187
 1530SOL    HW216050   4.476   4.333   6.398  0.4674  0.3552  2.1955
 1531SOL     OW16051   4.515   1.234   5.800  0.1266 -0.0096 -1.1200
 1531SOL    HW116052   4.477   1.314   5.763  2.6890  0.4204 -2.7573
 1531SOL    HW216053   4.439   1.203   5.850  1.9939 -1.0049  1.1103
 1532SOL     OW16054   0.970   4.213  13.541 -0.0237 -0.0283 -0.0748
 1532SOL    HW116055   1.056   4.176  13.520 -0.2479 -1.4987  1.6465
 1532SOL    HW216056   0.996   4.300  13.571  1.0342 -0.8760  1.4549
 1533SOL     OW16057   0.541   3.996  15.040  0.2112 -0.7452  0.0390
 1533SOL    HW116058   0.615   3.956  15.086  1.4385 -0.1468 -1.3977
 1533SOL    HW216059   0.507   3.916  15.000  1.1838 -1.0120 -0.2691
 1534SOL     OW16060   4.427   1.592   3.938  0.3987 -0.3050 -0.4444
 1534SOL    HW116061   4.353   1.564   3.992 -0.4707 -0.0551 -1.5147
 1534SOL    HW216062   4.388   1.611   3.853 -1.2546  0.2972  0.4652
 1535SOL     OW16063   0.688   1.788  16.275  0.2819 -0.3828 -0.3193
 1535SOL    HW116064   0.758   1.803  16.211  0.8856 -0.4522  0.3328
 1535SOL    HW216065   0.631   1.725  16.230  2.8939 -2.1824 -1.1178
 1536SOL     OW16066   0.449   0.476   8.601  0.0737 -0.1082 -0.1077
 1536SOL    HW116067   0.528   0.428   8.577 -0.2353 -1.0842  0.8350
 1536SOL    HW216068   0.486   0.548   8.652 -1.6072 -0.7221  2.0082
 1537SOL     OW16069   0.263   0.483   7.449 -0.0447  0.1171  0.0193
 1537SOL    HW116070   0.307   0.471   7.365 -1.8486  0.9690 -1.0505
 1537SOL    HW216071   0.241   0.390   7.457 -0.6843  0.3490  0.9400
 1538SOL     OW16072   3.275   0.057   4.679 -0.2812 -0.4262 -0.2133
 1538SOL    HW116073   3.328   0.023   4.752  0.6577 -0.5409 -0.9433
 1538SOL    HW216074   3.190   0.015   4.692  0.2428 -1.7052 -0.9130
 1539SOL     OW16075   1.709   3.003   4.901 -0.0723  0.5691  0.0585
 1539SOL    HW116076   1.764   2.943   4.850  0.8537  2.6842 -1.4353
 1539SOL    HW216077   1.770   3.068   4.938  2.9158 -1.3730 -1.4135
 1540SOL     OW16078   2.835   0.221  12.402 -0.8433 -0.6484 -0.1338
 1540SOL    HW116079   2.910   0.171  12.434 -0.2782 -0.2007 -0.7786
 1540SOL    HW216080   2.834   0.288  12.471  0.1210 -1.5311  0.7410
 1541SOL     OW16081   3.648   3.478   8.948  0.3314 -0.0929 -0.0112
 1541SOL    HW116082   3.668   3.386   8.963 -1.2240 -0.5761 -0.9500
 1541SOL    HW216083   3.553   3.473   8.941  0.6211 -1.0416 -3.3420
 1542SOL     OW16084   0.230   4.203   7.141 -0.0108  0.7721  0.1469
 1542SOL    HW116085   0.242   4.170   7.052  0.1824 -2.5683  1.4177
 1542SOL    HW216086   0.179   4.283   7.130 -0.9167  0.5541  2.9107
 1543SOL     OW16087   2.186   0.178  16.975  0.2437  0.4740 -0.4313
 1543SOL    HW116088   2.092   0.176  16.959  0.1885  1.1560 -0.1900
 1543SOL    HW216089   2.207   0.271  16.982 -2.5692  1.1446 -0.9360
 1544SOL     OW16090   2.203   2.510   5.646  0.1543  0.2600  0.0926
 1544SOL    HW116091   2.181   2.423   5.614  3.2947 -0.6821  0.5313
 1544SOL    HW216092   2.137   2.563   5.601 -0.1975  1.3194  1.8184
 1545SOL     OW16093   3.081   4.580  17.293  0.0206 -0.0911  0.2608
 1545SOL    HW116094   3.160   4.630  17.270 -0.1046 -0.0739 -0.1240
 1545SOL    HW216095   3.009   4.634  17.260  1.5564  1.6752 -0.1738
 1546SOL     OW16096   4.108   1.237   8.584  0.1886 -0.0074  0.5418
 1546SOL    HW116097   4.035   1.250   8.644  0.7619  0.6073  1.1086
 1546SOL    HW216098   4.172   1.185   8.633 -0.7271 -1.6786 -0.0101
 1547SOL     OW16099   0.510   1.434  13.959  0.5342 -0.1879  0.5259
 1547SOL    HW116100   0.503   1.341  13.937  0.5880 -0.1881  0.5090
 1547SOL    HW216101   0.573   1.467  13.895  0.0693  1.1842  0.7722
 1548SOL     OW16102   2.851   3.331  16.263 -0.1431  0.1271  0.6325
 1548SOL    HW116103   2.896   3.249  16.282  0.7419  0.2178 -1.0611
 1548SOL    HW216104   2.762   3.298  16.253 -0.7822  2.0447 -0.0181
 1549SOL     OW16105   1.276   3.345  15.891 -0.1445  0.4543 -0.0263
 1549SOL    HW116106   1.209   3.407  15.864 -2.6483 -2.9348 -1.6268
 1549SOL    HW216107   1.325   3.402  15.950 -1.1983  0.4673  0.8420
 1550SOL     OW16108   0.680   3.661   2.726  0.1123  0.2265 -0.0705
 1550SOL    HW116109   0.737   3.605   2.778 -0.0867  1.8957  1.9601
 1550SOL    HW216110   0.642   3.708   2.800  2.2911  0.8130  0.7061
 1551SOL     OW16111   3.502   1.898   1.053 -0.3757 -0.3712 -0.2261
 1551SOL    HW116112   3.419   1.936   1.025 -1.3963 -0.6690  2.3355
 1551SOL    HW216113   3.566   1.919   0.986  0.1349 -2.1699 -0.2857
 1552SOL     OW16114   3.720   1.491   9.713 -0.1636  0.3120 -0.2676
 1552SOL    HW116115   3.767   1.463   9.635  1.3111  2.9927 -0.3471
 1552SOL    HW216116   3.631   1.456   9.710  0.7526 -1.9190 -1.4724
 1553SOL     OW16117   3.423   3.735   0.780  0.3113 -0.0303  0.2598
 1553SOL    HW116118   3.382   3.718   0.865  1.1464 -0.4161  0.5776
 1553SOL    HW216119   3.476   3.657   0.772 -0.8472 -0.9897  1.8129
 1554SOL     OW16120   0.612   4.290  17.123  0.1591  0.2718  0.1682
 1554SOL    HW116121   0.652   4.320  17.204 -0.5852  1.5664  0.0518
 1554SOL    HW216122   0.677   4.327  17.064 -1.2864  3.5709  0.6235
 1555SOL     OW16123   0.191   0.029  15.881 -0.5099 -0.5380 -0.7635
 1555SOL    HW116124   0.150   0.100  15.832  1.6802  1.5168  0.3758
 1555SOL    HW216125   0.123   0.021  15.947  1.1894  1.5962  1.2271
 1556SOL     OW16126   2.755   1.949   4.088  0.3697  0.3342  0.0959
 1556SOL    HW116127   2.713   1.870   4.054  0.5326  0.3660 -0.1772
 1556SOL    HW216128   2.700   2.002   4.031 -0.0976  1.3503  1.4910
 1557SOL     OW16129   0.185   1.267   8.062 -0.1022 -0.3127 -0.2209
 1557SOL    HW116130   0.121   1.222   8.008 -0.2478 -1.2312  0.7201
 1557SOL    HW216131   0.194   1.202   8.132  0.4640  0.3140  0.2933
 1558SOL     OW16132   2.766   1.626   0.947  0.3282 -0.0681 -0.2452
 1558SOL    HW116133   2.688   1.588   0.986 -0.1354 -0.4816 -1.5769
 1558SOL    HW216134   2.839   1.569   0.974  0.9267  1.2192  0.8996
 1559SOL     OW16135   2.401   1.674   8.385 -0.3745  0.5643 -0.1169
 1559SOL    HW116136   2.492   1.692   8.408 -0.0024  0.4808 -1.4808
 1559SOL    HW216137   2.405   1.582   8.360 -1.9706  0.5054 -0.1394
 1560SOL     OW16138   2.810   2.518   6.633 -0.0476 -0.0295 -0.4178
 1560SOL    HW116139   2.715   2.529   6.642 -0.1436 -2.1033  1.1849
 1560SOL    HW216140   2.837   2.601   6.671  1.6791 -0.3596 -0.9548
 1561SOL     OW16141   0.650   1.600   3.896  0.6353  0.1707  0.2338
 1561SOL    HW116142   0.581   1.591   3.961  0.7964  4.2776  0.9863
 1561SOL    HW216143   0.702   1.519   3.894  0.6066  0.0934  2.2052
 1562SOL     OW16144   0.658   1.396  12.698 -0.6766  0.0015 -0.3404
 1562SOL    HW116145   0.602   1.324  12.728 -1.7282  0.1520 -1.9207
 1562SOL    HW216146   0.641   1.398  12.603 -0.9495  1.8930 -0.2540
 1563SOL     OW16147   0.833   0.622   1.439  0.0541 -0.2819 -0.9951
 1563SOL    HW116148   0.840   0.535   1.398  2.5749  0.2278 -1.7102
 1563SOL    HW216149   0.767   0.655   1.378 -0.2117 -0.5590 -0.8586
 1564SOL     OW16150   0.213   0.613  16.017 -0.0386  0.0112 -0.1624
 1564SOL    HW116151   0.298   0.652  15.998 -0.7926  1.7056 -0.0113
 1564SOL    HW216152   0.221   0.534  15.962 -0.1498 -0.1840  0.1000
 1565SOL     OW16153   0.066   0.178   8.586 -0.1736 -0.1098 -0.0280
 1565SOL    HW116154   0.103   0.223   8.662  3.6209  1.1593 -2.6132
 1565SOL    HW216155   0.082   0.234   8.510  0.9065 -2.7299 -1.7444
 1566SOL     OW16156   1.190   3.162  17.107  0.2079 -0.1740 -0.2607
 1566SOL    HW116157   1.192   3.069  17.087 -1.8057 -0.6895  1.9058
 1566SOL    HW216158   1.278   3.169  17.143 -0.2839  0.3384  0.8506
 1567SOL     OW16159   3.489   1.007   8.262  0.0017 -0.0531  0.6345
 1567SOL    HW116160   3.574   1.050   8.257 -0.3388  0.4626 -0.6650
 1567SOL    HW216161   3.437   1.046   8.191  1.4737 -2.1427 -1.5783
 1568SOL     OW16162   3.792   2.444   2.542  0.1512 -0.2994  0.7869
 1568SOL    HW116163   3.787   2.348   2.543 -1.1850 -0.2314  1.4130
 1568SOL    HW216164   3.704   2.472   2.518  0.1186 -1.7083 -0.7350
 1569SOL     OW16165   4.274   2.036   6.088  0.7950  0.1677 -0.3963
 1569SOL    HW116166   4.273   1.964   6.024 -0.4365 -0.2410  0.0736
 1569SOL    HW216167   4.329   2.088   6.030  0.8954  1.8516  1.2206
 1570SOL     OW16168   3.718   0.804  14.770 -0.0397  0.5733 -0.1956
 1570SOL    HW116169   3.629   0.816  14.804  0.1554 -0.2713  0.6204
 1570SOL    HW216170   3.717   0.832  14.678 -0.1089  0.8031 -0.1238
 1571SOL     OW16171   3.645   0.644  10.440 -0.4629  0.7973 -0.2574
 1571SOL    HW116172   3.646   0.603  10.353  0.4339  0.4848 -0.1001
 1571SOL    HW216173   3.552   0.661  10.448 -0.0697  2.4930  0.5505
 1572SOL     OW16174   1.972   1.042   4.405  0.3692  0.0049 -0.0954
 1572SOL    HW116175   2.028   0.987   4.461 -1.4673 -1.7664  0.0182
 1572SOL    HW216176   2.000   1.001   4.324  1.0976 -2.0717  1.2076
 1573SOL     OW16177   1.992   3.330   3.977 -0.3662  0.4720  0.7045
 1573SOL    HW116178   1.991   3.417   3.939 -2.7240 -0.4396 -1.3492
 1573SOL    HW216179   1.961   3.355   4.064  2.0096  2.6712  0.9304
 1574SOL     OW16180   0.394   1.209   6.971 -0.0241 -0.7287  0.2399
 1574SOL    HW116181   0.346   1.153   6.910  0.9552  0.3557 -1.5326
 1574SOL    HW216182   0.370   1.293   6.932  0.2541 -0.0062  1.5992
 1575SOL     OW16183   0.360   2.043  16.099 -0.0444 -0.2850 -0.1540
 1575SOL    HW116184   0.342   1.988  16.175  1.1687 -1.2439 -0.5604
 1575SOL    HW216185   0.312   1.987  16.038 -3.6162 -0.0996  2.5093
 1576SOL     OW16186   0.932   2.072   3.738  0.7709 -0.0886  0.7636
 1576SOL    HW116187   0.853   2.125   3.738  1.0550  0.3389  0.2498
 1576SOL    HW216188   0.900   1.981   3.737 -2.5848  1.1141 -0.3075
 1577SOL     OW16189   2.550   0.166   6.434 -0.1550  0.2528  0.1786
 1577SOL    HW116190   2.498   0.156   6.514  0.9972 -0.5448  0.8296
 1577SOL    HW216191   2.492   0.192   6.362  0.1552  3.3392  1.0757
 1578SOL     OW16192   4.477   1.988   2.941  0.1769  0.6320  0.2695
 1578SOL    HW116193   4.456   2.004   3.033 -0.1139  2.6209 -0.1459
 1578SOL    HW216194   4.572   1.973   2.948  0.3614  3.1239  3.3626
 1579SOL     OW16195   2.081   0.603   8.205 -0.7360 -0.3763  0.5169
 1579SOL    HW116196   1.997   0.559   8.212 -0.6485 -0.5420  0.5234
 1579SOL    HW216197   2.132   0.550   8.267  3.4037  0.5730 -2.0332
 1580SOL     OW16198   0.442   1.576  12.843 -0.1831 -0.0891 -0.2023
 1580SOL    HW116199   0.426   1.656  12.793 -0.1073  1.4233  2.2109
 1580SOL    HW216200   0.514   1.529  12.802 -0.3349 -1.0433  0.5973
 1581SOL     OW16201   3.284   3.012   7.612 -0.1217  0.0503  0.0050
 1581SOL    HW116202   3.335   3.056   7.680  0.5234 -2.1815  0.9421
 1581SOL    HW216203   3.307   2.919   7.616 -0.2773  0.0897  1.6288
 1582SOL     OW16204   1.469   3.314   1.963 -0.2361 -0.0169  0.0196
 1582SOL    HW116205   1.380   3.350   1.969 -0.8019 -1.2753 -0.5391
 1582SOL    HW216206   1.456   3.228   1.922 -2.3882  0.2866  0.0593
 1583SOL     OW16207   1.506   1.348   9.278  0.5464 -0.4612 -0.6235
 1583SOL    HW116208   1.476   1.357   9.369 -1.7766 -2.2173 -1.2366
 1583SOL    HW216209   1.466   1.427   9.242  0.8504  0.2601  0.6108
 1584SOL     OW16210   4.071   2.633   7.210  0.3782  0.4426  0.4405
 1584SOL    HW116211   4.086   2.719   7.170  3.2159 -0.6397 -0.8339
 1584SOL    HW216212   3.979   2.618   7.188  0.4697 -0.5148  0.7182
 1585SOL     OW16213   0.641   2.453  16.242  0.1652  0.2736 -0.6589
 1585SOL    HW116214   0.594   2.392  16.185  0.1349 -1.3993  1.1737
 1585SOL    HW216215   0.709   2.486  16.183 -0.3146  3.2851  0.4992
 1586SOL     OW16216   3.177   0.579  15.742  0.0068 -0.0643  0.6138
 1586SOL    HW116217   3.107   0.575  15.808 -0.9227 -0.0088 -0.3793
 1586SOL    HW216218   3.136   0.648  15.690  0.4488  0.7864  1.3829
 1587SOL     OW16219   3.203   0.645   8.647  0.2168  0.2493  0.0945
 1587SOL    HW116220   3.261   0.591   8.700  0.1467 -0.3448 -0.4326
 1587SOL    HW216221   3.182   0.708   8.716 -0.4424  0.5782 -0.4064
 1588SOL     OW16222   1.507   0.875   4.435  0.0726  0.3665 -0.2338
 1588SOL    HW116223   1.577   0.841   4.491  0.6786 -1.3455 -2.0622
 1588SOL    HW216224   1.551   0.912   4.358  0.6572 -1.6934 -0.8785
 1589SOL     OW16225   4.102   2.820  15.649 -0.2745  0.3597 -0.8019
 1589SOL    HW116226   4.023   2.857  15.688  0.6284  0.8450  0.5650
 1589SOL    HW216227   4.134   2.885  15.587 -1.0148  1.9311  0.4678
 1590SOL     OW16228   4.558   4.527   2.687  0.5346 -0.3802 -0.2636
 1590SOL    HW116229   4.517   4.581   2.754 -1.0078 -1.1969 -0.5570
 1590SOL    HW216230   4.569   4.440   2.726 -0.2273 -0.2950  0.1353
 1591SOL     OW16231   0.389   3.961   0.925  0.6527  0.0255 -0.3011
 1591SOL    HW116232   0.437   3.891   0.968 -1.3452 -2.2865 -1.8340
 1591SOL    HW216233   0.422   3.954   0.836  0.4210 -3.5749 -0.0972
 1592SOL     OW16234   0.289   2.185   7.866  1.1772  0.1132  0.1834
 1592SOL    HW116235   0.300   2.095   7.834  0.1497 -0.0860  0.3855
 1592SOL    HW216236   0.285   2.180   7.961 -0.2675  0.1178  0.1297
 1593SOL     OW16237   1.750   2.998   5.743 -0.4393 -0.0683 -0.0669
 1593SOL    HW116238   1.760   3.032   5.653  0.3578  0.6414  0.2827
 1593SOL    HW216239   1.716   3.076   5.787 -0.5070  0.3040 -0.7678
 1594SOL     OW16240   4.645   2.450   2.141  0.0224  0.3508  0.4485
 1594SOL    HW116241   4.628   2.363   2.106 -1.2159  0.9112 -0.3626
 1594SOL    HW216242   4.593   2.457   2.221  1.5580  1.2312  1.3559
 1595SOL     OW16243   4.522   4.336   5.547  0.2237 -0.3896 -0.4120
 1595SOL    HW116244   4.539   4.420   5.504 -1.7023  0.2328  0.0472
 1595SOL    HW216245   4.607   4.292   5.537 -0.2695 -1.4591  0.2073
 1596SOL     OW16246   2.291   4.321   3.130  0.0583  0.1022 -0.0982
 1596SOL    HW116247   2.214   4.351   3.081  0.3478 -0.6712 -1.0200
 1596SOL    HW216248   2.344   4.399   3.118 -0.1801 -0.0112 -1.9777
 1597SOL     OW16249   4.141   3.811  11.366  0.3737  0.2738  0.5060
 1597SOL    HW116250   4.175   3.767  11.444 -1.5049 -2.0968  0.0028
 1597SOL    HW216251   4.173   3.898  11.389  1.1804 -0.1365  0.9486
 1598SOL     OW16252   3.642   0.176   3.799  0.1070 -0.8936 -0.1191
 1598SOL    HW116253   3.554   0.188   3.765  0.6720  1.0520 -0.9195
 1598SOL    HW216254   3.669   0.268   3.802 -1.7528 -0.3273 -0.8834
 1599SOL     OW16255   0.483   3.775   6.281 -0.3636 -0.4903 -0.6009
 1599SOL    HW116256   0.505   3.720   6.206  1.6042 -1.3910  0.6347
 1599SOL    HW216257   0.391   3.795   6.265 -0.2436 -0.5482 -1.3681
 1600SOL     OW16258   0.357   3.133   0.823 -0.0115  0.6860 -0.4455
 1600SOL    HW116259   0.298   3.060   0.840  0.2175  1.0850  2.1211
 1600SOL    HW216260   0.437   3.092   0.792 -2.4113 -3.1377 -1.5978
 1601SOL     OW16261   2.538   1.375   2.248  0.3068  0.3741 -0.3738
 1601SOL    HW116262   2.520   1.466   2.225 -0.6777  0.8501  2.2077
 1601SOL    HW216263   2.622   1.369   2.204  1.6415 -0.9366  2.3459
 1602SOL     OW16264   3.530   1.773   9.023  0.3232 -0.0818 -0.6057
 1602SOL    HW116265   3.485   1.743   8.945 -1.2445 -1.3734  0.7986
 1602SOL    HW216266   3.535   1.690   9.072 -1.1464  0.6271  0.7386
 1603SOL     OW16267   0.397   2.613   3.600  0.5054 -0.3398 -0.2860
 1603SOL    HW116268   0.454   2.687   3.578  0.5731 -0.2153  0.3259
 1603SOL    HW216269   0.463   2.548   3.625  0.8625 -0.3538 -1.2456
 1604SOL     OW16270   2.287   3.644  15.467  0.8013 -0.0960 -0.1692
 1604SOL    HW116271   2.363   3.702  15.470  0.9657 -0.1946 -1.9460
 1604SOL    HW216272   2.245   3.676  15.546  0.7014 -1.7943  0.4540
 1605SOL     OW16273   3.422   0.025   7.266  0.3811 -1.0454  0.0398
 1605SOL    HW116274   3.391   4.710   7.346 -0.5292  0.6065  0.5354
 1605SOL    HW216275   3.518   0.029   7.272  0.2288  0.6129  1.3110
 1606SOL     OW16276   3.417   1.374   5.891  0.9472  0.3668 -0.1064
 1606SOL    HW116277   3.462   1.337   5.966 -1.6480 -4.1323 -0.7555
 1606SOL    HW216278   3.437   1.467   5.905 -1.2582  0.9683 -0.8998
 1607SOL     OW16279   1.606   4.365   2.515  0.2296  0.3876 -0.2996
 1607SOL    HW116280   1.549   4.343   2.441 -1.0987  0.3764  0.7305
 1607SOL    HW216281   1.696   4.365   2.482  1.4404  0.9730  3.0025
 1608SOL     OW16282   0.908   0.438   5.370 -0.6377 -0.2860 -0.2928
 1608SOL    HW116283   0.943   0.417   5.284 -1.4397 -2.4356 -0.1062
 1608SOL    HW216284   0.966   0.500   5.414 -0.7377 -0.7120  0.4395
 1609SOL     OW16285   0.402   4.234   7.378 -0.0434  0.2965 -0.2318
 1609SOL    HW116286   0.355   4.306   7.420  1.2543 -0.0228  1.7728
 1609SOL    HW216287   0.330   4.220   7.316  0.7613 -0.3437 -1.0249
 1610SOL     OW16288   3.859   4.656  13.928  0.5603  0.2598 -0.2932
 1610SOL    HW116289   3.845   4.638  14.021 -2.3433  1.3351 -0.5018
 1610SOL    HW216290   3.953   4.646  13.915  0.2764  0.5697 -2.6409
 1611SOL     OW16291   2.905   4.369   4.470  0.7392 -0.1825 -0.2340
 1611SOL    HW116292   2.848   4.356   4.394 -0.9323  0.2706  0.9399
 1611SOL    HW216293   2.950   4.450   4.447  2.5174 -0.6329  1.6329
 1612SOL     OW16294   1.859   1.132  14.334 -0.2827  0.2126 -0.0607
 1612SOL    HW116295   1.900   1.118  14.420  1.2755  3.5713 -0.2539
 1612SOL    HW216296   1.920   1.080  14.283  1.3144  0.8941  1.1361
 1613SOL     OW16297   3.113   2.974   8.288 -0.2918 -0.2261  0.0860
 1613SOL    HW116298   3.159   2.903   8.243 -1.4430 -0.4335 -0.7365
 1613SOL    HW216299   3.130   2.936   8.375 -0.4434  1.5980  0.9185
 1614SOL     OW16300   4.324   0.752   7.889 -0.1817 -0.5053 -0.1374
 1614SOL    HW116301   4.263   0.692   7.931 -0.1150  1.2249  2.4823
 1614SOL    HW216302   4.322   0.815   7.962  1.5269  0.3586 -0.8235
 1615SOL     OW16303   3.702   2.874   6.763  0.6607  0.3949  0.0284
 1615SOL    HW116304   3.687   2.832   6.679 -0.8182  0.4295  0.2888
 1615SOL    HW216305   3.777   2.820   6.790  0.8512 -0.5022 -2.2768
 1616SOL     OW16306   0.518   3.328   8.162  0.4869  0.1316  0.2031
 1616SOL    HW116307   0.540   3.349   8.252  0.3409  0.9716  0.0398
 1616SOL    HW216308   0.588   3.381   8.124 -0.1781  1.1855  0.4592
 1617SOL     OW16309   3.223   1.902   5.356 -0.0863  0.5519  0.0848
 1617SOL    HW116310   3.179   1.818   5.373  0.7361  0.4744  1.8605
 1617SOL    HW216311   3.142   1.953   5.360 -0.2739  0.0820  2.6460
 1618SOL     OW16312   3.192   2.044   2.106  0.2974  0.0147  0.3873
 1618SOL    HW116313   3.273   2.087   2.133  1.0732  0.4921 -2.6076
 1618SOL    HW216314   3.224   1.965   2.062 -0.6219 -0.0906 -0.0890
 1619SOL     OW16315   3.730   3.303   2.749 -0.1869 -0.0983 -0.0226
 1619SOL    HW116316   3.697   3.339   2.667 -2.1373  2.3396  1.8228
 1619SOL    HW216317   3.821   3.276   2.733  0.2976 -0.1989  2.8205
 1620SOL     OW16318   0.495   0.997   6.153  0.2271  0.2553 -0.0298
 1620SOL    HW116319   0.558   0.931   6.183 -0.5631 -0.3285  0.3514
 1620SOL    HW216320   0.458   1.028   6.236  1.6465 -2.3202  1.5911
 1621SOL     OW16321   3.293   1.180   5.302 -0.2734  0.5270  0.3098
 1621SOL    HW116322   3.368   1.237   5.287 -0.8096  1.6020  1.7650
 1621SOL    HW216323   3.224   1.238   5.336 -0.1396  0.5612  0.5226
 1622SOL     OW16324   1.148   2.204  13.114  0.1044  0.0379  0.2991
 1622SOL    HW116325   1.240   2.185  13.127 -0.0168 -0.2466  0.7477
 1622SOL    HW216326   1.140   2.280  13.057 -0.5865  1.1639  1.8973
 1623SOL     OW16327   3.973   4.430   4.771  0.1550  0.0278  0.1420
 1623SOL    HW116328   3.921   4.427   4.851  2.8207 -0.3050  1.8532
 1623SOL    HW216329   4.042   4.369   4.795 -0.4961 -0.6858  0.1758
 1624SOL     OW16330   0.031   0.835   5.858 -0.1544 -0.1361  0.2581
 1624SOL    HW116331   4.665   0.825   5.882  0.4583 -0.9561  2.2481
 1624SOL    HW216332   0.043   0.924   5.891 -0.1487 -0.9552  2.4548
 1625SOL     OW16333   1.499   4.203   4.695 -0.5312  0.3476  0.7564
 1625SOL    HW116334   1.406   4.202   4.674 -0.3089 -0.6156 -0.2158
 1625SOL    HW216335   1.522   4.114   4.723  0.1221  0.0129 -0.8095
 1626SOL     OW16336   1.041   4.359  14.016 -0.2035  0.0789 -0.3498
 1626SOL    HW116337   1.098   4.377  14.090 -1.9324  1.3369  0.7030
 1626SOL    HW216338   0.960   4.364  14.067  0.9853 -1.2591  1.6541
 1627SOL     OW16339   0.154   2.895   5.746  0.5349 -0.9688 -0.2584
 1627SOL    HW116340   0.198   2.970   5.706  1.9387 -2.0755 -0.8004
 1627SOL    HW216341   0.148   2.928   5.835  0.7075  1.1537 -1.0224
 1628SOL     OW16342   3.693   2.027   2.654  0.6908 -0.2435 -0.2329
 1628SOL    HW116343   3.732   2.007   2.739  2.0384 -3.6106 -1.6671
 1628SOL    HW216344   3.696   1.937   2.623  1.8649 -0.2270 -0.1620
 1629SOL     OW16345   3.421   1.225   9.629 -0.1699  0.6786  0.2662
 1629SOL    HW116346   3.330   1.204   9.646  0.2806 -2.2881 -0.9885
 1629SOL    HW216347   3.435   1.296   9.692  0.0903 -0.7806  1.8580
 1630SOL     OW16348   1.175   1.673  11.945  0.0483  0.0917 -0.4964
 1630SOL    HW116349   1.206   1.749  11.896  0.4881  0.4719  0.3626
 1630SOL    HW216350   1.151   1.625  11.866 -0.9618  0.0256 -0.1517
 1631SOL     OW16351   4.451   0.825  16.793 -0.9625  0.0239 -0.2359
 1631SOL    HW116352   4.361   0.805  16.821 -1.4980  2.0381 -0.4778
 1631SOL    HW216353   4.442   0.887  16.720 -0.6335  0.4784  0.1093
 1632SOL     OW16354   3.812   4.498  15.994 -0.4129  0.3437 -0.6037
 1632SOL    HW116355   3.877   4.568  16.001 -1.1904  1.0051 -0.0293
 1632SOL    HW216356   3.737   4.551  15.968 -0.7368 -0.1607 -0.7043
 1633SOL     OW16357   3.319   1.619   5.122  0.1840 -0.5893 -0.4526
 1633SOL    HW116358   3.243   1.596   5.176 -0.8466  0.9527 -1.2637
 1633SOL    HW216359   3.380   1.644   5.191 -1.7078  4.1345 -0.5333
 1634SOL     OW16360   4.670   0.248  10.066 -0.1041  0.7696  0.4925
 1634SOL    HW116361   4.652   0.222  10.157 -0.9868  0.1186  0.1342
 1634SOL    HW216362   0.018   0.308  10.077 -0.2856  1.1871 -0.5798
 1635SOL     OW16363   3.052   0.754   6.590 -0.7111 -0.7859 -0.0046
 1635SOL    HW116364   3.002   0.695   6.647 -1.6842 -1.0882 -1.1682
 1635SOL    HW216365   2.984   0.765   6.524  0.5690  0.4558 -1.1169
 1636SOL     OW16366   1.979   3.004   1.567  0.3326 -0.1687  0.0718
 1636SOL    HW116367   1.988   2.942   1.494 -1.0692 -2.6136  1.9670
 1636SOL    HW216368   1.917   3.069   1.535  1.5778  1.3826  0.7812
 1637SOL     OW16369   3.652   0.630  15.483  0.2995 -0.1026 -0.2619
 1637SOL    HW116370   3.684   0.557  15.430 -1.1432  0.6611 -2.1968
 1637SOL    HW216371   3.598   0.677  15.419  0.8757  0.1169 -0.5821
 1638SOL     OW16372   0.155   4.181   6.809 -0.2228 -0.4108 -0.1662
 1638SOL    HW116373   0.236   4.151   6.767  0.2589 -0.3724  0.7344
 1638SOL    HW216374   0.117   4.222   6.731  0.3143 -1.1707 -0.8265
 1639SOL     OW16375   4.458   2.575  13.574  0.5838  0.3005 -0.0782
 1639SOL    HW116376   4.483   2.490  13.539  0.4248 -0.4380  1.6409
 1639SOL    HW216377   4.544   2.614  13.590  1.3687 -0.7759 -1.6377
 1640SOL     OW16378   3.650   1.911   0.781  0.0329 -0.0920  0.2408
 1640SOL    HW116379   3.676   1.837   0.727 -2.2456 -0.9166  0.2641
 1640SOL    HW216380   3.707   1.980   0.746 -1.7733  0.4608 -1.6757
 1641SOL     OW16381   1.906   2.813  12.425  0.1172  0.4615 -0.3160
 1641SOL    HW116382   1.824   2.860  12.410 -0.1457  0.1249  0.0479
 1641SOL    HW216383   1.954   2.802  12.343  2.4733 -0.6223  1.1833
 1642SOL     OW16384   1.650   2.396   5.222  0.0512 -0.5304  0.3968
 1642SOL    HW116385   1.579   2.346   5.262 -1.8769  1.4521 -0.5771
 1642SOL    HW216386   1.715   2.327   5.205  0.4723 -0.0614  0.0936
 1643SOL     OW16387   4.641   3.600   2.629  0.1412  0.5641  0.1014
 1643SOL    HW116388   4.691   3.558   2.559 -1.2762 -2.7178  1.0287
 1643SOL    HW216389   4.584   3.529   2.660  0.3718 -0.1740 -1.1474
 1644SOL     OW16390   1.318   3.199   4.697 -0.0459  0.1689  0.4122
 1644SOL    HW116391   1.369   3.213   4.776  1.2031 -1.5234 -0.0815
 1644SOL    HW216392   1.249   3.137   4.720 -0.9934  1.1568  0.1950
 1645SOL     OW16393   0.697   4.093   5.236  0.5263  0.6116  0.6145
 1645SOL    HW116394   0.710   3.998   5.242 -0.5824  0.4723  0.8672
 1645SOL    HW216395   0.602   4.089   5.245  0.3123  0.3015 -1.7966
 1646SOL     OW16396   3.485   0.871   7.598 -0.2235  0.1841  0.3999
 1646SOL    HW116397   3.526   0.857   7.683 -1.0948  1.7340  1.0749
 1646SOL    HW216398   3.416   0.933   7.622 -0.3068  0.0763  0.4362
 1647SOL     OW16399   0.923   3.378   3.463  0.2796  0.0060 -0.0886
 1647SOL    HW116400   0.990   3.418   3.518 -0.5028 -0.4657  1.2090
 1647SOL    HW216401   0.989   3.366   3.395 -0.0411  0.3085 -0.4520
 1648SOL     OW16402   2.811   0.615   2.424 -0.1069 -0.3411 -0.1358
 1648SOL    HW116403   2.755   0.684   2.388 -0.2206 -0.2933  0.1328
 1648SOL    HW216404   2.895   0.630   2.381  0.3158 -0.8955  0.4998
 1649SOL     OW16405   1.588   0.919  10.839  0.3977 -0.4140 -0.2896
 1649SOL    HW116406   1.638   0.837  10.834 -1.0617 -1.4097  1.0750
 1649SOL    HW216407   1.500   0.882  10.826  1.3381 -2.5455 -0.5606
 1650SOL     OW16408   1.026   2.373   8.448  0.1153 -0.7602  0.4090
 1650SOL    HW116409   1.049   2.399   8.537 -1.9762 -1.1770  1.0696
 1650SOL    HW216410   0.930   2.376   8.457  0.1384 -2.8522  1.2360
 1651SOL     OW16411   0.091   2.717   8.281  0.0497  0.0735  0.0426
 1651SOL    HW116412   0.032   2.643   8.301 -0.5178  1.0164  1.8434
 1651SOL    HW216413   0.038   2.775   8.336  0.7193  1.1280 -0.4364
 1652SOL     OW16414   0.058   2.359   2.503  0.9882 -0.1939  0.0382
 1652SOL    HW116415   0.151   2.379   2.500  1.4711 -2.1147  1.7783
 1652SOL    HW216416   0.040   2.334   2.412  2.7789 -0.6714 -0.1745
 1653SOL     OW16417   0.147   4.346   0.437  0.2098 -0.5101 -0.3797
 1653SOL    HW116418   0.085   4.276   0.456 -0.0879 -0.3158 -0.6317
 1653SOL    HW216419   0.096   4.427   0.443 -0.3775 -0.7573 -1.8861
 1654SOL     OW16420   3.703   1.373   6.412  0.2211 -0.0800  0.7070
 1654SOL    HW116421   3.697   1.298   6.472  0.8944  0.9542  2.0508
 1654SOL    HW216422   3.614   1.398   6.389 -0.1253  0.3085  2.4748
 1655SOL     OW16423   0.588   1.306   7.435  0.2226  0.0023  0.4106
 1655SOL    HW116424   0.530   1.258   7.376  1.7900  0.1661 -1.2609
 1655SOL    HW216425   0.631   1.235   7.482 -0.4969  0.1521  1.3015
 1656SOL     OW16426   3.218   0.276   2.017 -0.4164 -0.2236  0.1763
 1656SOL    HW116427   3.290   0.269   2.080  0.2696  0.9734 -0.4717
 1656SOL    HW216428   3.168   0.196   2.033 -0.3194 -0.2224  0.4921
 1657SOL     OW16429   3.575   0.058  14.918 -0.1431 -0.6524  0.4834
 1657SOL    HW116430   3.521   0.106  14.854 -2.9339 -2.8266  1.1846
 1657SOL    HW216431   3.643   0.044  14.852  0.4592  1.1498  0.7312
 1658SOL     OW16432   3.059   0.784   9.969  0.2589 -0.1287 -0.1620
 1658SOL    HW116433   2.985   0.826  10.012 -0.2488 -1.6413  0.4389
 1658SOL    HW216434   3.018   0.701   9.945  1.9990 -0.4146 -2.1868
 1659SOL     OW16435   3.172   4.143   7.850  0.1442 -0.0710 -0.0791
 1659SOL    HW116436   3.235   4.200   7.807  1.7153 -0.6708  1.3998
 1659SOL    HW216437   3.093   4.146   7.797 -0.3600  0.1058  0.6758
 1660SOL     OW16438   2.828   2.865  16.211  0.4357  0.4044 -0.1466
 1660SOL    HW116439   2.888   2.796  16.183 -0.0010  1.1099 -2.7612
 1660SOL    HW216440   2.744   2.824  16.231  0.1886  0.7245 -0.5364
 1661SOL     OW16441   1.730   1.850   4.579  0.1568  0.4565  0.0291
 1661SOL    HW116442   1.647   1.883   4.614  0.2448  0.8602 -0.1414
 1661SOL    HW216443   1.686   1.789   4.520  1.2424 -1.9021  1.6178
 1662SOL     OW16444   1.325   3.910  15.806 -0.4260 -0.1016  0.6361
 1662SOL    HW116445   1.385   3.880  15.875 -0.6059 -0.8477  0.4646
 1662SOL    HW216446   1.368   3.992  15.780 -0.9396 -0.5987 -1.7903
 1663SOL     OW16447   2.548   2.858   4.423 -1.0826 -0.0188  0.3229
 1663SOL    HW116448   2.507   2.871   4.508 -1.3483  1.1064  0.0203
 1663SOL    HW216449   2.640   2.875   4.446 -1.3868  2.5683 -0.3398
 1664SOL     OW16450   2.362   1.973  13.343 -0.5824  0.0215  0.0149
 1664SOL    HW116451   2.344   1.922  13.422 -0.2796 -0.1284 -0.0119
 1664SOL    HW216452   2.300   1.931  13.284  0.6889 -1.7906 -0.0165
 1665SOL     OW16453   2.152   4.447   7.523 -0.1120  0.4046 -0.9172
 1665SOL    HW116454   2.149   4.538   7.550 -1.5745 -0.1383  0.6771
 1665SOL    HW216455   2.190   4.418   7.606  1.0746  0.4167 -1.4434
 1666SOL     OW16456   4.629   3.509   1.722  0.4196  0.0072 -0.3934
 1666SOL    HW116457   4.707   3.562   1.706  0.2781 -0.0549 -1.2489
 1666SOL    HW216458   4.654   3.481   1.810  2.7153  0.2304 -0.9852
 1667SOL     OW16459   2.271   2.002   8.408  0.4256 -0.2311 -0.2124
 1667SOL    HW116460   2.283   2.048   8.325 -0.6855  1.0170  0.3244
 1667SOL    HW216461   2.354   2.023   8.452 -0.0457  0.9437  0.1212
 1668SOL     OW16462   0.506   1.654  15.139 -0.2305 -0.2269 -0.3620
 1668SOL    HW116463   0.491   1.723  15.203 -2.0756 -1.7602  0.8564
 1668SOL    HW216464   0.430   1.669  15.082 -0.8721 -1.4528  0.1702
 1669SOL     OW16465   2.732   2.285   5.339 -0.2353  0.2870 -0.1938
 1669SOL    HW116466   2.734   2.351   5.270 -0.6572 -1.0177 -1.4591
 1669SOL    HW216467   2.647   2.296   5.382 -0.4311 -0.9635 -0.2690
 1670SOL     OW16468   0.422   4.188   1.089 -0.1181 -0.0671 -0.0326
 1670SOL    HW116469   0.421   4.114   1.028 -2.4949 -0.5047  0.5318
 1670SOL    HW216470   0.384   4.260   1.037  1.1491  0.6004 -0.0358
 1671SOL     OW16471   1.343   3.927  12.161 -0.1795 -0.0473  0.2674
 1671SOL    HW116472   1.391   4.010  12.168 -0.2450 -0.1025  1.3424
 1671SOL    HW216473   1.410   3.864  12.186  0.9813  0.7147 -0.8794
 1672SOL     OW16474   4.527   1.152   5.336 -0.1525  0.1303 -0.4593
 1672SOL    HW116475   4.546   1.239   5.372 -1.3452  1.1990 -2.4292
 1672SOL    HW216476   4.562   1.098   5.408  1.6137 -2.1367 -3.0170
 1673SOL     OW16477   0.688   2.724   6.676  0.0325  0.4785  0.2552
 1673SOL    HW116478   0.692   2.718   6.580 -0.4226  0.5072  0.2346
 1673SOL    HW216479   0.672   2.818   6.682 -1.2139  0.1578  1.9244
 1674SOL     OW16480   1.001   2.314   5.956  0.4934  0.8893  0.1853
 1674SOL    HW116481   0.938   2.365   5.906  0.7800  0.4616 -0.6114
 1674SOL    HW216482   0.955   2.230   5.953  1.0628  0.7038 -3.0180
 1675SOL     OW16483   4.414   2.398   4.958 -1.2941  0.4453  0.0464
 1675SOL    HW116484   4.382   2.328   4.902 -0.1219  1.0382 -1.3626
 1675SOL    HW216485   4.402   2.476   4.904 -1.1233  0.8908  0.6467
 1676SOL     OW16486   3.827   1.703  14.090 -0.6719 -0.1972 -0.1618
 1676SOL    HW116487   3.786   1.757  14.158  1.8256  1.0397  0.3802
 1676SOL    HW216488   3.877   1.770  14.044  0.6770 -0.0647  1.4693
 1677SOL     OW16489   2.266   2.113   0.416  0.5475 -0.2698 -0.0799
 1677SOL    HW116490   2.278   2.175   0.488  1.8066 -1.3542  0.6414
 1677SOL    HW216491   2.191   2.150   0.369 -0.4449 -0.5838  1.2411
 1678SOL     OW16492   0.081   3.120   0.323  0.1024  0.3472 -0.2073
 1678SOL    HW116493   0.068   3.214   0.339 -1.3005 -0.2884  2.3813
 1678SOL    HW216494   0.141   3.101   0.394 -1.8317 -0.8460  1.1042
 1679SOL     OW16495   3.748   1.433   8.314  0.0411 -0.4874 -0.2609
 1679SOL    HW116496   3.800   1.472   8.384 -2.6101 -1.9346  2.4902
 1679SOL    HW216497   3.791   1.349   8.297  2.0460  0.6765 -0.9995
 1680SOL     OW16498   3.141   3.821  10.110 -0.2081 -0.2666 -0.1836
 1680SOL    HW116499   3.061   3.858  10.073  0.3652  2.2356  1.0734
 1680SOL    HW216500   3.194   3.900  10.097 -0.4666  0.1967  1.6050
 1681SOL     OW16501   0.139   4.665  14.888 -1.0422 -0.2984  0.7406
 1681SOL    HW116502   0.069   4.635  14.830 -0.2337  2.8191 -1.8462
 1681SOL    HW216503   0.168   4.583  14.929  0.2861 -0.7324 -1.0669
 1682SOL     OW16504   2.748   4.337   6.236 -0.1399 -0.8758 -0.0750
 1682SOL    HW116505   2.830   4.385   6.245 -0.7123  0.3297 -1.1975
 1682SOL    HW216506   2.772   4.248   6.259 -0.2339 -1.0411 -0.6160
 1683SOL     OW16507   4.207   0.261   6.375  0.0847 -0.7579 -0.1251
 1683SOL    HW116508   4.254   0.344   6.379 -0.2067 -0.6057  0.1377
 1683SOL    HW216509   4.214   0.225   6.464  1.4438  0.5611  0.3043
 1684SOL     OW16510   3.817   0.254   8.686 -0.1894 -0.1901 -0.1491
 1684SOL    HW116511   3.784   0.334   8.643  0.9102  0.2858 -0.1254
 1684SOL    HW216512   3.759   0.241   8.761  1.3441 -0.4201  0.9891
 1685SOL     OW16513   2.660   4.153   6.772 -0.6089  0.9562  0.4297
 1685SOL    HW116514   2.703   4.238   6.759 -0.5916  1.0428  1.0577
 1685SOL    HW216515   2.649   4.150   6.867  2.0706  1.4987  0.7736
 1686SOL     OW16516   2.056   2.139  10.109  0.3050  0.8747  0.0150
 1686SOL    HW116517   2.123   2.182  10.056  0.4565  0.0307 -0.4790
 1686SOL    HW216518   2.086   2.180  10.190 -1.3586  1.0096  0.5640
 1687SOL     OW16519   3.149   3.025   4.963  0.1256 -0.0752 -0.1012
 1687SOL    HW116520   3.115   2.943   5.001  2.7718  0.2312  2.9240
 1687SOL    HW216521   3.243   3.013   4.976 -0.3816 -1.8290  2.0311
 1688SOL     OW16522   1.222   4.201   0.998  0.4742  0.2066  0.7161
 1688SOL    HW116523   1.235   4.272   1.060  1.5201  0.4757  0.1804
 1688SOL    HW216524   1.153   4.150   1.042  0.0757 -1.0906 -1.3918
 1689SOL     OW16525   4.076   1.248   4.505  0.6822  0.2391 -0.3016
 1689SOL    HW116526   4.162   1.244   4.547  1.2180 -0.3192 -1.4589
 1689SOL    HW216527   4.023   1.289   4.574  0.5124 -2.4107  1.1587
 1690SOL     OW16528   0.316   1.079   9.558  0.2177  0.1072  0.2166
 1690SOL    HW116529   0.293   1.006   9.616 -0.8533 -0.7691 -1.3238
 1690SOL    HW216530   0.238   1.134   9.562 -0.5439 -0.8036 -2.1316
 1691SOL     OW16531   3.753   0.664   2.391 -0.0747  0.0399 -0.1015
 1691SOL    HW116532   3.828   0.673   2.332  0.3103  1.6531  0.6461
 1691SOL    HW216533   3.780   0.601   2.459  0.6609  2.1204  1.5291
 1692SOL     OW16534   0.202   0.599   1.129 -0.3624 -0.4525 -0.0837
 1692SOL    HW116535   0.185   0.585   1.222 -0.5769  0.4184  0.0006
 1692SOL    HW216536   0.274   0.662   1.125 -0.2854 -0.4859  0.9270
 1693SOL     OW16537   3.139   4.109  15.792  0.6498 -0.6162 -0.8646
 1693SOL    HW116538   3.188   4.141  15.716 -1.2977 -0.4769 -2.0696
 1693SOL    HW216539   3.136   4.016  15.768 -1.4755 -0.5730 -0.7150
 1694SOL     OW16540   0.351   1.473   8.500  0.3931 -0.3476  0.7331
 1694SOL    HW116541   0.324   1.415   8.572 -0.1719 -0.9344  0.0426
 1694SOL    HW216542   0.307   1.557   8.515 -1.2661 -1.3107  1.3071
 1695SOL     OW16543   0.661   1.567   2.240 -0.0338 -0.9479  0.1309
 1695SOL    HW116544   0.598   1.591   2.308 -1.0057  2.3204 -1.9468
 1695SOL    HW216545   0.600   1.530   2.177 -0.3222 -2.2060  1.1561
 1696SOL     OW16546   1.287   3.374   8.192  0.0317  0.2295  0.4076
 1696SOL    HW116547   1.324   3.342   8.110  0.3882 -0.8513  0.9858
 1696SOL    HW216548   1.328   3.305   8.244 -1.1372 -0.7755  0.0018
 1697SOL     OW16549   3.531   4.318  16.873  0.2513  0.0052  0.9998
 1697SOL    HW116550   3.513   4.339  16.781 -2.0686  0.6273  1.6065
 1697SOL    HW216551   3.518   4.403  16.915 -0.2285  1.0591 -1.2764
 1698SOL     OW16552   2.078   0.628   3.044 -0.0104 -0.1874  0.5141
 1698SOL    HW116553   2.091   0.566   3.116  2.9960  1.2641  1.2572
 1698SOL    HW216554   2.023   0.697   3.081 -1.2232  0.4801 -2.6027
 1699SOL     OW16555   4.048   2.303   2.140 -0.0385  0.4172  0.1232
 1699SOL    HW116556   4.109   2.371   2.170 -1.8161  1.8444  0.4983
 1699SOL    HW216557   4.051   2.245   2.216  1.6620  0.7961  0.3456
 1700SOL     OW16558   0.503   0.744   4.259  0.3031  0.1317  0.6352
 1700SOL    HW116559   0.524   0.832   4.290  1.9133  0.2921 -0.8864
 1700SOL    HW216560   0.586   0.724   4.215  0.8662 -0.3394  1.8991
 1701SOL     OW16561   1.096   0.856   9.611  0.1519 -0.2818  0.4568
 1701SOL    HW116562   1.180   0.901   9.626  0.8709 -0.1500 -3.9875
 1701SOL    HW216563   1.108   0.772   9.655  1.1475 -0.8056 -0.8079
 1702SOL     OW16564   3.683   2.294   8.099 -0.2100 -0.3703  0.3353
 1702SOL    HW116565   3.653   2.269   8.012 -0.7710 -1.8606  0.9511
 1702SOL    HW216566   3.698   2.386   8.079 -2.4487 -0.0257  0.3393
 1703SOL     OW16567   3.864   2.796   3.288 -0.8673 -0.2119 -0.0612
 1703SOL    HW116568   3.872   2.779   3.382  3.2388 -0.8669 -0.5277
 1703SOL    HW216569   3.946   2.841   3.270 -1.0093  0.0383 -0.0872
 1704SOL     OW16570   0.416   2.132  12.360  0.5889  0.1032 -0.0475
 1704SOL    HW116571   0.453   2.103  12.277  0.8436  2.0566 -0.6310
 1704SOL    HW216572   0.474   2.206  12.380  1.6455 -1.0813  1.2565
 1705SOL     OW16573   0.560   2.201   8.144  0.6431  0.1167  0.2800
 1705SOL    HW116574   0.548   2.225   8.052  1.1745 -0.6258  0.0179
 1705SOL    HW216575   0.652   2.221   8.160  0.0871  2.8585  0.1553
 1706SOL     OW16576   4.241   3.343   3.175 -0.7563 -0.2794 -0.6518
 1706SOL    HW116577   4.167   3.329   3.116 -0.0762  0.6751 -1.7297
 1706SOL    HW216578   4.265   3.252   3.193  2.5859  1.1957  2.3994
 1707SOL     OW16579   0.061   1.428  17.613 -0.2515 -0.1004 -0.0036
 1707SOL    HW116580   0.056   1.505  17.669 -0.3117  0.7061 -1.1149
 1707SOL    HW216581   0.059   1.476  17.530 -3.6056 -1.4288 -0.6878
 1708SOL     OW16582   3.706   0.711   8.096 -0.2720 -0.3037  0.0451
 1708SOL    HW116583   3.674   0.786   8.146  0.1155 -0.9153  1.1912
 1708SOL    HW216584   3.795   0.742   8.079 -1.0000  0.3500 -2.7128
 1709SOL     OW16585   2.991   4.665   4.785  0.0195  0.1236  0.0646
 1709SOL    HW116586   2.929   4.596   4.761  0.3367  0.0311 -0.4844
 1709SOL    HW216587   3.043   4.617   4.849 -1.1552  1.9528  2.3819
 1710SOL     OW16588   3.517   1.404   6.158 -0.0993 -0.2228  0.1259
 1710SOL    HW116589   3.540   1.496   6.168 -0.9050  0.1261 -1.1674
 1710SOL    HW216590   3.446   1.407   6.223  1.1767  0.3689  1.4925
 1711SOL     OW16591   0.445   0.988   2.357  0.4201  0.2721 -0.3051
 1711SOL    HW116592   0.419   0.923   2.292 -1.9788  1.8897 -0.9727
 1711SOL    HW216593   0.540   0.987   2.343  0.7619  2.6352  1.9750
 1712SOL     OW16594   1.483   3.189   3.976 -0.1036 -0.2833  0.1120
 1712SOL    HW116595   1.471   3.283   3.994  2.1722  0.1093 -0.5225
 1712SOL    HW216596   1.456   3.184   3.884  0.4874  0.4601 -0.1019
 1713SOL     OW16597   0.353   1.293   8.897 -0.1346 -0.3337  0.0698
 1713SOL    HW116598   0.281   1.284   8.834  0.7058  2.1641 -1.2575
 1713SOL    HW216599   0.430   1.300   8.841 -0.0929  1.3062  0.3160
 1714SOL     OW16600   0.103   4.330   3.860  0.2028 -0.5593 -0.4481
 1714SOL    HW116601   0.154   4.249   3.870 -0.3870 -1.0168 -1.1232
 1714SOL    HW216602   0.049   4.312   3.938 -1.5969  1.2562 -1.2833
 1715SOL     OW16603   1.598   2.948  16.020 -0.5456 -0.1396 -0.4170
 1715SOL    HW116604   1.677   2.895  16.032  1.1280  2.5448  0.4925
 1715SOL    HW216605   1.557   2.915  16.100  1.1817  1.2364  1.0313
 1716SOL     OW16606   0.972   0.359   0.977 -0.3673  0.1251  0.2526
 1716SOL    HW116607   0.977   0.314   1.062 -1.9866  1.1794  0.8971
 1716SOL    HW216608   1.016   0.443   0.992 -2.0595  0.8112  1.2951
 1717SOL     OW16609   0.362   3.129   4.883  0.4731  0.5228 -0.0167
 1717SOL    HW116610   0.296   3.158   4.821 -0.2519  3.3438  2.1035
 1717SOL    HW216611   0.424   3.194   4.851  0.9642  0.5861  1.0627
 1718SOL     OW16612   0.469   1.862   8.272  0.3373  0.0930 -0.2127
 1718SOL    HW116613   0.384   1.820   8.260  0.3181 -0.7053  2.5418
 1718SOL    HW216614   0.458   1.870   8.367 -0.0995  0.5497 -0.2995
 1719SOL     OW16615   0.304   1.643   7.775  0.2901  0.1078 -0.1342
 1719SOL    HW116616   0.303   1.574   7.841  2.3818  0.0118 -0.2136
 1719SOL    HW216617   0.370   1.606   7.717  2.4766  1.3717  1.5784
 1720SOL     OW16618   4.185   3.936   8.130 -0.0073  0.2782 -0.2731
 1720SOL    HW116619   4.207   3.975   8.215 -0.5226 -0.4690  0.1968
 1720SOL    HW216620   4.092   3.916   8.142  0.3758 -1.2293  0.1720
 1721SOL     OW16621   3.649   4.124   5.324 -0.2234 -0.1430 -0.6346
 1721SOL    HW116622   3.629   4.216   5.306  2.3478  0.2946 -1.2834
 1721SOL    HW216623   3.745   4.119   5.332 -0.2242 -1.0923 -1.1849
 1722SOL     OW16624   0.609   0.415   7.592 -0.8772 -0.2555 -0.5984
 1722SOL    HW116625   0.675   0.348   7.611 -0.2320  0.4469 -0.3578
 1722SOL    HW216626   0.659   0.496   7.599 -0.0562 -0.7229 -1.0676
 1723SOL     OW16627   3.787   3.371   8.374 -0.0758 -0.1144  0.3854
 1723SOL    HW116628   3.699   3.405   8.392 -0.3518  0.1863 -1.5681
 1723SOL    HW216629   3.796   3.326   8.458 -1.6495 -0.5965  0.2883
 1724SOL     OW16630   3.939   1.607   6.795 -0.0064  0.3340 -0.3059
 1724SOL    HW116631   3.908   1.600   6.704 -1.2307  0.1709  0.1138
 1724SOL    HW216632   3.975   1.696   6.802  1.7107 -0.0808 -3.9990
 1725SOL     OW16633   2.320   0.130   8.618 -0.4024 -0.1004 -0.2921
 1725SOL    HW116634   2.384   0.115   8.688 -1.1801  1.3286  0.7410
 1725SOL    HW216635   2.247   0.171   8.665 -2.3023 -1.7744 -1.8267
 1726SOL     OW16636   1.178   1.892   4.982 -0.2994 -0.3343  0.4452
 1726SOL    HW116637   1.126   1.967   4.954 -0.8662 -2.2007 -3.4258
 1726SOL    HW216638   1.257   1.941   5.006 -0.4143 -0.6302  1.4398
 1727SOL     OW16639   1.775   3.985   2.207  0.0963  0.0351 -0.1770
 1727SOL    HW116640   1.712   3.980   2.279  1.5946  0.8056  1.1775
 1727SOL    HW216641   1.713   4.011   2.139  0.8183 -0.8228 -1.1592
 1728SOL     OW16642   0.245   4.500  11.908  0.3102  0.3467  0.1257
 1728SOL    HW116643   0.196   4.540  11.980  0.9653 -1.4463  1.5405
 1728SOL    HW216644   0.297   4.435  11.954 -0.0031 -0.5389 -0.7693
 1729SOL     OW16645   2.039   2.297   7.048 -0.1656  0.1498  0.4576
 1729SOL    HW116646   1.998   2.212   7.034  1.5018 -0.4488 -0.7222
 1729SOL    HW216647   2.130   2.277   7.028 -0.2957  1.0094 -1.0427
 1730SOL     OW16648   0.384   3.434   6.890  0.1825  0.4695 -0.3349
 1730SOL    HW116649   0.364   3.349   6.928 -2.7154  1.0282 -0.6726
 1730SOL    HW216650   0.346   3.500   6.947 -1.6872 -0.8951 -0.0340
 1731SOL     OW16651   3.747   4.692   8.273  0.7023  0.2889  0.1172
 1731SOL    HW116652   3.749   0.029   8.201  0.3144 -0.6507 -0.7077
 1731SOL    HW216653   3.775   0.017   8.349  1.9566 -1.8807  1.1139
 1732SOL     OW16654   0.242   4.587   0.645  0.1674  0.3203  0.1461
 1732SOL    HW116655   0.281   4.500   0.638  1.0515  0.8618 -1.6171
 1732SOL    HW216656   0.264   4.591   0.738 -0.6033  2.4292  0.2331
 1733SOL     OW16657   2.028   2.283  13.560  0.2296 -0.3863 -0.2896
 1733SOL    HW116658   2.085   2.318  13.491 -2.4143  2.8614 -0.8420
 1733SOL    HW216659   1.948   2.331  13.536 -0.3098 -0.3580  1.5967
 1734SOL     OW16660   3.349   3.426   7.152 -0.0954 -0.0073 -0.2631
 1734SOL    HW116661   3.392   3.412   7.067  2.4384 -0.3056  1.0478
 1734SOL    HW216662   3.347   3.522   7.151 -0.2115 -0.0032  1.1748
 1735SOL     OW16663   2.223   2.660   4.433  0.1514 -0.1793  0.1619
 1735SOL    HW116664   2.301   2.620   4.395 -0.0215  0.6466 -1.0643
 1735SOL    HW216665   2.207   2.744   4.390 -0.6659 -1.7343 -2.5685
 1736SOL     OW16666   1.071   0.128   7.746  0.3577 -0.0954 -0.0171
 1736SOL    HW116667   1.008   0.172   7.689 -1.5918 -0.8896  1.5335
 1736SOL    HW216668   1.087   0.047   7.697 -1.8292  0.8633 -2.3667
 1737SOL     OW16669   3.331   1.381   7.096  0.6487 -0.2509  0.4793
 1737SOL    HW116670   3.322   1.440   7.171 -0.5040  0.1006  0.0628
 1737SOL    HW216671   3.379   1.306   7.133  0.4434 -1.3527 -1.4645
 1738SOL     OW16672   1.472   1.277  10.900  0.1759  0.2035  0.3695
 1738SOL    HW116673   1.504   1.360  10.866 -2.2911  1.0972  0.2699
 1738SOL    HW216674   1.467   1.225  10.819 -2.1269 -0.3797  0.8950
 1739SOL     OW16675   3.788   0.671  13.676 -0.0371  0.0944  0.0847
 1739SOL    HW116676   3.728   0.598  13.692 -1.5602  0.4969 -3.7459
 1739SOL    HW216677   3.810   0.680  13.768  0.0499  0.2857  0.0466
 1740SOL     OW16678   0.530   0.956   7.054  0.0866 -0.2384 -0.0563
 1740SOL    HW116679   0.557   0.949   6.962  3.2925  0.3333  0.8377
 1740SOL    HW216680   0.489   1.042   7.052 -1.1233 -0.8120  0.5454
 1741SOL     OW16681   2.130   3.433   5.507  0.3795 -0.1996  0.0071
 1741SOL    HW116682   2.125   3.452   5.601 -0.7234  0.3389 -0.1604
 1741SOL    HW216683   2.049   3.383   5.496  0.2494 -0.1582  0.7534
 1742SOL     OW16684   2.599   2.724   2.608 -1.2644  0.4301  0.3062
 1742SOL    HW116685   2.531   2.785   2.582 -1.2903  0.9523  1.5605
 1742SOL    HW216686   2.608   2.751   2.700  1.0272 -1.0346  0.5178
 1743SOL     OW16687   3.002   4.176   4.601 -0.3505  0.1248  0.3669
 1743SOL    HW116688   2.978   4.263   4.570 -0.9321  0.6294  2.1878
 1743SOL    HW216689   3.006   4.119   4.525 -3.1888  1.4858 -0.8046
 1744SOL     OW16690   0.460   1.613   6.049  0.0395  0.3775  0.3697
 1744SOL    HW116691   0.501   1.697   6.067 -0.0126  0.9716 -2.2435
 1744SOL    HW216692   0.390   1.606   6.113  0.3615  1.7243  0.8646
 1745SOL     OW16693   0.677   1.249   0.059  0.2887 -0.3292 -0.5093
 1745SOL    HW116694   0.758   1.199   0.050  1.4983  1.6929 -0.6519
 1745SOL    HW216695   0.666   1.275   0.150  0.5669 -2.2597  0.0708
 1746SOL     OW16696   3.856   0.925   8.953  0.0835  0.3817  0.6069
 1746SOL    HW116697   3.896   0.909   8.868  0.1948  1.8697  0.3812
 1746SOL    HW216698   3.865   1.020   8.967 -0.1427  0.5366 -0.3149
 1747SOL     OW16699   2.042   3.733   5.268 -0.1370 -0.4652  0.0045
 1747SOL    HW116700   2.096   3.737   5.347  0.8260  1.6249 -0.7673
 1747SOL    HW216701   2.076   3.802   5.211 -3.1506  1.7862  0.9000
 1748SOL     OW16702   3.855   3.776   2.247  0.1624 -0.4021  0.4572
 1748SOL    HW116703   3.774   3.750   2.291 -1.1536  0.8991 -1.2168
 1748SOL    HW216704   3.819   3.843   2.189  1.3798 -0.1692 -0.0321
 1749SOL     OW16705   0.372   1.638   0.852 -0.5504 -0.3338  0.2928
 1749SOL    HW116706   0.294   1.596   0.817  0.2017 -0.4230 -1.2967
 1749SOL    HW216707   0.395   1.696   0.779 -0.3727  0.8854  1.3104
 1750SOL     OW16708   1.489   4.164  12.318  0.2971 -0.5451  0.0433
 1750SOL    HW116709   1.500   4.238  12.378 -0.5031 -1.1037  0.8938
 1750SOL    HW216710   1.566   4.111  12.336 -1.0459 -2.6327 -0.4624
 1751SOL     OW16711   1.175   2.911   5.555 -0.1458 -0.0413  0.0573
 1751SOL    HW116712   1.118   2.903   5.478  0.1659  0.4228 -0.2173
 1751SOL    HW216713   1.262   2.903   5.517  0.6997  0.7786  1.8074
 1752SOL     OW16714   1.648   0.499  14.545  0.1608  0.3079 -0.3015
 1752SOL    HW116715   1.618   0.501  14.636  1.4454 -3.0303  0.2101
 1752SOL    HW216716   1.574   0.526  14.491 -0.4019 -0.0012  0.3184
 1753SOL     OW16717   0.191   2.442   4.885 -0.2981 -0.6553 -0.5082
 1753SOL    HW116718   0.108   2.401   4.907 -0.7622  0.2001 -0.6738
 1753SOL    HW216719   0.258   2.380   4.915 -0.3778 -0.0528  0.9002
 1754SOL     OW16720   1.118   3.636   5.534  0.5158  0.0767  0.5980
 1754SOL    HW116721   1.118   3.663   5.443 -1.1059  0.0061  0.5687
 1754SOL    HW216722   1.042   3.577   5.534 -0.3124  1.1592  2.6535
 1755SOL     OW16723   3.061   1.402   6.787 -0.0654  0.2958 -0.3809
 1755SOL    HW116724   3.034   1.428   6.698  0.2707  1.2752 -0.1929
 1755SOL    HW216725   3.146   1.361   6.770  0.3949  0.5562  1.3837
 1756SOL     OW16726   0.507   4.180   0.768 -0.2247 -0.4955  0.0223
 1756SOL    HW116727   0.487   4.250   0.831 -0.5732 -0.0878 -0.5288
 1756SOL    HW216728   0.466   4.224   0.693  1.0812 -1.1197 -1.0601
 1757SOL     OW16729   3.048   0.787   0.416 -0.2314 -0.1694 -0.1257
 1757SOL    HW116730   2.997   0.866   0.401 -0.6575 -0.3746  0.2330
 1757SOL    HW216731   3.024   0.772   0.507 -0.5809 -0.6328 -0.2910
 1758SOL     OW16732   1.584   1.618   6.295 -0.0672 -0.3056 -0.5362
 1758SOL    HW116733   1.601   1.623   6.201 -0.3278 -1.5341 -0.6422
 1758SOL    HW216734   1.489   1.617   6.305 -0.0140  0.4723  0.0976
 1759SOL     OW16735   3.846   3.477   4.898  0.0918  0.0917 -0.4870
 1759SOL    HW116736   3.757   3.471   4.933  0.0926 -0.9556 -0.6471
 1759SOL    HW216737   3.891   3.395   4.918  1.7159  0.1920 -3.6327
 1760SOL     OW16738   1.510   2.162   7.977 -0.2712 -0.4001 -0.4514
 1760SOL    HW116739   1.429   2.112   7.980  0.6161 -1.8998 -1.3630
 1760SOL    HW216740   1.545   2.136   8.062  0.6781 -1.5665 -1.2016
 1761SOL     OW16741   3.274   1.755  15.609  0.0503  0.5535 -0.6180
 1761SOL    HW116742   3.324   1.703  15.546 -1.1022 -0.7159 -0.4984
 1761SOL    HW216743   3.322   1.837  15.609  0.8944  0.0561  0.1824
 1762SOL     OW16744   1.151   2.410   9.051 -0.3735 -0.2364  0.0019
 1762SOL    HW116745   1.071   2.416   9.103  0.0247  0.8619  0.4820
 1762SOL    HW216746   1.118   2.388   8.964 -0.0553 -0.3686 -0.0831
 1763SOL     OW16747   0.244   3.582   6.156 -0.6663  0.1587  0.5291
 1763SOL    HW116748   0.227   3.652   6.219 -0.3215 -0.1919  1.0188
 1763SOL    HW216749   0.177   3.521   6.187 -1.3692  0.6197 -0.0823
 1764SOL     OW16750   1.482   3.247   2.310 -0.4514 -0.5516  0.1338
 1764SOL    HW116751   1.560   3.221   2.359  1.4327 -0.1918 -2.6916
 1764SOL    HW216752   1.525   3.303   2.245 -0.3941  0.0159  0.6633
 1765SOL     OW16753   0.357   2.117  11.222  0.3612 -0.1712 -0.1925
 1765SOL    HW116754   0.441   2.103  11.265 -0.1995  1.0484  1.2721
 1765SOL    HW216755   0.301   2.146  11.294 -2.1124  0.2446 -2.2821
 1766SOL     OW16756   2.048   3.038   8.303 -0.3220 -0.0710 -0.1655
 1766SOL    HW116757   2.077   2.953   8.335 -0.3077 -0.1622 -0.4235
 1766SOL    HW216758   2.076   3.096   8.374 -0.2768  0.6504 -0.7689
 1767SOL     OW16759   1.402   3.973  16.991  1.2372  0.7814  0.5438
 1767SOL    HW116760   1.401   3.896  16.933 -0.9169  1.1808  0.0227
 1767SOL    HW216761   1.492   3.980  17.021  1.4367  1.4221 -0.2102
 1768SOL     OW16762   4.384   3.706   9.307 -0.9972 -0.2212  0.1032
 1768SOL    HW116763   4.386   3.611   9.315 -1.7637 -0.1455  1.1970
 1768SOL    HW216764   4.435   3.712   9.226 -0.3168 -2.0909  0.4163
 1769SOL     OW16765   1.169   2.929   7.584 -0.1804 -0.1742  0.5033
 1769SOL    HW116766   1.248   2.982   7.590  0.8421 -1.3500 -2.7451
 1769SOL    HW216767   1.205   2.840   7.584  1.2209  0.3982  0.8738
 1770SOL     OW16768   0.251   3.345  12.891 -0.0595 -0.2393  0.6935
 1770SOL    HW116769   0.254   3.252  12.915  3.1588 -0.3225 -0.0949
 1770SOL    HW216770   0.320   3.375  12.950  0.6456  1.2539 -0.9037
 1771SOL     OW16771   3.745   3.796   6.787 -0.2843 -0.1083 -0.1210
 1771SOL    HW116772   3.696   3.774   6.866  1.1365 -1.6223  0.3511
 1771SOL    HW216773   3.728   3.711   6.745  0.2912 -0.5343  0.5112
 1772SOL     OW16774   0.613   3.526   1.961 -0.6472 -1.4377  0.3458
 1772SOL    HW116775   0.588   3.609   2.003 -0.1531 -2.0143  1.7789
 1772SOL    HW216776   0.527   3.488   1.942 -0.1424 -2.7132  0.6791
 1773SOL     OW16777   1.076   1.010   3.542 -0.1935 -0.0562  0.6880
 1773SOL    HW116778   1.141   0.940   3.533 -0.2447  0.2734 -2.1627
 1773SOL    HW216779   1.049   1.015   3.451  1.2324 -0.9228  0.2202
 1774SOL     OW16780   1.241   4.444   2.433 -0.6258  0.2023 -0.2498
 1774SOL    HW116781   1.257   4.401   2.517  0.1321  1.0140  0.0271
 1774SOL    HW216782   1.295   4.523   2.443 -0.4486 -0.0786  0.9580
 1775SOL     OW16783   3.849   3.430   6.856  0.1356 -0.1421 -0.3697
 1775SOL    HW116784   3.828   3.491   6.927 -1.6082 -1.0741 -0.0769
 1775SOL    HW216785   3.944   3.435   6.864  0.1800 -3.7093  1.4289
 1776SOL     OW16786   2.724   4.700   2.220  0.2669 -0.6447  0.5910
 1776SOL    HW116787   2.712   0.042   2.286  0.1506  0.8578 -0.9889
 1776SOL    HW216788   2.651   4.712   2.159  1.7314  2.0616 -0.6206
 1777SOL     OW16789   4.077   2.355   7.305  0.2509  0.5883 -0.2181
 1777SOL    HW116790   4.159   2.336   7.351  0.1409 -0.7672 -0.5646
 1777SOL    HW216791   4.102   2.440   7.271  0.2857  0.7230  0.1491
 1778SOL     OW16792   4.588   0.373   2.635 -0.1402  0.0470  0.1317
 1778SOL    HW116793   4.668   0.402   2.678 -1.0275  0.1207  1.7356
 1778SOL    HW216794   4.595   0.279   2.653 -1.9290  0.0473  0.8580
 1779SOL     OW16795   2.486   3.192   4.418 -0.1670  0.0046 -0.0169
 1779SOL    HW116796   2.573   3.227   4.437  0.3003 -0.7564 -0.7626
 1779SOL    HW216797   2.510   3.119   4.361 -1.4441 -0.8808  0.5620
 1780SOL     OW16798   2.244   4.183   3.751 -0.8411 -0.0312  0.8681
 1780SOL    HW116799   2.236   4.275   3.777  3.3911  0.5493  0.0924
 1780SOL    HW216800   2.313   4.175   3.685 -0.8645 -0.6347  0.9147
 1781SOL     OW16801   3.620   0.052   4.053  0.4001 -0.0808  0.3458
 1781SOL    HW116802   3.622   0.116   3.983 -2.5662 -0.3942 -0.0075
 1781SOL    HW216803   3.712   0.059   4.080  0.7772 -0.3966 -0.8600
 1782SOL     OW16804   1.618   1.805   9.566 -0.3841 -0.1849 -0.3896
 1782SOL    HW116805   1.607   1.798   9.471  1.0093  2.1976 -0.7265
 1782SOL    HW216806   1.710   1.781   9.575  0.3071  2.0789 -1.3486
 1783SOL     OW16807   4.591   2.084   7.052  0.8103 -0.3002 -0.1189
 1783SOL    HW116808   4.639   2.069   7.134  1.7415  2.1624 -0.2203
 1783SOL    HW216809   4.498   2.088   7.075  1.1285  5.0982  0.3204
 1784SOL     OW16810   0.163   2.486   1.810 -0.6718  0.0804 -0.3713
 1784SOL    HW116811   0.197   2.439   1.886  0.3504  0.1594 -0.7805
 1784SOL    HW216812   0.228   2.445   1.753  1.8489  4.0882 -0.3935
 1785SOL     OW16813   2.649   4.208   8.366  0.9681  0.1863  0.1731
 1785SOL    HW116814   2.626   4.228   8.275  2.4814  2.1320  0.2262
 1785SOL    HW216815   2.569   4.230   8.415  0.5086 -2.4797  0.5908
 1786SOL     OW16816   1.746   1.419   9.040 -0.0001  0.3775 -0.3646
 1786SOL    HW116817   1.704   1.454   9.119  1.5646  0.1890  0.5580
 1786SOL    HW216818   1.836   1.420   9.072 -0.0967 -0.2398 -0.0865
 1787SOL     OW16819   0.488   3.606   1.414  0.4990 -0.7417 -0.3702
 1787SOL    HW116820   0.471   3.539   1.348  2.2868 -2.3256  0.7591
 1787SOL    HW216821   0.436   3.682   1.387 -1.5051 -1.1627  2.3392
 1788SOL     OW16822   0.962   1.118   2.246 -0.2701  0.2417  0.1607
 1788SOL    HW116823   0.884   1.079   2.285  0.1902 -0.0570  0.7804
 1788SOL    HW216824   1.026   1.114   2.317 -0.8185 -3.4394  0.4633
 1789SOL     OW16825   2.788   0.518  16.170  0.1120  0.2675 -0.0231
 1789SOL    HW116826   2.708   0.555  16.207  0.3999 -1.0310  1.9314
 1789SOL    HW216827   2.788   0.439  16.225 -0.5928  0.5518  0.3785
 1790SOL     OW16828   4.255   2.950  11.800 -0.0051 -0.2120 -0.4129
 1790SOL    HW116829   4.263   2.895  11.878  1.4310  1.6597  0.7644
 1790SOL    HW216830   4.333   3.004  11.812 -1.2309  1.2207  1.1524
 1791SOL     OW16831   1.143   4.051  12.551 -0.5958  0.2631 -0.1849
 1791SOL    HW116832   1.049   4.033  12.559  0.0189 -2.3167  1.2853
 1791SOL    HW216833   1.174   4.116  12.614  1.4496  0.0733 -1.0163
 1792SOL     OW16834   0.018   3.616   9.157 -0.3349 -0.1914  0.2821
 1792SOL    HW116835   0.068   3.589   9.080 -0.9381  1.4424 -0.6732
 1792SOL    HW216836   4.674   3.550   9.153  0.7586 -1.2263 -1.5905
 1793SOL     OW16837   4.442   3.787   5.517 -0.6375  0.1131  0.4949
 1793SOL    HW116838   4.482   3.709   5.555 -0.5491 -0.5522 -0.9594
 1793SOL    HW216839   4.360   3.800   5.565  0.2732  1.9167  1.5389
 1794SOL     OW16840   4.509   3.927   1.853 -0.2310 -0.0072 -0.3693
 1794SOL    HW116841   4.566   3.982   1.799  0.2967 -0.4845 -0.2938
 1794SOL    HW216842   4.477   3.862   1.790 -2.7087  1.0462 -0.2047
 1795SOL     OW16843   4.640   4.689   4.998  0.0685 -0.2177  0.6486
 1795SOL    HW116844   4.645   4.695   5.093  0.8894 -0.4958  0.6268
 1795SOL    HW216845   4.593   4.606   4.994  1.9901 -1.2885 -0.0713
 1796SOL     OW16846   0.009   4.239   6.579  0.0497  0.3478 -0.4091
 1796SOL    HW116847   0.004   4.322   6.532 -0.4094  1.2692  1.2488
 1796SOL    HW216848   4.657   4.189   6.556 -0.8440  2.4716 -1.9872
 1797SOL     OW16849   3.361   2.941  16.131 -0.5680 -0.7129 -0.1293
 1797SOL    HW116850   3.317   3.000  16.193 -2.7397 -1.6029 -0.8095
 1797SOL    HW216851   3.427   2.893  16.179 -0.4293 -0.0480  0.3454
 1798SOL     OW16852   4.253   2.644   6.318 -0.0802 -0.1079 -0.2036
 1798SOL    HW116853   4.207   2.677   6.240  0.7087  1.0796 -0.1696
 1798SOL    HW216854   4.249   2.549   6.304  3.7987 -0.2918  0.0223
 1799SOL     OW16855   3.144   2.916  10.856  0.2246  0.2699 -0.6008
 1799SOL    HW116856   3.213   2.951  10.913 -0.6308 -0.9728  1.2135
 1799SOL    HW216857   3.160   2.965  10.776 -0.0760 -0.8278 -1.3327
 1800SOL     OW16858   0.948   1.104   5.352 -0.1350 -0.2708  0.1519
 1800SOL    HW116859   0.907   1.038   5.407 -1.4589  1.2897  1.0514
 1800SOL    HW216860   1.000   1.062   5.284 -0.0607 -0.9646  0.6436
 1801SOL     OW16861   1.203   3.719   8.113 -0.2258 -0.1716 -0.5271
 1801SOL    HW116862   1.250   3.661   8.053 -0.2808 -0.5585 -0.1923
 1801SOL    HW216863   1.128   3.744   8.059 -1.4417 -0.5914  1.0026
 1802SOL     OW16864   1.904   4.578   4.742  0.8062 -0.1637 -1.1290
 1802SOL    HW116865   1.986   4.549   4.702 -0.1696 -3.5576 -0.6510
 1802SOL    HW216866   1.845   4.510   4.711 -0.1942 -0.2531  0.9542
 1803SOL     OW16867   4.474   1.651   6.074 -0.6763  0.0557 -0.0864
 1803SOL    HW116868   4.423   1.571   6.061  2.2828 -1.5369 -1.9814
 1803SOL    HW216869   4.564   1.619   6.071 -0.6797  0.0233  0.1649
 1804SOL     OW16870   2.560   3.943   1.371  0.0799  0.5451 -0.3171
 1804SOL    HW116871   2.574   4.006   1.441 -2.2110  0.2052  0.4582
 1804SOL    HW216872   2.617   3.871   1.396  0.5330  0.7466 -0.7708
 1805SOL     OW16873   3.258   0.491   7.715  0.5891 -0.5672 -0.1626
 1805SOL    HW116874   3.316   0.533   7.651  0.7788  3.6214  2.7973
 1805SOL    HW216875   3.170   0.522   7.697  0.4075 -0.8280  0.2656
 1806SOL     OW16876   0.177   4.536   4.281  0.0819  0.1359  0.0748
 1806SOL    HW116877   0.207   4.595   4.212 -0.6245 -0.9847 -1.1862
 1806SOL    HW216878   0.221   4.457   4.248  3.2930  1.1931  1.7430
 1807SOL     OW16879   4.063   1.570   5.478  0.0563  0.1544 -0.3080
 1807SOL    HW116880   4.096   1.659   5.496 -0.8680  0.3847  0.2257
 1807SOL    HW216881   3.980   1.579   5.524  0.5046  1.5351  0.2329
 1808SOL     OW16882   3.007   0.425   4.214 -0.6909  0.3337  0.0245
 1808SOL    HW116883   3.101   0.418   4.194 -0.6028  1.1018  0.1574
 1808SOL    HW216884   2.967   0.434   4.127 -1.4284 -1.1773  0.2092
 1809SOL     OW16885   4.602   0.031   2.544  0.0200  0.3353 -0.2794
 1809SOL    HW116886   4.625   0.051   2.635 -1.3596  0.4485  0.0403
 1809SOL    HW216887   4.583   4.663   2.547 -0.3605  0.4654  1.1945
 1810SOL     OW16888   0.095   4.627   2.769  0.6057  0.3558 -0.1133
 1810SOL    HW116889   0.017   4.644   2.822  1.1272 -1.1276  1.1217
 1810SOL    HW216890   0.055   4.596   2.688 -1.3898  2.2903  0.1234
 1811SOL     OW16891   0.045   4.485   3.436  0.2724 -0.2113  0.2059
 1811SOL    HW116892   0.118   4.487   3.498  1.3724  0.0312 -1.1098
 1811SOL    HW216893   0.064   4.409   3.382 -0.9110 -0.5331  0.2435
 1812SOL     OW16894   3.919   1.934   7.517  0.6908  0.2193 -0.2506
 1812SOL    HW116895   4.004   1.942   7.560 -0.4143  0.7091  1.8484
 1812SOL    HW216896   3.932   1.849   7.474  1.0126  0.9679 -1.6150
 1813SOL     OW16897   3.119   1.431   3.890 -0.5111 -0.3856  0.2596
 1813SOL    HW116898   3.214   1.446   3.891 -0.7987  1.5169 -1.9034
 1813SOL    HW216899   3.086   1.478   3.967 -0.5355  1.2166 -0.7350
 1814SOL     OW16900   3.445   3.963  15.760  0.1448 -0.1384  0.1083
 1814SOL    HW116901   3.472   3.896  15.698 -0.9168 -0.2328 -0.2476
 1814SOL    HW216902   3.391   4.016  15.701  0.1409  0.0677  0.2956
 1815SOL     OW16903   1.318   0.237  15.160 -0.1444 -0.2227  0.1069
 1815SOL    HW116904   1.384   0.253  15.227 -0.8819 -1.5511  1.1516
 1815SOL    HW216905   1.309   0.324  15.123  2.1167 -0.7480 -1.6952
 1816SOL     OW16906   0.170   3.358   9.701 -0.5484  0.2314  0.9289
 1816SOL    HW116907   0.232   3.313   9.758 -0.4950 -0.8316  0.0365
 1816SOL    HW216908   0.090   3.305   9.707  1.6649 -3.3297 -1.0560
 1817SOL     OW16909   3.878   4.279  10.550 -0.6110  0.6108  0.4426
 1817SOL    HW116910   3.881   4.193  10.507 -2.3067 -0.5628  2.7075
 1817SOL    HW216911   3.784   4.269  10.566 -0.2481 -1.5567  1.1645
 1818SOL     OW16912   4.602   1.638   0.182 -0.0915 -0.3890 -0.3823
 1818SOL    HW116913   4.555   1.599   0.109 -1.8013  1.2539 -0.1752
 1818SOL    HW216914   4.645   1.562   0.222 -0.0634  0.4612  1.2328
 1819SOL     OW16915   0.324   2.683   9.040 -0.2278  0.3381  0.0027
 1819SOL    HW116916   0.414   2.654   9.052 -0.4360  0.2838  1.3954
 1819SOL    HW216917   0.324   2.696   8.945 -1.2341  0.4776  0.0188
 1820SOL     OW16918   0.288   2.139   7.506  0.1260 -0.5565  0.1282
 1820SOL    HW116919   0.262   2.058   7.462 -0.8510 -0.0081 -0.3164
 1820SOL    HW216920   0.350   2.112   7.574  0.3015  1.7563  0.8731
 1821SOL     OW16921   3.158   1.578  15.762 -0.2771 -0.6538  0.3255
 1821SOL    HW116922   3.208   1.645  15.715  0.8864 -0.7057  1.5062
 1821SOL    HW216923   3.151   1.511  15.695 -0.2536 -0.2321 -0.1003
 1822SOL     OW16924   3.673   3.234   1.194  0.3087 -0.2959 -0.2551
 1822SOL    HW116925   3.647   3.225   1.103  1.5618  0.9180 -0.7325
 1822SOL    HW216926   3.602   3.284   1.234  0.9319 -0.6389  1.3017
 1823SOL     OW16927   1.481   2.143  13.079  0.4249  0.2920 -0.2149
 1823SOL    HW116928   1.519   2.118  13.163  2.0428 -0.4352 -1.1674
 1823SOL    HW216929   1.554   2.131  13.019  1.2096 -0.1893  0.8248
 1824SOL     OW16930   0.783   4.343  11.682 -0.6021 -0.5411 -0.0889
 1824SOL    HW116931   0.819   4.429  11.702  0.2216 -0.5501 -1.5358
 1824SOL    HW216932   0.690   4.364  11.671  0.1770  1.3511 -3.1738
 1825SOL     OW16933   0.623   1.168   5.950  0.6077 -0.5008 -0.0605
 1825SOL    HW116934   0.586   1.080   5.954  0.5827 -0.5056 -0.4422
 1825SOL    HW216935   0.553   1.220   5.990  0.2147 -0.8800 -0.2574
 1826SOL     OW16936   2.157   4.586   4.923  0.6876  0.3626 -0.2970
 1826SOL    HW116937   2.233   4.641   4.907  2.5827 -1.8566  1.1552
 1826SOL    HW216938   2.125   4.562   4.836  0.3482 -0.7875  0.1423
 1827SOL     OW16939   0.837   4.143   3.110 -0.3114 -0.5896  0.1335
 1827SOL    HW116940   0.897   4.079   3.148 -0.9644  0.0646  2.2408
 1827SOL    HW216941   0.889   4.222   3.115  0.9650 -1.4626  0.5531
 1828SOL     OW16942   4.011   2.140   6.845  0.6024  0.3801  0.0298
 1828SOL    HW116943   3.999   2.220   6.896  1.1307  0.4818 -0.0030
 1828SOL    HW216944   3.946   2.140   6.775  1.1742  1.1412 -0.5144
 1829SOL     OW16945   1.685   1.691   7.481  0.4640  0.4091  0.2910
 1829SOL    HW116946   1.773   1.729   7.473 -0.2372  2.2280  1.2520
 1829SOL    HW216947   1.669   1.728   7.568 -0.5667 -1.5626  0.9348
 1830SOL     OW16948   0.327   1.345  17.677  0.1656 -0.3417  0.4770
 1830SOL    HW116949   0.233   1.356  17.662  0.5089 -0.0796 -1.4951
 1830SOL    HW216950   0.334   1.378   0.061  2.5070  2.1250 -0.6172
 1831SOL     OW16951   2.484   1.730   5.876  0.1475  0.6179 -0.8228
 1831SOL    HW116952   2.433   1.764   5.802 -1.4999 -1.0626 -0.4541
 1831SOL    HW216953   2.563   1.783   5.863 -0.3193  1.5050 -0.0344
 1832SOL     OW16954   2.956   0.361  14.489 -0.4141 -0.1403 -0.4916
 1832SOL    HW116955   2.993   0.396  14.570 -1.3113  0.5780 -0.3916
 1832SOL    HW216956   3.012   0.401  14.423 -0.7106  0.7175 -0.2200
 1833SOL     OW16957   4.225   1.622   7.845  0.4022  0.2327 -0.1472
 1833SOL    HW116958   4.285   1.690   7.815 -0.9147  2.5486  2.4495
 1833SOL    HW216959   4.214   1.638   7.938  4.7247 -0.9390  0.5885
 1834SOL     OW16960   0.193   1.452   2.734  0.4066  0.1939  0.1737
 1834SOL    HW116961   0.282   1.462   2.768  0.9630 -2.8345 -0.4186
 1834SOL    HW216962   0.153   1.527   2.778  2.7418 -0.8208  4.0795
 1835SOL     OW16963   0.482   1.357   4.217 -0.5152 -0.7879 -0.3116
 1835SOL    HW116964   0.441   1.334   4.301 -0.5650  0.0719 -0.1060
 1835SOL    HW216965   0.554   1.411   4.247 -0.8820 -1.3460  1.5553
 1836SOL     OW16966   2.510   1.361   1.917 -0.6334 -0.0587 -0.1935
 1836SOL    HW116967   2.497   1.266   1.922 -0.2300 -0.0082  1.7710
 1836SOL    HW216968   2.426   1.390   1.951 -0.1502 -0.3780  1.2703
 1837SOL     OW16969   1.168   0.938   7.655  0.5779 -0.4686  0.2547
 1837SOL    HW116970   1.244   0.997   7.655  0.0329  0.2172  1.5785
 1837SOL    HW216971   1.088   0.990   7.660  0.3120 -0.7445 -1.1560
 1838SOL     OW16972   1.122   4.318   0.097  0.1270  0.0079 -0.0322
 1838SOL    HW116973   1.186   4.255   0.130  1.1045  0.1688 -1.6595
 1838SOL    HW216974   1.114   4.307   0.003 -0.8928 -2.8607  0.3833
 1839SOL     OW16975   0.337   2.772  12.143  0.0911 -0.2409 -0.3274
 1839SOL    HW116976   0.352   2.865  12.157 -0.5258 -0.2595  0.3973
 1839SOL    HW216977   0.259   2.768  12.088  0.0432  2.1361 -0.4207
 1840SOL     OW16978   0.309   1.671   1.528 -0.1462  0.0567  0.3203
 1840SOL    HW116979   0.228   1.718   1.549 -1.6810 -1.7165 -1.6157
 1840SOL    HW216980   0.291   1.595   1.582  0.0473 -0.9766 -1.0687
 1841SOL     OW16981   2.562   1.541  16.295 -0.1264 -0.1392  0.2801
 1841SOL    HW116982   2.607   1.456  16.296 -1.0789 -0.6468 -2.7628
 1841SOL    HW216983   2.602   1.590  16.224  0.9309 -2.8925 -1.0348
 1842SOL     OW16984   3.681   1.159   6.737  0.3882 -0.2649 -0.0340
 1842SOL    HW116985   3.755   1.108   6.703 -0.1168 -1.2417  0.3307
 1842SOL    HW216986   3.601   1.128   6.695  0.4781  0.9734 -1.1441
 1843SOL     OW16987   1.681   0.620  12.906  0.4155 -0.1767 -0.1506
 1843SOL    HW116988   1.648   0.571  12.831  1.9575 -2.4394  0.6362
 1843SOL    HW216989   1.611   0.685  12.903  1.0147  0.5849  2.5006
 1844SOL     OW16990   1.794   2.553   3.432 -0.4374  0.2122 -0.1306
 1844SOL    HW116991   1.773   2.503   3.353  1.8859 -0.4779 -0.3091
 1844SOL    HW216992   1.713   2.604   3.437 -0.2428  0.2873  2.2551
 1845SOL     OW16993   2.416   1.581   6.695  0.2053  0.0170  0.7132
 1845SOL    HW116994   2.457   1.667   6.684  1.0437 -0.5163 -0.2894
 1845SOL    HW216995   2.373   1.575   6.610 -2.5831  1.9945  1.9751
 1846SOL     OW16996   1.630   3.685  12.616  0.0572 -0.4299 -0.0143
 1846SOL    HW116997   1.625   3.736  12.534  0.5349  0.6128  0.5981
 1846SOL    HW216998   1.544   3.646  12.607 -0.3035  0.8805 -2.3426
 1847SOL     OW16999   1.820   4.303   5.797 -0.3322  0.3693  0.1630
 1847SOL    HW117000   1.831   4.229   5.857 -0.0060 -0.3168 -0.7345
 1847SOL    HW217001   1.863   4.372   5.848  0.8011 -2.0245  2.4367
 1848SOL     OW17002   1.053   1.100   6.282  0.0014 -0.2083  0.1111
 1848SOL    HW117003   0.965   1.128   6.256 -0.6831 -1.3902  1.1380
 1848SOL    HW217004   1.031   1.037   6.351  1.5157 -1.7545 -0.8400
 1849SOL     OW17005   2.705   3.100   1.735 -0.2478  0.3734  0.0967
 1849SOL    HW117006   2.621   3.124   1.773 -0.0432  0.9761  0.1828
 1849SOL    HW217007   2.720   3.026   1.793 -0.4391  2.0942  2.3640
 1850SOL     OW17008   1.457   3.399  16.380 -0.2944  0.4557  0.0825
 1850SOL    HW117009   1.398   3.465  16.415 -1.7628  0.0659 -1.6436
 1850SOL    HW217010   1.533   3.456  16.369  0.9469 -1.1194  0.3304
 1851SOL     OW17011   4.601   3.293   1.563  0.3929  0.3632  0.2235
 1851SOL    HW117012   4.631   3.354   1.630 -1.8280  0.7253  0.8704
 1851SOL    HW217013   4.557   3.230   1.620 -2.2981  0.1813 -2.0671
 1852SOL     OW17014   3.924   3.876   8.413 -1.0399 -0.0385  0.6500
 1852SOL    HW117015   3.920   3.781   8.407 -1.5175  0.1969 -2.7966
 1852SOL    HW217016   3.908   3.910   8.325 -0.9216 -1.5034  0.0720
 1853SOL     OW17017   0.912   3.809   3.023  0.3879  0.5656  0.2668
 1853SOL    HW117018   0.820   3.834   3.031 -0.1459 -0.4625 -2.5443
 1853SOL    HW217019   0.967   3.875   3.064  0.1459 -0.0130  1.5104
 1854SOL     OW17020   4.500   3.952   7.669 -0.3121 -0.2288  0.0785
 1854SOL    HW117021   4.567   4.020   7.658  1.6494 -1.8115  2.0862
 1854SOL    HW217022   4.547   3.890   7.725 -1.3445 -0.3603  0.8031
 1855SOL     OW17023   3.177   0.615  10.850 -0.0161 -0.2719 -0.5240
 1855SOL    HW117024   3.088   0.619  10.887  0.2508  1.4495 -0.0315
 1855SOL    HW217025   3.170   0.659  10.766 -0.1450 -0.3636 -0.5612
 1856SOL     OW17026   2.284   4.076  15.714  0.5152  0.2706  0.4209
 1856SOL    HW117027   2.373   4.080  15.748  1.2703 -2.0565 -1.3186
 1856SOL    HW217028   2.275   4.157  15.665  1.6331  0.5723  0.7208
 1857SOL     OW17029   2.927   1.808   6.760  0.7208  0.0254 -0.2394
 1857SOL    HW117030   2.972   1.773   6.837  0.7879 -0.3959 -0.4698
 1857SOL    HW217031   2.936   1.728   6.708 -3.3774 -1.7361  1.8386
 1858SOL     OW17032   2.514   2.226   4.385 -0.0157  0.0848  0.6783
 1858SOL    HW117033   2.545   2.137   4.371 -1.1439  0.0974 -1.8182
 1858SOL    HW217034   2.599   2.268   4.398 -0.7380  2.0466 -0.9355
 1859SOL     OW17035   2.328   3.325  11.908 -0.2834  0.6313 -0.3071
 1859SOL    HW117036   2.334   3.258  11.976  1.5021  0.6713 -0.4158
 1859SOL    HW217037   2.237   3.325  11.878 -0.0733 -2.8344 -0.9026
 1860SOL     OW17038   1.651   4.666  17.268 -0.3661  0.0091 -0.0434
 1860SOL    HW117039   1.691   4.641  17.185 -0.7299 -0.0954 -0.1863
 1860SOL    HW217040   1.648   4.584  17.318 -0.9540 -0.0246 -0.1291
 1861SOL     OW17041   1.256   0.625  12.336 -0.0842 -0.0084  0.3369
 1861SOL    HW117042   1.227   0.678  12.261  0.2368 -0.0438  0.1875
 1861SOL    HW217043   1.197   0.660  12.403 -0.1548 -1.2831  0.9288
 1862SOL     OW17044   4.381   3.040   1.591  0.5325  0.0223 -0.3054
 1862SOL    HW117045   4.460   2.988   1.604  1.2755  1.1186 -0.4211
 1862SOL    HW217046   4.317   2.969   1.600  1.2376 -0.6139 -0.3663
 1863SOL     OW17047   1.150   1.212   3.763 -0.2449 -0.6670 -0.0520
 1863SOL    HW117048   1.074   1.270   3.756 -1.3232 -1.7254  3.1144
 1863SOL    HW217049   1.128   1.125   3.728  2.0646 -1.1900 -0.2067
 1864SOL     OW17050   3.141   2.345  13.690  0.3643 -0.3568 -0.2103
 1864SOL    HW117051   3.120   2.267  13.639 -0.9234 -1.8247  2.6085
 1864SOL    HW217052   3.153   2.404  13.616 -1.9774 -1.5747 -1.5581
 1865SOL     OW17053   3.180   2.510  14.249  0.4555 -0.6175  0.2515
 1865SOL    HW117054   3.209   2.600  14.242  0.5346 -0.5780  1.1101
 1865SOL    HW217055   3.121   2.499  14.174 -1.1744  1.7787  1.1959
 1866SOL     OW17056   4.068   3.062  11.399  0.6990 -0.2520  0.1468
 1866SOL    HW117057   4.150   3.013  11.400 -0.2699 -1.8641  0.2127
 1866SOL    HW217058   4.066   3.110  11.481  1.1338 -1.6179  0.9554
 1867SOL     OW17059   1.669   0.551  16.541 -0.1456 -0.0189 -0.0836
 1867SOL    HW117060   1.590   0.605  16.531  0.8598  1.7037  1.2976
 1867SOL    HW217061   1.635   0.500  16.615 -0.4978  0.5487  0.1393
 1868SOL     OW17062   2.377   3.225   9.944  0.2924 -0.0256  0.0816
 1868SOL    HW117063   2.438   3.295   9.967  0.5952 -0.7142  1.3913
 1868SOL    HW217064   2.310   3.272   9.895 -1.2872 -0.4224  1.8447
 1869SOL     OW17065   1.818   2.500   2.696 -0.1268 -0.4152  0.7987
 1869SOL    HW117066   1.909   2.523   2.674 -0.3803 -1.5063 -1.3753
 1869SOL    HW217067   1.788   2.573   2.751 -2.3529  0.0150 -1.0035
 1870SOL     OW17068   3.451   2.181   2.587  0.2881  0.9230  0.0368
 1870SOL    HW117069   3.502   2.177   2.506 -2.7061 -0.0082 -1.7564
 1870SOL    HW217070   3.513   2.138   2.646  0.2850  3.4808  1.8962
 1871SOL     OW17071   1.936   3.837   7.355  0.2698 -0.2332 -0.4731
 1871SOL    HW117072   1.896   3.822   7.269 -1.0861  1.9717 -0.2498
 1871SOL    HW217073   1.887   3.764   7.393 -2.0220  1.7495  0.4051
 1872SOL     OW17074   2.937   4.595  10.667  0.2494  0.1935  0.4908
 1872SOL    HW117075   2.928   4.614  10.760  4.1381  0.2099  0.8924
 1872SOL    HW217076   2.912   4.684  10.641  0.2663 -0.0851 -0.4865
 1873SOL     OW17077   4.494   1.333  17.433 -0.1525 -0.0350  0.1605
 1873SOL    HW117078   4.536   1.253  17.401 -0.5064 -0.5745  1.0458
 1873SOL    HW217079   4.423   1.339  17.368 -0.6745 -1.1521  0.6309
 1874SOL     OW17080   2.716   0.059   4.665  0.1732 -0.3815 -0.0742
 1874SOL    HW117081   2.796   0.033   4.711 -0.5337 -0.6506  1.0083
 1874SOL    HW217082   2.679   4.697   4.665 -3.7697  1.2688  1.1405
 1875SOL     OW17083   1.302   2.904   8.890 -0.6020 -0.5187 -0.0191
 1875SOL    HW117084   1.377   2.924   8.946 -0.8800 -1.3591  0.6633
 1875SOL    HW217085   1.356   2.867   8.820 -0.5882  0.8101 -0.7050
 1876SOL     OW17086   1.513   3.137   8.728  0.0488 -0.5059 -0.3498
 1876SOL    HW117087   1.598   3.129   8.771  0.3092  0.5590 -0.6854
 1876SOL    HW217088   1.523   3.083   8.649  3.3142  2.5075 -2.0415
 1877SOL     OW17089   1.303   2.077  12.853 -0.2173 -0.1381 -0.4340
 1877SOL    HW117090   1.365   2.057  12.783  0.8516  1.1759  0.1543
 1877SOL    HW217091   1.333   2.153  12.902 -0.8408 -0.4080  0.3738
 1878SOL     OW17092   0.539   0.291   6.359  0.4154  0.4372  0.0033
 1878SOL    HW117093   0.480   0.273   6.433 -1.2033  0.3936 -1.3029
 1878SOL    HW217094   0.624   0.270   6.398 -0.8279 -1.8573  1.5076
 1879SOL     OW17095   3.082   0.876   0.014 -0.2606 -0.0075 -0.8214
 1879SOL    HW117096   3.077   0.945   0.080  2.2673  1.1697 -1.8903
 1879SOL    HW217097   3.177   0.881   0.001 -0.4420  0.5121 -1.9450
 1880SOL     OW17098   1.303   3.593   8.882 -0.1099 -0.2175 -1.0993
 1880SOL    HW117099   1.302   3.500   8.901 -2.4691  0.2706  1.1932
 1880SOL    HW217100   1.346   3.608   8.798  2.4487  3.0230  0.8044
 1881SOL     OW17101   4.710   4.716   5.272 -0.2114  0.0033  0.0516
 1881SOL    HW117102   0.014   0.028   5.354  1.9820  0.0084 -0.7736
 1881SOL    HW217103   0.064   4.677   5.238  0.7578  0.5630  1.7523
 1882SOL     OW17104   3.922   4.438   0.842 -0.0325  0.6977  0.3460
 1882SOL    HW117105   4.012   4.468   0.853 -0.5918  2.5484 -0.1295
 1882SOL    HW217106   3.880   4.503   0.785  0.0338 -0.0949 -0.6121
 1883SOL     OW17107   0.881   3.484   9.420 -0.3276  0.2007  0.8661
 1883SOL    HW117108   0.975   3.481   9.402 -0.2423  1.5557  1.1430
 1883SOL    HW217109   0.891   3.508   9.511 -0.7108 -0.4535  1.0826
 1884SOL     OW17110   2.988   1.788   9.013 -0.0729  0.3464  0.1146
 1884SOL    HW117111   2.971   1.849   9.084  0.3207 -2.2719  2.4284
 1884SOL    HW217112   2.939   1.830   8.942 -2.8641 -0.5423  1.5378
 1885SOL     OW17113   3.021   3.520  15.736  0.7964  0.2443 -0.3925
 1885SOL    HW117114   2.986   3.445  15.783  1.8128  0.8639  1.3320
 1885SOL    HW217115   2.944   3.577  15.737  0.7014  0.0895  0.9408
 1886SOL     OW17116   1.758   2.395  13.511  0.9381 -0.0651  0.3944
 1886SOL    HW117117   1.743   2.488  13.528 -1.4083 -0.4481  0.3961
 1886SOL    HW217118   1.666   2.369  13.500  0.9166  0.2508 -0.2014
 1887SOL     OW17119   1.326   2.697   5.694 -0.2865 -0.0201  0.0052
 1887SOL    HW117120   1.265   2.641   5.646 -1.1693  0.2273  0.8370
 1887SOL    HW217121   1.366   2.742   5.620 -2.6339 -1.0419 -1.8451
 1888SOL     OW17122   4.158   4.321   2.895 -0.4008  0.1810 -0.3485
 1888SOL    HW117123   4.095   4.291   2.829  1.2553 -2.2003 -0.8114
 1888SOL    HW217124   4.107   4.325   2.976  1.5778  3.1114  0.7627
 1889SOL     OW17125   4.646   3.215   5.960 -0.3832 -0.5560  0.2754
 1889SOL    HW117126   4.627   3.300   5.921  2.2213 -0.5796 -1.0778
 1889SOL    HW217127   4.642   3.237   6.053  1.9425  0.1948  0.1930
 1890SOL     OW17128   3.829   4.116   3.098 -0.3542  0.4881 -0.2363
 1890SOL    HW117129   3.892   4.133   3.168 -0.2942  1.6356 -0.5726
 1890SOL    HW217130   3.857   4.031   3.063  1.0221  0.1692  1.6635
 1891SOL     OW17131   2.196   1.895   7.959  0.5344  0.1313 -0.0463
 1891SOL    HW117132   2.265   1.861   8.015  2.5971  2.4256 -1.1471
 1891SOL    HW217133   2.134   1.822   7.961 -0.3501  0.9101  0.7009
 1892SOL     OW17134   2.956   1.721   2.374  0.4045  0.1778 -0.2048
 1892SOL    HW117135   2.907   1.714   2.291  0.2396 -0.0345 -0.0903
 1892SOL    HW217136   3.045   1.725   2.339  0.5602  1.7494  0.3483
 1893SOL     OW17137   4.462   3.084  17.475  0.4307 -0.0197 -0.2006
 1893SOL    HW117138   4.425   2.996  17.460 -1.9351  1.2680 -1.8661
 1893SOL    HW217139   4.463   3.082  17.571 -0.4100  0.8970 -0.1728
 1894SOL     OW17140   3.677   2.798   6.520  0.0343 -0.3483  0.0722
 1894SOL    HW117141   3.591   2.838   6.538 -0.1513 -0.5773 -0.3160
 1894SOL    HW217142   3.664   2.719   6.468 -0.0157  0.5378 -1.2619
 1895SOL     OW17143   1.870   0.679   9.755  0.0676  0.3890  0.5413
 1895SOL    HW117144   1.779   0.662   9.780  0.8460 -1.8850  1.8642
 1895SOL    HW217145   1.914   0.689   9.839  1.5445  0.5615 -0.2583
 1896SOL     OW17146   1.722   2.567   5.025  0.0346 -0.8595 -0.0918
 1896SOL    HW117147   1.763   2.514   4.958  0.6456  1.2561 -1.3709
 1896SOL    HW217148   1.716   2.513   5.104  0.3141  1.0695  1.2762
 1897SOL     OW17149   2.880   0.120  13.932 -0.1459 -0.8466  0.0346
 1897SOL    HW117150   2.792   0.108  13.896 -0.7425  1.2475  0.7821
 1897SOL    HW217151   2.907   0.030  13.916  2.5077  0.2817 -1.7679
 1898SOL     OW17152   2.073   3.407   2.426 -0.3903  0.0851 -0.0765
 1898SOL    HW117153   1.992   3.419   2.476  0.3696  1.2292  0.8811
 1898SOL    HW217154   2.062   3.322   2.383  2.9667 -0.1827 -0.3613
 1899SOL     OW17155   0.523   2.702   5.305 -0.2096  0.1546 -0.2784
 1899SOL    HW117156   0.444   2.708   5.251 -1.1129  0.0584  1.0586
 1899SOL    HW217157   0.489   2.746   5.383 -0.7951 -0.5667 -0.1388
 1900SOL     OW17158   0.831   3.250   6.875  0.3207  0.0261 -0.1368
 1900SOL    HW117159   0.820   3.235   6.968 -0.4339 -0.4202 -0.3004
 1900SOL    HW217160   0.762   3.315   6.864  0.5054 -0.0017 -1.4894
 1901SOL     OW17161   2.016   4.684   8.273  0.8064 -0.0276 -0.2405
 1901SOL    HW117162   1.957   0.032   8.287  0.3812 -0.9971  2.9478
 1901SOL    HW217163   1.961   4.619   8.229 -0.2977 -0.1044  1.2367
 1902SOL     OW17164   2.760   2.088  12.686 -0.1933 -0.2854  0.4801
 1902SOL    HW117165   2.777   2.045  12.770 -3.0059 -1.6391  0.3741
 1902SOL    HW217166   2.772   2.179  12.714  0.5401 -0.0202 -0.7277
 1903SOL     OW17167   3.951   4.482   8.224  0.3851 -0.6130 -0.2271
 1903SOL    HW117168   3.904   4.565   8.231 -1.4918 -1.5056 -2.4977
 1903SOL    HW217169   3.996   4.512   8.145 -0.7795  2.5352  0.3104
 1904SOL     OW17170   3.219   0.160   6.614 -0.0909 -0.4817  0.7921
 1904SOL    HW117171   3.191   0.070   6.629 -1.6539 -0.2573 -0.7921
 1904SOL    HW217172   3.147   0.196   6.563 -1.8469 -0.9952  2.9142
 1905SOL     OW17173   3.376   4.597  12.222  0.0988  0.5382  0.5648
 1905SOL    HW117174   3.372   4.692  12.207 -0.0330  0.5638  0.7557
 1905SOL    HW217175   3.469   4.582  12.206 -0.0191  1.4578 -1.0290
 1906SOL     OW17176   2.285   4.341   7.756 -0.3525  0.0317 -0.4197
 1906SOL    HW117177   2.246   4.276   7.815  0.4167 -0.7110 -0.7486
 1906SOL    HW217178   2.370   4.346   7.800 -0.6838 -0.1077  0.2344
 1907SOL     OW17179   3.568   1.462   9.065 -0.1034 -0.4083  0.5996
 1907SOL    HW117180   3.604   1.498   9.146  2.5506 -1.1392 -0.2492
 1907SOL    HW217181   3.537   1.375   9.089  1.3601 -1.2019 -0.3994
 1908SOL     OW17182   0.062   0.932   3.611  0.3389  0.0541 -0.4314
 1908SOL    HW117183   0.077   0.839   3.596 -1.4746 -0.3244  0.0946
 1908SOL    HW217184   0.155   0.954   3.612  0.4752 -0.4591 -1.4297
 1909SOL     OW17185   0.113   3.336   1.457  0.0826  0.3008  0.0064
 1909SOL    HW117186   0.077   3.314   1.371 -0.4037  1.5840 -0.1271
 1909SOL    HW217187   0.029   3.314   1.498 -1.1989  0.1186 -2.7711
 1910SOL     OW17188   4.077   0.331   3.305 -0.3356  0.8149  0.2482
 1910SOL    HW117189   4.105   0.274   3.234 -0.9958  0.4750  0.2617
 1910SOL    HW217190   4.151   0.334   3.366  0.5889  0.4330 -0.8530
 1911SOL     OW17191   3.956   3.078   1.457  0.1403  0.0224  0.2388
 1911SOL    HW117192   4.003   3.129   1.523 -0.3568  0.8295 -0.0276
 1911SOL    HW217193   3.877   3.130   1.441  0.1063  0.2316  1.0865
 1912SOL     OW17194   4.475   0.405   1.751  0.1924  0.3418  0.2410
 1912SOL    HW117195   4.422   0.391   1.830 -1.2825  2.6514 -0.3574
 1912SOL    HW217196   4.542   0.339   1.767  0.0345  0.2918  0.7046
 1913SOL     OW17197   1.581   1.328   5.050  0.1716  0.2261 -0.4210
 1913SOL    HW117198   1.618   1.294   4.968  0.6460 -1.3679  0.4499
 1913SOL    HW217199   1.659   1.341   5.104 -0.3208  1.1878  0.0479
 1914SOL     OW17200   3.515   1.412  11.937  0.3694  0.1446  0.1784
 1914SOL    HW117201   3.572   1.467  11.992  0.8383 -2.4396  2.2766
 1914SOL    HW217202   3.441   1.403  11.998  2.0175  0.0968  2.1936
 1915SOL     OW17203   3.408   3.301   5.690  0.0785  0.3147  0.0022
 1915SOL    HW117204   3.393   3.245   5.766 -0.1347 -3.5601 -2.8750
 1915SOL    HW217205   3.386   3.249   5.613 -3.5466 -0.9513  1.8930
 1916SOL     OW17206   2.284   1.410   2.246 -0.0399 -0.3570 -0.7792
 1916SOL    HW117207   2.370   1.367   2.255 -0.8912 -1.5551  1.6359
 1916SOL    HW217208   2.302   1.487   2.300  1.9273 -0.6227 -1.0421
 1917SOL     OW17209   1.402   2.676   5.161 -0.2343  0.7859 -0.2490
 1917SOL    HW117210   1.447   2.757   5.185  1.9139 -0.8876  1.4308
 1917SOL    HW217211   1.458   2.624   5.219  0.8406  2.2425  0.0056
 1918SOL     OW17212   4.149   1.331   3.048  0.1115  0.0128 -0.1271
 1918SOL    HW117213   4.180   1.248   3.012  0.5384 -0.7053  1.8444
 1918SOL    HW217214   4.055   1.316   3.039  0.1004 -0.1313  0.2262
 1919SOL     OW17215   2.556   0.033   7.085  0.1995  0.2821  0.3330
 1919SOL    HW117216   2.619   0.062   7.018  1.2868 -0.0572  1.2024
 1919SOL    HW217217   2.614   4.711   7.144 -0.2495 -1.0777 -0.3535
 1920SOL     OW17218   0.320   0.159   3.450 -0.2687 -1.1449 -0.2724
 1920SOL    HW117219   0.253   0.104   3.492 -0.8748  0.6666  1.1509
 1920SOL    HW217220   0.274   0.180   3.369  1.2034  2.2357 -0.2375
 1921SOL     OW17221   2.969   4.449  17.014 -0.2419 -0.0827  0.1161
 1921SOL    HW117222   2.989   4.420  16.925  0.4078  1.1590 -0.1453
 1921SOL    HW217223   2.882   4.412  17.019 -0.8022  1.0562 -1.0643
 1922SOL     OW17224   0.725   0.561   3.103  0.2572  0.1465 -0.1786
 1922SOL    HW117225   0.780   0.571   3.025 -2.7525 -0.3059 -2.3722
 1922SOL    HW217226   0.713   0.654   3.122  0.9418 -0.1699  1.8568
 1923SOL     OW17227   1.687   2.912   0.690 -0.8520 -0.5180  0.8296
 1923SOL    HW117228   1.700   2.844   0.624  1.1070  0.1028  0.5965
 1923SOL    HW217229   1.616   2.966   0.655 -0.0320 -1.5018 -2.4368
 1924SOL     OW17230   1.507   3.736   2.196 -0.4665  1.1364 -0.2122
 1924SOL    HW117231   1.534   3.809   2.140  2.1925 -0.3428 -0.8282
 1924SOL    HW217232   1.417   3.730   2.164  0.5027 -0.8861 -2.5914
 1925SOL     OW17233   4.579   1.339   2.616 -0.2653  0.7088  0.7833
 1925SOL    HW117234   4.664   1.355   2.656  0.9010 -1.7577 -0.7212
 1925SOL    HW217235   4.544   1.426   2.594  0.8438  0.3508 -2.3557
 1926SOL     OW17236   1.474   3.833  16.021 -0.1274 -0.4313 -0.4714
 1926SOL    HW117237   1.523   3.905  16.061 -1.8551  0.2864  0.3096
 1926SOL    HW217238   1.441   3.792  16.101 -0.5757 -0.2798 -0.5831
 1927SOL     OW17239   4.517   4.049  11.319 -0.0974  0.1230  0.1809
 1927SOL    HW117240   4.425   4.034  11.341  0.1545 -1.9909 -0.2704
 1927SOL    HW217241   4.503   4.038  11.225 -1.7261  1.4416  0.2674
 1928SOL     OW17242   3.823   3.957  15.117 -0.6109 -0.4778 -0.0043
 1928SOL    HW117243   3.875   3.893  15.067 -1.1789 -0.6865 -0.3235
 1928SOL    HW217244   3.866   4.038  15.088 -0.4919 -0.4017  0.3923
 1929SOL     OW17245   4.096   1.534   8.563  0.1614 -0.0272  0.3868
 1929SOL    HW117246   4.111   1.521   8.657 -2.6120 -0.5118  0.7467
 1929SOL    HW217247   4.087   1.441   8.544 -0.7978 -0.0119  0.7791
 1930SOL     OW17248   3.945   1.893  13.932  0.7540  0.0970 -0.0341
 1930SOL    HW117249   3.856   1.879  13.898  0.4637 -0.6690  1.0572
 1930SOL    HW217250   3.929   1.975  13.979  0.0981  1.7368 -3.0605
 1931SOL     OW17251   0.147   1.180   9.809  0.3064  0.5724 -0.5208
 1931SOL    HW117252   0.236   1.202   9.782  0.7802 -0.2676  0.3481
 1931SOL    HW217253   0.143   1.167   9.904  4.7383  0.3375 -0.3981
 1932SOL     OW17254   1.584   2.454  14.914  0.1405  0.0257 -0.1682
 1932SOL    HW117255   1.620   2.494  14.994  0.2126 -0.4036  0.0174
 1932SOL    HW217256   1.659   2.460  14.855  0.2538  0.2281 -0.0051
 1933SOL     OW17257   2.576   2.691   5.975  0.6211  0.0494  0.2092
 1933SOL    HW117258   2.516   2.756   5.938  2.4855  0.0019 -2.9048
 1933SOL    HW217259   2.520   2.615   5.990 -0.2256  0.6306  0.0171
 1934SOL     OW17260   0.599   1.534  12.069  0.0598 -0.3450 -0.1294
 1934SOL    HW117261   0.598   1.452  12.119  1.9042  1.0919  2.2381
 1934SOL    HW217262   0.543   1.511  11.995 -2.2172 -0.2322  1.5468
 1935SOL     OW17263   1.407   4.482   7.204  0.1648  0.1995  0.0458
 1935SOL    HW117264   1.445   4.442   7.282  2.6087  0.3316 -1.0930
 1935SOL    HW217265   1.315   4.469   7.228  1.1454 -2.7010  2.2767
 1936SOL     OW17266   0.972   0.083   3.871  0.5535  0.3374  0.4961
 1936SOL    HW117267   1.003   4.720   3.888 -4.0303 -1.1830  0.9240
 1936SOL    HW217268   1.014   0.133   3.941  3.1121 -0.7642 -0.2254
 1937SOL     OW17269   3.872   0.068   4.153 -0.1519  0.0960  0.6944
 1937SOL    HW117270   3.899   0.128   4.222  1.3322  0.7360 -0.4342
 1937SOL    HW217271   3.950   0.020   4.125  0.3090  1.3852 -0.2307
 1938SOL     OW17272   2.971   0.493   3.523 -0.3053 -0.0713  0.7691
 1938SOL    HW117273   2.897   0.553   3.509 -0.4008 -0.1867  0.7781
 1938SOL    HW217274   3.037   0.555   3.553  0.2164 -0.4483  0.3928
 1939SOL     OW17275   0.901   3.109  10.154  0.4075 -0.5842  0.3411
 1939SOL    HW117276   0.814   3.142  10.177 -0.4641 -2.3370 -0.4794
 1939SOL    HW217277   0.938   3.105  10.243  0.3721 -2.4276  0.2677
 1940SOL     OW17278   1.239   4.459  15.681  0.2819 -0.0580  0.0506
 1940SOL    HW117279   1.204   4.384  15.633 -2.3008 -0.2504  2.2402
 1940SOL    HW217280   1.174   4.529  15.670  0.2303  0.1461  1.6098
 1941SOL     OW17281   1.899   1.860   2.990 -0.1049 -0.5506  0.1975
 1941SOL    HW117282   1.955   1.909   2.930 -2.2989  0.2333 -1.2000
 1941SOL    HW217283   1.874   1.934   3.045 -0.2924 -0.7302  0.3576
 1942SOL     OW17284   2.946   2.184   8.667 -0.4923 -0.1869 -0.5929
 1942SOL    HW117285   2.853   2.203   8.653 -0.3679  1.6995  1.1629
 1942SOL    HW217286   2.971   2.171   8.575  0.6256  1.3588 -0.5158
 1943SOL     OW17287   2.055   2.931  17.248  0.0352 -0.1316  0.2563
 1943SOL    HW117288   2.008   2.984  17.184  2.6795  1.5874 -0.2710
 1943SOL    HW217289   1.985   2.882  17.290  0.1680 -0.9011 -0.4285
 1944SOL     OW17290   0.764   3.741   5.756  0.2007  0.3185 -0.7625
 1944SOL    HW117291   0.792   3.718   5.845  0.1744  1.9018 -0.3443
 1944SOL    HW217292   0.720   3.657   5.741 -0.8277  0.7136  0.0209
 1945SOL     OW17293   2.937   2.511  14.064  0.1349 -0.6749  0.7076
 1945SOL    HW117294   2.967   2.563  13.990 -3.0096  0.5452  0.3061
 1945SOL    HW217295   2.873   2.462  14.013  1.5103 -3.1229  1.2736
 1946SOL     OW17296   4.182   0.673  11.733  0.6187 -0.1761  0.2148
 1946SOL    HW117297   4.243   0.604  11.707  1.2045 -0.3631  2.0499
 1946SOL    HW217298   4.123   0.685  11.659  1.7678 -2.5388 -1.0605
 1947SOL     OW17299   2.742   2.563   5.469 -0.2092  0.4219  0.1264
 1947SOL    HW117300   2.777   2.529   5.552 -0.6649  2.1392  1.0042
 1947SOL    HW217301   2.668   2.502   5.473  0.0481  0.1356  0.6752
 1948SOL     OW17302   3.720   1.717  13.191  0.4475 -0.0132 -0.1590
 1948SOL    HW117303   3.737   1.781  13.122 -0.5954  0.6811  0.2336
 1948SOL    HW217304   3.624   1.724  13.188  0.5654  1.7756  1.1596
 1949SOL     OW17305   0.812   3.646   9.195 -0.0239  0.0217  0.7918
 1949SOL    HW117306   0.891   3.692   9.220  0.0089  1.2326 -1.5934
 1949SOL    HW217307   0.833   3.560   9.232 -0.3173  0.3078  1.6218
 1950SOL     OW17308   0.802   0.752  13.671  0.0716  0.5115  0.2074
 1950SOL    HW117309   0.821   0.735  13.579 -0.0583  0.8246  0.1234
 1950SOL    HW217310   0.830   0.673  13.717  1.1960  0.8353  0.0715
 1951SOL     OW17311   4.509   0.784   7.225  0.3136  0.6179 -0.2908
 1951SOL    HW117312   4.463   0.705   7.197  3.8299 -1.1717 -0.9845
 1951SOL    HW217313   4.441   0.833   7.272 -1.1748 -0.7818 -0.9736
 1952SOL     OW17314   1.362   1.781   4.443 -0.3948  0.2912 -0.3152
 1952SOL    HW117315   1.292   1.829   4.487 -1.0746 -0.8031 -0.1786
 1952SOL    HW217316   1.398   1.726   4.513  0.3388  0.6850 -0.3924
 1953SOL     OW17317   0.773   2.589   7.809  0.0590 -0.1191  0.0264
 1953SOL    HW117318   0.862   2.596   7.843 -0.3202  1.2362  0.7297
 1953SOL    HW217319   0.786   2.521   7.743  1.3581 -0.2857  0.4661
 1954SOL     OW17320   2.842   2.321   6.079 -0.2526  0.1444  0.2713
 1954SOL    HW117321   2.835   2.396   6.020 -0.6902  0.7492  1.0812
 1954SOL    HW217322   2.763   2.328   6.134  0.4893 -0.9771  1.4962
 1955SOL     OW17323   2.857   3.505   8.488 -0.4127 -0.1400  0.5442
 1955SOL    HW117324   2.929   3.564   8.511  0.9011 -2.2310  1.7563
 1955SOL    HW217325   2.875   3.414   8.512  1.0678 -0.0431 -0.2001
 1956SOL     OW17326   4.689   1.434  15.125 -0.4540 -0.2135  0.4407
 1956SOL    HW117327   4.696   1.487  15.045 -0.1794 -0.4476  0.3109
 1956SOL    HW217328   4.613   1.380  15.102 -0.7260 -0.0489  0.9562
 1957SOL     OW17329   4.349   1.934   2.125 -0.3859  0.3425  0.0832
 1957SOL    HW117330   4.270   1.900   2.166  1.0673 -1.1939  1.6155
 1957SOL    HW217331   4.327   2.026   2.136  1.2660  1.1200 -3.1384
 1958SOL     OW17332   1.823   1.947   5.966  0.2176 -0.5189 -0.1373
 1958SOL    HW117333   1.744   1.988   6.003 -0.8238 -1.4537 -1.3009
 1958SOL    HW217334   1.844   1.884   6.035 -1.2010 -0.0231  0.7596
 1959SOL     OW17335   0.566   4.046   2.415 -0.3237 -0.1088 -0.1437
 1959SOL    HW117336   0.576   4.003   2.330  1.1693  0.2802 -0.1579
 1959SOL    HW217337   0.560   3.970   2.473 -0.7782  0.8918  1.1329
 1960SOL     OW17338   2.773   0.960   3.374 -0.0572 -0.1827  0.4202
 1960SOL    HW117339   2.682   0.941   3.349  0.2055 -0.8080 -0.0884
 1960SOL    HW217340   2.789   1.044   3.332 -1.6566  1.3000  2.7986
 1961SOL     OW17341   1.630   1.143  12.450 -0.6339 -0.1235  0.7811
 1961SOL    HW117342   1.546   1.144  12.404 -0.6342  0.8345  0.7867
 1961SOL    HW217343   1.607   1.092  12.528 -0.7237 -0.8476  0.2748
 1962SOL     OW17344   2.702   0.876   2.980  0.0678 -0.4324 -0.3112
 1962SOL    HW117345   2.728   0.964   2.953 -0.0715 -0.1477  0.5046
 1962SOL    HW217346   2.621   0.898   3.025  1.1734  0.5446  1.2015
 1963SOL     OW17347   3.719   3.596  15.853  0.0869  0.5029  0.2721
 1963SOL    HW117348   3.665   3.576  15.929 -0.8088 -0.6420 -0.6728
 1963SOL    HW217349   3.660   3.572  15.781  1.6178 -0.6024 -0.6011
 1964SOL     OW17350   4.627   4.320  15.713 -0.3326 -0.6452 -0.2440
 1964SOL    HW117351   4.562   4.373  15.667 -0.2767 -1.5082 -1.3102
 1964SOL    HW217352   4.660   4.389  15.771  0.3917 -0.1888 -1.1874
 1965SOL     OW17353   4.000   1.078  16.307 -0.3440  0.3354  0.0273
 1965SOL    HW117354   3.954   1.162  16.303 -1.0945 -0.1174 -0.6466
 1965SOL    HW217355   3.997   1.066  16.402 -2.6777  0.6075 -0.0086
 1966SOL     OW17356   0.956   4.238   3.438  0.1283  0.2352  0.2337
 1966SOL    HW117357   0.939   4.295   3.363  0.2191 -0.2268 -0.1427
 1966SOL    HW217358   1.050   4.253   3.446  0.1281  1.1222 -1.4694
 1967SOL     OW17359   3.971   1.692   2.907 -0.0160 -0.0713 -0.1845
 1967SOL    HW117360   3.974   1.782   2.940  0.1070 -0.9659  2.2411
 1967SOL    HW217361   4.064   1.678   2.892  0.0372 -1.4621  1.3878
 1968SOL     OW17362   0.324   2.251   3.074 -0.2063  0.0161 -0.3309
 1968SOL    HW117363   0.350   2.335   3.036  0.1994  0.0107 -0.0660
 1968SOL    HW217364   0.229   2.263   3.070 -0.4826 -2.2093 -0.6271
 1969SOL     OW17365   0.386   2.538   5.606  0.7220 -0.1035  0.2046
 1969SOL    HW117366   0.390   2.578   5.692 -0.1296  0.0735  0.1595
 1969SOL    HW217367   0.346   2.610   5.557 -0.9783 -0.9469  0.3306
 1970SOL     OW17368   2.566   3.914   7.806  0.8255  0.2174  0.3201
 1970SOL    HW117369   2.500   3.844   7.800  0.2977  0.7428 -0.0374
 1970SOL    HW217370   2.528   3.981   7.749  0.9213  2.0052  2.3705
 1971SOL     OW17371   3.981   3.885   8.704  0.8088 -0.4136  0.2284
 1971SOL    HW117372   3.958   3.858   8.615 -0.6211 -2.4388  1.2384
 1971SOL    HW217373   3.955   3.815   8.763  1.8946 -0.0262  1.1771
 1972SOL     OW17374   1.665   2.272   2.933 -0.3292  0.3004  0.6017
 1972SOL    HW117375   1.713   2.309   2.860 -0.0918  0.3425  0.7792
 1972SOL    HW217376   1.580   2.270   2.888 -0.2481  2.0660  0.3801
 1973SOL     OW17377   3.328   0.670  13.193  0.4940  0.3828  0.0593
 1973SOL    HW117378   3.374   0.745  13.230  1.2242 -0.5849  1.1294
 1973SOL    HW217379   3.274   0.701  13.121  0.4332 -0.8081 -0.4094
 1974SOL     OW17380   1.954   4.330  17.501 -0.6960  0.0942 -0.0966
 1974SOL    HW117381   1.990   4.248  17.535 -0.7340 -0.0186 -0.3307
 1974SOL    HW217382   1.918   4.360  17.585 -0.1820 -1.3884  0.6444
 1975SOL     OW17383   0.944   2.796   2.625  0.0731  0.1597  0.4309
 1975SOL    HW117384   0.976   2.706   2.625 -2.1886 -0.6350  0.6270
 1975SOL    HW217385   1.020   2.833   2.580 -0.2411  0.0189 -0.2117
 1976SOL     OW17386   1.637   0.452   2.579  0.0655  0.2537 -0.4304
 1976SOL    HW117387   1.627   0.376   2.522 -1.0564  1.7855 -2.2939
 1976SOL    HW217388   1.595   0.427   2.661  0.2660 -0.4650 -0.5517
 1977SOL     OW17389   2.728   2.562  17.063 -0.2713 -0.0315  0.5226
 1977SOL    HW117390   2.641   2.580  17.097 -0.3059 -1.0266  0.9635
 1977SOL    HW217391   2.709   2.578  16.971 -3.2222 -2.6513  0.6987
 1978SOL     OW17392   3.827   0.878   9.458 -0.0795 -0.1291  0.0535
 1978SOL    HW117393   3.902   0.924   9.497  0.3933 -0.0489 -0.9676
 1978SOL    HW217394   3.873   0.812   9.405 -0.2432  1.5993 -2.2297
 1979SOL     OW17395   2.692   4.678   5.161  0.2926  0.4662 -0.0258
 1979SOL    HW117396   2.717   4.673   5.253 -1.1815  0.9567  0.4070
 1979SOL    HW217397   2.716   4.588   5.138 -0.8369  0.2972 -0.5478
 1980SOL     OW17398   3.937   4.546  12.732 -0.6496 -0.0331  0.4260
 1980SOL    HW117399   3.982   4.576  12.811  1.4748 -0.5199 -0.5859
 1980SOL    HW217400   3.914   4.458  12.760  2.1426 -1.0745 -0.5170
 1981SOL     OW17401   3.890   3.885   8.143 -0.5442  0.5203  0.1384
 1981SOL    HW117402   3.888   3.861   8.050 -0.1709  1.5558 -0.1357
 1981SOL    HW217403   3.796   3.894   8.161 -0.9494  0.0908 -1.7451
 1982SOL     OW17404   4.366   1.804   7.694  0.2229  0.0199 -0.1714
 1982SOL    HW117405   4.407   1.890   7.701  1.8230 -0.8262  1.1081
 1982SOL    HW217406   4.329   1.799   7.606  1.1866 -1.2116 -0.5226
 1983SOL     OW17407   4.576   1.555   7.460 -0.2747 -0.4088  0.4871
 1983SOL    HW117408   4.620   1.600   7.531  0.6062  1.7595 -1.4417
 1983SOL    HW217409   4.490   1.596   7.473  1.0944  2.0335  1.9204
 1984SOL     OW17410   0.269   2.819   8.722 -0.1247 -0.0829  0.0979
 1984SOL    HW117411   0.303   2.907   8.708 -5.2007  1.9919  0.9361
 1984SOL    HW217412   0.179   2.842   8.745 -0.4787 -0.7161 -0.6597
 1985SOL     OW17413   1.939   0.033   5.937  0.5051  0.1512 -0.2430
 1985SOL    HW117414   1.939   0.030   5.841 -2.1967  0.7363 -0.2697
 1985SOL    HW217415   1.880   0.108   5.950  0.2219 -0.2381  0.7400
 1986SOL     OW17416   1.462   2.196   6.426  0.6422 -0.4439 -0.3083
 1986SOL    HW117417   1.392   2.231   6.482  0.5519 -0.7538 -0.2285
 1986SOL    HW217418   1.411   2.182   6.346 -2.6568  1.1611  1.5209
 1987SOL     OW17419   2.478   0.603   3.421 -0.6800  0.0420  0.5122
 1987SOL    HW117420   2.454   0.531   3.363  1.0573 -0.6384  0.6286
 1987SOL    HW217421   2.422   0.671   3.385 -1.3749  0.0552  1.6329
 1988SOL     OW17422   4.028   2.121  16.597 -0.0686  0.1342 -0.2148
 1988SOL    HW117423   4.102   2.150  16.650  0.6258 -3.6977  0.9321
 1988SOL    HW217424   4.073   2.066  16.533  0.1282  0.3509 -0.2623
 1989SOL     OW17425   2.495   1.797   2.456  0.7422 -0.0765 -0.2007
 1989SOL    HW117426   2.502   1.785   2.551 -1.1524  0.5886  0.0297
 1989SOL    HW217427   2.523   1.889   2.452 -0.2460  0.1911 -0.9773
 1990SOL     OW17428   2.756   4.115   7.817 -0.0047 -0.2263  0.5012
 1990SOL    HW117429   2.809   4.094   7.894  2.4398 -2.1511 -1.7088
 1990SOL    HW217430   2.693   4.043   7.812 -1.3719  1.0818 -1.0823
 1991SOL     OW17431   0.729   3.447   0.961 -0.0629 -0.0588 -0.2200
 1991SOL    HW117432   0.738   3.506   1.036 -0.8608  0.2132 -0.3439
 1991SOL    HW217433   0.665   3.494   0.908  1.2729  0.2473 -1.5433
 1992SOL     OW17434   0.110   4.571   7.767 -0.2722 -0.0801  0.1739
 1992SOL    HW117435   0.062   4.604   7.691  1.0300  1.0004 -0.1705
 1992SOL    HW217436   0.043   4.515   7.806 -0.1637 -0.7781 -0.6281
 1993SOL     OW17437   1.695   1.066   7.315  0.0335  0.3024  0.0271
 1993SOL    HW117438   1.697   0.979   7.274 -1.5319  0.1146  0.3451
 1993SOL    HW217439   1.725   1.041   7.403 -0.0780 -0.5001 -0.1612
 1994SOL     OW17440   1.944   0.261  16.983  0.3324 -0.0658  0.6275
 1994SOL    HW117441   1.850   0.258  16.972  0.4139 -0.7703  0.1500
 1994SOL    HW217442   1.952   0.262  17.079  1.7354  0.4520  0.5103
 1995SOL     OW17443   3.989   0.651  13.488  0.2845  0.0354  0.4739
 1995SOL    HW117444   3.945   0.647  13.573 -3.1742 -1.6702 -1.3887
 1995SOL    HW217445   3.921   0.665  13.422 -0.7611  0.6088  1.6614
 1996SOL     OW17446   1.234   0.248   9.488 -0.3653  0.0086 -0.2950
 1996SOL    HW117447   1.208   0.208   9.405 -2.4102 -2.3757  1.4329
 1996SOL    HW217448   1.163   0.310   9.504  1.6584  2.4342 -0.9349
 1997SOL     OW17449   3.939   0.471   4.558  0.2631  0.5146  0.2048
 1997SOL    HW117450   3.861   0.452   4.507  0.1956 -1.3347  0.9719
 1997SOL    HW217451   3.920   0.558   4.594 -0.2498  0.3454  0.3380
 1998SOL     OW17452   2.971   1.575   7.415 -0.1306  0.0212  0.1635
 1998SOL    HW117453   2.883   1.607   7.398 -0.1677 -0.4328 -0.4938
 1998SOL    HW217454   3.020   1.624   7.349 -0.3426 -0.5607 -0.4310
 1999SOL     OW17455   2.506   1.095   3.569 -0.3986 -0.1933 -0.2267
 1999SOL    HW117456   2.600   1.084   3.556 -0.2656 -0.0140  0.5685
 1999SOL    HW217457   2.500   1.191   3.575 -0.1707 -0.0644 -1.9339
 2000SOL     OW17458   4.238   1.790  15.232 -0.6865  0.0123 -0.0666
 2000SOL    HW117459   4.332   1.774  15.221 -0.9338 -0.7778 -1.0685
 2000SOL    HW217460   4.207   1.757  15.148  1.3915 -0.0250 -0.8313
 2001SOL     OW17461   4.141   1.134   6.684 -0.2253  0.0881 -0.4463
 2001SOL    HW117462   4.217   1.181   6.649 -1.3506  3.1465  1.1801
 2001SOL    HW217463   4.143   1.162   6.776 -2.1104 -0.1111 -0.3356
 2002SOL     OW17464   2.008   2.871  11.161  0.3124 -0.3664 -0.2415
 2002SOL    HW117465   1.929   2.879  11.108  0.4697 -1.2010 -0.6019
 2002SOL    HW217466   2.003   2.956  11.204  1.2643 -0.2942 -0.2657
 2003SOL     OW17467   3.295   0.465  12.001  0.0236  0.6016  0.5962
 2003SOL    HW117468   3.371   0.521  11.987 -0.7178  1.6653  0.8906
 2003SOL    HW217469   3.298   0.464  12.096  1.5421 -0.6382  0.5341
 2004SOL     OW17470   0.568   4.654   5.229 -0.0170  0.1164 -0.1886
 2004SOL    HW117471   0.533   4.614   5.149  2.2982 -0.3393 -0.9885
 2004SOL    HW217472   0.540   0.019   5.217 -0.7362 -0.1280 -0.3363
 2005SOL     OW17473   1.841   3.289  10.451 -0.1503 -0.3320  0.3007
 2005SOL    HW117474   1.920   3.313  10.498 -1.1278  0.0770  1.7457
 2005SOL    HW217475   1.779   3.324  10.515  1.0357 -0.1420  1.3404
 2006SOL     OW17476   3.225   2.738  15.993  0.1448 -0.6206  0.1880
 2006SOL    HW117477   3.182   2.721  16.077 -0.2998 -1.0791 -0.1295
 2006SOL    HW217478   3.289   2.793  16.038  1.2269 -2.3485  0.7834
 2007SOL     OW17479   4.369   3.244  12.669 -0.3715 -0.0733  0.2105
 2007SOL    HW117480   4.432   3.315  12.665 -0.1863 -0.1793  1.3938
 2007SOL    HW217481   4.287   3.266  12.624  0.6791 -0.0789 -1.6850
 2008SOL     OW17482   2.469   2.642   7.102 -0.0968  0.2509  0.7454
 2008SOL    HW117483   2.477   2.699   7.025  0.4564 -0.2150  0.4564
 2008SOL    HW217484   2.540   2.578   7.099  0.5717  1.0643 -0.7167
 2009SOL     OW17485   1.332   0.865   6.764  0.5879  0.3021 -0.4582
 2009SOL    HW117486   1.263   0.810   6.801 -1.0272  1.4933 -1.6508
 2009SOL    HW217487   1.365   0.900   6.846  3.0757 -0.1432 -1.2695
 2010SOL     OW17488   0.618   0.865   5.561 -0.4334 -0.9106 -0.0142
 2010SOL    HW117489   0.618   0.770   5.559  1.1544 -0.8454 -2.8522
 2010SOL    HW217490   0.694   0.879   5.504  0.6161 -0.5190  1.4822
 2011SOL     OW17491   2.969   4.422   5.832  0.7386 -0.3194 -0.3288
 2011SOL    HW117492   2.914   4.480   5.779  0.4745  0.8753  1.2283
 2011SOL    HW217493   2.942   4.458   5.917  0.3044 -2.3735  0.4083
 2012SOL     OW17494   0.750   0.551  15.359  0.0832  0.0905 -0.1434
 2012SOL    HW117495   0.830   0.601  15.377 -1.0311  2.2454 -1.2497
 2012SOL    HW217496   0.770   0.469  15.314  1.0270  0.1073  0.2442
 2013SOL     OW17497   0.671   2.240   6.725  0.1625 -0.5480 -0.2742
 2013SOL    HW117498   0.651   2.329   6.754  0.3953 -1.3810  2.4210
 2013SOL    HW217499   0.590   2.227   6.675  1.4356 -1.6668 -2.0525
 2014SOL     OW17500   4.312   0.813   4.186  0.2420 -0.3717 -0.0936
 2014SOL    HW117501   4.303   0.874   4.113  0.3335  0.1596  0.3433
 2014SOL    HW217502   4.384   0.759   4.155  0.9702  0.4620  0.1471
 2015SOL     OW17503   0.474   2.457   8.546  0.4972  0.1886  0.3765
 2015SOL    HW117504   0.444   2.380   8.497 -0.8719  1.8751 -1.4551
 2015SOL    HW217505   0.384   2.470   8.576  0.5871  2.9582 -0.5506
 2016SOL     OW17506   1.578   2.193   2.125  0.5465 -0.2717  0.0123
 2016SOL    HW117507   1.623   2.113   2.098  1.1357  0.9548 -2.6116
 2016SOL    HW217508   1.615   2.261   2.069 -0.4173 -0.7924 -1.2472
 2017SOL     OW17509   1.456   2.567   5.897  0.3310 -0.0678  0.2321
 2017SOL    HW117510   1.521   2.637   5.901 -0.8828  0.9658  1.5971
 2017SOL    HW217511   1.382   2.600   5.848  0.2810 -0.9836 -0.3202
 2018SOL     OW17512   2.298   4.009   2.767 -0.0265  0.4604 -0.2780
 2018SOL    HW117513   2.390   4.026   2.787 -0.6715  1.5343  1.8714
 2018SOL    HW217514   2.304   3.940   2.702  2.8155  1.5465 -1.1583
 2019SOL     OW17515   1.017   1.446   5.846 -1.0476  0.3118  0.3810
 2019SOL    HW117516   1.048   1.465   5.934 -0.0879  1.2595 -0.1630
 2019SOL    HW217517   0.995   1.353   5.849  2.0294 -0.5690 -3.1684
 2020SOL     OW17518   2.400   1.366   2.577  0.1058  0.4690  0.0907
 2020SOL    HW117519   2.457   1.442   2.565  1.4316 -0.3875  0.9204
 2020SOL    HW217520   2.361   1.377   2.663  0.4008  0.5772  0.2109
 2021SOL     OW17521   2.247   1.732   4.515  0.7519  0.4605  0.2771
 2021SOL    HW117522   2.201   1.757   4.596 -1.2093 -1.2205 -0.3181
 2021SOL    HW217523   2.225   1.806   4.459  3.4437  0.4043 -0.8231
 2022SOL     OW17524   2.190   4.421   2.895  0.1607 -0.2664 -0.1141
 2022SOL    HW117525   2.102   4.442   2.864  0.7604  3.2850  0.5388
 2022SOL    HW217526   2.227   4.508   2.881 -1.8637  0.7602  0.8859
 2023SOL     OW17527   4.476   3.444   1.114  0.1877 -0.6077  0.0827
 2023SOL    HW117528   4.484   3.523   1.061 -0.6964 -0.5913 -0.0227
 2023SOL    HW217529   4.413   3.400   1.058 -0.4929  0.3790  0.0719
 2024SOL     OW17530   1.792   3.205   1.829 -0.3733  0.3328 -0.8191
 2024SOL    HW117531   1.857   3.151   1.784  1.4278  0.1488  1.9984
 2024SOL    HW217532   1.714   3.169   1.787  0.6347  0.1484 -2.5604
 2025SOL     OW17533   4.471   3.011  12.578  0.1507  0.1129 -0.6029
 2025SOL    HW117534   4.410   3.073  12.618 -0.7790 -2.5843  2.1649
 2025SOL    HW217535   4.411   2.957  12.525  1.7306 -3.6923  1.5005
 2026SOL     OW17536   4.169   4.284   5.524  0.8833  0.8596  0.1827
 2026SOL    HW117537   4.222   4.352   5.483  1.7586  0.4828  0.7019
 2026SOL    HW217538   4.081   4.323   5.526  0.5463  0.2033 -1.3378
 2027SOL     OW17539   3.836   4.295   9.447 -0.2064 -0.3839  0.1449
 2027SOL    HW117540   3.823   4.366   9.510  1.1126 -0.3935  0.4206
 2027SOL    HW217541   3.752   4.289   9.401 -1.4918  0.9031  2.3401
 2028SOL     OW17542   3.580   2.764   7.832  0.3366 -0.3232 -0.6483
 2028SOL    HW117543   3.564   2.830   7.899  0.9077 -1.0045  0.1576
 2028SOL    HW217544   3.494   2.767   7.790  0.7764  0.3625 -1.4991
 2029SOL     OW17545   2.722   4.347   9.237  0.5033 -0.0984 -0.1744
 2029SOL    HW117546   2.641   4.374   9.194  0.8323  0.6089 -0.3578
 2029SOL    HW217547   2.711   4.376   9.328 -0.1861  0.5736 -0.4674
 2030SOL     OW17548   1.942   4.213   3.079  0.2527 -0.3176  0.4649
 2030SOL    HW117549   1.922   4.132   3.125  1.9893 -1.8941 -1.5225
 2030SOL    HW217550   1.996   4.180   3.006 -0.5708  1.0749 -0.7695
 2031SOL     OW17551   3.127   1.227   3.420  0.3005  0.5641 -0.1088
 2031SOL    HW117552   3.101   1.317   3.437  0.9506  1.0761 -1.8685
 2031SOL    HW217553   3.082   1.213   3.336  2.3046  0.7988 -1.2179
 2032SOL     OW17554   3.171   0.668  17.425  0.2048  0.0952  0.2791
 2032SOL    HW117555   3.214   0.662  17.340  3.2142  1.4680  1.7183
 2032SOL    HW217556   3.239   0.669  17.493  2.0372  0.1264 -1.5754
 2033SOL     OW17557   1.125   3.896   4.726  0.0419 -0.2359 -0.0017
 2033SOL    HW117558   1.196   3.922   4.785 -0.0727 -1.2628  0.5835
 2033SOL    HW217559   1.068   3.972   4.713  1.9104  0.8629 -1.9669
 2034SOL     OW17560   1.762   2.542   5.579  0.0378  0.1933 -0.3249
 2034SOL    HW117561   1.694   2.475   5.590  0.7654 -0.3590  0.6916
 2034SOL    HW217562   1.805   2.548   5.664 -3.0392 -0.6995  1.2854
 2035SOL     OW17563   1.357   4.716   8.582 -0.0734 -0.1632  0.0083
 2035SOL    HW117564   1.406   0.065   8.617  0.5290 -0.8859  0.7366
 2035SOL    HW217565   1.325   4.676   8.663 -2.7471 -1.1393 -1.5432
 2036SOL     OW17566   3.300   0.372  14.485  0.2440  0.6659 -0.2294
 2036SOL    HW117567   3.374   0.429  14.505  0.9073 -0.0468 -0.6621
 2036SOL    HW217568   3.229   0.431  14.509 -1.2808 -0.9592 -0.7431
 2037SOL     OW17569   3.028   0.488   7.522 -0.5035  0.3212  0.6647
 2037SOL    HW117570   3.061   0.436   7.449 -0.9162  1.7595 -0.5593
 2037SOL    HW217571   3.047   0.577   7.491  0.9711 -0.9683 -2.1067
 2038SOL     OW17572   1.553   3.184  12.132 -0.1797  0.3091 -0.2192
 2038SOL    HW117573   1.459   3.194  12.118 -0.4889 -1.8289  0.3903
 2038SOL    HW217574   1.583   3.130  12.059  0.5358 -1.0543  1.0907
 2039SOL     OW17575   0.377   3.160   3.049 -0.1818 -0.4163  0.0675
 2039SOL    HW117576   0.463   3.122   3.069  0.1466  0.5692  0.5392
 2039SOL    HW217577   0.394   3.230   2.986 -4.2021 -1.2976 -1.9745
 2040SOL     OW17578   1.049   4.391   5.873  0.0876  0.3631  0.4064
 2040SOL    HW117579   1.094   4.320   5.919  1.3492  1.0545  0.2491
 2040SOL    HW217580   1.029   4.346   5.791 -2.6267 -0.0263  1.2876
 2041SOL     OW17581   3.111   3.435   5.860  0.3002  0.4265  0.2286
 2041SOL    HW117582   3.048   3.504   5.883 -0.1651 -0.1513  0.6569
 2041SOL    HW217583   3.185   3.471   5.909  0.0859 -2.4408  2.6414
 2042SOL     OW17584   0.623   3.603  13.445 -0.4989  0.0116  0.0348
 2042SOL    HW117585   0.691   3.623  13.509 -1.5382  1.7316  0.6048
 2042SOL    HW217586   0.571   3.683  13.453  1.1561  1.1237 -0.4892
 2043SOL     OW17587   4.495   4.481   4.901 -0.5930  0.6109 -0.0875
 2043SOL    HW117588   4.559   4.413   4.922 -0.5926  0.9388  0.9552
 2043SOL    HW217589   4.524   4.508   4.813 -0.1212 -2.0674 -0.7386
 2044SOL     OW17590   1.211   3.214   9.817  0.2062 -0.1717 -0.4746
 2044SOL    HW117591   1.173   3.126   9.820 -1.4272  0.5449  0.0127
 2044SOL    HW217592   1.303   3.187   9.814  0.5186  0.8930 -0.5212
 2045SOL     OW17593   4.214   4.660   7.227 -0.5515 -0.6175  0.2372
 2045SOL    HW117594   4.264   4.634   7.304  0.3730  1.6571  0.4026
 2045SOL    HW217595   4.129   4.679   7.266  0.1045  1.2918  0.7166
 2046SOL     OW17596   0.321   4.364   0.890 -0.3421  0.2147  0.1517
 2046SOL    HW117597   0.239   4.342   0.845 -1.0263  2.3459  0.3493
 2046SOL    HW217598   0.316   4.460   0.895  0.1977  0.2004  1.0051
 2047SOL     OW17599   1.362   2.853  10.634 -0.1616 -0.5620 -0.0734
 2047SOL    HW117600   1.381   2.785  10.569  2.7831  0.4664 -0.3045
 2047SOL    HW217601   1.312   2.798  10.695  0.0271  1.3243  1.7773
 2048SOL     OW17602   1.832   0.163   8.924  0.0664 -0.3480  0.3501
 2048SOL    HW117603   1.855   0.202   9.008 -1.8356  0.2077  0.5971
 2048SOL    HW217604   1.793   0.236   8.877  1.1420 -0.7777 -1.2395
 2049SOL     OW17605   0.901   1.225  14.550  0.6651  0.2682  0.4401
 2049SOL    HW117606   0.935   1.313  14.565 -0.0994  0.6352  0.0000
 2049SOL    HW217607   0.823   1.256  14.505 -0.5638 -2.6342  0.5840
 2050SOL     OW17608   1.186   0.904  17.482  0.3867 -0.1987  0.3330
 2050SOL    HW117609   1.129   0.976  17.510  1.4148  0.9123 -0.4502
 2050SOL    HW217610   1.275   0.938  17.489  0.3341 -0.2410  1.1823
 2051SOL     OW17611   1.589   0.530   8.393  0.3335  0.2619  0.1414
 2051SOL    HW117612   1.611   0.494   8.479 -1.4486 -0.7296  0.1630
 2051SOL    HW217613   1.671   0.533   8.343  0.8161  1.6388  1.0452
 2052SOL     OW17614   2.702   1.479   5.294  0.0606  0.1269 -0.5821
 2052SOL    HW117615   2.793   1.487   5.267  0.7093  1.6516  2.0764
 2052SOL    HW217616   2.652   1.479   5.212 -2.3943 -0.6661  0.8999
 2053SOL     OW17617   1.739   1.322   8.575  0.3682 -0.2413 -0.1614
 2053SOL    HW117618   1.756   1.252   8.512 -1.0104 -0.9919  0.2930
 2053SOL    HW217619   1.828   1.358   8.576 -0.2131  1.0988  2.5286
 2054SOL     OW17620   3.517   4.444   4.067 -0.4996  0.4458  0.1022
 2054SOL    HW117621   3.606   4.414   4.047 -2.3554 -3.3021 -2.6019
 2054SOL    HW217622   3.520   4.517   4.006  0.3224  0.7039  0.4557
 2055SOL     OW17623   3.337   1.172  15.363 -0.1997 -0.2640  0.2556
 2055SOL    HW117624   3.289   1.209  15.289  2.1963  1.6950 -0.3291
 2055SOL    HW217625   3.423   1.161  15.322 -1.0121  2.2307 -2.0892
 2056SOL     OW17626   2.644   1.163  12.262  0.7501 -0.2066 -0.1552
 2056SOL    HW117627   2.711   1.232  12.264  1.5512 -1.0000  0.4313
 2056SOL    HW217628   2.691   1.087  12.230 -1.4983 -1.0539 -1.4093
 2057SOL     OW17629   0.153   2.389   7.754 -0.1766  0.2626  0.6251
 2057SOL    HW117630   0.078   2.360   7.806  0.3537  0.9619  1.7883
 2057SOL    HW217631   0.205   2.310   7.747  0.6490  1.0507 -1.8312
 2058SOL     OW17632   0.277   0.449   9.289  0.1061  0.4873  0.7756
 2058SOL    HW117633   0.328   0.368   9.286  0.8185  0.9201  1.3453
 2058SOL    HW217634   0.278   0.487   9.201 -1.5796 -0.1854  0.4675
 2059SOL     OW17635   2.414   1.070  17.507 -0.0947  0.3906 -0.4735
 2059SOL    HW117636   2.356   0.995  17.518  1.0162 -0.1006  2.0066
 2059SOL    HW217637   2.491   1.027  17.470 -0.7325 -2.0384  1.0214
 2060SOL     OW17638   3.111   3.917   3.742  0.2625  0.2748  0.9561
 2060SOL    HW117639   3.194   3.963   3.758  0.8360  0.5466 -2.9358
 2060SOL    HW217640   3.138   3.825   3.745  1.1670  0.5551  1.5434
 2061SOL     OW17641   2.007   3.409  10.256 -0.1553  0.0571 -0.7321
 2061SOL    HW117642   2.070   3.342  10.231  0.6130  0.6946 -0.4992
 2061SOL    HW217643   2.074   3.477  10.263 -0.0779 -0.1352  0.3723
 2062SOL     OW17644   0.754   4.548   9.046 -0.3699  0.1728  0.1793
 2062SOL    HW117645   0.797   4.560   9.131 -0.9210 -0.4124  0.5495
 2062SOL    HW217646   0.673   4.595   9.066 -0.0416  0.7246  0.1971
 2063SOL     OW17647   3.290   4.430   4.539  0.3725 -0.0535 -0.6428
 2063SOL    HW117648   3.368   4.470   4.578  0.3921 -1.0931  0.3917
 2063SOL    HW217649   3.314   4.351   4.492 -2.8359 -1.9760  0.9477
 2064SOL     OW17650   4.641   4.650   6.046  0.5044  0.9028  0.1453
 2064SOL    HW117651   4.724   4.605   6.059  0.3229  1.1575  2.2485
 2064SOL    HW217652   4.603   4.606   5.970  0.4766 -1.8967  1.8002
 2065SOL     OW17653   1.996   4.431  17.258  0.0595 -0.2752  0.1499
 2065SOL    HW117654   1.980   4.403  17.349 -1.1915 -0.3491 -0.0960
 2065SOL    HW217655   2.047   4.510  17.275  0.0227  0.3840 -2.9462
 2066SOL     OW17656   3.121   1.680   9.248  0.4019  0.2656  0.2321
 2066SOL    HW117657   3.155   1.645   9.165 -0.6162 -0.3382  0.0666
 2066SOL    HW217658   3.061   1.752   9.229  2.0347  0.7781 -2.8887
 2067SOL     OW17659   4.396   3.209  11.720 -0.3043  0.3866  0.0315
 2067SOL    HW117660   4.338   3.275  11.682 -0.8201  0.8498  1.6383
 2067SOL    HW217661   4.434   3.172  11.640 -0.7673  2.3240 -1.0677
 2068SOL     OW17662   1.726   4.137   9.177  0.0793 -0.2331  0.1388
 2068SOL    HW117663   1.671   4.074   9.130 -1.2135 -0.2616  1.7148
 2068SOL    HW217664   1.679   4.219   9.191 -0.2016 -0.3990  0.1766
 2069SOL     OW17665   2.025   3.631   1.738  0.1977  0.3118 -0.3741
 2069SOL    HW117666   2.056   3.567   1.802 -1.9846 -0.9818 -0.6098
 2069SOL    HW217667   1.949   3.592   1.697  0.8503 -0.2390 -1.0514
 2070SOL     OW17668   4.057   0.352   9.107 -0.0623 -0.1294 -0.5602
 2070SOL    HW117669   4.026   0.268   9.072 -1.4219 -1.0705  2.8553
 2070SOL    HW217670   3.993   0.367   9.176  0.6498  0.2932  0.0024
 2071SOL     OW17671   0.263   3.067  12.994  0.0708 -0.1291  0.1176
 2071SOL    HW117672   0.181   3.022  12.974  0.1329  0.9346 -2.5207
 2071SOL    HW217673   0.246   3.066  13.088 -1.1285 -0.7071 -0.1068
 2072SOL     OW17674   4.533   4.045   9.630  0.0724 -0.5391 -0.4518
 2072SOL    HW117675   4.482   4.017   9.706  0.0245 -1.1534 -0.7139
 2072SOL    HW217676   4.597   3.974   9.625  1.0938  0.3244  0.0938
 2073SOL     OW17677   0.623   2.659   8.473  0.1438  0.0346 -0.3352
 2073SOL    HW117678   0.582   2.690   8.393 -0.7608 -0.2799  0.0012
 2073SOL    HW217679   0.558   2.591   8.491  0.0813  0.1670 -0.0522
 2074SOL     OW17680   2.428   4.453   3.451  0.0307  0.3097  0.2819
 2074SOL    HW117681   2.335   4.453   3.476  0.0814  3.0070  0.4599
 2074SOL    HW217682   2.419   4.506   3.372 -0.6701  1.1540  0.9314
 2075SOL     OW17683   0.020   4.604   0.478 -0.4600  0.2013 -0.4751
 2075SOL    HW117684   0.071   4.660   0.420 -0.4568  0.0411 -0.6250
 2075SOL    HW217685   0.086   4.606   0.548 -1.0607 -2.7769  0.1370
 2076SOL     OW17686   0.785   4.102   5.576  0.0917 -0.0831  0.0334
 2076SOL    HW117687   0.751   4.118   5.664  1.0958  1.9620  0.0644
 2076SOL    HW217688   0.810   4.010   5.573  1.8351  0.4282 -1.0745
 2077SOL     OW17689   0.069   3.027   3.982  0.8409 -0.2562  0.5124
 2077SOL    HW117690   0.017   2.949   3.964  1.9178 -0.8224 -0.0870
 2077SOL    HW217691   0.010   3.099   3.960 -0.2933 -1.7084 -1.1949
 2078SOL     OW17692   0.989   0.253   1.223 -0.1459 -0.0623  0.3453
 2078SOL    HW117693   0.926   0.271   1.292 -0.7604  0.5407 -0.3708
 2078SOL    HW217694   1.066   0.213   1.262 -0.3679 -0.8133  0.0262
 2079SOL     OW17695   0.921   3.898   0.082 -0.3967 -0.4712 -0.6661
 2079SOL    HW117696   0.944   3.821   0.031  0.3091 -0.1189 -0.8841
 2079SOL    HW217697   0.876   3.859   0.157 -1.5612 -2.5460 -2.4480
 2080SOL     OW17698   1.346   2.613  11.210  0.5720  0.6341 -0.3117
 2080SOL    HW117699   1.439   2.600  11.223  0.1476 -0.0037  2.0285
 2080SOL    HW217700   1.306   2.534  11.175 -0.0413  1.2693 -1.0460
 2081SOL     OW17701   0.220   1.153   2.221 -0.7436  0.1135 -0.7839
 2081SOL    HW117702   0.147   1.207   2.189  0.0504  0.7846 -1.4628
 2081SOL    HW217703   0.200   1.068   2.182 -0.8509 -0.4737  0.5616
 2082SOL     OW17704   2.316   2.502   6.318  0.3065 -0.3849 -0.7966
 2082SOL    HW117705   2.263   2.580   6.299 -2.7452 -2.6726 -1.7120
 2082SOL    HW217706   2.299   2.505   6.412  2.5677  2.3656 -0.4822
 2083SOL     OW17707   0.100   4.128   6.256 -0.0722  0.1810  0.1214
 2083SOL    HW117708   0.112   4.065   6.327 -0.7328  0.8659  0.8461
 2083SOL    HW217709   0.170   4.188   6.280  0.3516  0.9959 -3.0976
 2084SOL     OW17710   3.822   3.218  13.305  1.1531 -0.0043 -0.2596
 2084SOL    HW117711   3.812   3.209  13.210  1.5149 -1.2552 -0.1824
 2084SOL    HW217712   3.917   3.206  13.311  1.3253  0.3854 -2.3095
 2085SOL     OW17713   0.862   3.442  10.755  0.1683  0.0140 -0.1415
 2085SOL    HW117714   0.815   3.505  10.700  1.8186 -0.0737 -1.6554
 2085SOL    HW217715   0.802   3.367  10.759  0.7617 -0.4671 -0.1810
 2086SOL     OW17716   3.225   0.238  13.601  0.1031 -0.4005 -0.2424
 2086SOL    HW117717   3.179   0.161  13.567 -0.6318  0.8969 -2.1791
 2086SOL    HW217718   3.224   0.299  13.527  0.9543  3.2863  2.7875
 2087SOL     OW17719   0.789   0.425   8.158 -0.0513  0.1765 -0.1332
 2087SOL    HW117720   0.739   0.351   8.125 -0.1825 -0.0228  0.5202
 2087SOL    HW217721   0.849   0.390   8.223  0.8020  0.7080 -0.6384
 2088SOL     OW17722   1.270   4.421   4.849  0.0645  0.1332 -0.3347
 2088SOL    HW117723   1.221   4.492   4.891  0.3279 -0.0305  0.2503
 2088SOL    HW217724   1.259   4.356   4.918 -0.5159 -0.2192 -0.7652
 2089SOL     OW17725   0.913   2.605  17.547  0.0367  0.8293  0.0682
 2089SOL    HW117726   0.997   2.565  17.524 -0.4993 -0.3819  0.1885
 2089SOL    HW217727   0.852   2.533  17.527  0.6433 -0.2537  2.1572
 2090SOL     OW17728   0.224   1.225  11.727  0.0481  0.3267 -0.0940
 2090SOL    HW117729   0.136   1.193  11.747 -0.7006  1.5290 -1.4958
 2090SOL    HW217730   0.223   1.278  11.648 -1.1471  0.2475 -0.1296
 2091SOL     OW17731   4.236   4.100   7.649 -0.5672 -0.4592  0.3166
 2091SOL    HW117732   4.331   4.110   7.652 -0.5105 -0.5783 -1.0580
 2091SOL    HW217733   4.202   4.141   7.569  0.0170 -3.6794 -1.6292
 2092SOL     OW17734   0.218   4.672  11.694  0.5582  0.3952 -0.2066
 2092SOL    HW117735   0.227   0.020  11.754 -1.4492  0.7231 -0.2879
 2092SOL    HW217736   0.227   4.598  11.753 -1.2311 -1.1256 -1.8512
 2093SOL     OW17737   3.250   2.263   7.431 -0.6544 -0.0824  0.0956
 2093SOL    HW117738   3.223   2.225   7.515 -0.0285 -0.2083  0.2418
 2093SOL    HW217739   3.168   2.300   7.399  0.2751 -0.6084 -2.9369
 2094SOL     OW17740   3.362   2.732  13.559 -0.2864 -0.2174  0.6378
 2094SOL    HW117741   3.450   2.764  13.580 -0.5542  0.1852  1.1413
 2094SOL    HW217742   3.309   2.805  13.592  0.4443  0.3580  0.5314
 2095SOL     OW17743   1.896   2.490   6.268 -0.0786  0.0341 -0.3907
 2095SOL    HW117744   1.925   2.531   6.349 -1.2997 -0.0698  0.1085
 2095SOL    HW217745   1.802   2.507   6.280 -0.4026 -2.0869  0.2159
 2096SOL     OW17746   4.159   1.503   4.701 -0.1926  0.3992 -0.1359
 2096SOL    HW117747   4.236   1.461   4.739 -0.4999 -1.3796 -1.5129
 2096SOL    HW217748   4.081   1.454   4.725  0.5573 -1.2368 -1.0769
 2097SOL     OW17749   0.008   0.200   2.390  1.2938  0.9246 -0.1616
 2097SOL    HW117750   4.690   0.125   2.431  0.5709  1.7332  0.5356
 2097SOL    HW217751   0.071   0.224   2.459  2.3565 -1.0257 -0.4463
 2098SOL     OW17752   3.395   0.158   8.966  0.0189  0.2368  0.0930
 2098SOL    HW117753   3.319   0.147   8.909 -1.2108  0.2636  1.7138
 2098SOL    HW217754   3.366   0.244   8.999 -0.0971 -0.6695  2.3784
 2099SOL     OW17755   2.025   1.663   6.109  0.5795 -0.4075  0.3014
 2099SOL    HW117756   2.064   1.703   6.031  1.5910 -1.3596  0.3256
 2099SOL    HW217757   2.109   1.643   6.151 -0.0561 -2.6751  0.4491
 2100SOL     OW17758   0.080   3.393   0.295  0.1712 -0.2227 -0.1033
 2100SOL    HW117759   0.169   3.418   0.269 -0.5564  1.0678 -1.3837
 2100SOL    HW217760   0.032   3.396   0.213 -0.1085  0.7599  0.0918
 2101SOL     OW17761   3.531   0.988   8.955 -0.5549 -0.3208  0.6917
 2101SOL    HW117762   3.477   0.915   8.983 -0.2636 -1.1951 -0.9804
 2101SOL    HW217763   3.596   0.993   9.025  0.4051 -2.9588  0.0046
 2102SOL     OW17764   3.965   1.822   1.386 -0.0545 -0.6303  0.2443
 2102SOL    HW117765   3.968   1.743   1.441  0.8590 -0.8836 -0.1695
 2102SOL    HW217766   4.012   1.779   1.315  0.6816  1.2806 -0.4394
 2103SOL     OW17767   3.585   2.668   6.923 -0.1482  0.2938  0.1395
 2103SOL    HW117768   3.616   2.722   6.851 -0.0828  0.7634  0.5192
 2103SOL    HW217769   3.577   2.729   6.996  3.6272  1.8755 -0.7852
 2104SOL     OW17770   4.471   4.293   0.172 -0.0887 -0.5349  0.4991
 2104SOL    HW117771   4.420   4.339   0.105  0.7571 -0.5238 -0.1264
 2104SOL    HW217772   4.405   4.273   0.239  0.7736  2.4621  2.2558
 2105SOL     OW17773   0.849   4.549   9.292 -0.6295 -0.3589  0.4606
 2105SOL    HW117774   0.882   4.488   9.357 -1.1375 -1.4533 -0.3111
 2105SOL    HW217775   0.774   4.580   9.343 -1.9264 -0.4403 -1.4164
 2106SOL     OW17776   3.252   4.452   8.471  0.3234 -0.1461  0.4623
 2106SOL    HW117777   3.211   4.423   8.390 -2.0666  0.7256  1.3507
 2106SOL    HW217778   3.335   4.492   8.444  0.2637 -1.0017 -0.9457
 2107SOL     OW17779   2.040   3.808  14.136  0.1016 -0.7078  0.0918
 2107SOL    HW117780   2.135   3.797  14.135  0.2183  0.4083 -1.4875
 2107SOL    HW217781   2.027   3.819  14.042 -0.1662  2.8698  0.5548
 2108SOL     OW17782   3.906   4.681  10.891 -0.2975 -0.0050  0.5413
 2108SOL    HW117783   3.867   0.008  10.822 -1.9685 -1.4765  0.3440
 2108SOL    HW217784   3.910   4.599  10.841 -1.0226  0.7867 -0.8009
 2109SOL     OW17785   2.070   2.078  12.500  0.3049  0.8187  0.3349
 2109SOL    HW117786   2.022   2.033  12.431 -0.2111  0.0538  1.2024
 2109SOL    HW217787   2.128   2.129  12.443  0.0375  0.0874 -0.5929
 2110SOL     OW17788   3.303   2.795   8.172  0.0946 -0.1107  0.5283
 2110SOL    HW117789   3.377   2.832   8.124 -1.4123  1.5728 -0.5135
 2110SOL    HW217790   3.339   2.753   8.250 -0.0092 -1.5892 -0.2237
 2111SOL     OW17791   3.006   3.341  10.008  0.8535  0.5985  1.1302
 2111SOL    HW117792   2.964   3.292  10.080 -0.9528 -0.2176 -0.4824
 2111SOL    HW217793   2.989   3.278   9.938  0.5899  0.6765  1.1212
 2112SOL     OW17794   0.238   2.160  17.367 -0.8947  0.2584  0.0646
 2112SOL    HW117795   0.176   2.227  17.396 -0.2199  0.7568  0.3484
 2112SOL    HW217796   0.181   2.088  17.341 -2.1373  0.4747  2.1789
 2113SOL     OW17797   2.361   1.475   1.409 -0.4020 -0.0224  0.3967
 2113SOL    HW117798   2.313   1.544   1.364 -0.5633 -0.7064 -0.4882
 2113SOL    HW217799   2.315   1.488   1.492 -0.6099  2.6197 -0.1526
 2114SOL     OW17800   2.355   0.358   3.050 -0.3993  0.1813  0.5995
 2114SOL    HW117801   2.447   0.379   3.036 -0.6296 -0.4464 -2.0451
 2114SOL    HW217802   2.319   0.392   2.968 -1.1817  1.1254  1.3345
 2115SOL     OW17803   3.238   2.182   8.014 -0.6407  0.7285  0.7714
 2115SOL    HW117804   3.256   2.095   8.050  0.4242  1.4027  1.8949
 2115SOL    HW217805   3.152   2.166   7.977  0.6169  0.4340 -2.0091
 2116SOL     OW17806   3.118   3.849   9.197  0.3349  0.0705  0.1298
 2116SOL    HW117807   3.138   3.767   9.151 -0.5178 -0.4606  0.7048
 2116SOL    HW217808   3.038   3.867   9.149  0.1581 -0.5609  0.1843
 2117SOL     OW17809   3.504   1.330  15.614 -0.2159  0.6649  0.4440
 2117SOL    HW117810   3.579   1.334  15.673 -0.1928 -0.3541  0.4896
 2117SOL    HW217811   3.543   1.344  15.528  3.6039 -1.7815  1.8173
 2118SOL     OW17812   1.013   4.284   5.616  0.5122 -0.3384  0.1178
 2118SOL    HW117813   0.948   4.232   5.568 -0.3068 -0.9650  1.8747
 2118SOL    HW217814   1.001   4.369   5.575 -1.0022 -0.6666 -0.1474
 2119SOL     OW17815   0.689   1.836   1.639  0.9096  0.2161  0.1405
 2119SOL    HW117816   0.775   1.877   1.650  1.1600  0.3357 -2.2743
 2119SOL    HW217817   0.724   1.754   1.604  1.5865 -0.3156  2.0513
 2120SOL     OW17818   4.065   0.599   9.793 -0.3694  0.2988 -0.5910
 2120SOL    HW117819   4.034   0.562   9.876  0.5627 -0.3891 -0.5581
 2120SOL    HW217820   4.146   0.551   9.779  0.6424  2.1630 -1.1027
 2121SOL     OW17821   3.724   1.136   5.040  0.3041  0.1683  0.3354
 2121SOL    HW117822   3.683   1.125   4.954 -2.0409  1.0449  1.3498
 2121SOL    HW217823   3.697   1.053   5.079 -0.0263 -0.5162 -1.3437
 2122SOL     OW17824   0.881   0.963   5.934  0.1588  0.2395  0.2109
 2122SOL    HW117825   0.884   1.045   5.884  0.2086  0.1974  0.1449
 2122SOL    HW217826   0.907   0.907   5.861  0.2353 -1.3435  1.4799
 2123SOL     OW17827   3.992   3.080  11.667 -0.3653 -0.0463 -0.6105
 2123SOL    HW117828   3.976   3.101  11.759 -0.8023  1.1548 -0.9639
 2123SOL    HW217829   4.024   2.989  11.665 -2.7138 -0.9150  0.9007
 2124SOL     OW17830   3.822   0.707   4.560  0.9521 -0.1821  0.2357
 2124SOL    HW117831   3.783   0.664   4.484 -1.9729  0.3385  1.4617
 2124SOL    HW217832   3.783   0.794   4.567  0.7215 -0.2952  0.3376
 2125SOL     OW17833   2.656   2.529   1.078 -0.1052  0.1351  0.1361
 2125SOL    HW117834   2.741   2.507   1.114  0.3917 -2.0575 -2.3270
 2125SOL    HW217835   2.673   2.494   0.990 -0.5617  1.0810 -0.3261
 2126SOL     OW17836   1.070   0.814   0.796  0.7636 -0.1821  0.6226
 2126SOL    HW117837   1.140   0.814   0.730 -1.5623 -0.4239 -1.8184
 2126SOL    HW217838   1.127   0.828   0.872  0.3208 -1.4306  1.1836
 2127SOL     OW17839   3.373   4.293   2.995  0.0516 -0.3932  0.5357
 2127SOL    HW117840   3.371   4.358   3.065 -0.0866 -0.3608  0.5012
 2127SOL    HW217841   3.389   4.346   2.918 -0.3425 -2.3860 -0.9318
 2128SOL     OW17842   0.832   4.668   4.577 -0.1327 -0.1171 -0.8460
 2128SOL    HW117843   0.801   4.588   4.618  0.1206  1.1612  1.8161
 2128SOL    HW217844   0.812   4.657   4.484 -0.3722 -1.6614 -0.6095
 2129SOL     OW17845   0.663   0.091   5.027  0.4407  0.2098  0.3516
 2129SOL    HW117846   0.670   0.186   5.037 -0.6009  0.4971 -1.6046
 2129SOL    HW217847   0.734   0.080   4.964  0.4965 -1.3351  0.6850
 2130SOL     OW17848   2.587   0.273   2.174  0.3090 -1.0044 -0.2481
 2130SOL    HW117849   2.587   0.280   2.270  0.9688  1.0313 -0.3915
 2130SOL    HW217850   2.506   0.231   2.144 -0.0648 -0.2258 -0.3277
 2131SOL     OW17851   4.307   3.943  16.279 -0.7947 -0.0912 -0.6285
 2131SOL    HW117852   4.392   3.901  16.282 -0.5996  0.2726 -1.1718
 2131SOL    HW217853   4.254   3.890  16.339  0.9524 -1.0918  0.0382
 2132SOL     OW17854   1.897   4.625   4.157 -0.0596  0.1125 -0.4413
 2132SOL    HW117855   1.947   4.684   4.101  0.5002  1.2266  1.2013
 2132SOL    HW217856   1.973   4.571   4.178 -0.6754 -0.9208 -0.8900
 2133SOL     OW17857   0.799   0.131  12.388  0.0484 -0.2258  0.2282
 2133SOL    HW117858   0.841   0.063  12.335  0.5418 -0.5054  0.9816
 2133SOL    HW217859   0.705   0.111  12.384 -0.1271  0.9224 -1.4598
 2134SOL     OW17860   1.394   2.321   3.917 -0.3329  0.5681  0.1560
 2134SOL    HW117861   1.365   2.400   3.871  0.8851 -0.0333 -1.6305
 2134SOL    HW217862   1.365   2.339   4.007 -1.6723 -2.6359  0.3665
 2135SOL     OW17863   4.238   3.042   4.917 -0.2061  0.3166 -0.2158
 2135SOL    HW117864   4.280   3.111   4.968 -0.5752  0.8859 -0.6662
 2135SOL    HW217865   4.159   3.029   4.969  0.2154  3.0966  1.1297
 2136SOL     OW17866   1.511   3.426   1.197 -0.0518 -0.0305  0.1341
 2136SOL    HW117867   1.489   3.464   1.112 -1.5025 -1.4640 -0.1498
 2136SOL    HW217868   1.531   3.335   1.174 -0.0404 -0.2405  0.9650
 2137SOL     OW17869   2.640   2.091   2.386  0.6825 -0.2884 -0.1379
 2137SOL    HW117870   2.702   2.029   2.426 -1.0542 -2.3304 -0.6742
 2137SOL    HW217871   2.696   2.169   2.384 -0.3529  0.4700  0.4216
 2138SOL     OW17872   4.572   2.229  15.403  0.1839 -0.3134 -0.6277
 2138SOL    HW117873   4.614   2.304  15.362  0.4199  0.1397  0.4638
 2138SOL    HW217874   4.649   2.173  15.417 -0.3185 -1.1810 -1.3208
 2139SOL     OW17875   2.540   4.338   2.282  0.4516  0.8738 -0.2394
 2139SOL    HW117876   2.574   4.259   2.241  0.2940  1.0780 -0.7716
 2139SOL    HW217877   2.553   4.322   2.375  2.0161 -1.5924 -0.8959
 2140SOL     OW17878   0.798   0.756   4.128 -0.5036 -0.3733  0.0898
 2140SOL    HW117879   0.885   0.747   4.168 -1.0236  2.5350  1.8422
 2140SOL    HW217880   0.802   0.844   4.092  1.5482 -0.5428 -0.1252
 2141SOL     OW17881   4.230   2.953   9.207 -0.5527  0.1127  0.0384
 2141SOL    HW117882   4.191   3.018   9.150 -0.3641  0.6101  0.4826
 2141SOL    HW217883   4.155   2.916   9.253 -0.3985  0.2688  0.4087
 2142SOL     OW17884   3.905   3.533   3.798 -0.2202  0.6859 -0.2882
 2142SOL    HW117885   3.866   3.551   3.713 -0.1799  2.6122  0.0960
 2142SOL    HW217886   3.994   3.559   3.773 -0.1370  1.4760  0.8102
 2143SOL     OW17887   1.128   4.001  14.865  0.7294  0.3295  0.3361
 2143SOL    HW117888   1.109   3.918  14.822 -0.2115  0.7453 -0.0518
 2143SOL    HW217889   1.165   3.974  14.949 -0.3147  0.6970  0.9171
 2144SOL     OW17890   0.164   2.799   6.260 -0.1577 -0.1423 -0.1873
 2144SOL    HW117891   0.122   2.746   6.327 -0.3582 -0.7186 -0.7708
 2144SOL    HW217892   0.109   2.877   6.252 -0.2999 -0.0798  1.4207
 2145SOL     OW17893   0.332   1.357   9.693 -0.4958 -0.1509 -0.5920
 2145SOL    HW117894   0.287   1.428   9.740 -0.9505 -0.0463 -1.1923
 2145SOL    HW217895   0.370   1.409   9.623 -0.4546  0.0511 -0.4220
 2146SOL     OW17896   3.953   1.817   6.321  0.1292 -0.0911  0.1815
 2146SOL    HW117897   3.966   1.747   6.257 -0.6312  1.0573 -1.2197
 2146SOL    HW217898   3.948   1.756   6.395 -3.4295  0.2497  0.1915
 2147SOL     OW17899   4.283   0.951   4.895  0.4747 -0.4039  0.0281
 2147SOL    HW117900   4.258   1.021   4.956 -1.3591 -2.2744  1.4286
 2147SOL    HW217901   4.370   0.963   4.857 -0.5560  0.0003 -2.2154
 2148SOL     OW17902   4.422   1.925   1.758 -0.0690 -0.1814 -0.2459
 2148SOL    HW117903   4.505   1.947   1.715 -1.9816  2.1325 -2.7503
 2148SOL    HW217904   4.463   1.890   1.837  0.1622 -1.6975 -1.0343
 2149SOL     OW17905   1.238   0.432   5.274 -0.0347  0.5414 -0.0475
 2149SOL    HW117906   1.328   0.460   5.284  0.3123  0.2716 -2.3665
 2149SOL    HW217907   1.224   0.408   5.366 -0.8041 -1.4912 -0.6838
 2150SOL     OW17908   3.059   2.527   0.306  0.0426  0.0763  0.2965
 2150SOL    HW117909   3.091   2.542   0.396  1.9366  0.0730 -0.3710
 2150SOL    HW217910   3.133   2.556   0.252  0.3326 -1.6751 -0.2196
 2151SOL     OW17911   4.066   3.494  10.932 -0.6482 -0.0332  0.1977
 2151SOL    HW117912   4.056   3.525  11.022  1.0599  1.1389 -0.0201
 2151SOL    HW217913   4.048   3.400  10.940  0.9425 -0.5666 -2.3831
 2152SOL     OW17914   1.318   0.946   0.067  0.0340  0.4123 -0.1366
 2152SOL    HW117915   1.266   0.867   0.064  0.9923 -0.2040 -0.5528
 2152SOL    HW217916   1.405   0.907   0.065  0.4173  1.2861 -0.7416
 2153SOL     OW17917   1.320   4.084   9.434 -0.0006  0.2151 -0.2083
 2153SOL    HW117918   1.301   4.099   9.342 -1.7716  1.4729  0.3669
 2153SOL    HW217919   1.311   4.178   9.449  0.0261  0.4700 -1.8392
 2154SOL     OW17920   2.466   4.040   6.491  0.2201 -0.1479  0.1938
 2154SOL    HW117921   2.487   3.982   6.564  1.6385  0.7202  0.4865
 2154SOL    HW217922   2.522   3.998   6.425 -2.0437 -1.8312 -0.6440
 2155SOL     OW17923   3.249   2.858   7.128  0.3896 -0.1045  0.1407
 2155SOL    HW117924   3.176   2.864   7.189 -0.1201 -2.2260 -0.2716
 2155SOL    HW217925   3.269   2.769   7.156  2.0207  0.8005  1.8851
 2156SOL     OW17926   4.405   0.135  13.932  0.6785  0.3052 -0.1264
 2156SOL    HW117927   4.420   0.222  13.970  0.2674  0.1953  0.2909
 2156SOL    HW217928   4.456   0.143  13.852  1.7316  1.4345  0.6453
 2157SOL     OW17929   3.027   0.398  10.519  0.9775  0.5804  0.7423
 2157SOL    HW117930   3.043   0.377  10.611 -0.6012 -0.8399  0.6826
 2157SOL    HW217931   3.074   0.328  10.473  0.9256 -1.2397  3.4925
 2158SOL     OW17932   3.347   0.699   8.242 -0.1669  0.1592  0.5973
 2158SOL    HW117933   3.272   0.757   8.229 -0.1694  0.4763  1.9945
 2158SOL    HW217934   3.424   0.746   8.273  0.7059  0.2065 -1.6709
 2159SOL     OW17935   2.348   1.445   7.725  0.1428 -0.3605 -0.0618
 2159SOL    HW117936   2.276   1.505   7.707 -0.0020 -0.7348 -0.7179
 2159SOL    HW217937   2.420   1.493   7.684  1.0131 -1.7546 -0.1804
 2160SOL     OW17938   0.700   1.721  15.980  0.1454  0.0543 -0.2237
 2160SOL    HW117939   0.664   1.688  15.897  0.9248  0.0559 -0.5668
 2160SOL    HW217940   0.687   1.815  15.970  3.9057  0.6303  0.3653
 2161SOL     OW17941   2.538   4.192  16.799  0.7258 -0.2833 -0.5684
 2161SOL    HW117942   2.601   4.264  16.806  0.7196 -0.3954  0.6173
 2161SOL    HW217943   2.472   4.224  16.861  2.2009 -3.8864  2.8604
 2162SOL     OW17944   2.913   2.829   7.674  0.3950 -0.3323 -0.1554
 2162SOL    HW117945   2.918   2.921   7.648  0.3498  0.1389  1.5086
 2162SOL    HW217946   2.821   2.822   7.696  0.3416  1.0322  0.0694
 2163SOL     OW17947   3.857   0.537   0.570 -0.0339  0.2161  0.7984
 2163SOL    HW117948   3.842   0.608   0.632  0.5005  0.2331  0.9127
 2163SOL    HW217949   3.765   0.514   0.562  0.1587  0.4091 -1.7740
 2164SOL     OW17950   0.600   1.738  10.916  0.2182 -0.2091  0.0350
 2164SOL    HW117951   0.515   1.730  10.959  0.6345 -0.1379  0.8585
 2164SOL    HW217952   0.653   1.742  10.995 -2.4526  2.8443  1.6478
 2165SOL     OW17953   4.100   2.508   3.085 -0.0478  0.5767 -0.3554
 2165SOL    HW117954   4.120   2.430   3.033 -1.9440  0.3696 -0.7900
 2165SOL    HW217955   4.004   2.508   3.092  0.1290 -0.4833  1.8323
 2166SOL     OW17956   4.282   3.973   4.151  0.1326  0.1624 -0.1204
 2166SOL    HW117957   4.256   4.046   4.207  1.2470 -0.5141  1.2743
 2166SOL    HW217958   4.204   3.917   4.150  1.1862 -1.3458  1.2866
 2167SOL     OW17959   2.384   0.488   7.040 -0.1438 -0.4610 -0.6277
 2167SOL    HW117960   2.390   0.393   7.046  2.1466 -0.2778  0.1273
 2167SOL    HW217961   2.347   0.511   7.125 -0.8299 -0.1462 -1.0127
 2168SOL     OW17962   0.442   0.138  13.322 -0.4783  0.3988  0.7940
 2168SOL    HW117963   0.485   0.215  13.284  1.1275 -0.2589  1.2957
 2168SOL    HW217964   0.505   0.067  13.310 -1.2972 -0.0899 -0.5457
 2169SOL     OW17965   2.312   1.686   4.806  0.9617 -0.1879 -0.3661
 2169SOL    HW117966   2.404   1.681   4.833  0.4149  0.4579  1.6375
 2169SOL    HW217967   2.278   1.756   4.862 -0.9761 -0.2039 -1.5501
 2170SOL     OW17968   3.554   3.255  15.773 -0.6807  0.2594  0.0852
 2170SOL    HW117969   3.574   3.291  15.860 -0.8070 -0.1279  0.2761
 2170SOL    HW217970   3.464   3.287  15.779 -0.6782  0.2047  0.4362
 2171SOL     OW17971   1.170   1.734   5.219 -0.2449 -0.1400  0.2400
 2171SOL    HW117972   1.153   1.774   5.134 -1.6863  2.2792  1.6433
 2171SOL    HW217973   1.176   1.810   5.277  2.2236 -0.2170  0.0682
 2172SOL     OW17974   4.627   2.454   9.167  0.1815 -0.6267 -0.4024
 2172SOL    HW117975   4.722   2.467   9.170  0.7281 -5.1194  1.2562
 2172SOL    HW217976   4.619   2.398   9.244  0.9796 -0.3877 -0.1434
 2173SOL     OW17977   2.221   3.900   3.661  0.5678 -0.1879 -0.5627
 2173SOL    HW117978   2.210   3.991   3.687  0.3441  0.6840 -3.6714
 2173SOL    HW217979   2.304   3.904   3.614  1.1326  1.7041  0.6035
 2174SOL     OW17980   2.149   0.059  15.376 -0.6843  0.1289 -0.0543
 2174SOL    HW117981   2.232   0.054  15.424 -0.3134 -0.2251 -0.7352
 2174SOL    HW217982   2.157   0.011  15.294 -0.0809  2.7699 -1.5536
 2175SOL     OW17983   0.509   0.121   1.046 -0.8937 -0.7000  0.0506
 2175SOL    HW117984   0.580   0.099   0.986 -0.6581  1.0217 -0.3005
 2175SOL    HW217985   0.534   0.211   1.066 -1.1923 -0.6467  0.1857
 2176SOL     OW17986   0.732   4.669   1.164  0.3971  0.4151  0.1563
 2176SOL    HW117987   0.785   0.016   1.133 -0.6832  1.0925 -0.1219
 2176SOL    HW217988   0.798   4.600   1.162  0.8196  0.8540 -0.9972
 2177SOL     OW17989   1.118   2.761   4.895  0.4700  0.5962  0.5872
 2177SOL    HW117990   1.088   2.771   4.804 -1.9332 -1.5706  1.1417
 2177SOL    HW217991   1.039   2.729   4.939 -0.1735  0.6540 -0.5239
 2178SOL     OW17992   4.662   2.950   9.371  0.0477  0.0711 -0.0833
 2178SOL    HW117993   4.567   2.939   9.374 -0.0899  1.3883  0.6289
 2178SOL    HW217994   4.690   2.861   9.351 -2.8714 -1.2845  1.8549
 2179SOL     OW17995   0.937   1.568   5.225  0.3699  0.8967  0.5306
 2179SOL    HW117996   1.022   1.597   5.193 -0.4392  0.1929 -2.2321
 2179SOL    HW217997   0.893   1.539   5.145  2.3301 -1.6414  0.3501
 2180SOL     OW17998   4.230   2.675   9.561 -0.2280  0.0876  0.9360
 2180SOL    HW117999   4.224   2.642   9.651  0.6097 -1.3270  0.4669
 2180SOL    HW218000   4.285   2.604   9.527  0.1077  1.1596 -0.7338
 2181SOL     OW18001   3.705   3.791   3.343  0.1906  0.0257 -0.5734
 2181SOL    HW118002   3.680   3.766   3.254 -2.8289  1.1854 -0.0431
 2181SOL    HW218003   3.646   3.864   3.361 -1.1631 -0.9465 -1.0388
 2182SOL     OW18004   3.030   3.986  17.314  0.2366 -0.7519 -0.6318
 2182SOL    HW118005   3.022   3.904  17.363 -0.1638 -0.0960  0.3971
 2182SOL    HW218006   3.107   3.964  17.262  2.4732  1.6178  1.6959
 2183SOL     OW18007   0.082   1.762   2.732  0.1925  0.4733 -0.1887
 2183SOL    HW118008   4.716   1.739   2.743  0.2914  0.0844 -0.1620
 2183SOL    HW218009   0.075   1.856   2.746  0.2250  0.6663 -1.4308
 2184SOL     OW18010   3.288   1.408  14.651  0.2887 -0.4321  0.4610
 2184SOL    HW118011   3.231   1.485  14.648 -1.3615 -1.6891 -0.3526
 2184SOL    HW218012   3.223   1.341  14.631 -0.5897  0.3138  0.8034
 2185SOL     OW18013   2.539   3.437   2.579  0.4999 -0.0703  0.3681
 2185SOL    HW118014   2.479   3.368   2.550 -0.1582  0.1829  1.1342
 2185SOL    HW218015   2.501   3.523   2.561 -0.4707  0.0629  3.0528
 2186SOL     OW18016   1.281   1.732   2.550  0.1887 -0.2543 -0.8336
 2186SOL    HW118017   1.368   1.708   2.520  0.0330 -1.0438 -0.6564
 2186SOL    HW218018   1.301   1.781   2.630 -0.0233 -0.4340 -0.6706
 2187SOL     OW18019   1.358   0.925   9.350  0.0546 -0.0684  0.0545
 2187SOL    HW118020   1.304   0.909   9.273 -0.4286 -1.3307  0.6418
 2187SOL    HW218021   1.293   0.971   9.404  0.5492 -1.4067  1.7925
 2188SOL     OW18022   1.063   3.466   6.813  0.1465 -0.4461  0.6117
 2188SOL    HW118023   1.031   3.422   6.892 -1.7138 -1.6762 -0.8272
 2188SOL    HW218024   1.091   3.390   6.763 -0.0397  0.6081 -1.1006
 2189SOL     OW18025   3.324   3.692  10.803 -0.0269  0.8095 -0.0535
 2189SOL    HW118026   3.318   3.621  10.868  0.9939  1.9156  1.2319
 2189SOL    HW218027   3.278   3.763  10.848 -0.6133 -0.3430  1.1901
 2190SOL     OW18028   3.106   1.939   1.182  0.3492  0.6870 -0.0286
 2190SOL    HW118029   3.099   1.866   1.120  1.1029 -0.5885  1.3884
 2190SOL    HW218030   3.201   1.947   1.190  0.2750  2.3568 -0.7480
 2191SOL     OW18031   4.191   3.442   9.039  0.5975  0.4254  0.5960
 2191SOL    HW118032   4.105   3.474   9.066  0.5280 -1.1904  2.2738
 2191SOL    HW218033   4.239   3.517   9.074  0.5052  1.3303 -1.1785
 2192SOL     OW18034   0.709   4.025   4.943 -0.1325  0.1538 -0.1530
 2192SOL    HW118035   0.693   4.013   5.036 -1.9156  0.5981 -0.3904
 2192SOL    HW218036   0.757   4.107   4.942  0.2377 -0.0704 -0.6275
 2193SOL     OW18037   0.279   2.439   3.868  0.0530  0.0864 -0.2115
 2193SOL    HW118038   0.320   2.439   3.954 -1.6037  0.7830  0.5800
 2193SOL    HW218039   0.220   2.512   3.884  0.9319  0.5493  0.8737
 2194SOL     OW18040   2.331   3.437   5.177 -0.1961 -0.0988 -0.4182
 2194SOL    HW118041   2.266   3.391   5.124 -0.5070 -0.7868  0.5546
 2194SOL    HW218042   2.287   3.433   5.262 -1.3816 -1.2949 -1.0792
 2195SOL     OW18043   1.362   4.057  10.387 -0.0335  0.2016 -0.3236
 2195SOL    HW118044   1.390   4.143  10.420 -0.6184  0.1464  0.3045
 2195SOL    HW218045   1.451   4.021  10.396  0.1614  1.0244  0.9471
 2196SOL     OW18046   0.239   0.690   8.636 -0.2196  0.1225  0.1847
 2196SOL    HW118047   0.288   0.636   8.574 -1.9580 -0.6000 -0.5864
 2196SOL    HW218048   0.172   0.633   8.675 -0.6534  1.2636  1.1129
 2197SOL     OW18049   2.237   0.574   8.643  0.4877  0.3054  0.2400
 2197SOL    HW118050   2.236   0.670   8.632  1.1379  0.3701  0.7586
 2197SOL    HW218051   2.299   0.539   8.579 -2.3623 -0.0492 -2.3029
 2198SOL     OW18052   0.097   1.849   2.172 -0.1151  0.3147  0.1592
 2198SOL    HW118053   0.043   1.838   2.093  1.5456  1.9173 -1.1753
 2198SOL    HW218054   0.160   1.907   2.132 -1.5040  2.1424  0.6369
 2199SOL     OW18055   3.800   1.726  15.891 -0.4388  0.1971 -0.1164
 2199SOL    HW118056   3.793   1.672  15.813  1.0960 -1.6559  1.0409
 2199SOL    HW218057   3.871   1.787  15.869  0.1748 -0.4145  0.1579
 2200SOL     OW18058   1.206   0.924  10.112 -0.0509  0.6410  0.5225
 2200SOL    HW118059   1.151   0.870  10.055  1.3971 -0.0557 -0.2047
 2200SOL    HW218060   1.145   0.985  10.154  1.2280  2.1398  0.2211
 2201SOL     OW18061   4.006   0.972  12.260 -0.2325 -0.5987 -0.0989
 2201SOL    HW118062   4.099   0.969  12.279 -0.0857 -2.8759 -1.1750
 2201SOL    HW218063   4.000   0.971  12.165  1.6308  0.4882 -0.2283
 2202SOL     OW18064   1.062   4.288  14.386  0.3181  0.0551 -0.1653
 2202SOL    HW118065   1.064   4.194  14.408  0.7163  0.5533  1.9587
 2202SOL    HW218066   1.052   4.328  14.473 -1.1660 -1.6110  0.4455
 2203SOL     OW18067   3.366   2.576   3.395 -0.2103 -0.2215 -0.3447
 2203SOL    HW118068   3.424   2.518   3.346  1.5708  1.3417 -0.0879
 2203SOL    HW218069   3.371   2.544   3.485  1.0877  0.7054 -0.0923
 2204SOL     OW18070   2.993   3.068  16.237  0.7878 -0.1054 -0.0850
 2204SOL    HW118071   2.999   3.037  16.146 -2.0399 -2.1278  0.4248
 2204SOL    HW218072   2.932   3.005  16.274 -0.5725  1.5358  0.4479
 2205SOL     OW18073   1.305   3.750   6.369 -0.1694  0.0241  0.0031
 2205SOL    HW118074   1.255   3.696   6.430 -1.2793  0.9717 -0.0536
 2205SOL    HW218075   1.350   3.814   6.424  0.9448 -0.8493  0.0969
 2206SOL     OW18076   1.640   3.830  12.411  0.1178 -0.1077  0.5439
 2206SOL    HW118077   1.600   3.777  12.342  2.9204 -2.7407  0.9094
 2206SOL    HW218078   1.721   3.853  12.364 -1.6628  1.0080 -1.9786
 2207SOL     OW18079   4.390   0.921   4.458 -0.1722 -0.6875  0.6015
 2207SOL    HW118080   4.410   0.995   4.400  0.0355 -0.1510  1.3621
 2207SOL    HW218081   4.295   0.914   4.456 -0.1894 -0.3103  0.1830
 2208SOL     OW18082   2.992   2.379   4.315  0.1618 -0.4555 -0.0149
 2208SOL    HW118083   3.088   2.382   4.322  0.0972  1.9357 -0.3755
 2208SOL    HW218084   2.980   2.303   4.258  1.0420 -0.5540 -0.0757
 2209SOL     OW18085   1.737   0.262   5.122  0.0255  0.2363 -0.0418
 2209SOL    HW118086   1.793   0.312   5.062  0.1079  1.8781  1.3970
 2209SOL    HW218087   1.779   0.176   5.113 -0.5016 -0.0973  0.7535
 2210SOL     OW18088   4.472   4.102   4.025  0.3786  0.1877 -0.6483
 2210SOL    HW118089   4.419   4.048   4.085 -0.0603  0.7615 -0.5211
 2210SOL    HW218090   4.435   4.066   3.944  2.2203 -0.3309 -1.2500
 2211SOL     OW18091   1.982   4.474   5.930 -0.2546  0.0493  0.3790
 2211SOL    HW118092   1.972   4.569   5.931 -4.3464 -0.3956 -0.5885
 2211SOL    HW218093   2.074   4.464   5.906  0.1063  1.2326  1.2527
 2212SOL     OW18094   2.923   2.505   2.709  0.2533 -0.2750  0.6217
 2212SOL    HW118095   2.908   2.576   2.772 -2.2032  2.0103 -2.5322
 2212SOL    HW218096   2.877   2.546   2.636  0.2661 -2.3019 -0.5143
 2213SOL     OW18097   1.548   3.991  11.665  0.3660  0.5179  0.0074
 2213SOL    HW118098   1.479   4.054  11.688 -0.0539  0.0214  0.0999
 2213SOL    HW218099   1.540   3.982  11.570  0.0171 -0.6523  0.1476
 2214SOL     OW18100   3.386   0.258   8.655  1.0654  0.0261  0.0280
 2214SOL    HW118101   3.369   0.338   8.706  0.1251  0.3729 -0.8256
 2214SOL    HW218102   3.457   0.282   8.596  0.6372 -2.2899 -1.4213
 2215SOL     OW18103   0.757   2.978   6.890  0.4421 -0.0846  0.3113
 2215SOL    HW118104   0.801   3.063   6.879  0.8864 -0.0782  2.1485
 2215SOL    HW218105   0.812   2.932   6.826  1.3583 -0.6410  1.5094
 2216SOL     OW18106   3.645   2.438  15.500 -0.2884  0.8741 -0.7183
 2216SOL    HW118107   3.688   2.441  15.415  0.3187 -0.1538 -0.4339
 2216SOL    HW218108   3.618   2.529  15.513  0.8929  0.9172  1.3070
 2217SOL     OW18109   4.234   2.747   8.924 -0.0577  0.0418  0.3877
 2217SOL    HW118110   4.208   2.745   9.016  1.5609  0.2398  0.8525
 2217SOL    HW218111   4.310   2.690   8.924  0.1252  0.2831 -0.0289
 2218SOL     OW18112   3.515   2.883   4.154 -0.0686  0.2181  0.0657
 2218SOL    HW118113   3.458   2.958   4.169  0.7681  0.5596  1.4579
 2218SOL    HW218114   3.527   2.886   4.059 -1.0715  0.8436 -0.0417
 2219SOL     OW18115   0.875   3.127  10.487 -0.6960  0.1738  0.3216
 2219SOL    HW118116   0.831   3.043  10.501 -0.5656 -0.1460 -1.2313
 2219SOL    HW218117   0.925   3.143  10.568  1.2010 -0.8819 -0.6363
 2220SOL     OW18118   1.169   0.223  12.324 -0.2748 -0.3842  0.3422
 2220SOL    HW118119   1.140   0.192  12.238 -0.2610 -0.9616  0.5524
 2220SOL    HW218120   1.242   0.279  12.296 -1.4729  1.7584  1.4341
 2221SOL     OW18121   2.545   3.525   4.446 -0.0320 -0.5849  0.2532
 2221SOL    HW118122   2.544   3.504   4.540  1.2867 -0.5866  0.2674
 2221SOL    HW218123   2.481   3.596   4.440 -0.8264 -1.3853 -0.8403
 2222SOL     OW18124   1.438   1.369  13.225 -0.2299 -0.0535  0.3251
 2222SOL    HW118125   1.530   1.390  13.206 -0.2433 -1.1803 -1.0115
 2222SOL    HW218126   1.398   1.455  13.217 -0.6034 -0.1061  1.6844
 2223SOL     OW18127   0.684   3.332  10.444 -0.1051 -0.8164  0.2521
 2223SOL    HW118128   0.666   3.284  10.363  0.5475  1.1629 -1.0602
 2223SOL    HW218129   0.756   3.280  10.482 -1.2572 -2.0932  0.6791
 2224SOL     OW18130   2.872   0.375   5.781 -0.3107  0.3480  0.1190
 2224SOL    HW118131   2.874   0.366   5.685 -2.3534  0.1243  0.1030
 2224SOL    HW218132   2.964   0.367   5.806  0.2213  0.7926 -1.6459
 2225SOL     OW18133   1.286   2.320   6.591  0.0465  0.7793  0.7412
 2225SOL    HW118134   1.336   2.401   6.579  2.3061 -0.9279 -1.3752
 2225SOL    HW218135   1.297   2.297   6.683  0.1624 -0.2324  0.4815
 2226SOL     OW18136   1.664   3.514  10.197 -0.2818  0.3578  0.5573
 2226SOL    HW118137   1.720   3.540  10.123 -0.0425  0.8225  0.8987
 2226SOL    HW218138   1.577   3.537  10.164 -0.8269  0.4282  2.0596
 2227SOL     OW18139   0.476   1.294   3.556  0.3207 -0.3922 -0.7859
 2227SOL    HW118140   0.519   1.245   3.486  2.0323 -0.1145  0.0905
 2227SOL    HW218141   0.383   1.280   3.535 -0.0401  1.0892 -0.2033
 2228SOL     OW18142   4.490   3.635  13.098 -0.0649  0.7078 -0.0523
 2228SOL    HW118143   4.504   3.704  13.164 -0.2102 -0.5685  1.3120
 2228SOL    HW218144   4.471   3.567  13.163  1.1934 -0.0056 -0.4269
 2229SOL     OW18145   2.080   0.871   3.964  0.4918 -0.3041  0.2721
 2229SOL    HW118146   1.997   0.916   3.951  0.3654  0.1893  2.6889
 2229SOL    HW218147   2.141   0.927   3.917  0.0590 -0.1897 -0.1447
 2230SOL     OW18148   1.022   2.212  10.949  0.8062  0.0292 -0.4337
 2230SOL    HW118149   1.090   2.148  10.971 -0.3470 -0.3689  1.9602
 2230SOL    HW218150   0.949   2.161  10.984  2.1532 -0.9219  0.9988
 2231SOL     OW18151   3.999   4.038   3.812  0.1581  0.2076  0.1677
 2231SOL    HW118152   4.066   3.971   3.828 -0.1734 -0.1664  0.0008
 2231SOL    HW218153   4.019   4.101   3.881  0.8490  1.7599 -1.4548
 2232SOL     OW18154   3.407   4.248   7.758  0.4256  0.7219  0.3195
 2232SOL    HW118155   3.488   4.298   7.756  1.6079 -1.1927 -0.4059
 2232SOL    HW218156   3.448   4.169   7.794 -0.0849  0.1516 -0.3385
 2233SOL     OW18157   2.721   3.953   4.882  0.2635 -0.0787 -0.3095
 2233SOL    HW118158   2.674   3.914   4.808 -1.1076 -1.4904  1.2848
 2233SOL    HW218159   2.664   3.949   4.959  1.4952 -0.2360  0.5991
 2234SOL     OW18160   0.044   2.442  16.624 -0.5808 -0.0127  0.4905
 2234SOL    HW118161   4.690   2.489  16.602 -0.2627  0.3823  0.1682
 2234SOL    HW218162   0.045   2.446  16.720 -1.9489 -1.6989  0.5680
 2235SOL     OW18163   2.925   0.381   2.781 -0.2954  0.0255 -0.4904
 2235SOL    HW118164   2.838   0.420   2.782  0.1091  0.9041  0.8069
 2235SOL    HW218165   2.974   0.446   2.831 -0.5907  1.1425 -1.6881
 2236SOL     OW18166   3.611   1.591   7.054 -0.4831  0.0436  0.5050
 2236SOL    HW118167   3.542   1.603   6.989  0.8367 -0.2854 -0.9470
 2236SOL    HW218168   3.668   1.528   7.009 -0.0628  0.9395 -0.2212
 2237SOL     OW18169   4.578   1.070  17.355 -0.3264  0.1737  0.4150
 2237SOL    HW118170   4.505   1.017  17.324  1.4439 -2.6897  1.1224
 2237SOL    HW218171   4.604   1.025  17.435  0.0447  0.2913  0.3599
 2238SOL     OW18172   4.534   3.113  11.432 -0.2715 -0.3135  0.4552
 2238SOL    HW118173   4.594   3.080  11.366 -1.9107 -0.8485 -0.7725
 2238SOL    HW218174   4.564   3.202  11.446 -0.5838  0.2881 -2.9109
 2239SOL     OW18175   2.029   1.062   9.136 -0.0937  0.1068 -0.2945
 2239SOL    HW118176   2.073   1.000   9.077 -2.1116  0.3610 -2.0631
 2239SOL    HW218177   2.032   1.145   9.088  1.2983 -0.1414 -0.6280
 2240SOL     OW18178   4.222   0.334   8.109  0.0359 -0.8394 -0.2442
 2240SOL    HW118179   4.163   0.278   8.160 -0.0737  0.2317  0.7856
 2240SOL    HW218180   4.299   0.331   8.166  0.9923 -1.4677 -1.5711
 2241SOL     OW18181   1.303   1.458   6.111 -0.3015 -0.1770  0.0736
 2241SOL    HW118182   1.387   1.458   6.065 -1.3346 -2.0517 -1.8376
 2241SOL    HW218183   1.254   1.379   6.088  0.6772 -0.4274 -1.1684
 2242SOL     OW18184   0.529   0.262   0.374  0.1721 -0.6293 -0.1121
 2242SOL    HW118185   0.436   0.248   0.395  0.2713 -0.0073  0.7528
 2242SOL    HW218186   0.522   0.237   0.282 -1.6085 -0.2973 -0.0798
 2243SOL     OW18187   2.514   3.792  15.703  0.1408  0.0902  0.1390
 2243SOL    HW118188   2.508   3.844  15.623  1.9308 -0.3734 -0.2882
 2243SOL    HW218189   2.421   3.785  15.725  0.5702  2.4259  2.6553
 2244SOL     OW18190   0.518   2.410   4.854 -0.0056  0.3687  0.3188
 2244SOL    HW118191   0.501   2.404   4.760 -0.3971  1.0239  0.3536
 2244SOL    HW218192   0.504   2.504   4.860 -0.3569  0.4201 -1.5031
 2245SOL     OW18193   0.402   1.804   3.211 -0.1189  0.1259 -0.1059
 2245SOL    HW118194   0.365   1.889   3.235 -0.9554  0.4939 -2.6534
 2245SOL    HW218195   0.370   1.801   3.121  2.0580 -0.0975 -0.8689
 2246SOL     OW18196   4.459   3.720   3.995 -0.4328 -0.7594  0.6736
 2246SOL    HW118197   4.373   3.762   3.989 -0.0391  0.1282  1.2484
 2246SOL    HW218198   4.421   3.635   4.017  0.7240 -0.9285  2.0174
 2247SOL     OW18199   2.337   1.875  14.023  0.3141  0.4018  0.4122
 2247SOL    HW118200   2.251   1.884  14.065  1.0820  1.0714  1.8397
 2247SOL    HW218201   2.371   1.949  14.074 -0.1797  0.4063  0.7431
 2248SOL     OW18202   2.398   0.627   5.149  0.3578  0.1528  0.1031
 2248SOL    HW118203   2.390   0.533   5.136 -2.5119 -0.1166  4.1341
 2248SOL    HW218204   2.442   0.628   5.234  1.4383 -2.1090 -0.4212
 2249SOL     OW18205   3.069   0.742   7.730  0.2198 -0.0507 -0.5258
 2249SOL    HW118206   3.095   0.804   7.798  1.9117 -0.3312 -0.9051
 2249SOL    HW218207   2.977   0.766   7.727  0.3226  0.7084  2.5400
 2250SOL     OW18208   2.743   3.845   4.330  0.6175  0.1831 -0.2372
 2250SOL    HW118209   2.699   3.774   4.283 -0.4322  1.0541 -0.5789
 2250SOL    HW218210   2.711   3.924   4.286 -2.2154 -0.7450  0.1504
 2251SOL     OW18211   0.406   0.320   4.428 -0.6182  0.2741  0.3515
 2251SOL    HW118212   0.456   0.274   4.496  0.8016  1.4506  0.0881
 2251SOL    HW218213   0.430   0.407   4.459 -1.3829  0.0617  1.5550
 2252SOL     OW18214   2.529   1.341   6.303  0.0139 -0.5414 -0.6196
 2252SOL    HW118215   2.567   1.323   6.389  1.8074  5.2865 -0.1931
 2252SOL    HW218216   2.482   1.421   6.325 -1.0359 -1.0116 -1.1505
 2253SOL     OW18217   3.835   2.086  15.379 -0.0806 -0.5001 -0.1701
 2253SOL    HW118218   3.909   2.052  15.328 -0.0552 -1.2160  0.3499
 2253SOL    HW218219   3.774   2.104  15.308 -1.6127 -0.3198  1.2159
 2254SOL     OW18220   3.429   2.363  14.162 -0.9079  0.2353 -0.2719
 2254SOL    HW118221   3.355   2.417  14.191 -1.5871  0.6413 -2.7606
 2254SOL    HW218222   3.389   2.323  14.085  1.5439 -0.6209 -1.1010
 2255SOL     OW18223   0.626   1.580   8.485  0.3456  0.0782  0.2579
 2255SOL    HW118224   0.703   1.565   8.539 -0.3895 -0.5318  1.1449
 2255SOL    HW218225   0.554   1.546   8.540  0.6072 -0.8499  0.0291
 2256SOL     OW18226   3.384   3.248  10.832 -0.1014  0.3509  0.1750
 2256SOL    HW118227   3.301   3.202  10.816 -0.8472  1.7073  0.0948
 2256SOL    HW218228   3.371   3.275  10.923 -1.2169  1.1634 -0.2191
 2257SOL     OW18229   2.605   3.201  16.268  0.0059  0.2802  0.2536
 2257SOL    HW118230   2.623   3.111  16.297 -1.2581  0.2196  0.8648
 2257SOL    HW218231   2.517   3.217  16.302  0.5763 -0.4285  2.0510
 2258SOL     OW18232   0.293   2.170   2.436  0.0616 -0.3827 -0.1205
 2258SOL    HW118233   0.300   2.265   2.426  1.3740 -0.3211  1.4519
 2258SOL    HW218234   0.361   2.139   2.376 -0.0860 -0.5913 -0.1793
 2259SOL     OW18235   2.609   1.842  17.089 -0.7742  0.0006 -0.3374
 2259SOL    HW118236   2.514   1.847  17.102 -0.9537 -0.4776 -1.4943
 2259SOL    HW218237   2.620   1.921  17.035  0.0190  0.7131  0.8709
 2260SOL     OW18238   3.966   3.618   8.808 -0.2498  0.2157  0.6143
 2260SOL    HW118239   3.914   3.615   8.888 -0.6122 -0.1954  0.3667
 2260SOL    HW218240   3.898   3.599   8.743 -0.2039 -1.3138  1.0129
 2261SOL     OW18241   0.534   4.269  14.871 -0.4178  0.0720  0.1925
 2261SOL    HW118242   0.524   4.236  14.961 -1.8631  0.0521  0.0155
 2261SOL    HW218243   0.616   4.227  14.845 -1.4784 -3.0715  1.8147
 2262SOL     OW18244   1.185   3.583   6.560 -0.0494 -0.2498  0.1051
 2262SOL    HW118245   1.258   3.524   6.538 -0.9189 -1.1708 -0.3259
 2262SOL    HW218246   1.133   3.534   6.622  1.5137 -0.3202  1.3695
 2263SOL     OW18247   0.116   4.127   2.310  0.1869  0.3239  1.0290
 2263SOL    HW118248   0.113   4.199   2.248  0.3973 -0.8254 -0.3241
 2263SOL    HW218249   0.059   4.149   2.384 -0.6211 -0.8020  0.7436
 2264SOL     OW18250   3.546   4.242   4.879 -0.0850 -0.0878  0.2389
 2264SOL    HW118251   3.610   4.171   4.872 -1.3024 -1.0832 -0.7086
 2264SOL    HW218252   3.588   4.312   4.829 -0.4702 -0.3311 -0.4242
 2265SOL     OW18253   4.491   2.407  17.591  0.5014 -0.1346  0.3193
 2265SOL    HW118254   4.401   2.373  17.584 -0.3389  1.9656  1.0178
 2265SOL    HW218255   4.522   2.401  17.501 -0.5851 -2.8509  0.1198
 2266SOL     OW18256   4.103   4.177   5.127 -0.1661 -0.2780 -0.2570
 2266SOL    HW118257   4.065   4.164   5.214 -0.5473  0.8899 -0.2569
 2266SOL    HW218258   4.191   4.144   5.148 -0.5983 -0.2619  1.5654
 2267SOL     OW18259   1.760   2.961   8.317  0.3207  0.0655  0.3661
 2267SOL    HW118260   1.752   3.007   8.401 -0.8948 -0.6809  0.6633
 2267SOL    HW218261   1.847   2.986   8.286  0.0877 -0.6969 -0.8898
 2268SOL     OW18262   0.387   4.707  17.637 -0.5733 -0.1366  0.0232
 2268SOL    HW118263   0.401   0.063  17.590 -1.8030 -0.0048 -0.1015
 2268SOL    HW218264   0.416   0.006   0.020 -0.7348 -0.6268  0.2169
 2269SOL     OW18265   2.089   0.713   3.378 -0.5987  0.2511  0.2626
 2269SOL    HW118266   2.036   0.719   3.299  0.4752 -1.2099 -0.5490
 2269SOL    HW218267   2.022   0.725   3.446 -1.7194 -1.9956 -0.4712
 2270SOL     OW18268   2.812   3.034   7.194  0.4271 -0.1997 -0.2432
 2270SOL    HW118269   2.777   3.092   7.262  0.5894 -0.4724  0.0742
 2270SOL    HW218270   2.757   2.958   7.214  1.5823 -0.6520  1.2217
 2271SOL     OW18271   0.484   3.847   7.381  0.2687  0.4110  0.3379
 2271SOL    HW118272   0.574   3.880   7.371 -0.3195  1.6000 -0.9484
 2271SOL    HW218273   0.500   3.753   7.385 -0.1486  0.3890  1.5317
 2272SOL     OW18274   2.615   2.011   8.131 -0.5006  0.7237  0.6136
 2272SOL    HW118275   2.606   2.053   8.217 -3.5712 -3.5716  2.4048
 2272SOL    HW218276   2.549   1.941   8.137 -0.9141  1.1057  0.5813
 2273SOL     OW18277   1.525   3.648   7.996  0.7264 -1.0010  0.0208
 2273SOL    HW118278   1.541   3.562   8.034  1.6991 -0.8741 -0.1119
 2273SOL    HW218279   1.518   3.712   8.067 -0.6907 -1.7688  0.5763
 2274SOL     OW18280   3.206   0.874   2.859 -0.3125  0.4805  0.2194
 2274SOL    HW118281   3.151   0.936   2.907 -0.2672  0.3238  0.4736
 2274SOL    HW218282   3.293   0.900   2.890 -0.2308  0.8868 -0.3296
 2275SOL     OW18283   0.800   2.691   7.313 -0.3883  0.7215  0.0965
 2275SOL    HW118284   0.727   2.680   7.375  1.3417 -1.3554  1.7894
 2275SOL    HW218285   0.852   2.750   7.367  1.6776 -0.5987 -0.4451
 2276SOL     OW18286   3.883   2.167   3.612 -0.6421  0.0460 -0.4598
 2276SOL    HW118287   3.789   2.159   3.591 -0.3470 -0.1174 -1.7458
 2276SOL    HW218288   3.925   2.211   3.538 -0.1803  0.0956 -0.1636
 2277SOL     OW18289   3.086   3.877   9.738 -0.5965  0.2827 -0.0643
 2277SOL    HW118290   3.059   3.922   9.818  0.6370 -0.1618  0.6000
 2277SOL    HW218291   3.015   3.910   9.683  0.3863  1.2533 -0.7513
 2278SOL     OW18292   0.836   4.524   1.505 -0.2289  0.0900 -0.1593
 2278SOL    HW118293   0.847   4.446   1.452  3.6995 -0.0663  0.8864
 2278SOL    HW218294   0.745   4.542   1.479 -0.8352 -0.5774  1.4970
 2279SOL     OW18295   0.889   4.225   8.356  0.0288  0.1931 -0.4348
 2279SOL    HW118296   0.937   4.239   8.274 -1.4151 -1.1752 -1.5170
 2279SOL    HW218297   0.802   4.237   8.318  0.3612  0.6760 -1.0289
 2280SOL     OW18298   2.712   0.951   8.187 -0.3291  0.0295  0.7208
 2280SOL    HW118299   2.752   0.864   8.174  1.8713  0.9663  1.1390
 2280SOL    HW218300   2.752   0.996   8.114  0.6129  0.0354  1.2384
 2281SOL     OW18301   2.911   0.748  11.220  0.3546  0.3256  0.8845
 2281SOL    HW118302   2.825   0.768  11.257  0.6019  0.0941  1.5934
 2281SOL    HW218303   2.972   0.798  11.275  1.3510  0.1083 -0.0314
 2282SOL     OW18304   1.212   3.244   2.427 -0.6754  0.4906 -0.7819
 2282SOL    HW118305   1.293   3.259   2.379 -1.3726 -0.5329 -2.2660
 2282SOL    HW218306   1.158   3.275   2.354 -0.5232  3.7330  0.4884
 2283SOL     OW18307   3.537   2.115  10.905 -0.1372 -0.1039 -0.1040
 2283SOL    HW118308   3.620   2.162  10.914  0.4653 -0.8563 -1.7062
 2283SOL    HW218309   3.531   2.114  10.809  0.3932 -0.2790 -0.1335
 2284SOL     OW18310   2.362   2.678   3.488  0.7788  0.1602  0.2592
 2284SOL    HW118311   2.330   2.764   3.461  1.4349  0.1769 -0.4749
 2284SOL    HW218312   2.318   2.635   3.414 -1.7976  1.1704  1.2147
 2285SOL     OW18313   3.070   0.181   6.068 -0.1330 -0.1026  0.1634
 2285SOL    HW118314   3.101   0.191   5.978 -1.7002  3.4990  0.0378
 2285SOL    HW218315   3.107   0.256   6.114 -2.5270  0.7292  0.7582
 2286SOL     OW18316   0.921   3.569   3.877  0.4301 -0.7541 -0.0905
 2286SOL    HW118317   0.977   3.644   3.858  2.9991 -2.1998  1.7089
 2286SOL    HW218318   0.959   3.552   3.963  1.1451  0.3648 -0.1841
 2287SOL     OW18319   2.875   2.226   1.114  0.1513  0.1684  0.5632
 2287SOL    HW118320   2.887   2.313   1.151 -0.0353 -0.6305  2.4902
 2287SOL    HW218321   2.831   2.247   1.031  0.9201  1.3486  0.4491
 2288SOL     OW18322   4.044   3.820   4.597  0.0039  0.3111 -0.3455
 2288SOL    HW118323   3.983   3.756   4.634  0.2090  0.1572 -0.2745
 2288SOL    HW218324   3.981   3.891   4.584 -0.6861 -0.4108 -0.9406
 2289SOL     OW18325   2.079   3.348   4.658 -0.2389 -0.0301  0.1142
 2289SOL    HW118326   2.093   3.349   4.563  0.3930  0.9064  0.2191
 2289SOL    HW218327   2.070   3.441   4.677 -1.4285 -0.3670  1.2189
 2290SOL     OW18328   1.467   0.117  11.423 -0.3636  0.1695 -0.0929
 2290SOL    HW118329   1.499   0.071  11.345 -0.6121 -0.0262 -0.0802
 2290SOL    HW218330   1.407   0.053  11.462 -0.1432  0.0306  0.0220
 2291SOL     OW18331   0.920   2.974   9.482  0.4248 -0.1183 -0.1467
 2291SOL    HW118332   0.894   3.064   9.462 -0.3182  0.1880  2.2302
 2291SOL    HW218333   1.015   2.973   9.469  0.6024  2.0110  0.9830
 2292SOL     OW18334   4.532   4.245  17.516  0.3036  0.5270  0.5630
 2292SOL    HW118335   4.492   4.178  17.461 -2.4655  1.7999  1.0344
 2292SOL    HW218336   4.577   4.294  17.447  1.6326 -0.6795  0.5752
 2293SOL     OW18337   0.207   3.077  13.265  0.1829 -0.0895 -0.5342
 2293SOL    HW118338   0.246   3.163  13.284 -2.4762  1.3332 -1.4469
 2293SOL    HW218339   0.126   3.112  13.227  0.0566  0.1797 -0.0181
 2294SOL     OW18340   0.072   0.797  13.494 -0.0344 -0.3195  0.4555
 2294SOL    HW118341   0.147   0.804  13.554  0.0841  0.4288  0.2207
 2294SOL    HW218342   0.015   0.872  13.509 -0.4756 -0.5811  0.0716
 2295SOL     OW18343   3.644   2.200   4.092  0.3148 -0.3199 -0.2485
 2295SOL    HW118344   3.611   2.271   4.037 -0.1470 -1.8991 -2.0454
 2295SOL    HW218345   3.698   2.155   4.027 -0.4690  1.3494 -2.0500
 2296SOL     OW18346   2.456   4.642   6.237  0.2221 -0.2332 -0.2137
 2296SOL    HW118347   2.500   4.587   6.302 -1.6131 -0.3763  0.8992
 2296SOL    HW218348   2.497   4.608   6.157 -0.2237 -0.3435 -0.3943
 2297SOL     OW18349   0.065   1.179   1.922  0.6500 -0.4675  0.2490
 2297SOL    HW118350   0.058   1.242   1.850  0.1916 -0.5427  0.2259
 2297SOL    HW218351   0.153   1.189   1.958  1.1493 -0.5653 -0.9389
 2298SOL     OW18352   1.723   2.873   8.639  0.3944  0.2058 -0.0124
 2298SOL    HW118353   1.687   2.851   8.725  0.8401 -0.9528 -0.1216
 2298SOL    HW218354   1.804   2.919   8.661  1.2139 -2.2926  2.3442
 2299SOL     OW18355   3.542   1.492  15.944 -0.0274 -0.6237 -0.3060
 2299SOL    HW118356   3.587   1.408  15.954 -0.6497 -0.8401  0.6913
 2299SOL    HW218357   3.563   1.510  15.853 -0.5960  0.5866 -0.2007
 2300SOL     OW18358   4.052   0.282  10.680  0.1703 -0.0009 -0.1193
 2300SOL    HW118359   4.084   0.327  10.602  1.4236  0.8878  0.9176
 2300SOL    HW218360   4.086   0.192  10.683  0.0129 -0.1050 -1.4463
 2301SOL     OW18361   2.150   2.047   7.201  0.2445  0.0842 -0.1979
 2301SOL    HW118362   2.178   2.102   7.274 -0.1110  0.2544 -0.1918
 2301SOL    HW218363   2.231   2.013   7.164  0.3472 -1.7311  1.6986
 2302SOL     OW18364   1.458   3.617  15.486 -0.1982 -0.2905 -0.4658
 2302SOL    HW118365   1.473   3.523  15.500 -0.9991 -0.6972 -2.3567
 2302SOL    HW218366   1.372   3.624  15.529  0.7452  2.6555  0.9574
 2303SOL     OW18367   3.680   2.220  16.094  0.2753  0.1482  0.3027
 2303SOL    HW118368   3.650   2.203  16.183 -0.3856 -0.4162 -0.0303
 2303SOL    HW218369   3.724   2.136  16.078  1.0204  0.5330  0.3100
 2304SOL     OW18370   4.385   0.597   6.985 -0.1438 -0.1344 -0.4577
 2304SOL    HW118371   4.359   0.679   7.025 -2.1935 -1.3431  0.7016
 2304SOL    HW218372   4.347   0.610   6.898 -1.6057  0.8969  0.3347
 2305SOL     OW18373   1.116   0.650  13.709 -0.4131 -0.6010 -0.1707
 2305SOL    HW118374   1.140   0.682  13.622  0.2811 -1.1922 -0.2010
 2305SOL    HW218375   1.189   0.657  13.769  0.4408  2.2372 -1.5645
 2306SOL     OW18376   2.004   0.134  11.724  0.7630 -0.7790  0.3707
 2306SOL    HW118377   2.020   0.122  11.818  1.0957 -2.1587  0.1278
 2306SOL    HW218378   2.089   0.164  11.693  0.2645 -0.6739 -0.8605
 2307SOL     OW18379   2.366   1.223  16.508 -0.1040  0.0641 -0.0256
 2307SOL    HW118380   2.351   1.240  16.601  0.3717  0.8412 -0.0974
 2307SOL    HW218381   2.364   1.311  16.469 -1.6569  0.1542  0.2491
 2308SOL     OW18382   2.431   0.403   7.646 -0.1767 -0.4544 -0.1040
 2308SOL    HW118383   2.473   0.414   7.731 -1.2742  1.1815  0.2391
 2308SOL    HW218384   2.508   0.372   7.599 -2.3236 -3.3240 -1.7571
 2309SOL     OW18385   0.987   2.410   8.088  0.4914  0.4493  0.2787
 2309SOL    HW118386   0.967   2.317   8.087 -0.2961  0.6188 -0.6527
 2309SOL    HW218387   1.057   2.405   8.153  1.6110  0.2092 -0.9537
 2310SOL     OW18388   0.787   2.319   6.224  0.4676  0.5448  0.1352
 2310SOL    HW118389   0.740   2.343   6.303 -0.6680 -0.6587 -0.1753
 2310SOL    HW218390   0.722   2.349   6.161  0.9468 -3.1688 -2.1282
 2311SOL     OW18391   0.645   4.031  13.100  0.0818 -0.3170 -0.1539
 2311SOL    HW118392   0.598   3.981  13.033  0.4178 -0.6114 -0.1718
 2311SOL    HW218393   0.662   4.111  13.050 -2.9589  1.4340  1.6556
 2312SOL     OW18394   1.302   1.585   6.344 -0.3554 -0.0623  0.0529
 2312SOL    HW118395   1.302   1.529   6.266  1.1735  0.8137 -0.5751
 2312SOL    HW218396   1.262   1.526   6.408 -0.0042 -2.3099 -1.7866
 2313SOL     OW18397   3.820   1.298   7.869  0.4351  0.3789  0.3387
 2313SOL    HW118398   3.734   1.287   7.829 -0.0134 -0.5561  1.5722
 2313SOL    HW218399   3.821   1.393   7.862  0.7926  0.3849  0.4481
 2314SOL     OW18400   3.169   0.364  17.544 -0.4293 -0.5810 -0.1527
 2314SOL    HW118401   3.237   0.423  17.511 -0.1468 -0.6733  0.2578
 2314SOL    HW218402   3.172   0.386  17.638  1.8793  1.1700 -0.6540
 2315SOL     OW18403   0.147   1.702   3.177 -0.3484 -0.7888  0.0097
 2315SOL    HW118404   0.223   1.729   3.228  1.1847 -2.8739 -1.2245
 2315SOL    HW218405   0.109   1.629   3.226 -1.3724  0.6190  1.3587
 2316SOL     OW18406   3.498   0.627   4.244  0.0563 -0.3620  0.1298
 2316SOL    HW118407   3.578   0.576   4.229 -0.6456 -1.6852  0.8772
 2316SOL    HW218408   3.487   0.629   4.339  2.1136  2.7537  0.2992
 2317SOL     OW18409   2.933   4.661   6.067 -0.1031  0.0156 -0.3023
 2317SOL    HW118410   2.989   0.013   6.063  1.1350 -0.7271  2.7382
 2317SOL    HW218411   2.872   4.698   6.003  1.8506  2.9527 -0.5060
 2318SOL     OW18412   2.232   0.642  10.729 -0.1967 -0.0792 -0.6934
 2318SOL    HW118413   2.151   0.676  10.766 -0.5574 -1.4157 -0.2512
 2318SOL    HW218414   2.205   0.643  10.637 -0.9343 -1.4567 -0.4918
 2319SOL     OW18415   0.564   0.014   7.215 -0.0264 -0.0644 -0.5722
 2319SOL    HW118416   0.484   0.048   7.254  0.1230  0.5702 -0.8110
 2319SOL    HW218417   0.612   0.096   7.203 -2.1955  1.5346  1.8464
 2320SOL     OW18418   3.271   3.533   2.804  0.2166  0.0815 -0.0924
 2320SOL    HW118419   3.285   3.499   2.716  2.1714  0.0109  0.2557
 2320SOL    HW218420   3.302   3.466   2.865 -1.2782 -0.6897 -0.1828
 2321SOL     OW18421   1.557   4.294   7.370  0.4169 -0.7805  0.2051
 2321SOL    HW118422   1.622   4.311   7.302 -1.3180 -2.3369 -1.8437
 2321SOL    HW218423   1.599   4.350   7.435 -0.3017  0.6387 -0.5646
 2322SOL     OW18424   2.811   4.313   2.471  0.2296  0.0035  0.1241
 2322SOL    HW118425   2.755   4.239   2.448 -1.6466  0.9239  1.7312
 2322SOL    HW218426   2.886   4.264   2.505  0.1787 -1.1080 -1.3941
 2323SOL     OW18427   4.021   2.805   1.404  0.3951 -0.8172  0.1066
 2323SOL    HW118428   4.049   2.799   1.312 -0.5027  1.4009 -0.3104
 2323SOL    HW218429   4.022   2.900   1.409  0.9448 -0.6669 -2.5743
 2324SOL     OW18430   3.590   3.377   3.911 -0.3150 -0.0339 -0.8334
 2324SOL    HW118431   3.575   3.283   3.896 -1.7082 -0.0670  0.8222
 2324SOL    HW218432   3.596   3.395   3.817 -0.5781  1.4614 -0.5519
 2325SOL     OW18433   1.336   4.274   6.495  0.1885  0.1798  0.1452
 2325SOL    HW118434   1.337   4.329   6.417 -0.7934 -3.4255 -2.3960
 2325SOL    HW218435   1.423   4.276   6.533  0.3064 -0.8420 -0.0843
 2326SOL     OW18436   2.530   3.029  10.084  0.3956  0.0878 -0.3422
 2326SOL    HW118437   2.489   2.945  10.064  1.2605 -0.4884  0.2833
 2326SOL    HW218438   2.465   3.075  10.031 -0.9427  0.1361  1.3401
 2327SOL     OW18439   3.815   0.753   3.157  0.1469 -0.1650  0.2472
 2327SOL    HW118440   3.838   0.664   3.182  1.0292  0.1426  0.5500
 2327SOL    HW218441   3.730   0.737   3.117  1.1655  1.9645 -2.8045
 2328SOL     OW18442   2.741   0.593   3.472 -0.5156  0.4676  0.2142
 2328SOL    HW118443   2.756   0.554   3.385  0.8060  0.1933  0.5629
 2328SOL    HW218444   2.645   0.595   3.473 -0.5287  0.7798 -1.5611
 2329SOL     OW18445   3.330   4.043  16.017 -0.2597 -0.1523 -0.7662
 2329SOL    HW118446   3.279   4.010  16.091  1.3755  1.6608  1.1585
 2329SOL    HW218447   3.276   4.048  15.938  1.5175  0.2214 -1.9403
 2330SOL     OW18448   1.518   4.390   8.609 -0.0269 -0.4445  0.1601
 2330SOL    HW118449   1.544   4.415   8.697  0.6457 -0.8270  0.0630
 2330SOL    HW218450   1.428   4.355   8.613  0.5795 -1.9036  1.0092
 2331SOL     OW18451   2.639   3.176   8.110  0.5415 -0.1659 -0.2786
 2331SOL    HW118452   2.714   3.207   8.059  0.0015 -1.3971 -1.8135
 2331SOL    HW218453   2.576   3.244   8.087 -0.7843 -0.9393  1.0832
 2332SOL     OW18454   3.741   3.583   7.888  0.0088 -0.5716 -0.0044
 2332SOL    HW118455   3.796   3.510   7.918  0.9647  0.5281  0.9045
 2332SOL    HW218456   3.685   3.604   7.962 -2.0279  0.5105 -1.8783
 2333SOL     OW18457   4.315   3.868   7.882 -0.3586  0.2290 -0.2083
 2333SOL    HW118458   4.262   3.886   7.959 -0.1194 -0.5810  0.1521
 2333SOL    HW218459   4.246   3.886   7.818 -1.2660  1.0737  1.0024
 2334SOL     OW18460   3.347   2.251  12.581  0.2210 -0.1251  0.6231
 2334SOL    HW118461   3.256   2.260  12.611 -0.4880 -2.0648 -0.9059
 2334SOL    HW218462   3.389   2.328  12.618  0.4014  0.5414 -0.9641
 2335SOL     OW18463   2.021   3.555  12.598  0.3234  0.0126  0.3440
 2335SOL    HW118464   2.005   3.609  12.520  2.4822 -1.6335 -1.2182
 2335SOL    HW218465   2.096   3.607  12.626 -0.9164  1.2623  1.4158
 2336SOL     OW18466   0.943   0.275   9.003 -0.0444 -0.1627  0.4340
 2336SOL    HW118467   0.857   0.236   9.018 -0.0579  0.1018  1.0505
 2336SOL    HW218468   0.990   0.197   8.973 -1.3856 -0.6699 -0.3275
 2337SOL     OW18469   0.768   2.560   1.188 -0.3830  0.1347 -0.3390
 2337SOL    HW118470   0.803   2.471   1.178 -1.6758 -0.2905 -0.9737
 2337SOL    HW218471   0.809   2.584   1.271 -1.4194 -0.4996  0.3570
 2338SOL     OW18472   3.550   1.804  11.787  0.1696  0.7750  0.1776
 2338SOL    HW118473   3.514   1.867  11.725  1.4291 -0.2135 -1.5683
 2338SOL    HW218474   3.626   1.856  11.812 -0.6043  1.2152  1.6005
 2339SOL     OW18475   0.356   3.672   5.683  0.3231  0.4127 -0.7042
 2339SOL    HW118476   0.306   3.639   5.758  0.4002  2.6830  0.3465
 2339SOL    HW218477   0.285   3.676   5.619 -1.4751 -1.3828  1.1828
 2340SOL     OW18478   3.284   3.538   4.055  0.3985 -0.3267  0.8830
 2340SOL    HW118479   3.325   3.487   4.124  1.2216 -1.2550 -0.2981
 2340SOL    HW218480   3.322   3.626   4.061 -0.0523 -0.0333 -0.3860
 2341SOL     OW18481   2.014   0.426   3.230 -0.4050 -0.0666 -0.2215
 2341SOL    HW118482   1.920   0.408   3.240 -0.0802 -1.0825  1.0392
 2341SOL    HW218483   2.061   0.355   3.274 -0.3817 -0.2913 -0.5982
 2342SOL     OW18484   4.177   0.836  16.899 -0.2291  0.3612  0.4043
 2342SOL    HW118485   4.137   0.773  16.959 -1.3499  2.1531  1.5183
 2342SOL    HW218486   4.196   0.904  16.963  1.6601  0.8394 -0.6609
 2343SOL     OW18487   0.479   4.429   4.296 -0.0319  0.0154  0.0414
 2343SOL    HW118488   0.462   4.400   4.385 -2.9476 -0.2212 -0.5869
 2343SOL    HW218489   0.552   4.375   4.267  0.9025  0.4325  1.6631
 2344SOL     OW18490   1.907   1.777   1.409  0.6523 -0.0098 -0.2068
 2344SOL    HW118491   1.890   1.775   1.503 -0.3934 -3.7829 -0.5023
 2344SOL    HW218492   1.837   1.838   1.387 -1.6106 -2.6428 -0.2664
 2345SOL     OW18493   3.862   0.493   0.173  0.0041 -0.0251 -0.1413
 2345SOL    HW118494   3.950   0.461   0.158  0.1098  0.0813  0.2597
 2345SOL    HW218495   3.844   0.516   0.082 -1.0729 -0.0103  0.0734
 2346SOL     OW18496   3.005   3.567   4.003 -0.0481 -0.2101  0.1094
 2346SOL    HW118497   3.036   3.510   4.074 -1.3325  0.6705  1.3757
 2346SOL    HW218498   3.097   3.587   3.986 -0.0191 -1.7086 -1.5400
 2347SOL     OW18499   2.998   2.950   5.653 -0.6098  0.2757  0.4349
 2347SOL    HW118500   2.962   2.954   5.565  0.6903  0.8467 -0.0686
 2347SOL    HW218501   2.921   2.958   5.708  0.1952  3.4211  1.1172
 2348SOL     OW18502   0.542   1.351   6.207  0.1105  0.5529 -0.1163
 2348SOL    HW118503   0.576   1.270   6.246 -1.7729 -0.4235 -0.5176
 2348SOL    HW218504   0.469   1.321   6.154  0.6037 -1.3177  0.2492
 2349SOL     OW18505   2.495   3.536  12.864 -0.1208  0.6856  0.4282
 2349SOL    HW118506   2.492   3.499  12.952  1.3326 -0.1355  0.1293
 2349SOL    HW218507   2.444   3.479  12.807 -2.0272  2.1020  0.6968
 2350SOL     OW18508   3.936   3.813  14.896 -0.1620 -0.3920  0.4733
 2350SOL    HW118509   3.956   3.850  14.810 -0.0874 -2.4452 -0.3785
 2350SOL    HW218510   3.919   3.722  14.870  0.5373 -0.1658 -0.7483
 2351SOL     OW18511   1.134   4.528   0.263 -0.2861 -0.0877 -0.2463
 2351SOL    HW118512   1.132   4.450   0.207  2.1867 -0.3418  0.0261
 2351SOL    HW218513   1.164   4.495   0.348 -5.2059  0.4196  1.6793
 2352SOL     OW18514   1.192   3.648  15.565  0.1677  0.0375 -0.3188
 2352SOL    HW118515   1.197   3.692  15.650  1.1017 -0.5400 -0.0723
 2352SOL    HW218516   1.138   3.710  15.516  0.0922  0.3977  0.2263
 2353SOL     OW18517   2.488   4.603   4.212 -0.4303  0.0472 -0.4726
 2353SOL    HW118518   2.506   4.563   4.297  0.1220  0.7130 -0.2777
 2353SOL    HW218519   2.568   4.652   4.194 -0.7869  1.4194  1.6253
 2354SOL     OW18520   0.622   4.276   3.265  0.2863  0.4579  0.4061
 2354SOL    HW118521   0.654   4.363   3.242  0.0412  0.7081  1.0097
 2354SOL    HW218522   0.662   4.219   3.200  0.0470  0.6387  0.1009
 2355SOL     OW18523   1.417   3.791  15.270  0.7109 -0.0796 -0.4498
 2355SOL    HW118524   1.437   3.711  15.319  1.9311  0.7998  0.4836
 2355SOL    HW218525   1.399   3.852  15.341 -0.9114 -0.6282 -0.3801
 2356SOL     OW18526   0.173   2.509   5.234  0.2571  1.0983  0.4767
 2356SOL    HW118527   0.184   2.602   5.211 -0.0568  1.0144 -0.0297
 2356SOL    HW218528   0.130   2.476   5.155  0.8968 -0.5489  0.8381
 2357SOL     OW18529   3.223   4.619   5.241 -0.8085  0.2348 -0.2412
 2357SOL    HW118530   3.243   4.542   5.296  0.1020  1.7831  1.6028
 2357SOL    HW218531   3.129   4.611   5.223 -0.6006 -1.0592 -0.7624
 2358SOL     OW18532   4.521   1.609   1.974 -0.4449 -0.1768 -0.0131
 2358SOL    HW118533   4.433   1.574   1.956 -0.8710  0.4425  0.8463
 2358SOL    HW218534   4.560   1.579   1.892  1.4562  2.8878 -0.2296
 2359SOL     OW18535   0.081   0.326   1.552 -0.5148  0.3579  0.2384
 2359SOL    HW118536   0.156   0.268   1.548 -1.5142 -0.9215 -0.1177
 2359SOL    HW218537   0.044   0.289   1.633  0.3525 -2.3031 -0.5989
 2360SOL     OW18538   4.368   0.255   8.381 -0.7266 -0.5527 -0.5283
 2360SOL    HW118539   4.397   0.186   8.440  0.1845 -0.5533 -0.9799
 2360SOL    HW218540   4.417   0.246   8.299  0.4210 -0.1758  0.1215
 2361SOL     OW18541   1.558   3.942   4.684 -0.4180  0.1375  0.4314
 2361SOL    HW118542   1.580   3.886   4.759  0.5982 -2.0990 -1.5321
 2361SOL    HW218543   1.628   3.915   4.624 -3.4959 -0.8113 -2.7556
 2362SOL     OW18544   3.631   3.982   9.692  0.0689 -0.8773  0.5400
 2362SOL    HW118545   3.557   4.000   9.635  2.4721  2.4673 -1.5220
 2362SOL    HW218546   3.701   3.972   9.628 -0.5018  0.8344 -0.3533
 2363SOL     OW18547   1.014   2.119   4.907  0.1368 -0.1213  0.3529
 2363SOL    HW118548   0.958   2.189   4.939  2.1278  1.2215  0.9334
 2363SOL    HW218549   0.976   2.093   4.823 -0.4831 -1.3674  1.0225
 2364SOL     OW18550   2.529   1.731   4.540  0.0844 -0.2920  0.7302
 2364SOL    HW118551   2.443   1.767   4.519  0.3987 -0.1725 -0.3334
 2364SOL    HW218552   2.537   1.662   4.475  0.2835 -0.4794  0.9531
 2365SOL     OW18553   2.432   2.838   1.977 -0.1362 -0.6560 -1.4449
 2365SOL    HW118554   2.455   2.787   2.055  1.2402  0.6388 -1.0035
 2365SOL    HW218555   2.363   2.783   1.940 -1.3563  0.4733 -0.8742
 2366SOL     OW18556   0.605   0.212   8.963  0.3685 -0.1609  0.2262
 2366SOL    HW118557   0.589   0.130   9.011  1.0699 -0.1102  0.5456
 2366SOL    HW218558   0.573   0.187   8.876  1.6457 -0.0101 -0.2880
 2367SOL     OW18559   2.263   1.068   2.181 -0.5000  0.2532  0.3562
 2367SOL    HW118560   2.211   1.002   2.228 -0.2912  0.2610  0.5987
 2367SOL    HW218561   2.305   1.103   2.259  0.9940 -1.3425  0.2679
 2368SOL     OW18562   4.594   1.985   6.192  0.5152  0.1851 -0.2026
 2368SOL    HW118563   4.594   2.060   6.252  0.6136 -1.0241  1.3107
 2368SOL    HW218564   4.504   1.955   6.208  0.1216  1.5403  0.1129
 2369SOL     OW18565   0.679   0.242  17.439 -0.2981  0.1453  0.0352
 2369SOL    HW118566   0.726   0.274  17.515  0.0142 -0.5997  0.1576
 2369SOL    HW218567   0.745   0.266  17.373 -1.3895  1.8283 -0.4315
 2370SOL     OW18568   1.913   4.359   3.936  0.0448  0.4272 -0.1765
 2370SOL    HW118569   1.865   4.346   4.019  0.3805  1.8963  0.2397
 2370SOL    HW218570   1.956   4.275   3.919 -0.7187 -0.6624  3.1424
 2371SOL     OW18571   1.386   1.645   8.706 -0.3290  0.0653 -0.2621
 2371SOL    HW118572   1.454   1.669   8.769 -1.4308  0.2180  0.8929
 2371SOL    HW218573   1.412   1.565   8.661  0.5645 -1.1547  2.4343
 2372SOL     OW18574   0.758   3.255   5.202  0.6622  0.0799 -0.1897
 2372SOL    HW118575   0.734   3.163   5.212 -3.3211  0.9964 -1.0594
 2372SOL    HW218576   0.851   3.244   5.183  1.1623  1.7543  1.2920
 2373SOL     OW18577   2.239   0.969   9.347  0.2793 -0.4443 -0.5822
 2373SOL    HW118578   2.229   1.001   9.257  0.5023  0.4531 -0.2886
 2373SOL    HW218579   2.287   1.033   9.399  0.3094 -2.2593  1.6222
 2374SOL     OW18580   0.182   4.016   5.579 -0.0507  0.3243  0.1317
 2374SOL    HW118581   0.253   4.058   5.627 -0.8894  3.1743 -1.1389
 2374SOL    HW218582   0.170   3.938   5.634  0.2125 -0.7521 -1.3069
 2375SOL     OW18583   3.624   3.722   3.097  0.0968  0.4657  0.2554
 2375SOL    HW118584   3.559   3.654   3.110 -0.2262  0.8584  0.7022
 2375SOL    HW218585   3.704   3.675   3.073 -1.4506 -0.6700 -2.6888
 2376SOL     OW18586   1.138   3.333   5.351 -0.1535 -0.9510 -0.2970
 2376SOL    HW118587   1.152   3.419   5.312 -0.4792  0.0128  1.6754
 2376SOL    HW218588   1.044   3.317   5.340  0.0615 -2.5351  0.1811
 2377SOL     OW18589   4.440   0.438  10.401  0.2707  0.3050  0.0419
 2377SOL    HW118590   4.515   0.379  10.404  1.7990  2.3424  1.5844
 2377SOL    HW218591   4.393   0.406  10.478 -0.8378  0.1034 -0.7228
 2378SOL     OW18592   0.211   3.015  12.255  0.0459  0.4369  0.3512
 2378SOL    HW118593   0.130   2.965  12.267  0.4499 -0.5444 -0.9919
 2378SOL    HW218594   0.259   2.982  12.331 -0.9577  0.7863  1.1379
 2379SOL     OW18595   0.316   0.463   8.997  0.2908  0.0793  0.6414
 2379SOL    HW118596   0.408   0.438   8.985  0.3784  0.5362  0.3749
 2379SOL    HW218597   0.334   0.553   8.972 -0.0489  0.1145  0.5275
 2380SOL     OW18598   1.066   0.657   5.448  0.1751  0.2723  0.2605
 2380SOL    HW118599   1.123   0.702   5.385 -0.1965 -1.5437 -1.3746
 2380SOL    HW218600   1.118   0.593   5.497 -0.9701 -0.5456  0.4125
 2381SOL     OW18601   3.059   0.810  15.589 -0.0233  1.1382 -0.7285
 2381SOL    HW118602   3.079   0.878  15.654 -0.3014 -0.8896  1.4633
 2381SOL    HW218603   3.140   0.817  15.538  1.3817  0.8124  1.4520
 2382SOL     OW18604   4.105   0.639   3.439 -0.2527  0.0056 -0.3298
 2382SOL    HW118605   4.084   0.553   3.476  1.0765  0.7714  2.2149
 2382SOL    HW218606   4.113   0.620   3.346  1.2134  0.2891 -0.2479
 2383SOL     OW18607   0.917   4.484   5.400  0.7421 -0.0372  0.6287
 2383SOL    HW118608   0.910   4.525   5.313  1.2540  0.4598  0.8199
 2383SOL    HW218609   0.854   4.535   5.451 -0.1924  1.2731 -1.8069
 2384SOL     OW18610   2.475   2.602   4.329  0.4455  0.4804  0.2883
 2384SOL    HW118611   2.545   2.544   4.358 -0.1530 -0.4908 -0.2052
 2384SOL    HW218612   2.511   2.690   4.339  2.8678 -0.2066 -2.3013
 2385SOL     OW18613   3.896   1.413   9.147 -0.0599  0.2346 -0.4489
 2385SOL    HW118614   3.842   1.478   9.193  0.7597  1.7888 -1.6704
 2385SOL    HW218615   3.970   1.467   9.121  0.5108 -0.8452 -1.0692
 2386SOL     OW18616   1.802   0.079   4.830 -0.5737 -0.5682 -0.3360
 2386SOL    HW118617   1.786   0.128   4.750 -0.9978 -1.1332 -0.5987
 2386SOL    HW218618   1.833   4.722   4.794  0.2434  0.3373 -1.7034
 2387SOL     OW18619   0.847   2.970   9.190 -0.4389 -0.4120  0.2381
 2387SOL    HW118620   0.752   2.959   9.183 -0.6466  1.4661  0.2110
 2387SOL    HW218621   0.839   3.014   9.275 -4.2484 -1.9648  0.6803
 2388SOL     OW18622   0.768   1.499  12.917  0.1175  0.2000 -0.3831
 2388SOL    HW118623   0.749   1.453  12.835 -1.0750 -0.8550  0.4838
 2388SOL    HW218624   0.822   1.574  12.890  2.0793 -1.0518  0.0729
 2389SOL     OW18625   2.419   1.127  10.760  0.3238  0.7372 -0.4591
 2389SOL    HW118626   2.430   1.032  10.754  0.2644  0.8640 -2.5734
 2389SOL    HW218627   2.397   1.154  10.849 -0.2637 -0.4038 -0.2671
 2390SOL     OW18628   2.523   0.654   5.427 -0.4302  0.2305 -0.2987
 2390SOL    HW118629   2.463   0.615   5.490 -2.3576  0.9295 -1.6943
 2390SOL    HW218630   2.599   0.599   5.446 -0.3110 -0.0549 -1.5831
 2391SOL     OW18631   1.969   1.395   7.849 -0.0837 -0.1313  1.0294
 2391SOL    HW118632   1.878   1.381   7.876 -0.3388  1.5002  1.0607
 2391SOL    HW218633   1.994   1.450   7.924  1.2762  0.6998 -0.0294
 2392SOL     OW18634   0.573   0.396   0.845  0.4323  0.0904 -0.6601
 2392SOL    HW118635   0.603   0.324   0.789  0.4009  0.3739 -1.0426
 2392SOL    HW218636   0.490   0.425   0.808  1.1707  2.2817 -0.5798
 2393SOL     OW18637   3.357   3.916   7.726 -0.4456  0.2054  0.1061
 2393SOL    HW118638   3.339   3.907   7.819  1.9626 -0.1854  0.5441
 2393SOL    HW218639   3.443   3.959   7.731  0.3827 -1.3220 -0.9542
 2394SOL     OW18640   4.131   2.372   1.173  0.1960 -0.7509 -0.1450
 2394SOL    HW118641   4.078   2.369   1.253  2.6210  0.1859  1.5378
 2394SOL    HW218642   4.077   2.430   1.120  0.8548  1.3891  1.5069
 2395SOL     OW18643   1.558   1.261  10.411  0.2938 -0.0568 -0.6394
 2395SOL    HW118644   1.545   1.258  10.506 -2.3824 -0.1820 -0.9961
 2395SOL    HW218645   1.537   1.170  10.388 -1.2367  0.0906  0.1948
 2396SOL     OW18646   2.598   1.401   7.566  0.4304 -0.1981 -0.0097
 2396SOL    HW118647   2.557   1.379   7.482 -0.2303 -0.6684  0.4432
 2396SOL    HW218648   2.691   1.396   7.541  0.8502 -1.0870  1.6998
 2397SOL     OW18649   2.914   1.910  17.608 -0.2449 -0.3503  0.2904
 2397SOL    HW118650   2.827   1.925  17.570  0.5770 -0.5353 -1.7038
 2397SOL    HW218651   2.899   1.920  17.702  0.0651  0.2977  0.2718
 2398SOL     OW18652   2.174   1.370   5.011 -0.5656  0.4427  0.2696
 2398SOL    HW118653   2.080   1.376   4.993 -0.9083  1.3481  2.3272
 2398SOL    HW218654   2.205   1.402   4.926  0.4183  3.2241  1.6819
 2399SOL     OW18655   0.896   4.140  14.901 -0.2326  0.1759  0.2230
 2399SOL    HW118656   0.972   4.081  14.895 -1.1423 -1.1153  1.2543
 2399SOL    HW218657   0.840   4.119  14.827  2.3263 -2.4291 -0.9905
 2400SOL     OW18658   4.484   3.508   4.930 -0.7869  0.2055 -0.4610
 2400SOL    HW118659   4.391   3.486   4.933 -1.0522  1.2110 -1.6597
 2400SOL    HW218660   4.517   3.418   4.921  1.4702  0.8838  1.0494
 2401SOL     OW18661   1.533   1.611   0.272 -0.6834  0.3457 -0.1518
 2401SOL    HW118662   1.479   1.676   0.227 -0.3526  0.7826  0.0894
 2401SOL    HW218663   1.597   1.666   0.317  0.8395 -1.2790 -0.3257
 2402SOL     OW18664   2.802   1.594  11.676  0.6315 -0.0981 -0.1882
 2402SOL    HW118665   2.816   1.683  11.707 -0.4126 -0.1475  0.4122
 2402SOL    HW218666   2.756   1.556  11.751 -0.4569 -1.2141 -1.4147
 2403SOL     OW18667   1.798   4.711  10.709 -0.1339  0.2446 -0.2871
 2403SOL    HW118668   1.805   0.076  10.736  0.5187 -0.1901  0.9980
 2403SOL    HW218669   1.717   4.690  10.756  0.6385 -0.6084  0.6605
 2404SOL     OW18670   2.705   3.955   5.982  0.6772  0.0033  0.2113
 2404SOL    HW118671   2.778   3.950   6.044 -0.0959 -0.4289  1.0897
 2404SOL    HW218672   2.740   3.958   5.893  3.1903 -2.7094  1.0976
 2405SOL     OW18673   1.490   4.676  11.921 -0.1577 -0.0704 -0.1057
 2405SOL    HW118674   1.528   0.022  11.972  0.7735 -1.8294  1.7037
 2405SOL    HW218675   1.518   4.696  11.832 -1.0221 -2.3490 -0.8842
 2406SOL     OW18676   4.563   0.300  12.766  0.4156 -0.7504 -0.1296
 2406SOL    HW118677   4.468   0.301  12.755  0.4876  3.7626 -0.3250
 2406SOL    HW218678   4.600   0.374  12.718 -0.7793 -0.6603 -0.9150
 2407SOL     OW18679   1.183   3.062   4.140 -0.2974 -0.1265 -0.3457
 2407SOL    HW118680   1.112   3.031   4.195 -0.5171  0.3636 -0.3526
 2407SOL    HW218681   1.205   2.979   4.097  2.0599 -0.5517  1.6991
 2408SOL     OW18682   2.166   2.040   1.336  0.1260 -0.3086 -0.3622
 2408SOL    HW118683   2.140   2.026   1.428 -1.2660  0.0696 -0.6990
 2408SOL    HW218684   2.178   2.135   1.332 -0.3636 -0.3091 -1.7917
 2409SOL     OW18685   4.641   2.342  12.315 -0.8239 -0.1891 -0.1238
 2409SOL    HW118686   4.550   2.363  12.336 -0.1495  1.1030  1.4713
 2409SOL    HW218687   4.629   2.256  12.274  1.8342 -1.8345  2.6073
 2410SOL     OW18688   3.812   0.759  17.693 -0.2096  0.9044 -0.8165
 2410SOL    HW118689   3.769   0.677  17.668  2.2081 -0.1712 -1.5182
 2410SOL    HW218690   3.893   0.763  17.642  1.1905 -1.6741  1.2168
 2411SOL     OW18691   0.233   1.899  13.854 -0.2924  0.2929 -0.3569
 2411SOL    HW118692   0.159   1.839  13.867  1.6380 -1.5235  2.2688
 2411SOL    HW218693   0.198   1.973  13.903  1.3000 -0.1274  1.4152
 2412SOL     OW18694   2.298   2.159  12.350 -0.4725  0.6039 -0.0900
 2412SOL    HW118695   2.367   2.180  12.287 -0.3085  1.4066  0.3527
 2412SOL    HW218696   2.349   2.124  12.423 -0.7924  0.7553  0.2057
 2413SOL     OW18697   3.099   0.637  14.488  0.2931  0.2242  0.0196
 2413SOL    HW118698   3.074   0.621  14.397 -0.8913  1.8078  0.0778
 2413SOL    HW218699   3.184   0.681  14.479  1.3449 -2.4203 -2.8433
 2414SOL     OW18700   3.677   1.243  16.007 -0.2826  0.1865 -0.5986
 2414SOL    HW118701   3.758   1.239  15.956 -0.1283  1.3079 -0.4332
 2414SOL    HW218702   3.628   1.167  15.974  0.6595  0.7266 -3.2468
 2415SOL     OW18703   0.217   1.247   6.529  0.0745 -0.0323 -0.3672
 2415SOL    HW118704   0.222   1.198   6.611 -1.2834 -1.2950 -1.0244
 2415SOL    HW218705   0.277   1.318   6.549  0.4661 -0.2694 -0.6817
 2416SOL     OW18706   1.908   4.378   6.170 -0.1690 -0.1214  0.3329
 2416SOL    HW118707   1.955   4.434   6.233  1.4139 -1.1805  0.1039
 2416SOL    HW218708   1.935   4.404   6.082  0.4703  1.6125  1.0243
 2417SOL     OW18709   4.017   1.493   2.247 -0.1251  0.0018 -0.0425
 2417SOL    HW118710   4.015   1.569   2.189  1.1225  0.7221  0.8694
 2417SOL    HW218711   4.024   1.430   2.174 -0.1067 -0.5578  0.4413
 2418SOL     OW18712   0.986   1.424   7.370  0.2764 -0.2488  0.8782
 2418SOL    HW118713   0.947   1.510   7.384  0.2860 -0.0856 -0.0876
 2418SOL    HW218714   0.923   1.384   7.311  0.8404 -0.4795  0.4370
 2419SOL     OW18715   3.927   4.296   6.958  0.3075 -0.2922 -0.2922
 2419SOL    HW118716   3.967   4.376   6.993 -2.3688  1.2455 -0.7389
 2419SOL    HW218717   3.949   4.229   7.023 -2.8230 -0.7937  0.2536
 2420SOL     OW18718   2.356   2.008   9.655  0.0275  0.0642 -0.0835
 2420SOL    HW118719   2.285   1.949   9.629 -0.2944  0.7742 -0.8214
 2420SOL    HW218720   2.330   2.087   9.607  1.6815  0.6159 -0.0813
 2421SOL     OW18721   0.493   3.744   1.051 -0.6358 -0.4558  0.0387
 2421SOL    HW118722   0.461   3.784   1.132 -1.5818  0.1101 -0.6104
 2421SOL    HW218723   0.585   3.725   1.066 -0.9145 -3.3748 -1.8976
 2422SOL     OW18724   3.475   2.114   6.675 -0.2060 -0.5579  0.5197
 2422SOL    HW118725   3.399   2.161   6.708 -0.7444 -1.0852  0.0475
 2422SOL    HW218726   3.453   2.122   6.582  1.3438 -0.6037  0.1563
 2423SOL     OW18727   1.262   0.961   8.237 -0.1745 -0.3369  0.4515
 2423SOL    HW118728   1.274   1.028   8.304 -1.8884 -0.8650  1.2874
 2423SOL    HW218729   1.181   0.919   8.265  2.2210 -4.3181  1.4196
 2424SOL     OW18730   3.682   0.019  15.552 -0.1480 -0.0083 -0.3613
 2424SOL    HW118731   3.649   0.090  15.607 -1.8689 -0.8049 -0.3815
 2424SOL    HW218732   3.601   4.694  15.542  0.1276 -0.0830 -2.2825
 2425SOL     OW18733   3.347   0.797   1.003  0.2544  0.2794 -0.1899
 2425SOL    HW118734   3.436   0.786   0.969  0.2538  1.0720 -0.4406
 2425SOL    HW218735   3.350   0.770   1.095  0.8285 -0.1318 -0.3271
 2426SOL     OW18736   4.045   1.453   1.134 -0.2537 -0.0502  0.0144
 2426SOL    HW118737   4.057   1.548   1.139  1.0224 -0.1322 -1.6617
 2426SOL    HW218738   4.059   1.425   1.225 -0.7914 -0.1902  0.0602
 2427SOL     OW18739   0.566   4.453   2.903 -0.0196  0.4858  0.5507
 2427SOL    HW118740   0.554   4.359   2.915  1.5638  0.1268 -0.7784
 2427SOL    HW218741   0.500   4.465   2.835 -0.6653  1.3556  1.3170
 2428SOL     OW18742   4.680   0.635  12.073  0.2864  0.4096  0.3655
 2428SOL    HW118743   4.688   0.686  12.154  3.3320  1.4215 -0.5775
 2428SOL    HW218744   4.621   0.693  12.026 -1.6724 -1.1264  0.9118
 2429SOL     OW18745   2.458   4.593   2.130 -0.3874  0.1291 -0.3906
 2429SOL    HW118746   2.500   4.531   2.189 -1.5484  0.3440  0.6666
 2429SOL    HW218747   2.452   4.544   2.048 -2.2340 -0.5383  0.1428
 2430SOL     OW18748   3.355   2.114   6.427 -0.4604  0.1220 -0.0683
 2430SOL    HW118749   3.316   2.034   6.463  1.1054 -0.2475  0.7704
 2430SOL    HW218750   3.409   2.082   6.355  1.0876  0.7149  0.8463
 2431SOL     OW18751   1.230   0.582   9.462 -0.6747 -0.5162  0.0754
 2431SOL    HW118752   1.308   0.637   9.470 -1.1528  0.2719 -0.5850
 2431SOL    HW218753   1.263   0.495   9.439 -1.7171 -1.0122  0.4466
 2432SOL     OW18754   0.483   1.390  16.494  0.3603  0.0633  0.2367
 2432SOL    HW118755   0.536   1.329  16.545 -2.0724 -0.2893  2.3267
 2432SOL    HW218756   0.522   1.377  16.407 -2.8650  0.0496 -1.1847
 2433SOL     OW18757   3.237   2.427  17.376 -0.1381  0.3056 -0.1102
 2433SOL    HW118758   3.297   2.378  17.320  0.5792  0.2207  0.7415
 2433SOL    HW218759   3.227   2.506  17.322  2.7343 -0.1394 -1.2955
 2434SOL     OW18760   3.627   1.974   4.513  0.4783 -0.0994 -0.0770
 2434SOL    HW118761   3.537   1.971   4.543  0.8799 -0.1945  1.1280
 2434SOL    HW218762   3.669   2.017   4.587 -1.4316 -1.9073  2.0503
 2435SOL     OW18763   0.828   0.080   1.596 -0.1777  0.1419  0.4323
 2435SOL    HW118764   0.858   0.061   1.685 -0.0229  0.4185  0.4395
 2435SOL    HW218765   0.835   4.718   1.559 -1.1104  1.0689 -1.9761
 2436SOL     OW18766   1.312   0.503   2.531  0.3504 -0.1667 -0.6567
 2436SOL    HW118767   1.297   0.547   2.447  1.8290  2.1282  0.2902
 2436SOL    HW218768   1.390   0.550   2.560  1.0304 -1.2840 -0.6772
 2437SOL     OW18769   3.675   0.459   3.783  0.6229 -0.1486  0.3277
 2437SOL    HW118770   3.704   0.436   3.695  1.6297 -2.3388  1.2322
 2437SOL    HW218771   3.678   0.555   3.780 -0.4641 -0.1166  0.3927
 2438SOL     OW18772   4.471   1.422   0.590 -0.1074 -0.1181  0.2964
 2438SOL    HW118773   4.436   1.355   0.649  1.1432 -0.6094  0.4871
 2438SOL    HW218774   4.535   1.358   0.559 -0.9655 -1.0984  0.5466
 2439SOL     OW18775   3.239   3.848  10.410 -0.2642  0.2008  0.0422
 2439SOL    HW118776   3.167   3.809  10.461 -0.3292 -0.8724 -0.8819
 2439SOL    HW218777   3.217   3.847  10.317 -1.0716 -3.4555  0.2874
 2440SOL     OW18778   3.227   4.692   0.485 -0.3925  0.3170  0.4932
 2440SOL    HW118779   3.220   4.706   0.580  0.3826  1.3975  0.3832
 2440SOL    HW218780   3.152   4.635   0.470 -0.1584  0.0284  0.4196
 2441SOL     OW18781   2.151   1.302   4.485 -0.3218 -0.1506  0.5781
 2441SOL    HW118782   2.212   1.239   4.447 -1.0671  0.8103 -2.2232
 2441SOL    HW218783   2.177   1.375   4.428  0.8881  0.6797  2.1951
 2442SOL     OW18784   4.390   1.511   1.383 -0.3411 -0.0547 -0.0982
 2442SOL    HW118785   4.400   1.452   1.308  2.7958  0.5985 -0.2059
 2442SOL    HW218786   4.296   1.505   1.396 -0.3774  0.8584  0.0056
 2443SOL     OW18787   2.262   1.802   3.316 -0.4424  0.2947  0.1120
 2443SOL    HW118788   2.238   1.893   3.333 -3.0202 -0.2771 -0.4780
 2443SOL    HW218789   2.185   1.754   3.283  0.0494 -0.5948  0.2592
 2444SOL     OW18790   1.715   4.622   2.571 -0.3980  0.2767  0.4959
 2444SOL    HW118791   1.660   4.677   2.626 -0.2980 -0.9409  1.7932
 2444SOL    HW218792   1.663   4.544   2.552  1.1175 -0.6169 -0.0106
 2445SOL     OW18793   3.798   4.637   6.090 -0.7777 -0.0698  0.0728
 2445SOL    HW118794   3.797   4.714   6.033  0.7445 -1.8001 -2.2982
 2445SOL    HW218795   3.877   4.645   6.143 -0.4605  1.2944 -0.5934
 2446SOL     OW18796   2.981   2.049   0.756  0.0420 -0.1061 -0.1367
 2446SOL    HW118797   3.008   1.959   0.775  0.0469 -0.2204 -0.6867
 2446SOL    HW218798   2.889   2.037   0.731 -0.0295  3.0630 -1.3821
 2447SOL     OW18799   4.456   0.176   1.154  0.4787 -0.2410  0.2335
 2447SOL    HW118800   4.382   0.233   1.133  1.3654  1.2406  1.1296
 2447SOL    HW218801   4.529   0.219   1.108 -0.6122  1.7801  0.3717
 2448SOL     OW18802   1.344   0.519  15.119 -0.2243 -0.3444 -0.4339
 2448SOL    HW118803   1.399   0.576  15.065  0.7514 -0.8137  0.0656
 2448SOL    HW218804   1.260   0.522  15.075 -0.4080 -1.7634 -0.1744
 2449SOL     OW18805   0.757   4.339  17.376 -0.6075  0.1485 -0.6000
 2449SOL    HW118806   0.843   4.379  17.388 -0.7105  0.6209 -1.3988
 2449SOL    HW218807   0.698   4.391  17.430  0.0091  0.3733 -0.1460
 2450SOL     OW18808   0.411   2.085   5.665 -0.3582  0.4291 -1.1815
 2450SOL    HW118809   0.447   2.040   5.589  2.4814 -0.7529  0.8619
 2450SOL    HW218810   0.328   2.040   5.675 -0.0970 -0.1771 -1.7797
 2451SOL     OW18811   0.977   3.012  11.604 -0.4026  1.0245 -0.4451
 2451SOL    HW118812   0.973   3.102  11.572 -1.1141  1.0392 -0.3259
 2451SOL    HW218813   0.895   3.017  11.653 -0.1091 -1.1729  0.2428
 2452SOL     OW18814   3.856   1.246   3.267  0.6285  0.0791 -1.0264
 2452SOL    HW118815   3.864   1.299   3.188 -2.3479  0.8282 -0.8260
 2452SOL    HW218816   3.920   1.176   3.260 -0.6702 -1.3256  1.1496
 2453SOL     OW18817   4.574   4.594   0.267  0.0359 -0.2257 -0.7073
 2453SOL    HW118818   4.507   4.546   0.316  1.2627 -1.3922 -0.1706
 2453SOL    HW218819   4.615   4.632   0.345 -2.7350 -2.0558  1.6782
 2454SOL     OW18820   2.208   0.865   8.201 -0.9782 -0.1520  0.2412
 2454SOL    HW118821   2.269   0.817   8.145  0.4656  1.3648  0.5298
 2454SOL    HW218822   2.177   0.791   8.253 -0.8906 -0.9016 -0.7630
 2455SOL     OW18823   4.562   4.256   8.647  0.4284  0.2758  0.2888
 2455SOL    HW118824   4.505   4.279   8.721  1.7018 -0.2760  1.4290
 2455SOL    HW218825   4.600   4.172   8.672  1.0896  0.4035 -0.2885
 2456SOL     OW18826   0.442   1.217  12.386 -0.0493 -0.4037  0.0873
 2456SOL    HW118827   0.473   1.303  12.412  2.4748 -0.6329 -2.2394
 2456SOL    HW218828   0.492   1.199  12.307 -0.3413  0.0147 -0.1941
 2457SOL     OW18829   1.268   3.711   7.146  0.0898 -0.9706  0.0958
 2457SOL    HW118830   1.278   3.803   7.169 -1.6173 -0.8241  0.2613
 2457SOL    HW218831   1.253   3.716   7.051  2.4615  3.3534 -0.0394
 2458SOL     OW18832   3.634   3.048   4.930 -0.0637 -0.2015  0.1487
 2458SOL    HW118833   3.627   2.998   4.848  0.0785  1.3676 -0.8116
 2458SOL    HW218834   3.672   3.132   4.905 -1.3766  0.6825  1.1173
 2459SOL     OW18835   2.664   2.524  11.725 -0.1323 -0.0048 -0.2971
 2459SOL    HW118836   2.572   2.517  11.703 -0.1073 -0.4525 -0.2570
 2459SOL    HW218837   2.699   2.585  11.660  0.5160  0.2291  0.2688
 2460SOL     OW18838   3.331   0.746   9.962 -0.2723  0.0163  0.2987
 2460SOL    HW118839   3.238   0.765   9.946 -0.4183  0.5710  1.8401
 2460SOL    HW218840   3.330   0.652   9.980 -1.3365 -0.7406 -3.6609
 2461SOL     OW18841   1.413   3.055   1.844 -0.4191  0.3634  0.2578
 2461SOL    HW118842   1.333   3.019   1.806  0.5064  1.7345 -2.9641
 2461SOL    HW218843   1.477   3.032   1.776 -2.1267 -1.3635 -0.7540
 2462SOL     OW18844   3.332   2.119   0.958  0.0605  0.3242 -0.3781
 2462SOL    HW118845   3.359   2.067   0.883 -3.1242 -0.2824 -1.1019
 2462SOL    HW218846   3.263   2.172   0.918 -0.5949  1.4985  2.2883
 2463SOL     OW18847   1.330   3.752   5.675 -0.6573  0.2626  0.1834
 2463SOL    HW118848   1.405   3.729   5.620 -0.4369  0.1607  0.5324
 2463SOL    HW218849   1.262   3.701   5.630 -0.2169  0.8561 -1.1669
 2464SOL     OW18850   1.788   3.158   8.780 -0.3050  0.2561  0.3599
 2464SOL    HW118851   1.797   3.249   8.810  0.3730  0.1472  0.4931
 2464SOL    HW218852   1.881   3.135   8.784 -0.6184 -0.9952  0.1669
 2465SOL     OW18853   1.236   0.826   4.718 -0.5508 -0.5628  0.3933
 2465SOL    HW118854   1.317   0.789   4.753 -0.0396 -0.4812 -0.6901
 2465SOL    HW218855   1.193   0.741   4.704  1.4046 -1.4017 -0.5212
 2466SOL     OW18856   0.280   1.399   5.041 -0.3845 -0.3015  0.2147
 2466SOL    HW118857   0.362   1.388   5.090  0.6724 -1.0318 -1.7520
 2466SOL    HW218858   0.221   1.351   5.099  1.7365 -1.2828  1.5658
 2467SOL     OW18859   2.497   0.846  10.060 -0.0526 -0.6664  0.5352
 2467SOL    HW118860   2.432   0.819  10.124 -0.2467  0.3973  0.7811
 2467SOL    HW218861   2.553   0.769  10.044 -1.0168 -1.1913 -0.3380
 2468SOL     OW18862   4.010   2.545   9.041 -0.0975  0.0847 -0.4972
 2468SOL    HW118863   4.074   2.578   9.103  0.6900 -1.5557 -0.4700
 2468SOL    HW218864   3.989   2.464   9.086 -1.5531  0.0147 -1.2774
 2469SOL     OW18865   1.319   3.129  15.757  0.4169  0.4722 -0.8745
 2469SOL    HW118866   1.298   3.210  15.804  0.1764  0.3613 -0.7909
 2469SOL    HW218867   1.409   3.106  15.781  0.3999  1.3033 -0.0046
 2470SOL     OW18868   0.763   0.283   7.195  0.1345 -0.7464 -0.2912
 2470SOL    HW118869   0.824   0.349   7.161 -0.2191  0.4729  1.4104
 2470SOL    HW218870   0.832   0.240   7.247 -0.0886  0.0041  0.6379
 2471SOL     OW18871   3.306   0.662  17.159 -0.1504  0.0962  0.1066
 2471SOL    HW118872   3.362   0.618  17.095 -0.7840  0.3329 -0.6124
 2471SOL    HW218873   3.292   0.746  17.114 -1.0707  0.3400  0.8497
 2472SOL     OW18874   2.979   3.130  15.251  0.1545  0.2645 -0.3236
 2472SOL    HW118875   2.968   3.042  15.214  3.4660  0.5940 -2.0086
 2472SOL    HW218876   3.040   3.176  15.194  0.5299  0.9845  0.6580
 2473SOL     OW18877   2.259   2.748   4.954 -0.0889 -0.5706 -0.5627
 2473SOL    HW118878   2.241   2.690   4.880  1.8084 -0.8277 -0.8229
 2473SOL    HW218879   2.344   2.789   4.937  0.9075 -1.9044  1.2111
 2474SOL     OW18880   1.324   4.264   7.556 -0.5593  0.1165  0.0813
 2474SOL    HW118881   1.400   4.239   7.503 -0.5204  0.5993 -0.0951
 2474SOL    HW218882   1.333   4.218   7.640  1.6458 -1.8553 -1.2303
 2475SOL     OW18883   1.436   3.473   2.489  0.3279 -0.2511  0.7964
 2475SOL    HW118884   1.380   3.513   2.422  0.2811  1.1003  1.6465
 2475SOL    HW218885   1.469   3.403   2.432  1.0981  1.9761 -1.5073
 2476SOL     OW18886   1.192   1.698   3.296  0.1479 -0.2129 -0.0511
 2476SOL    HW118887   1.217   1.697   3.204 -1.4557  2.4015 -0.5072
 2476SOL    HW218888   1.266   1.660   3.344  1.0242  0.2116 -1.0732
 2477SOL     OW18889   2.536   4.401   4.455  0.3267  0.0068  0.0336
 2477SOL    HW118890   2.508   4.331   4.513  1.3361  0.2117  0.7824
 2477SOL    HW218891   2.619   4.354   4.449  0.3562 -0.0596  0.9570
 2478SOL     OW18892   4.509   4.359  10.993 -0.3593 -0.8032 -0.0829
 2478SOL    HW118893   4.586   4.384  11.044  0.3991 -1.5361 -0.8392
 2478SOL    HW218894   4.533   4.395  10.907  0.8321 -1.9508 -0.2289
 2479SOL     OW18895   3.852   2.192   2.479 -0.2306  0.1354  0.6493
 2479SOL    HW118896   3.794   2.203   2.404  1.3104  0.3137 -0.5351
 2479SOL    HW218897   3.812   2.123   2.531  0.3353  0.2507  1.2396
 2480SOL     OW18898   3.094   1.878   6.378  0.0093 -0.6665 -0.6404
 2480SOL    HW118899   3.121   1.894   6.469  0.1768 -0.7791 -0.6718
 2480SOL    HW218900   3.171   1.843   6.334  1.1282  0.2389  0.5772
 2481SOL     OW18901   2.561   4.019   5.616  0.0180  1.0287 -0.6108
 2481SOL    HW118902   2.533   3.928   5.615 -0.5475  1.1664  2.0582
 2481SOL    HW218903   2.626   4.004   5.685 -0.5594  2.2052  0.1895
 2482SOL     OW18904   4.680   3.041   1.345 -0.1799  0.5701 -0.2060
 2482SOL    HW118905   4.637   3.087   1.418  0.9407  0.1503  0.7174
 2482SOL    HW218906   4.690   3.120   1.291  0.1100  1.5320  1.2467
 2483SOL     OW18907   2.872   2.402   3.362 -0.2962 -0.1859  0.0846
 2483SOL    HW118908   2.830   2.325   3.401 -0.3901  0.2430  0.8246
 2483SOL    HW218909   2.882   2.460   3.437  0.4567 -3.4881  2.5193
 2484SOL     OW18910   2.173   0.227   3.669  0.2083  0.3490  0.9484
 2484SOL    HW118911   2.104   0.189   3.723  0.4027 -0.5993  0.5188
 2484SOL    HW218912   2.229   0.264   3.738  3.8160 -0.3998 -1.5635
 2485SOL     OW18913   3.030   0.686  13.390 -0.0532  0.3223 -0.6419
 2485SOL    HW118914   3.125   0.691  13.375  0.1943 -0.9350  0.4776
 2485SOL    HW218915   3.013   0.778  13.407 -0.9714 -0.4720  2.7962
 2486SOL     OW18916   0.704   3.313   2.894 -0.3162  0.0960  0.7321
 2486SOL    HW118917   0.718   3.280   2.983 -0.5304 -0.1683  0.6685
 2486SOL    HW218918   0.749   3.397   2.902 -1.4098  0.8272 -0.9576
 2487SOL     OW18919   1.031   2.042   7.486  0.2396  0.0078  0.2339
 2487SOL    HW118920   1.060   1.952   7.467 -0.4476 -0.2633  0.4722
 2487SOL    HW218921   0.949   2.020   7.530  1.3996 -0.6716  2.0750
 2488SOL     OW18922   0.576   4.387   9.724 -0.2991 -0.0845  0.0766
 2488SOL    HW118923   0.650   4.430   9.768 -0.9905  0.0049  1.1610
 2488SOL    HW218924   0.611   4.301   9.704 -2.3888 -1.2256  1.4229
 2489SOL     OW18925   1.888   1.646   5.493  0.3367  0.1204 -0.1220
 2489SOL    HW118926   1.869   1.616   5.582 -0.1921  2.9753  0.7151
 2489SOL    HW218927   1.977   1.613   5.487  1.2332  2.1598  1.9029
 2490SOL     OW18928   1.624   3.175  10.238  0.1323 -0.1820  0.0217
 2490SOL    HW118929   1.602   3.113  10.168 -0.6199  1.3698 -1.0951
 2490SOL    HW218930   1.535   3.195  10.267 -0.1585 -2.7395  0.9375
 2491SOL     OW18931   0.847   1.290   5.185 -0.2337  0.5186  0.0244
 2491SOL    HW118932   0.925   1.285   5.130 -0.4638  0.3435 -0.2902
 2491SOL    HW218933   0.866   1.214   5.239 -0.5083  0.8834  0.6375
 2492SOL     OW18934   3.216   4.590   8.714  0.3184  0.2975  0.0295
 2492SOL    HW118935   3.198   4.520   8.777 -2.2356  1.9722  1.1791
 2492SOL    HW218936   3.212   4.528   8.641 -0.7179  1.6681 -1.0545
 2493SOL     OW18937   0.095   1.347  13.620  0.5160  0.3752 -0.1462
 2493SOL    HW118938   0.100   1.347  13.525  0.7126 -0.0219 -0.1379
 2493SOL    HW218939   0.031   1.276  13.628  1.1997 -0.3429 -1.0531
 2494SOL     OW18940   1.348   4.513  12.451  0.2088  0.1377  0.3638
 2494SOL    HW118941   1.343   4.595  12.402 -2.1752 -0.1711  0.0836
 2494SOL    HW218942   1.314   4.548  12.534 -1.9174  0.1552 -0.5053
 2495SOL     OW18943   0.069   2.634   6.460  0.2778  0.2321 -0.3954
 2495SOL    HW118944   0.079   2.547   6.499  0.5937  0.0248 -0.9337
 2495SOL    HW218945   4.700   2.640   6.466  0.1957 -0.6076 -0.8962
 2496SOL     OW18946   3.286   1.518   2.013 -0.6548  0.2990  0.1163
 2496SOL    HW118947   3.192   1.495   2.011 -1.0082  1.7207  0.6222
 2496SOL    HW218948   3.324   1.434   2.040  1.2209  1.2397  0.3709
 2497SOL     OW18949   1.776   1.475   9.358 -0.2664  0.2309 -0.7084
 2497SOL    HW118950   1.855   1.483   9.413 -1.9467 -0.7354  1.8549
 2497SOL    HW218951   1.736   1.397   9.395 -0.3487  1.5379  1.9871
 2498SOL     OW18952   1.536   4.670   6.533 -0.4799 -0.2695  0.5076
 2498SOL    HW118953   1.474   4.628   6.474  0.7861 -0.5622 -0.5971
 2498SOL    HW218954   1.622   4.658   6.493 -0.9741 -3.4044  0.3945
 2499SOL     OW18955   4.172   0.429   8.465  0.0138 -0.1247  0.5320
 2499SOL    HW118956   4.156   0.391   8.551  0.6845  0.0238  0.7174
 2499SOL    HW218957   4.237   0.369   8.428 -1.4567 -0.2040 -1.9794
 2500SOL     OW18958   1.390   4.134   3.462  0.2484 -0.7669 -0.0416
 2500SOL    HW118959   1.424   4.143   3.373  0.1747 -0.9232 -0.0845
 2500SOL    HW218960   1.464   4.163   3.516 -1.3757  1.4232  1.0385
 2501SOL     OW18961   4.383   0.931   9.359 -0.1935  0.1068  0.6564
 2501SOL    HW118962   4.346   0.993   9.421 -0.9695 -1.0662  1.3745
 2501SOL    HW218963   4.472   0.919   9.391  0.7980  1.7533 -1.4820
 2502SOL     OW18964   0.737   0.507   5.840  0.6563 -0.2494  0.1531
 2502SOL    HW118965   0.736   0.518   5.935  0.4207  0.8234  0.0227
 2502SOL    HW218966   0.826   0.530   5.812  0.4092  0.4803 -0.0301
 2503SOL     OW18967   4.167   2.375   8.246  0.5264 -0.3540 -0.4102
 2503SOL    HW118968   4.228   2.377   8.320  1.4318  1.0649 -1.2014
 2503SOL    HW218969   4.195   2.453   8.199 -0.3826 -0.1720 -0.6459
 2504SOL     OW18970   3.517   1.146   6.505 -0.3300  0.1930 -0.0730
 2504SOL    HW118971   3.426   1.121   6.518 -0.5656 -0.6590 -3.2286
 2504SOL    HW218972   3.534   1.122   6.413 -2.9818 -3.6607  0.4580
 2505SOL     OW18973   1.580   4.509   8.094 -0.1289  0.1020 -0.0568
 2505SOL    HW118974   1.563   4.417   8.115  2.0975  0.0682  1.6057
 2505SOL    HW218975   1.581   4.493   7.999  2.2356 -1.0955  0.1853
 2506SOL     OW18976   0.203   3.960   7.274 -0.0123  0.4335  0.2972
 2506SOL    HW118977   0.297   3.943   7.283  0.0112 -0.4568 -1.7220
 2506SOL    HW218978   0.197   4.045   7.231  0.5190  1.0305  1.3830
 2507SOL     OW18979   0.461   2.521   8.813  0.6106  0.3704  0.0881
 2507SOL    HW118980   0.437   2.612   8.793  1.1961  0.4064 -0.4364
 2507SOL    HW218981   0.518   2.492   8.742  0.2242  0.8867 -0.4447
 2508SOL     OW18982   0.564   3.292   9.062 -0.4663  0.5884  0.2858
 2508SOL    HW118983   0.567   3.354   9.135  4.4206 -3.1918  3.3067
 2508SOL    HW218984   0.486   3.240   9.081 -0.2819  0.7298  1.4714
 2509SOL     OW18985   4.373   4.523   3.129  0.1044  0.2131  0.4325
 2509SOL    HW118986   4.294   4.576   3.117  0.3636  0.8956  1.7293
 2509SOL    HW218987   4.382   4.535   3.224  0.4658  0.1794  0.3997
 2510SOL     OW18988   1.002   0.837   3.106  0.1366 -0.4736  0.4724
 2510SOL    HW118989   1.049   0.852   3.025 -2.0432 -0.7658 -0.8701
 2510SOL    HW218990   0.919   0.800   3.073 -0.5326  0.6752  0.8520
 2511SOL     OW18991   2.855   1.176   3.622  0.5470  0.2672 -0.5462
 2511SOL    HW118992   2.849   1.134   3.708 -0.1204  2.2621  0.3720
 2511SOL    HW218993   2.884   1.263   3.648  2.0014 -0.5622  0.6259
 2512SOL     OW18994   0.526   1.050   5.204 -0.2399  0.0499 -0.2359
 2512SOL    HW118995   0.437   1.049   5.240  1.1824 -1.4482  3.2455
 2512SOL    HW218996   0.572   1.042   5.287 -1.3121 -2.6163  0.1066
 2513SOL     OW18997   4.388   2.743   8.444 -0.9381 -0.1138 -0.5075
 2513SOL    HW118998   4.342   2.802   8.384 -1.4634  0.1043  0.1020
 2513SOL    HW218999   4.328   2.669   8.440  0.0077 -0.9494  0.8808
 2514SOL     OW19000   0.149   0.537   2.169 -0.6722 -0.0996  0.5354
 2514SOL    HW119001   0.151   0.536   2.074 -1.7257 -2.8832  0.5637
 2514SOL    HW219002   0.067   0.584   2.187 -0.2996 -0.1387  2.3756
 2515SOL     OW19003   0.956   1.419  12.625  0.0358 -0.0381  0.6401
 2515SOL    HW119004   0.868   1.393  12.649 -0.6469  2.6643  1.0453
 2515SOL    HW219005   0.988   1.330  12.608  3.4902  0.6760  3.3363
 2516SOL     OW19006   0.584   4.193   8.621 -0.3917 -0.2469 -0.6458
 2516SOL    HW119007   0.497   4.154   8.616 -1.2915  1.5973  0.4941
 2516SOL    HW219008   0.631   4.110   8.606  0.1910 -0.1183  0.4595
 2517SOL     OW19009   2.512   0.607   5.935  0.0893 -0.5640 -0.4849
 2517SOL    HW119010   2.538   0.519   5.965 -0.3731  0.4487  2.8775
 2517SOL    HW219011   2.599   0.646   5.936 -0.2651  0.2979 -3.1423
 2518SOL     OW19012   2.995   0.587   9.685 -0.4707  0.1080 -0.3488
 2518SOL    HW119013   3.087   0.612   9.690 -0.8490  1.5340 -0.3749
 2518SOL    HW219014   3.007   0.492   9.689 -0.0842  0.0634 -2.8935
 2519SOL     OW19015   2.069   0.675   7.716 -0.2604 -0.2113  0.1289
 2519SOL    HW119016   2.062   0.581   7.734 -0.3564 -0.0789  0.8132
 2519SOL    HW219017   1.979   0.708   7.720 -0.7996 -1.6079 -0.2109
 2520SOL     OW19018   1.260   0.064   0.317  0.5811 -0.1300  0.3577
 2520SOL    HW119019   1.212   0.093   0.395  1.3482 -0.4067  0.9332
 2520SOL    HW219020   1.197   0.012   0.268  0.0417 -0.0417  0.9552
 2521SOL     OW19021   2.624   1.761   3.981 -0.2503 -0.1832 -0.3235
 2521SOL    HW119022   2.577   1.682   3.953 -1.9169  0.4799  0.5811
 2521SOL    HW219023   2.665   1.780   3.896 -0.6672 -2.1630 -0.9617
 2522SOL     OW19024   0.247   0.840  11.570  0.6103  0.4937  0.0059
 2522SOL    HW119025   0.233   0.841  11.665 -1.6126  0.8177 -0.3089
 2522SOL    HW219026   0.160   0.813  11.541  0.1088  0.0485  1.9571
 2523SOL     OW19027   1.107   3.915   6.539 -0.2848 -0.0165  0.7260
 2523SOL    HW119028   1.188   3.866   6.536  0.6868  1.6511 -0.7162
 2523SOL    HW219029   1.080   3.879   6.623 -2.2339 -1.9663 -0.7284
 2524SOL     OW19030   0.714   4.100   6.892 -0.2995  0.1926  0.6718
 2524SOL    HW119031   0.764   4.098   6.974  1.1983  1.1660 -0.2114
 2524SOL    HW219032   0.733   4.014   6.855  0.3227 -0.2719  2.0823
 2525SOL     OW19033   2.707   4.609   5.668  0.2057  0.1614 -0.1638
 2525SOL    HW119034   2.627   4.569   5.703 -1.1670  0.5272 -2.9003
 2525SOL    HW219035   2.751   4.661   5.736  0.4091  0.0704 -0.2273
 2526SOL     OW19036   2.971   2.759  10.997 -0.2096  0.0458 -0.1895
 2526SOL    HW119037   2.922   2.814  11.058 -1.5818  1.0921 -2.1839
 2526SOL    HW219038   3.019   2.831  10.957  0.7806  1.5425  3.8153
 2527SOL     OW19039   1.349   3.913  15.519  0.0297  0.0732  0.0775
 2527SOL    HW119040   1.442   3.895  15.535 -0.2625  0.1298  1.8306
 2527SOL    HW219041   1.318   3.879  15.603  0.6815 -2.6121 -0.7667
 2528SOL     OW19042   2.754   0.721   5.886 -0.2978 -0.5010  0.3458
 2528SOL    HW119043   2.789   0.776   5.957 -2.0606  3.4057 -1.8228
 2528SOL    HW219044   2.799   0.638   5.900  1.6071  0.5063  0.2989
 2529SOL     OW19045   0.536   2.731   9.518 -0.4975 -0.1409  0.0238
 2529SOL    HW119046   0.506   2.822   9.514 -0.7248 -0.2522 -0.8563
 2529SOL    HW219047   0.623   2.743   9.480 -0.5759 -0.0955 -0.1419
 2530SOL     OW19048   0.141   0.902   2.107  0.2815 -0.5333 -0.9351
 2530SOL    HW119049   0.158   0.842   2.180 -0.8769 -2.0679 -1.9335
 2530SOL    HW219050   0.216   0.891   2.048 -1.0377 -0.5934 -2.5827
 2531SOL     OW19051   0.381   1.775  14.724  1.0443  0.7087  0.4986
 2531SOL    HW119052   0.374   1.716  14.650  0.8192  1.9405 -0.4680
 2531SOL    HW219053   0.356   1.856  14.678 -1.9168 -0.3061  0.3433
 2532SOL     OW19054   0.595   4.560  10.516  0.2716 -0.5829  0.2755
 2532SOL    HW119055   0.679   4.606  10.511 -0.8029  1.0358 -2.9008
 2532SOL    HW219056   0.598   4.487  10.454  0.6885  0.5776 -1.0679
 2533SOL     OW19057   2.829   2.833   5.090 -0.2284  0.6257  0.2826
 2533SOL    HW119058   2.861   2.868   5.173 -1.3859  1.2752  0.4493
 2533SOL    HW219059   2.740   2.806   5.110 -0.2042  1.8154  1.9629
 2534SOL     OW19060   1.944   1.505  13.213 -0.1192 -0.0638 -0.1204
 2534SOL    HW119061   1.945   1.517  13.308  0.9565  0.0194 -0.1383
 2534SOL    HW219062   2.036   1.506  13.188 -0.5766  1.2437 -1.7259
 2535SOL     OW19063   1.459   0.934   5.238  0.5155 -0.2007 -0.8609
 2535SOL    HW119064   1.488   0.956   5.149  1.4355  0.8691 -0.2941
 2535SOL    HW219065   1.435   1.019   5.276 -0.7474 -0.0779 -1.9143
 2536SOL     OW19066   2.432   0.773  17.097  0.2004  0.2714 -0.2873
 2536SOL    HW119067   2.354   0.725  17.126 -0.3749  1.5765  0.2895
 2536SOL    HW219068   2.392   0.841  17.044 -0.5736 -1.5665 -2.0711
 2537SOL     OW19069   2.197   3.857  16.131 -0.3051 -0.6304  0.2151
 2537SOL    HW119070   2.231   3.823  16.214 -0.9139 -3.3321 -0.6646
 2537SOL    HW219071   2.234   3.800  16.064 -2.9837 -0.1037 -1.6902
 2538SOL     OW19072   4.418   1.099  13.390  0.7589  0.3779 -0.2388
 2538SOL    HW119073   4.408   1.194  13.386  0.1663  0.2689 -1.6334
 2538SOL    HW219074   4.358   1.078  13.319 -0.1811 -0.7155  0.8872
 2539SOL     OW19075   0.774   2.504   4.313  0.1222  0.2781  0.2683
 2539SOL    HW119076   0.776   2.420   4.268  1.5584 -0.2632  1.3292
 2539SOL    HW219077   0.682   2.527   4.308  0.9515  3.5426 -0.0445
 2540SOL     OW19078   0.250   1.196   7.747 -0.5444 -0.2710  0.1313
 2540SOL    HW119079   0.209   1.225   7.665  0.9231  1.0256 -0.1513
 2540SOL    HW219080   0.317   1.132   7.722 -1.1950 -1.6822  1.9915
 2541SOL     OW19081   0.436   3.838  13.506  0.1643  0.4318 -0.0439
 2541SOL    HW119082   0.382   3.784  13.449 -1.2548 -0.3604  2.0696
 2541SOL    HW219083   0.380   3.915  13.502 -0.1053  0.1172 -2.7638
 2542SOL     OW19084   2.193   2.777   6.770  0.8670 -0.5373 -0.3744
 2542SOL    HW119085   2.173   2.703   6.827 -0.3721  0.1997  0.1621
 2542SOL    HW219086   2.269   2.819   6.810  0.6114  0.1348 -0.5751
 2543SOL     OW19087   4.249   4.497   4.280  0.3941  0.3124  0.1428
 2543SOL    HW119088   4.231   4.403   4.272 -0.0516  0.5249 -1.3266
 2543SOL    HW219089   4.334   4.494   4.237  0.6541 -0.5571  0.7225
 2544SOL     OW19090   2.840   3.301   3.232  0.3582  1.0687  0.3192
 2544SOL    HW119091   2.839   3.365   3.161 -1.2701  2.9578  2.0557
 2544SOL    HW219092   2.753   3.302   3.272  0.1954  0.0796 -0.0136
 2545SOL     OW19093   0.178   2.387   4.513  0.7185  0.1653  0.5844
 2545SOL    HW119094   0.149   2.478   4.516 -0.4499 -0.2115  0.8368
 2545SOL    HW219095   0.109   2.343   4.562  0.7619 -1.2020 -0.5752
 2546SOL     OW19096   0.921   1.990   4.183  0.4246  0.0978  0.6498
 2546SOL    HW119097   1.015   2.004   4.195  0.0791  2.3881  0.8286
 2546SOL    HW219098   0.885   1.999   4.271 -0.7918  0.6026  0.1080
 2547SOL     OW19099   4.666   1.429   4.538  0.1252  0.1993  0.1112
 2547SOL    HW119100   4.651   1.519   4.508 -2.3587 -0.1085  0.3870
 2547SOL    HW219101   0.004   1.396   4.475 -1.0133  0.8143 -1.3511
 2548SOL     OW19102   1.526   3.585   7.280 -0.0486 -0.7044  0.1197
 2548SOL    HW119103   1.451   3.607   7.225  2.8167  2.1472 -2.6791
 2548SOL    HW219104   1.482   3.590   7.365 -0.0471 -1.7766  0.1772
 2549SOL     OW19105   0.287   3.519   9.509 -0.0272 -0.0613  0.1833
 2549SOL    HW119106   0.348   3.582   9.547 -0.9639  0.4546  0.8531
 2549SOL    HW219107   0.231   3.485   9.579 -0.6258  1.7361  0.5724
 2550SOL     OW19108   0.763   3.236   6.057  0.2286 -0.1166 -0.6498
 2550SOL    HW119109   0.849   3.210   6.022  0.2857  0.1601 -0.7175
 2550SOL    HW219110   0.702   3.217   5.985  0.7386  0.0266 -1.1245
 2551SOL     OW19111   0.892   3.699   4.902  0.3193 -0.4574  0.7198
 2551SOL    HW119112   0.948   3.762   4.948  1.4953 -1.4981  0.7086
 2551SOL    HW219113   0.925   3.619   4.942 -1.3259 -1.4613  0.0531
 2552SOL     OW19114   1.114   4.000   5.899 -0.6424  1.1148 -0.6475
 2552SOL    HW119115   1.055   3.973   5.970  0.5843 -0.0321 -0.0388
 2552SOL    HW219116   1.079   3.942   5.832 -1.1381 -0.6451  1.1039
 2553SOL     OW19117   4.414   3.064   8.086  0.5677 -0.1831 -0.0312
 2553SOL    HW119118   4.497   3.079   8.130  0.0168  2.5007  0.0937
 2553SOL    HW219119   4.379   2.983   8.123  2.2217 -1.7278 -1.8586
 2554SOL     OW19120   2.987   4.395  10.077 -0.5856  0.3983  0.5490
 2554SOL    HW119121   2.991   4.362   9.987 -0.0882 -2.0854  1.5131
 2554SOL    HW219122   3.062   4.366  10.129 -0.8325  0.1677  0.7771
 2555SOL     OW19123   2.139   3.823   8.097  0.3897  0.1676 -0.8371
 2555SOL    HW119124   2.186   3.740   8.096 -0.6060 -0.4039  0.0688
 2555SOL    HW219125   2.150   3.869   8.181  2.5884 -1.2581 -0.3343
 2556SOL     OW19126   0.417   3.959  16.804  0.3647  0.2402 -0.2290
 2556SOL    HW119127   0.466   3.991  16.880  0.7900  0.5469 -0.6306
 2556SOL    HW219128   0.355   4.031  16.790 -1.2850 -1.2024 -0.3052
 2557SOL     OW19129   4.069   4.605   4.101 -0.4737 -0.4171 -0.2431
 2557SOL    HW119130   4.135   4.652   4.049  0.0500  2.5197  3.0487
 2557SOL    HW219131   4.133   4.559   4.156  0.1626 -0.5103 -1.0627
 2558SOL     OW19132   3.600   0.478   3.359  0.1254 -0.3800  0.5462
 2558SOL    HW119133   3.534   0.448   3.297 -0.2764  2.4050 -0.4113
 2558SOL    HW219134   3.580   0.572   3.365 -1.0434 -0.7278  2.0991
 2559SOL     OW19135   2.984   0.367   5.532  0.1253  0.2197  0.5517
 2559SOL    HW119136   3.067   0.321   5.522  0.0670  0.8238 -2.6440
 2559SOL    HW219137   2.986   0.432   5.462  0.0815 -0.3072  0.0595
 2560SOL     OW19138   4.384   1.994   4.417 -0.3280  0.1325  0.3579
 2560SOL    HW119139   4.316   2.016   4.354 -1.9100  0.4636  2.2062
 2560SOL    HW219140   4.403   2.081   4.452 -1.0438 -0.6577  2.7006
 2561SOL     OW19141   3.169   4.086   8.846 -0.1811 -0.2728  0.6699
 2561SOL    HW119142   3.084   4.076   8.803 -1.9267 -1.8993  4.4494
 2561SOL    HW219143   3.227   4.053   8.777 -1.4522  0.7598 -0.8651
 2562SOL     OW19144   4.594   2.030   5.641  0.3701 -0.0901 -0.2821
 2562SOL    HW119145   4.569   2.106   5.589  0.1980  0.0118 -0.0518
 2562SOL    HW219146   4.530   2.045   5.710 -0.3758 -0.6258 -0.8509
 2563SOL     OW19147   3.500   0.376  15.913 -0.2160  0.2965  0.1006
 2563SOL    HW119148   3.536   0.316  15.847 -1.5646  1.1110 -1.3746
 2563SOL    HW219149   3.409   0.379  15.884 -0.4909 -1.0905  0.8859
 2564SOL     OW19150   0.382   4.583  13.092  0.0824 -0.3738 -0.0582
 2564SOL    HW119151   0.406   4.573  13.000 -0.1590  0.9383 -0.2680
 2564SOL    HW219152   0.432   4.511  13.129 -0.5841  0.3496  2.2511
 2565SOL     OW19153   2.428   0.809   8.035  0.0888 -0.1684  0.0856
 2565SOL    HW119154   2.522   0.821   8.021  0.1448 -0.6798 -0.0020
 2565SOL    HW219155   2.414   0.820   7.941  0.5757 -0.6496 -0.0475
 2566SOL     OW19156   0.495   3.495   2.625  0.5596  0.1654 -0.6060
 2566SOL    HW119157   0.470   3.564   2.563  2.7652  0.7056 -0.9250
 2566SOL    HW219158   0.581   3.518   2.660  1.0792  0.6057 -2.1591
 2567SOL     OW19159   4.679   2.468  15.642 -0.1562  0.2602  0.0707
 2567SOL    HW119160   4.705   2.481  15.734  3.8187  2.4811 -1.3264
 2567SOL    HW219161   4.603   2.526  15.636  0.7864  1.5845  0.6976
 2568SOL     OW19162   4.114   2.814   2.097  0.1480  0.3632 -0.6393
 2568SOL    HW119163   4.197   2.862   2.100 -0.0191  0.5491  1.6461
 2568SOL    HW219164   4.129   2.767   2.015 -1.1985  2.7842 -2.2606
 2569SOL     OW19165   1.719   3.566   3.829 -0.2855  0.0870 -0.7572
 2569SOL    HW119166   1.725   3.554   3.924  0.3724 -1.8739 -1.0382
 2569SOL    HW219167   1.800   3.609   3.806 -1.1221  1.0159 -1.9040
 2570SOL     OW19168   0.605   0.211   3.922 -0.2215  0.8429  0.1735
 2570SOL    HW119169   0.680   0.226   3.864  0.1657 -1.7652  0.0237
 2570SOL    HW219170   0.547   0.157   3.868  0.3338  1.9359 -1.5154
 2571SOL     OW19171   3.064   3.782  10.626 -0.7524 -0.4001 -0.5088
 2571SOL    HW119172   3.103   3.830  10.699 -0.8516  0.5413 -1.0822
 2571SOL    HW219173   2.971   3.804  10.637 -0.6241 -0.8975  1.7375
 2572SOL     OW19174   4.348   1.922  17.535  0.1764 -0.5375  0.4771
 2572SOL    HW119175   4.421   1.872  17.571  0.3155  1.4770  2.9481
 2572SOL    HW219176   4.277   1.870  17.573 -0.8498  0.8990  0.5564
 2573SOL     OW19177   0.682   3.088   0.075 -0.2400  0.6604  0.0298
 2573SOL    HW119178   0.740   3.044   0.137 -0.9552 -0.3442 -0.0220
 2573SOL    HW219179   0.604   3.106   0.127  0.2267  1.1223  0.5789
 2574SOL     OW19180   2.561   0.412   0.700 -0.6313  0.0666 -0.0707
 2574SOL    HW119181   2.553   0.406   0.605 -1.1978 -2.7526  0.1464
 2574SOL    HW219182   2.588   0.324   0.728 -0.2474  0.2908  0.2520
 2575SOL     OW19183   1.906   3.624  15.975  0.3348 -0.4293  0.2145
 2575SOL    HW119184   1.871   3.649  16.061  1.6033 -0.4155  0.7220
 2575SOL    HW219185   1.825   3.602  15.928 -1.0870 -2.4200  3.5732
 2576SOL     OW19186   2.343   0.002  15.935  0.5626  0.0809 -0.4439
 2576SOL    HW119187   2.421   4.726  15.990 -0.5891 -0.4530  1.1611
 2576SOL    HW219188   2.319   4.639  15.962  3.4600 -0.2273  1.0945
 2577SOL     OW19189   0.621   2.992   6.583 -0.0632  0.0957 -0.4115
 2577SOL    HW119190   0.615   3.079   6.621  0.7262  0.0057 -0.0792
 2577SOL    HW219191   0.701   3.008   6.533 -0.1440 -0.7474 -0.8239
 2578SOL     OW19192   3.151   3.266  15.089 -0.1109 -0.1184 -0.4959
 2578SOL    HW119193   3.116   3.329  15.026 -0.9451  0.8473  0.9174
 2578SOL    HW219194   3.160   3.328  15.162  1.5353  1.2344 -1.8468
 2579SOL     OW19195   1.263   1.405   7.320 -0.3377 -0.4778 -0.1820
 2579SOL    HW119196   1.167   1.405   7.314 -0.3071 -2.8951 -0.9030
 2579SOL    HW219197   1.282   1.459   7.244 -0.0044  0.9453  0.9281
 2580SOL     OW19198   4.404   3.648   9.736  0.2863 -0.7466  0.2165
 2580SOL    HW119199   4.376   3.557   9.746 -1.7325 -0.1344  0.0826
 2580SOL    HW219200   4.499   3.642   9.747  0.3007 -3.2430 -1.1148
 2581SOL     OW19201   3.197   4.094   8.523 -0.0778 -0.2584 -0.1949
 2581SOL    HW119202   3.143   4.077   8.446  0.1068  2.3194 -0.9021
 2581SOL    HW219203   3.178   4.186   8.542 -1.1848 -0.8354  1.5238
 2582SOL     OW19204   1.580   3.180   7.423 -0.2273  0.1833  0.2765
 2582SOL    HW119205   1.631   3.109   7.462 -0.5533  0.7473  1.7467
 2582SOL    HW219206   1.629   3.198   7.343  0.3036 -0.7444  0.3920
 2583SOL     OW19207   0.830   3.228   7.163  0.6008 -0.5193  0.0367
 2583SOL    HW119208   0.905   3.284   7.142  0.2795  0.4967  1.6336
 2583SOL    HW219209   0.866   3.184   7.240 -0.0184 -0.4389  0.3680
 2584SOL     OW19210   3.343   3.658   1.082 -0.2559  0.1662 -0.5040
 2584SOL    HW119211   3.312   3.608   1.157 -1.1101  0.0707 -0.9233
 2584SOL    HW219212   3.406   3.714   1.127 -1.1081  0.1146  0.7485
 2585SOL     OW19213   3.511   0.490  16.697  0.3196 -0.3005  0.2507
 2585SOL    HW119214   3.586   0.447  16.737  0.2949  0.1289  0.7460
 2585SOL    HW219215   3.515   0.459  16.606 -1.1409  0.2971 -0.0268
 2586SOL     OW19216   1.774   1.601   6.032 -0.4478 -0.1594 -0.3051
 2586SOL    HW119217   1.869   1.611   6.032 -0.6977  2.1773  1.0939
 2586SOL    HW219218   1.750   1.631   5.944 -1.3436  0.7747  0.2559
 2587SOL     OW19219   4.362   3.635   7.724 -0.2031  0.3829 -0.5793
 2587SOL    HW119220   4.329   3.720   7.752  1.1347  0.7477 -0.0931
 2587SOL    HW219221   4.349   3.583   7.804 -0.1332  0.8555 -0.2592
 2588SOL     OW19222   0.851   2.612   3.117 -0.1333  0.1678  0.0629
 2588SOL    HW119223   0.873   2.693   3.164  0.2860  0.0750  0.0262
 2588SOL    HW219224   0.816   2.636   3.031  0.6298  2.8073  0.4929
 2589SOL     OW19225   4.467   1.817   2.427 -0.0357 -0.1226  0.4539
 2589SOL    HW119226   4.479   1.802   2.334 -3.0449  0.3148  0.0011
 2589SOL    HW219227   4.500   1.907   2.430 -1.0295  0.2247  0.8266
 2590SOL     OW19228   0.516   2.542   4.327 -0.1775  0.0853  0.1410
 2590SOL    HW119229   0.508   2.636   4.311  0.5633 -0.0614 -1.0382
 2590SOL    HW219230   0.464   2.508   4.255 -0.4652 -0.6684  0.6993
 2591SOL     OW19231   2.421   1.480   7.072  0.2831 -0.2776 -0.4687
 2591SOL    HW119232   2.333   1.506   7.044  0.4601  0.1995 -0.5688
 2591SOL    HW219233   2.421   1.520   7.159 -2.1500 -0.0289 -0.5903
 2592SOL     OW19234   3.122   2.441   7.837 -0.7417  0.7841  0.7635
 2592SOL    HW119235   3.147   2.418   7.926  2.1586  0.1208 -0.2139
 2592SOL    HW219236   3.153   2.367   7.785  0.0801  0.3181  1.9266
 2593SOL     OW19237   2.526   2.090   0.933  0.1920  0.1361  0.7265
 2593SOL    HW119238   2.604   2.035   0.941 -1.8296 -2.9028 -0.4205
 2593SOL    HW219239   2.474   2.071   1.012  0.0955 -1.2191  0.3399
 2594SOL     OW19240   0.917   1.812   6.783  0.4448  0.1993 -0.2044
 2594SOL    HW119241   0.838   1.758   6.792 -0.0974  1.4820  2.7717
 2594SOL    HW219242   0.885   1.894   6.746 -0.0343 -0.0109 -0.2603
 2595SOL     OW19243   4.277   1.374   7.739  0.2408  0.2069  0.0536
 2595SOL    HW119244   4.366   1.355   7.708 -0.4760  0.9688 -2.5018
 2595SOL    HW219245   4.286   1.463   7.774  0.5579  0.4311 -0.5972
 2596SOL     OW19246   2.752   2.451   0.496 -0.5366  0.0225  0.2705
 2596SOL    HW119247   2.752   2.545   0.479  0.3529 -0.0924 -0.3576
 2596SOL    HW219248   2.673   2.437   0.548 -0.8826  0.9403 -0.0132
 2597SOL     OW19249   1.118   1.474   2.522  0.1102  0.3120  0.3781
 2597SOL    HW119250   1.151   1.564   2.518  0.9592 -0.1646 -3.6173
 2597SOL    HW219251   1.055   1.482   2.451  0.5003 -1.4127 -0.1477
 2598SOL     OW19252   0.457   3.167   5.331 -0.1827 -0.0359  0.0597
 2598SOL    HW119253   0.544   3.130   5.315 -0.6214 -1.0511  0.0221
 2598SOL    HW219254   0.471   3.195   5.421 -0.2724  1.3480 -0.3590
 2599SOL     OW19255   3.376   2.747   3.185 -0.0691  0.1516 -0.0336
 2599SOL    HW119256   3.457   2.795   3.200 -0.3089  0.9648 -1.2748
 2599SOL    HW219257   3.382   2.681   3.254 -0.6850 -0.4000 -0.4997
 2600SOL     OW19258   4.551   0.333   2.226  0.1226 -0.4055 -0.5674
 2600SOL    HW119259   4.486   0.264   2.215  0.4369 -0.7349 -0.3830
 2600SOL    HW219260   4.608   0.283   2.285 -0.3611 -0.2780  0.0046
 2601SOL     OW19261   0.665   1.286   6.993  0.0861  0.4234  0.4349
 2601SOL    HW119262   0.624   1.355   7.044 -0.8166 -0.4740  0.9261
 2601SOL    HW219263   0.582   1.251   6.960  0.2785 -1.2557  1.7508
 2602SOL     OW19264   3.781   2.870   0.970 -0.2298 -0.0153 -0.5185
 2602SOL    HW119265   3.751   2.935   1.034 -1.3219  0.4608 -1.5068
 2602SOL    HW219266   3.838   2.811   1.019 -0.7584  0.2915  0.4532
 2603SOL     OW19267   3.746   0.478   6.106 -0.4257 -0.2619 -0.6335
 2603SOL    HW119268   3.825   0.480   6.160 -0.2658 -3.4793 -0.7440
 2603SOL    HW219269   3.722   0.385   6.116 -0.4572  0.0230  1.8183
 2604SOL     OW19270   2.586   2.863   3.300 -0.4377 -0.1291 -0.1802
 2604SOL    HW119271   2.493   2.865   3.279 -0.2225  1.8056 -1.0240
 2604SOL    HW219272   2.594   2.882   3.394  1.6715 -2.8094  0.1677
 2605SOL     OW19273   1.100   1.683  11.256 -0.2899  0.1252  0.2713
 2605SOL    HW119274   1.007   1.688  11.279  0.1597  0.9422  1.9326
 2605SOL    HW219275   1.097   1.593  11.225 -1.0717  0.1533  0.2475
 2606SOL     OW19276   2.392   3.624   3.248 -0.3738  0.2591  0.6234
 2606SOL    HW119277   2.430   3.711   3.251 -1.7555  0.8808  0.0329
 2606SOL    HW219278   2.359   3.615   3.337 -1.6201  0.5594  0.1878
 2607SOL     OW19279   0.418   1.140   5.757 -0.1906  0.1664 -0.4850
 2607SOL    HW119280   0.405   1.169   5.847  0.4148 -0.2836 -0.2600
 2607SOL    HW219281   0.462   1.214   5.715 -1.1234  1.6231  1.0748
 2608SOL     OW19282   2.996   3.142   3.642  0.0534  0.3368  0.2094
 2608SOL    HW119283   3.061   3.077   3.672  1.6456  0.3262 -3.3235
 2608SOL    HW219284   2.932   3.082   3.606  1.9912 -1.0550 -0.9278
 2609SOL     OW19285   0.229   2.541   8.592 -0.0376 -0.3865 -0.5290
 2609SOL    HW119286   0.168   2.516   8.661 -0.1027 -1.0264 -0.8167
 2609SOL    HW219287   0.224   2.636   8.598  1.0380 -0.4427  1.2182
 2610SOL     OW19288   3.234   4.653  13.938  0.0072  0.1493 -0.1222
 2610SOL    HW119289   3.246   4.599  13.860  0.8746  0.8216 -0.4558
 2610SOL    HW219290   3.232   0.013  13.896 -1.5161  0.6318  0.9372
 2611SOL     OW19291   4.185   3.586  16.118 -0.2621  0.1184 -0.1395
 2611SOL    HW119292   4.152   3.672  16.145 -1.6637 -0.0175 -1.4056
 2611SOL    HW219293   4.104   3.549  16.083  1.0974 -1.3099 -1.7505
 2612SOL     OW19294   0.482   4.087  17.567  0.1304  0.3278 -0.2275
 2612SOL    HW119295   0.575   4.085  17.544 -0.0140 -1.4833 -0.6618
 2612SOL    HW219296   0.468   4.010  17.623  0.4646  0.1112 -0.4428
 2613SOL     OW19297   3.154   4.468  15.315 -0.3315  0.1138 -0.2004
 2613SOL    HW119298   3.113   4.410  15.251 -0.6965 -1.4354  1.4539
 2613SOL    HW219299   3.100   4.441  15.389  0.9990 -1.6564  0.1191
 2614SOL     OW19300   0.958   0.312  12.480 -0.7504 -0.6249  0.0792
 2614SOL    HW119301   0.906   0.238  12.451 -0.5275 -0.6325 -0.3006
 2614SOL    HW219302   1.048   0.299  12.451 -0.5632 -1.1149  0.8952
 2615SOL     OW19303   3.415   3.808   2.152 -0.0110  0.1584 -0.1022
 2615SOL    HW119304   3.320   3.798   2.145  0.0074  1.0312 -1.5430
 2615SOL    HW219305   3.437   3.810   2.059 -0.5295  1.5847 -0.1996
 2616SOL     OW19306   4.499   3.703   8.318 -0.8359 -0.2240  0.3362
 2616SOL    HW119307   4.476   3.744   8.401 -0.0596  0.6994  0.0999
 2616SOL    HW219308   4.572   3.759   8.293 -1.7135  1.2677  1.1481
 2617SOL     OW19309   4.643   3.285   4.595 -0.1657 -0.4327  0.4805
 2617SOL    HW119310   4.653   3.198   4.555 -0.0683 -0.0983 -0.2226
 2617SOL    HW219311   4.596   3.270   4.677 -0.1843  0.6196  0.6585
 2618SOL     OW19312   3.873   2.143   7.813  0.1075  0.0047  0.3061
 2618SOL    HW119313   3.828   2.173   7.892  0.2952 -0.3900  0.5653
 2618SOL    HW219314   3.832   2.196   7.745 -0.0654 -0.4536  0.0550
 2619SOL     OW19315   1.764   1.029   5.026  0.0675 -0.4878  0.2214
 2619SOL    HW119316   1.803   1.073   4.950  0.5115  1.1219  1.3684
 2619SOL    HW219317   1.679   1.008   4.986 -0.4266  1.1998  0.3589
 2620SOL     OW19318   2.168   2.050   3.201  0.0129 -0.3309 -0.1536
 2620SOL    HW119319   2.105   2.026   3.269 -3.0413  0.3836 -2.7015
 2620SOL    HW219320   2.113   2.070   3.125 -1.0670 -0.2556  0.6394
 2621SOL     OW19321   4.212   1.709  17.616 -0.2039  0.6800 -0.2889
 2621SOL    HW119322   4.137   1.664  17.576  1.4747  0.2430 -2.8545
 2621SOL    HW219323   4.275   1.638  17.629  1.1039  1.7727 -0.6772
 2622SOL     OW19324   4.167   3.036   2.716  0.3916  0.1388  0.2523
 2622SOL    HW119325   4.081   3.065   2.747  0.3730 -0.4476  0.7279
 2622SOL    HW219326   4.147   2.990   2.635 -0.2002  0.4835  0.2063
 2623SOL     OW19327   0.928   4.249   0.268 -0.4080 -0.4421  0.0889
 2623SOL    HW119328   0.991   4.245   0.196 -0.1161  0.0551  0.3202
 2623SOL    HW219329   0.917   4.344   0.274 -1.5416 -0.5976  0.6261
 2624SOL     OW19330   2.309   0.823   5.765  0.0103 -0.4363  0.1923
 2624SOL    HW119331   2.358   0.759   5.712  1.1049  1.5674 -1.2034
 2624SOL    HW219332   2.378   0.882   5.793 -1.0653  0.6449  0.5752
 2625SOL     OW19333   2.316   2.047  11.104 -0.0782  0.0129  0.1969
 2625SOL    HW119334   2.347   2.097  11.180 -0.8054 -1.3139  1.3559
 2625SOL    HW219335   2.364   2.084  11.030 -2.5360  1.6092 -0.5790
 2626SOL     OW19336   1.355   3.490   0.973 -0.7177 -0.2183 -0.2435
 2626SOL    HW119337   1.274   3.499   0.923  0.3904  1.4582 -1.7242
 2626SOL    HW219338   1.405   3.448   0.903 -0.5093  3.1121 -2.0655
 2627SOL     OW19339   4.447   1.336   8.189 -0.2694 -0.2164  0.1412
 2627SOL    HW119340   4.451   1.243   8.166 -0.1640  0.3170 -1.9771
 2627SOL    HW219341   4.510   1.343   8.260  2.4190  2.1810 -2.4898
 2628SOL     OW19342   3.307   0.766   1.407 -0.0401  0.3088 -0.2186
 2628SOL    HW119343   3.246   0.807   1.346 -1.6548 -2.6475 -0.5674
 2628SOL    HW219344   3.316   0.677   1.373  0.1778  0.2917 -0.1133
 2629SOL     OW19345   2.660   1.668   8.820 -0.1209 -0.3241  0.4711
 2629SOL    HW119346   2.587   1.616   8.787  0.1022 -0.7749  0.6878
 2629SOL    HW219347   2.644   1.754   8.780  3.3737 -0.0439 -0.3095
 2630SOL     OW19348   1.662   0.137   7.867 -0.3008  0.5931  0.2611
 2630SOL    HW119349   1.732   0.108   7.926 -0.7247  1.2784  1.1016
 2630SOL    HW219350   1.591   0.073   7.873 -0.1864  0.3661 -0.7063
 2631SOL     OW19351   0.135   4.323  17.550 -0.0515  0.3137 -0.4475
 2631SOL    HW119352   0.100   4.340  17.463 -2.2592 -0.1565  0.3626
 2631SOL    HW219353   0.228   4.311  17.529 -0.2819 -0.4500 -1.0396
 2632SOL     OW19354   3.045   0.660   2.295  0.1438 -0.5449 -0.3873
 2632SOL    HW119355   3.099   0.612   2.231 -0.1839 -1.2409 -0.1409
 2632SOL    HW219356   2.997   0.709   2.229  1.7566  0.2063 -1.0022
 2633SOL     OW19357   0.029   0.064   5.782  0.0178 -0.1280 -0.6436
 2633SOL    HW119358   4.670   0.105   5.764  0.4116  0.5602 -0.9336
 2633SOL    HW219359   4.725   4.706   5.817 -1.2077  1.2083  1.4584
 2634SOL     OW19360   4.459   3.359  17.500 -0.0986 -0.0055 -0.0444
 2634SOL    HW119361   4.496   3.359  17.412  0.4916 -1.7090  0.2033
 2634SOL    HW219362   4.460   3.264  17.512 -0.7345 -0.0990 -0.7773
 2635SOL     OW19363   1.164   2.494   4.618 -0.3184  0.4592  0.2711
 2635SOL    HW119364   1.157   2.556   4.545  0.9203  1.2963  0.8667
 2635SOL    HW219365   1.093   2.531   4.671 -0.8938 -0.3858  0.0836
 2636SOL     OW19366   1.580   0.009   1.957  0.1211  0.0134 -0.4847
 2636SOL    HW119367   1.546   4.679   2.028  0.1804  1.1752  0.4511
 2636SOL    HW219368   1.496   0.016   1.912 -0.3109  1.5692  0.5731
 2637SOL     OW19369   2.830   3.299   7.903 -0.0874  0.0586 -0.1220
 2637SOL    HW119370   2.785   3.370   7.857  2.4652 -0.4873 -3.4449
 2637SOL    HW219371   2.853   3.342   7.985  0.4517  0.5171 -0.5126
 2638SOL     OW19372   3.787   2.689   9.453 -0.4585 -0.1379 -0.6951
 2638SOL    HW119373   3.873   2.698   9.411 -1.3609  0.0130 -2.5381
 2638SOL    HW219374   3.816   2.670   9.542  1.0731  1.3821 -0.8884
 2639SOL     OW19375   3.844   2.446   6.658  0.0109 -0.5521 -0.0990
 2639SOL    HW119376   3.850   2.466   6.565 -0.2177 -3.9865 -0.8423
 2639SOL    HW219377   3.833   2.352   6.644  0.2156 -0.6068  0.1047
 2640SOL     OW19378   1.234   4.015   8.206 -0.0695  0.4737 -0.3444
 2640SOL    HW119379   1.255   3.924   8.228  1.3791  0.5767 -1.2661
 2640SOL    HW219380   1.152   4.032   8.251 -0.8821  0.0147 -1.6743
 2641SOL     OW19381   3.789   1.419   1.406  0.1135 -0.1836 -0.0934
 2641SOL    HW119382   3.856   1.451   1.467 -0.6011 -0.6131  0.9181
 2641SOL    HW219383   3.716   1.481   1.401  1.8873  1.9813  0.5961
 2642SOL     OW19384   0.194   3.121   4.661  0.3481  0.3395  0.0582
 2642SOL    HW119385   0.213   3.167   4.579  0.5417  0.1745  0.0112
 2642SOL    HW219386   0.099   3.115   4.659  0.4891 -0.9499 -2.6530
 2643SOL     OW19387   3.860   2.855   7.430 -0.4809  0.0661  0.2306
 2643SOL    HW119388   3.953   2.847   7.450 -0.1276  2.8191 -0.4313
 2643SOL    HW219389   3.820   2.866   7.516  1.9657  0.0262  1.3863
 2644SOL     OW19390   2.728   2.339  11.417  1.0082  0.2040  0.0678
 2644SOL    HW119391   2.771   2.409  11.466  0.3568 -0.6352  1.8444
 2644SOL    HW219392   2.783   2.348  11.340 -0.0862  0.3690 -0.6998
 2645SOL     OW19393   3.703   3.660  11.334 -0.0124 -0.1266 -0.6772
 2645SOL    HW119394   3.731   3.728  11.273 -1.8852  1.7908  0.5989
 2645SOL    HW219395   3.743   3.703  11.410  4.3354 -1.4704 -2.2236
 2646SOL     OW19396   4.574   4.512   8.037 -0.1627 -0.7541  0.5466
 2646SOL    HW119397   4.512   4.537   8.105 -1.1979  1.8701 -1.3467
 2646SOL    HW219398   4.603   4.426   8.066 -0.1768 -0.6511  0.8680
 2647SOL     OW19399   0.791   4.571   3.725  0.1181  0.7104 -0.0632
 2647SOL    HW119400   0.749   4.509   3.665  2.7801  0.7525 -1.9759
 2647SOL    HW219401   0.877   4.584   3.685  0.5774  0.5589  0.8767
 2648SOL     OW19402   0.748   0.786  16.843  0.3836  0.1524  0.1016
 2648SOL    HW119403   0.660   0.753  16.827  0.6930 -0.0333 -1.2699
 2648SOL    HW219404   0.781   0.741  16.921  1.5691 -0.4555 -0.7502
 2649SOL     OW19405   3.439   3.164   8.378 -0.6007 -0.0189 -0.0428
 2649SOL    HW119406   3.438   3.101   8.451  0.2939  1.1413  0.9817
 2649SOL    HW219407   3.515   3.131   8.330  0.7505  0.3576  1.8401
 2650SOL     OW19408   2.528   1.687  13.473 -0.6790 -0.3777 -0.2706
 2650SOL    HW119409   2.588   1.759  13.452  1.2888 -1.9684 -0.0563
 2650SOL    HW219410   2.562   1.621  13.412  1.7474  0.0900  0.5916
 2651SOL     OW19411   2.337   3.997   2.214 -0.6632  0.6113 -0.2123
 2651SOL    HW119412   2.260   3.942   2.225  1.6418 -2.5069  0.2525
 2651SOL    HW219413   2.312   4.065   2.277  0.2774  0.9871 -0.2301
 2652SOL     OW19414   1.128   1.274   8.046 -0.8641  0.0679 -0.9027
 2652SOL    HW119415   1.033   1.283   8.039 -1.0262  1.0934  2.4738
 2652SOL    HW219416   1.145   1.201   7.987 -1.7846  0.7097 -1.9570
 2653SOL     OW19417   2.797   3.121  15.896  0.3087  0.1333 -0.0532
 2653SOL    HW119418   2.739   3.092  15.826  0.4726  1.1293 -0.5933
 2653SOL    HW219419   2.786   3.045  15.953 -0.5178  0.3712  0.1129
 2654SOL     OW19420   2.002   1.208   6.101  1.0805 -0.1262  0.5598
 2654SOL    HW119421   2.037   1.170   6.020  0.2451  3.4742 -1.4951
 2654SOL    HW219422   2.045   1.293   6.105  0.3048  0.3149 -0.3701
 2655SOL     OW19423   0.457   1.805  15.374 -0.3458 -0.0872 -0.5676
 2655SOL    HW119424   0.384   1.832  15.431  1.0759 -0.8107  1.6010
 2655SOL    HW219425   0.483   1.894  15.350  0.1207 -0.0126  0.1985
 2656SOL     OW19426   0.192   2.612   9.292  0.2726 -0.1404 -0.0467
 2656SOL    HW119427   0.252   2.606   9.217  0.3642  3.2306 -0.2413
 2656SOL    HW219428   0.117   2.663   9.262 -0.2330  0.5831  2.4836
 2657SOL     OW19429   1.349   0.445   3.437  0.5219 -0.0015  0.1967
 2657SOL    HW119430   1.300   0.498   3.500  0.0191  1.2476 -1.2624
 2657SOL    HW219431   1.332   0.482   3.350 -1.6973 -2.2721 -0.3330
 2658SOL     OW19432   0.580   3.517   5.700 -0.3480 -0.3769 -0.5432
 2658SOL    HW119433   0.508   3.579   5.693 -1.6807 -1.6720  1.7093
 2658SOL    HW219434   0.570   3.503   5.794 -0.4603  1.4044 -0.2900
 2659SOL     OW19435   1.972   3.717  12.387 -0.9532  0.7921  0.2940
 2659SOL    HW119436   1.974   3.732  12.293 -0.2398 -1.4470 -0.0515
 2659SOL    HW219437   1.984   3.804  12.427 -0.7215  1.5309 -1.3911
 2660SOL     OW19438   4.097   4.383  14.068  0.1691 -0.4858 -0.5155
 2660SOL    HW119439   4.112   4.437  14.145  0.4771 -0.5628 -0.5213
 2660SOL    HW219440   4.047   4.315  14.114  0.0973 -1.3657 -1.8967
 2661SOL     OW19441   0.007   2.160   8.124 -0.7063 -0.1025  0.1939
 2661SOL    HW119442   0.096   2.123   8.124 -1.1571 -1.1903  0.1299
 2661SOL    HW219443   4.685   2.107   8.060 -1.4994  0.0730  0.6439
 2662SOL     OW19444   4.339   3.028   5.878  0.2268  0.5505 -0.3498
 2662SOL    HW119445   4.391   2.949   5.865 -0.0213  0.2854  0.2556
 2662SOL    HW219446   4.303   3.027   5.789 -1.5646  0.4989  0.3654
 2663SOL     OW19447   0.831   0.309  17.669 -0.3492 -0.8789 -0.2628
 2663SOL    HW119448   0.867   0.338   0.047  0.1327  0.6401 -0.9987
 2663SOL    HW219449   0.906   0.310  17.609  0.0508 -0.7100  0.2418
 2664SOL     OW19450   4.117   1.579   5.102  0.1805 -0.1810 -0.4277
 2664SOL    HW119451   4.203   1.577   5.060  0.4526  0.2113  0.1102
 2664SOL    HW219452   4.106   1.493   5.143 -0.6606  0.6316  1.0798
 2665SOL     OW19453   0.610   4.562   3.152  0.6282  0.6314 -0.2925
 2665SOL    HW119454   0.596   4.528   3.064 -0.3668  1.6604 -0.5374
 2665SOL    HW219455   0.524   4.604   3.161 -0.5168 -1.9495  0.7411
 2666SOL     OW19456   1.981   2.347   7.336  0.2228  0.5417  0.0908
 2666SOL    HW119457   2.035   2.313   7.264  0.0545  0.4916 -0.0106
 2666SOL    HW219458   1.894   2.327   7.303  0.6332 -0.1492 -0.5859
 2667SOL     OW19459   2.214   1.565   4.018 -0.4123 -0.0726  0.4214
 2667SOL    HW119460   2.263   1.625   4.075  0.7594  0.1521 -0.8051
 2667SOL    HW219461   2.283   1.509   3.983 -2.3587 -0.3458 -2.9728
 2668SOL     OW19462   3.656   3.999   4.018 -0.2503  0.4105 -0.3914
 2668SOL    HW119463   3.646   4.003   3.923 -0.3757  2.1196 -0.3028
 2668SOL    HW219464   3.576   3.951   4.039  0.2777 -0.1197  0.4078
 2669SOL     OW19465   1.019   3.214   4.026  0.0119  0.5216 -0.4917
 2669SOL    HW119466   1.075   3.291   4.025  0.3433  0.2866 -0.1270
 2669SOL    HW219467   1.077   3.155   4.074 -0.7253  0.7295  0.6491
 2670SOL     OW19468   3.094   0.999   8.964 -0.1433  0.4801 -0.3268
 2670SOL    HW119469   3.164   0.979   9.026 -0.2490 -1.2047 -0.7520
 2670SOL    HW219470   3.069   0.913   8.929 -0.0153  1.2778 -2.3501
 2671SOL     OW19471   4.383   2.218  13.586 -0.6756  0.1476  0.2403
 2671SOL    HW119472   4.290   2.241  13.580 -0.5341  0.2659 -1.5163
 2671SOL    HW219473   4.384   2.125  13.606 -0.0373  0.3470  1.1523
 2672SOL     OW19474   1.120   4.506   2.753 -0.3239 -0.0239  0.0275
 2672SOL    HW119475   1.176   4.447   2.703 -0.9359  1.1219 -2.0398
 2672SOL    HW219476   1.044   4.451   2.773  1.2469 -2.1838 -0.0235
 2673SOL     OW19477   3.072   2.312   4.818 -0.1762  0.4835  0.0444
 2673SOL    HW119478   3.112   2.388   4.860  1.4905 -0.1177 -0.4464
 2673SOL    HW219479   3.002   2.347   4.764 -1.6268 -1.3388  0.7579
 2674SOL     OW19480   4.455   0.625   5.119 -0.6017  0.1607  0.0741
 2674SOL    HW119481   4.522   0.662   5.061 -1.3873 -0.7654 -1.4206
 2674SOL    HW219482   4.505   0.622   5.200 -0.7550 -1.9958  0.0977
 2675SOL     OW19483   0.519   2.476   7.460 -0.1452 -0.0455  0.4681
 2675SOL    HW119484   0.497   2.446   7.548 -1.2604  1.0375  0.5684
 2675SOL    HW219485   0.541   2.567   7.479  0.1591 -0.1537  0.6244
 2676SOL     OW19486   3.657   3.606   1.197  0.5488  0.0024  0.1041
 2676SOL    HW119487   3.694   3.649   1.274 -2.5193  1.0718  0.9871
 2676SOL    HW219488   3.723   3.538   1.186 -0.4985 -0.6889 -1.8438
 2677SOL     OW19489   1.098   2.657   5.966 -0.0684 -0.1436  0.1105
 2677SOL    HW119490   1.068   2.567   5.954  0.3366 -0.4858  1.6867
 2677SOL    HW219491   1.076   2.696   5.881  0.0827 -0.7242 -0.1978
 2678SOL     OW19492   1.362   0.710   2.815 -0.0572  0.1282 -0.4763
 2678SOL    HW119493   1.400   0.622   2.820  0.4234  0.3495 -0.2925
 2678SOL    HW219494   1.407   0.750   2.741  1.2215 -0.5042 -0.0351
 2679SOL     OW19495   0.631   1.753   5.202  0.1617  0.9769  0.2260
 2679SOL    HW119496   0.537   1.771   5.204 -0.2134 -1.2558  2.0511
 2679SOL    HW219497   0.665   1.842   5.191  1.4344  0.2496 -1.7270
 2680SOL     OW19498   1.003   3.408   8.224 -0.2012  0.1052 -0.4626
 2680SOL    HW119499   1.005   3.330   8.169 -0.5368 -0.2719  0.0571
 2680SOL    HW219500   1.090   3.442   8.206  0.4071 -0.8185  0.7653
 2681SOL     OW19501   2.454   1.426  17.173  0.7542  0.7155  0.4793
 2681SOL    HW119502   2.420   1.477  17.099 -1.5972 -0.4340  0.7757
 2681SOL    HW219503   2.545   1.417  17.143 -0.4331 -1.9385 -2.2979
 2682SOL     OW19504   0.396   2.274   8.361 -0.1257  0.1019 -0.6415
 2682SOL    HW119505   0.472   2.248   8.310 -0.1842 -0.9433 -0.1850
 2682SOL    HW219506   0.345   2.317   8.292  1.6791  0.9942 -1.4309
 2683SOL     OW19507   0.991   1.591   0.951 -0.2138 -0.2248 -0.1000
 2683SOL    HW119508   0.959   1.505   0.923  0.3416  0.0635 -1.6081
 2683SOL    HW219509   0.925   1.600   1.019 -1.2573 -0.8382 -1.0202
 2684SOL     OW19510   1.945   0.500   8.658 -0.1860 -0.2275  0.2252
 2684SOL    HW119511   1.906   0.585   8.640  1.3179  0.4044  0.0136
 2684SOL    HW219512   2.039   0.516   8.653 -0.2392 -0.3276 -1.0882
 2685SOL     OW19513   1.831   3.698   2.166  0.0531  0.7463  0.0938
 2685SOL    HW119514   1.848   3.788   2.193  2.1929 -0.0485  1.4001
 2685SOL    HW219515   1.822   3.711   2.072  0.7167  0.6867  0.0191
 2686SOL     OW19516   0.028   2.859   7.177 -0.0336 -0.2949  0.8653
 2686SOL    HW119517   0.029   2.768   7.206 -0.4054 -0.8331 -0.8529
 2686SOL    HW219518   0.108   2.860   7.125  0.4369 -1.2534  1.5602
 2687SOL     OW19519   2.431   0.821   0.354 -0.3139 -0.0217  0.0720
 2687SOL    HW119520   2.406   0.907   0.320 -1.7442 -0.5837 -0.2871
 2687SOL    HW219521   2.498   0.787   0.295 -0.5217 -0.3661  0.0292
 2688SOL     OW19522   1.926   2.645   1.095 -0.3279  0.1589  0.6028
 2688SOL    HW119523   1.997   2.704   1.120  0.5929  0.0197 -1.6927
 2688SOL    HW219524   1.884   2.690   1.022  0.0548 -1.0166 -0.3337
 2689SOL     OW19525   0.885   0.079   6.266 -0.0130  0.4789  0.1924
 2689SOL    HW119526   0.945   0.061   6.193 -0.3366  3.0667 -0.6998
 2689SOL    HW219527   0.856   4.716   6.286 -0.7177  0.0999 -2.4732
 2690SOL     OW19528   2.861   0.365   7.733  0.0717 -0.0362  0.0116
 2690SOL    HW119529   2.787   0.425   7.720  0.8146  1.1993  1.4717
 2690SOL    HW219530   2.926   0.395   7.670  1.6082  1.1314  2.1663
 2691SOL     OW19531   3.694   2.968  13.476 -0.6538  0.2834 -0.0874
 2691SOL    HW119532   3.761   3.034  13.458 -0.0038 -0.2148  0.5082
 2691SOL    HW219533   3.631   2.981  13.405 -1.1128 -1.0533  0.0683
 2692SOL     OW19534   1.298   0.234   3.204  0.1405 -0.1990 -0.3178
 2692SOL    HW119535   1.225   0.273   3.155  0.4461  1.2833  0.4100
 2692SOL    HW219536   1.378   0.282   3.185 -1.3646  2.0544 -1.0399
 2693SOL     OW19537   0.603   3.162  15.429 -0.3770 -0.8361  0.0594
 2693SOL    HW119538   0.684   3.112  15.433 -1.2667 -2.1189  1.9941
 2693SOL    HW219539   0.549   3.116  15.494 -0.8235 -1.1716 -0.5527
 2694SOL     OW19540   4.159   3.960   6.957 -0.4292  0.0283  0.1343
 2694SOL    HW119541   4.124   3.951   6.869 -1.3941 -0.1151  0.5362
 2694SOL    HW219542   4.103   4.025   6.998 -0.0524  0.1011  0.5408
 2695SOL     OW19543   1.735   0.075  14.143 -0.2401 -0.1145 -0.4072
 2695SOL    HW119544   1.743   0.029  14.060  1.4810 -0.3519 -0.1033
 2695SOL    HW219545   1.656   0.033  14.176  1.0432 -0.6295  2.0164
 2696SOL     OW19546   0.452   2.327   5.797  0.4158  0.0227 -0.4556
 2696SOL    HW119547   0.440   2.235   5.773 -2.7201  0.9804 -2.5151
 2696SOL    HW219548   0.457   2.376   5.715 -0.1795 -0.0660 -0.5421
 2697SOL     OW19549   4.389   0.848   8.183  0.2576  0.2612 -0.4742
 2697SOL    HW119550   4.373   0.765   8.229  0.4617 -0.5643 -1.9056
 2697SOL    HW219551   4.479   0.867   8.208  0.9045 -1.6051 -1.3326
 2698SOL     OW19552   0.463   4.451  10.897 -0.4345  0.6261  0.9713
 2698SOL    HW119553   0.389   4.478  10.951 -0.7910  0.5906  0.5019
 2698SOL    HW219554   0.443   4.493  10.813 -0.4997  0.8406  1.0948
 2699SOL     OW19555   2.138   2.825  13.869 -0.4695 -0.4783 -0.5524
 2699SOL    HW119556   2.205   2.893  13.870  0.1793 -1.1309  0.8015
 2699SOL    HW219557   2.183   2.753  13.914  1.4144  1.7622  1.1222
 2700SOL     OW19558   2.047   3.467   6.975 -0.2808  0.0312  0.0354
 2700SOL    HW119559   2.017   3.376   6.968  0.9223 -0.3284 -0.4854
 2700SOL    HW219560   2.027   3.518   6.896  0.3492  0.4361  0.1381
 2701SOL     OW19561   3.931   0.347   2.049  0.4208  0.6879  0.7370
 2701SOL    HW119562   3.972   0.307   1.972  0.3053 -0.3441  1.2204
 2701SOL    HW219563   3.841   0.370   2.025  1.1366  2.1878 -0.5156
 2702SOL     OW19564   2.116   1.672   2.647 -0.5056  0.1038  0.7344
 2702SOL    HW119565   2.208   1.679   2.674 -0.3195  0.6348 -0.0528
 2702SOL    HW219566   2.119   1.670   2.552  0.0068  1.3090  0.7303
 2703SOL     OW19567   3.197   3.211   6.298  0.1880 -0.0300  0.1484
 2703SOL    HW119568   3.133   3.211   6.226  0.2518  0.9825  0.0919
 2703SOL    HW219569   3.259   3.155   6.252  0.5966  0.2355  0.3726
 2704SOL     OW19570   1.003   2.546   7.553 -0.3438  0.4575 -0.4040
 2704SOL    HW119571   1.008   2.551   7.648  0.0585  0.7362 -0.4429
 2704SOL    HW219572   0.908   2.560   7.544 -0.0543  1.2108 -2.2950
 2705SOL     OW19573   2.121   1.896  13.211  0.3564  0.2321 -0.6776
 2705SOL    HW119574   2.054   1.875  13.276  0.5821  2.8993  0.4130
 2705SOL    HW219575   2.147   1.804  13.199 -1.3773 -0.5558  1.6187
 2706SOL     OW19576   3.531   0.591   9.136 -0.8582 -0.3844  0.0135
 2706SOL    HW119577   3.615   0.625   9.108 -0.4750 -0.4709  1.0404
 2706SOL    HW219578   3.535   0.621   9.227  0.9107  0.2731 -0.2828
 2707SOL     OW19579   1.578   0.139   5.620 -0.5395  0.2704 -0.0373
 2707SOL    HW119580   1.651   0.094   5.577 -0.7770 -0.1218 -0.0378
 2707SOL    HW219581   1.565   0.207   5.554 -1.8124  1.5331  1.5151
 2708SOL     OW19582   3.978   2.351   1.412  0.1959  0.4126  0.7792
 2708SOL    HW119583   4.017   2.273   1.450 -1.1855 -0.3833  0.5705
 2708SOL    HW219584   3.950   2.406   1.485 -1.8933  3.1755 -2.0947
 2709SOL     OW19585   3.801   0.256  14.996 -0.3191 -0.4375  0.1402
 2709SOL    HW119586   3.853   0.180  15.023 -0.2067 -0.0596  0.9983
 2709SOL    HW219587   3.798   0.233  14.903 -1.5371  0.2347  0.0202
 2710SOL     OW19588   0.926   2.881   7.462 -0.1987  0.1557  0.4843
 2710SOL    HW119589   0.932   2.973   7.437  1.4176 -0.9929 -3.3661
 2710SOL    HW219590   1.010   2.870   7.506  0.1748  1.4599  0.1021
 2711SOL     OW19591   1.457   1.484   2.267  0.0334 -0.0575 -0.3468
 2711SOL    HW119592   1.382   1.543   2.259  0.1746  0.3640  1.3652
 2711SOL    HW219593   1.435   1.415   2.205  2.6513 -1.2079 -0.0004
 2712SOL     OW19594   2.535   0.778  16.028  0.1097  0.5474 -0.4413
 2712SOL    HW119595   2.468   0.710  16.042  1.4491 -0.0617  3.0178
 2712SOL    HW219596   2.538   0.822  16.112 -0.4360 -2.6431  1.2399
 2713SOL     OW19597   0.688   2.236  11.396  0.1884  0.3321  0.2161
 2713SOL    HW119598   0.685   2.257  11.303  0.0999 -0.4813  0.0381
 2713SOL    HW219599   0.741   2.156  11.395  0.4251  0.5207 -1.4768
 2714SOL     OW19600   3.618   1.224   9.441  0.5896 -0.4992 -0.0323
 2714SOL    HW119601   3.552   1.194   9.503 -1.7547  2.1073 -1.2717
 2714SOL    HW219602   3.574   1.201   9.359  0.9310  1.4530 -0.7627
 2715SOL     OW19603   2.010   3.085   8.014 -0.6303 -0.2490 -0.3144
 2715SOL    HW119604   1.999   3.069   8.108 -0.4402 -0.4257 -0.3212
 2715SOL    HW219605   1.917   3.086   7.992 -0.4580  1.5901 -0.9569
 2716SOL     OW19606   1.063   0.788   4.193  0.2756 -0.4083  0.2630
 2716SOL    HW119607   1.128   0.826   4.252 -0.7664 -1.0610  1.8333
 2716SOL    HW219608   1.105   0.812   4.111 -0.8411  1.7566  0.3124
 2717SOL     OW19609   1.328   1.726  14.602  0.2618 -0.0790 -0.2880
 2717SOL    HW119610   1.347   1.658  14.538  0.3459 -0.4046  0.0855
 2717SOL    HW219611   1.360   1.690  14.684  0.3418  0.9565  0.1366
 2718SOL     OW19612   3.755   2.139  14.551  0.2741  0.5428 -0.1727
 2718SOL    HW119613   3.692   2.182  14.493  1.6509 -1.4988 -3.1416
 2718SOL    HW219614   3.744   2.200  14.624  0.3249  1.0992 -0.6292
 2719SOL     OW19615   2.975   3.240   8.489  0.2363  0.1654  0.0169
 2719SOL    HW119616   3.008   3.182   8.421  3.9901  0.1221  1.8308
 2719SOL    HW219617   2.883   3.216   8.487  0.3625 -0.1377 -1.6636
 2720SOL     OW19618   0.749   1.330  16.224 -0.2513  0.0957 -0.0413
 2720SOL    HW119619   0.658   1.322  16.196 -0.9610  1.1056  1.9774
 2720SOL    HW219620   0.790   1.387  16.158 -1.3401  1.8428  0.7795
 2721SOL     OW19621   3.022   0.615  12.006  0.2503 -0.1575  0.2140
 2721SOL    HW119622   3.027   0.628  11.911 -0.9435 -0.2841  0.1381
 2721SOL    HW219623   3.047   0.524  12.020  2.7594  0.8748  2.3800
 2722SOL     OW19624   0.954   3.683   4.633  0.3709 -0.0915 -0.7940
 2722SOL    HW119625   1.027   3.745   4.642 -0.1819  0.5335 -0.6016
 2722SOL    HW219626   0.935   3.676   4.726 -0.1682  2.7189 -0.6890
 2723SOL     OW19627   0.112   1.558   0.538 -0.1005 -0.3416 -0.1434
 2723SOL    HW119628   0.129   1.476   0.492  0.6018 -1.2902  1.8058
 2723SOL    HW219629   0.113   1.527   0.628  2.7063 -0.7974 -0.3526
 2724SOL     OW19630   0.362   4.409   0.174  0.1921 -0.2930  0.4304
 2724SOL    HW119631   0.377   4.502   0.159 -2.4427 -0.3073 -2.2600
 2724SOL    HW219632   0.269   4.414   0.194  0.3013 -0.6411  1.0428
 2725SOL     OW19633   0.299   3.775   7.909  0.3347  0.0735  0.3827
 2725SOL    HW119634   0.285   3.760   7.816 -0.6289  0.8976  0.3963
 2725SOL    HW219635   0.251   3.707   7.956 -0.6318  0.1097 -0.5504
 2726SOL     OW19636   0.306   1.717   6.932  0.3542  0.3865  0.3366
 2726SOL    HW119637   0.212   1.720   6.919  0.1131 -0.5340  1.8705
 2726SOL    HW219638   0.306   1.772   7.010 -0.8409  1.4067 -0.3900
 2727SOL     OW19639   4.448   2.553   5.747 -0.2598 -0.2428 -0.1995
 2727SOL    HW119640   4.388   2.511   5.685 -0.1385 -1.5541  0.5645
 2727SOL    HW219641   4.401   2.532   5.828 -2.3631 -0.4954 -1.4721
 2728SOL     OW19642   3.339   3.044  14.052 -0.1853  0.2291 -0.2474
 2728SOL    HW119643   3.367   3.131  14.081  1.0897 -0.6122  1.0119
 2728SOL    HW219644   3.418   3.030  14.000 -0.6996 -1.8913 -0.4314
 2729SOL     OW19645   0.925   1.839   7.158  0.1019  0.1934 -0.5492
 2729SOL    HW119646   0.959   1.826   7.246 -0.0961  2.7795 -0.1005
 2729SOL    HW219647   1.004   1.850   7.104  0.7748  2.0661  0.8345
 2730SOL     OW19648   0.593   4.158  14.097  0.5039 -0.2483 -0.5430
 2730SOL    HW119649   0.622   4.123  14.012 -1.1530  0.6018 -1.4411
 2730SOL    HW219650   0.529   4.089  14.116 -0.9286  1.6243  1.3799
 2731SOL     OW19651   0.150   2.343  15.494 -0.2042  0.0882 -0.5650
 2731SOL    HW119652   0.086   2.397  15.541  0.4489  0.1780  0.2380
 2731SOL    HW219653   0.108   2.278  15.438 -1.2948 -0.2921  0.6839
 2732SOL     OW19654   0.691   0.365   1.078  0.3251 -0.5189 -0.3376
 2732SOL    HW119655   0.674   0.401   0.991 -0.0427 -1.4058 -0.6276
 2732SOL    HW219656   0.787   0.367   1.073  0.0248  2.0621 -5.6096
 2733SOL     OW19657   4.477   4.034   9.898  0.4274  0.1971  0.2921
 2733SOL    HW119658   4.508   3.971   9.964  1.5675  0.9536  0.4809
 2733SOL    HW219659   4.551   4.094   9.901  0.8209 -0.2212 -1.0908
 2734SOL     OW19660   4.285   4.495   5.946  0.5711 -0.2377 -0.1205
 2734SOL    HW119661   4.269   4.586   5.970  2.1106  0.2836 -1.0576
 2734SOL    HW219662   4.199   4.471   5.910  0.3731  2.0816 -1.2226
 2735SOL     OW19663   0.179   0.623   3.079 -0.8561  0.4723 -0.0827
 2735SOL    HW119664   0.193   0.529   3.095 -0.6628  0.6010  0.4978
 2735SOL    HW219665   0.259   0.648   3.033 -0.6146 -0.7965 -0.3611
 2736SOL     OW19666   2.366   1.745  14.616  0.1314 -0.4105 -0.0341
 2736SOL    HW119667   2.350   1.803  14.541 -0.5509 -1.7878 -0.9555
 2736SOL    HW219668   2.366   1.660  14.572  1.0548  0.8503 -2.5033
 2737SOL     OW19669   1.754   1.472   7.125 -0.4337  0.3919 -0.0869
 2737SOL    HW119670   1.830   1.451   7.178  1.1509  1.0598 -2.1040
 2737SOL    HW219671   1.702   1.534   7.177 -0.5359  1.8872 -1.9709
 2738SOL     OW19672   2.882   0.488  13.521  0.6302 -0.2937  0.1194
 2738SOL    HW119673   2.867   0.504  13.614  1.7441  0.1660  0.2183
 2738SOL    HW219674   2.952   0.545  13.492  1.2052 -1.3335 -0.5577
 2739SOL     OW19675   1.839   4.365   3.249  0.5993 -0.0322 -0.1009
 2739SOL    HW119676   1.796   4.409   3.176 -1.0066  0.5577  1.1962
 2739SOL    HW219677   1.883   4.302   3.193 -0.6060 -1.1736  0.2383
 2740SOL     OW19678   0.565   1.113   3.767 -0.1219 -0.2542  0.5250
 2740SOL    HW119679   0.554   1.167   3.845  1.5122 -0.9014  1.1779
 2740SOL    HW219680   0.525   1.161   3.694 -0.5087 -1.4034 -0.0206
 2741SOL     OW19681   0.781   2.122   3.049 -0.8227 -0.1468 -0.6701
 2741SOL    HW119682   0.835   2.201   3.044  0.3069 -0.9247 -0.7272
 2741SOL    HW219683   0.791   2.079   2.964  2.1837  1.1195 -0.9470
 2742SOL     OW19684   2.408   1.123   7.991 -1.0330  0.7873 -0.2196
 2742SOL    HW119685   2.314   1.139   7.988 -1.2633 -0.2893  1.4162
 2742SOL    HW219686   2.402   1.053   8.055  0.1480 -0.1848 -1.1704
 2743SOL     OW19687   2.763   0.708   3.922  0.8324 -0.4911 -0.2535
 2743SOL    HW119688   2.795   0.773   3.985  0.3662  0.9784 -1.5419
 2743SOL    HW219689   2.681   0.748   3.893  0.8741 -0.4128 -0.2619
 2744SOL     OW19690   2.761   1.434   4.948 -0.2297 -0.0099 -0.1732
 2744SOL    HW119691   2.680   1.459   4.992  0.1109  3.1279 -1.3383
 2744SOL    HW219692   2.744   1.341   4.932 -0.3483 -0.3448  1.8792
 2745SOL     OW19693   1.077   4.387  11.411 -0.3247 -0.0188 -0.1256
 2745SOL    HW119694   1.118   4.436  11.483 -2.3820 -2.2987  2.6207
 2745SOL    HW219695   1.139   4.315  11.421  1.5575  1.6445  0.1883
 2746SOL     OW19696   0.178   0.408   8.183  0.3784  0.0861  0.3900
 2746SOL    HW119697   0.263   0.432   8.145  0.7694 -1.3843  0.3519
 2746SOL    HW219698   0.119   0.434   8.112  2.7425  3.2005 -0.4275
 2747SOL     OW19699   1.990   4.237   8.623  0.0260  0.5065 -0.3798
 2747SOL    HW119700   1.989   4.173   8.695 -0.5276 -0.2565 -1.0703
 2747SOL    HW219701   1.943   4.314   8.654  0.4556  0.8388 -0.5481
 2748SOL     OW19702   0.924   2.355   3.065  0.3491 -0.2045  0.2161
 2748SOL    HW119703   0.938   2.319   3.152  1.4808  1.4029  0.7202
 2748SOL    HW219704   0.903   2.446   3.086  2.4581  0.1666  0.7500
 2749SOL     OW19705   4.280   1.086   8.351  0.2806  0.7464 -0.7596
 2749SOL    HW119706   4.279   1.011   8.411  0.9445  0.6371 -0.8885
 2749SOL    HW219707   4.290   1.158   8.414 -0.5592 -0.6563  1.0044
 2750SOL     OW19708   1.419   0.840   3.047 -0.1057 -0.7939  0.5386
 2750SOL    HW119709   1.361   0.777   3.089 -2.0765 -0.8045 -2.2094
 2750SOL    HW219710   1.409   0.815   2.956 -0.1413 -2.6780  1.0602
 2751SOL     OW19711   1.632   0.072   3.236  1.3679  0.5326 -0.5011
 2751SOL    HW119712   1.582   0.070   3.318 -1.2140  2.0547 -2.0519
 2751SOL    HW219713   1.706   0.016   3.261 -2.0589 -3.3677  0.9479
 2752SOL     OW19714   2.555   3.397  10.903 -0.1306  0.0267  0.0958
 2752SOL    HW119715   2.535   3.388  10.997 -0.1970 -0.2269  0.0578
 2752SOL    HW219716   2.636   3.346  10.903  0.5823  1.1501  0.1824
 2753SOL     OW19717   0.915   1.022   3.312  0.3439 -0.0907  0.2315
 2753SOL    HW119718   0.965   0.973   3.247  0.5569 -0.2349  0.5016
 2753SOL    HW219719   0.849   1.060   3.254  1.3282  0.7575 -0.3447
 2754SOL     OW19720   2.183   3.952   6.406  0.4620  0.3637  0.6890
 2754SOL    HW119721   2.257   3.951   6.467 -0.1062 -0.5756  1.3750
 2754SOL    HW219722   2.153   3.862   6.422 -3.2353  1.1562 -1.8375
 2755SOL     OW19723   4.360   2.247   2.212  0.4811 -0.5855  0.1654
 2755SOL    HW119724   4.369   2.269   2.119 -0.5434  0.8592  0.4120
 2755SOL    HW219725   4.311   2.322   2.246  0.1257 -0.0063 -1.6096
 2756SOL     OW19726   2.420   0.845   4.945 -0.0805 -0.4128 -0.3165
 2756SOL    HW119727   2.496   0.816   4.895  0.0712 -1.5431  0.5606
 2756SOL    HW219728   2.400   0.774   5.006  0.1360 -0.7072 -0.5905
 2757SOL     OW19729   3.066   0.595   0.210  0.3026  0.0138 -0.2509
 2757SOL    HW119730   3.007   0.650   0.159 -1.0385 -1.3380 -0.1405
 2757SOL    HW219731   3.092   0.656   0.279  0.3740  0.0451 -0.3055
 2758SOL     OW19732   4.045   2.299   0.777 -0.2191 -0.5263  0.0157
 2758SOL    HW119733   4.055   2.387   0.743 -1.9362 -1.4390 -2.8717
 2758SOL    HW219734   3.955   2.297   0.810  0.4941 -0.5350  1.9609
 2759SOL     OW19735   4.028   2.005  15.214 -0.3145 -0.1849  0.4566
 2759SOL    HW119736   4.116   1.975  15.234  0.6013  2.4695  0.4507
 2759SOL    HW219737   4.009   1.939  15.148  0.4757  0.8234 -0.7893
 2760SOL     OW19738   3.286   1.403  11.712  0.4295  0.1399 -0.3116
 2760SOL    HW119739   3.304   1.401  11.806 -1.1541 -1.0154 -0.0428
 2760SOL    HW219740   3.196   1.373  11.720  1.1671 -2.5648 -1.9028
 2761SOL     OW19741   2.606   1.718   0.049  0.2976 -0.6593  0.1745
 2761SOL    HW119742   2.654   1.793   0.084 -0.3681 -0.6583  1.0739
 2761SOL    HW219743   2.603   1.654   0.120 -0.4791 -0.2335  0.5235
 2762SOL     OW19744   0.806   1.013   9.570 -0.3647 -0.4303  0.4651
 2762SOL    HW119745   0.714   1.032   9.591 -1.2870 -3.3260 -0.8370
 2762SOL    HW219746   0.832   1.096   9.529 -0.1359 -1.2717 -1.1233
 2763SOL     OW19747   1.284   2.565   3.852  0.0126  0.2383 -0.2631
 2763SOL    HW119748   1.338   2.634   3.814 -1.3922  1.2557 -0.4031
 2763SOL    HW219749   1.202   2.604   3.822 -1.3087 -2.6393 -0.4503
 2764SOL     OW19750   3.337   1.777   6.738 -0.7157 -0.0739 -0.1345
 2764SOL    HW119751   3.409   1.832   6.769 -0.5152 -0.6386  0.3759
 2764SOL    HW219752   3.268   1.838   6.711  0.6138  1.6577  0.3772
 2765SOL     OW19753   3.168   4.110   9.489  0.7716 -0.0653 -0.6266
 2765SOL    HW119754   3.075   4.089   9.495  0.6053  0.0317 -2.6435
 2765SOL    HW219755   3.157   4.187   9.434 -1.6252  1.5531  2.1459
 2766SOL     OW19756   4.423   3.386   6.157  0.3583 -0.2049  0.2574
 2766SOL    HW119757   4.392   3.336   6.081  1.3714  2.4954 -1.9023
 2766SOL    HW219758   4.395   3.475   6.136  1.0179  0.2983  1.5046
 2767SOL     OW19759   3.014   0.264  10.764  0.2755 -0.0706  0.1199
 2767SOL    HW119760   2.996   0.181  10.809 -0.8111  0.4706  0.6689
 2767SOL    HW219761   2.952   0.319  10.810 -1.4888 -1.0246 -1.1185
 2768SOL     OW19762   0.625   1.088  16.010 -0.0256  0.2316 -0.2428
 2768SOL    HW119763   0.707   1.112  15.966  1.0081 -0.1081  1.5011
 2768SOL    HW219764   0.644   1.105  16.102  1.1835 -0.4975 -0.3484
 2769SOL     OW19765   3.504   2.432   6.749  0.1613 -0.0686 -0.5604
 2769SOL    HW119766   3.496   2.497   6.820  1.1879  1.6981 -2.0858
 2769SOL    HW219767   3.579   2.384   6.784  0.3340 -0.7652 -1.9194
 2770SOL     OW19768   4.097   2.699   7.476  1.1223 -0.1879  0.3973
 2770SOL    HW119769   4.070   2.669   7.389 -0.9209  2.5226  0.0999
 2770SOL    HW219770   4.182   2.656   7.476  1.5198  0.6052 -0.4810
 2771SOL     OW19771   3.305   2.474  12.898  0.0323  0.2494 -0.5918
 2771SOL    HW119772   3.304   2.379  12.885  0.0124  0.0491  0.9010
 2771SOL    HW219773   3.223   2.500  12.857  1.0300  0.8863 -2.2022
 2772SOL     OW19774   4.235   0.448   4.419 -0.1148  0.1447  0.5338
 2772SOL    HW119775   4.154   0.493   4.392  0.1725 -0.3831 -1.2049
 2772SOL    HW219776   4.258   0.413   4.333 -1.5498  1.8354 -0.5333
 2773SOL     OW19777   1.182   3.934   3.418  0.2950 -0.1429 -0.6973
 2773SOL    HW119778   1.225   3.853   3.443 -2.4379 -0.6729  2.3493
 2773SOL    HW219779   1.238   4.006   3.449 -0.6830 -0.1211  1.0353
 2774SOL     OW19780   3.619   1.288   7.268  0.5850 -0.6561  0.5465
 2774SOL    HW119781   3.620   1.221   7.199  0.0220  2.2804 -2.2718
 2774SOL    HW219782   3.610   1.223   7.337 -0.4906 -0.2409  0.7930
 2775SOL     OW19783   4.046   2.066   6.246 -0.7924 -0.6135  0.1721
 2775SOL    HW119784   4.119   2.049   6.187 -0.5623 -0.9508  0.5566
 2775SOL    HW219785   4.012   1.980   6.269 -0.8021 -0.8306 -0.6860
 2776SOL     OW19786   2.323   0.067   9.230 -0.3980  0.3657  0.4028
 2776SOL    HW119787   2.378   0.062   9.152 -1.8293 -1.5620 -0.4686
 2776SOL    HW219788   2.384   0.105   9.294  3.1989 -4.7845  0.0857
 2777SOL     OW19789   3.840   1.472   2.772 -0.4136  0.2562 -0.5791
 2777SOL    HW119790   3.874   1.558   2.798  0.1161  0.5380 -2.1884
 2777SOL    HW219791   3.836   1.471   2.676  1.6246  1.0412 -0.6816
 2778SOL     OW19792   1.311   0.978  11.003 -0.3648  0.4121 -0.3744
 2778SOL    HW119793   1.301   0.941  10.915 -1.3819  1.7891 -0.8343
 2778SOL    HW219794   1.390   0.936  11.037 -1.3084 -1.0027  0.0599
 2779SOL     OW19795   0.375   0.474   7.754 -0.1821  0.0115  0.1548
 2779SOL    HW119796   0.466   0.452   7.734  0.5280  0.5244  2.8451
 2779SOL    HW219797   0.347   0.491   7.664 -0.1320  3.0087  0.6976
 2780SOL     OW19798   0.493   0.186   5.298  0.5002  0.9942 -0.0758
 2780SOL    HW119799   0.546   0.229   5.365  0.4320  0.9931 -0.0217
 2780SOL    HW219800   0.452   0.257   5.249 -0.1136  0.7813  0.1321
 2781SOL     OW19801   3.310   0.827  15.482 -0.2835 -0.0269  0.2582
 2781SOL    HW119802   3.364   0.903  15.505  1.6309 -0.4769 -2.7708
 2781SOL    HW219803   3.373   0.769  15.439 -0.1684  0.0502  0.3198
 2782SOL     OW19804   0.565   0.935  12.650  1.4353  0.6234  0.4198
 2782SOL    HW119805   0.543   1.021  12.686  1.6733  0.7376  0.2889
 2782SOL    HW219806   0.555   0.893  12.736 -0.6909  4.3117  1.9824
 2783SOL     OW19807   1.202   4.441   7.391 -0.0829  0.1798  0.2497
 2783SOL    HW119808   1.181   4.497   7.465 -0.4124 -2.6811  2.2993
 2783SOL    HW219809   1.217   4.360   7.440 -2.5670  0.1618  0.9621
 2784SOL     OW19810   3.735   3.501   9.210  0.4798 -0.3311 -0.1882
 2784SOL    HW119811   3.709   3.524   9.121 -1.4551 -2.0790 -0.0626
 2784SOL    HW219812   3.719   3.408   9.224 -0.3150 -0.2820 -0.8087
 2785SOL     OW19813   3.057   2.725   6.838 -0.8842 -1.0705  0.3293
 2785SOL    HW119814   3.113   2.692   6.768  1.3720  0.2685  1.5096
 2785SOL    HW219815   3.090   2.814   6.849 -1.5716 -1.0892  2.7328
 2786SOL     OW19816   4.348   0.874  12.051  0.2640  0.0871 -0.0103
 2786SOL    HW119817   4.295   0.908  11.978  0.0285 -0.0983  0.0755
 2786SOL    HW219818   4.421   0.834  12.005  0.8622  2.7676 -1.3906
 2787SOL     OW19819   3.837   0.391   4.194  0.1181  0.1568  0.2319
 2787SOL    HW119820   3.909   0.448   4.166  0.6986  0.0111  1.4233
 2787SOL    HW219821   3.774   0.405   4.124  1.2874  0.5095 -0.7523
 2788SOL     OW19822   1.654   0.095   4.568  0.0159  0.1520 -0.0962
 2788SOL    HW119823   1.589   0.041   4.614 -0.0329  0.5956  0.3627
 2788SOL    HW219824   1.659   0.049   4.485 -1.4157  1.6748 -1.0315
 2789SOL     OW19825   1.605   0.889  11.109 -0.1182  0.1889 -0.1384
 2789SOL    HW119826   1.618   0.911  11.017  0.5390  0.1083 -0.0652
 2789SOL    HW219827   1.688   0.844  11.124 -0.6495 -0.5065  0.7185
 2790SOL     OW19828   4.028   2.911  15.290  0.1872 -0.3581  0.0328
 2790SOL    HW119829   4.062   2.979  15.348 -1.2870  2.2741 -2.1667
 2790SOL    HW219830   4.064   2.961  15.217 -0.4362 -0.0922 -0.1020
 2791SOL     OW19831   0.367   3.929   8.786 -0.0556  0.1823 -0.1662
 2791SOL    HW119832   0.451   3.904   8.825 -0.1261  2.9280  1.7899
 2791SOL    HW219833   0.370   4.022   8.808 -2.8181  0.6600 -1.7758
 2792SOL     OW19834   3.203   0.370   6.176 -0.1608 -0.0888  0.1441
 2792SOL    HW119835   3.182   0.454   6.218  2.4236  0.1953  0.8696
 2792SOL    HW219836   3.276   0.342   6.231  0.0000 -2.1554 -1.1232
 2793SOL     OW19837   3.288   4.017   0.466  0.4922  0.8699 -0.1092
 2793SOL    HW119838   3.383   4.012   0.462  0.6100  1.2247  2.2425
 2793SOL    HW219839   3.266   4.097   0.418 -0.5681  0.3607 -0.4857
 2794SOL     OW19840   4.410   1.682  12.381 -0.3800  0.0903  0.1220
 2794SOL    HW119841   4.344   1.616  12.405 -1.6715  1.2742 -0.1548
 2794SOL    HW219842   4.478   1.626  12.344 -0.3709 -0.0182  0.3020
 2795SOL     OW19843   0.925   3.641   0.775 -0.0622  0.1953  0.0561
 2795SOL    HW119844   0.901   3.680   0.859 -0.5774  0.8168 -0.3806
 2795SOL    HW219845   0.923   3.719   0.719  0.8214 -0.8072 -1.3810
 2796SOL     OW19846   1.836   3.228  12.982  0.1283 -0.4072  0.2398
 2796SOL    HW119847   1.879   3.222  13.068 -0.9013 -1.3133  0.7030
 2796SOL    HW219848   1.816   3.139  12.953 -1.9266  0.1158  0.0659
 2797SOL     OW19849   2.203   4.305  16.150 -0.0655 -0.4031 -0.1501
 2797SOL    HW119850   2.171   4.252  16.077 -0.6499  2.1601 -1.7621
 2797SOL    HW219851   2.167   4.262  16.228  0.0098  1.4376  0.9039
 2798SOL     OW19852   1.820   2.412   7.854 -0.0387 -0.5244  0.3751
 2798SOL    HW119853   1.767   2.404   7.775  0.8566  0.9950 -0.3808
 2798SOL    HW219854   1.903   2.445   7.821 -0.0033  0.9614  1.9387
 2799SOL     OW19855   4.312   1.406   3.744  0.2822 -0.6645 -0.6435
 2799SOL    HW119856   4.349   1.426   3.659  1.1085 -1.4212 -0.4634
 2799SOL    HW219857   4.317   1.311   3.753 -0.8066 -0.6720  0.0094
 2800SOL     OW19858   3.741   4.694  15.300  0.2863 -0.2265  0.7342
 2800SOL    HW119859   3.713   4.722  15.388  1.1201 -1.3978  1.3821
 2800SOL    HW219860   3.746   4.602  15.329  0.7429 -0.7236 -0.9542
 2801SOL     OW19861   3.889   4.589   8.641  0.1621  0.7088  0.3761
 2801SOL    HW119862   3.928   4.534   8.573 -0.4763 -0.5416  1.0066
 2801SOL    HW219863   3.829   4.644   8.590 -1.0660 -1.0852 -0.1085
 2802SOL     OW19864   1.703   4.174   8.540  0.0071  0.1458  0.0135
 2802SOL    HW119865   1.657   4.155   8.621  0.7293 -0.1790  0.3450
 2802SOL    HW219866   1.660   4.257   8.520  0.0777  0.1194 -0.2524
 2803SOL     OW19867   4.014   3.961   7.400 -0.5401  0.4336  0.0378
 2803SOL    HW119868   4.091   3.907   7.418  1.2478  2.7289 -0.7219
 2803SOL    HW219869   3.943   3.900   7.413 -2.0255  2.0336 -0.5800
 2804SOL     OW19870   2.885   0.400  15.753 -0.1814 -0.1491  0.1689
 2804SOL    HW119871   2.888   0.324  15.695 -1.0998 -0.4694  0.5340
 2804SOL    HW219872   2.816   0.370  15.812  0.3625 -0.2749  0.7351
 2805SOL     OW19873   0.192   4.402   2.566 -0.2896  0.0432  0.2420
 2805SOL    HW119874   0.122   4.393   2.501 -0.9331 -0.6443  1.0243
 2805SOL    HW219875   0.259   4.345   2.528  0.6353  1.3978 -0.1243
 2806SOL     OW19876   2.983   0.137   1.727  0.4018 -0.2702 -0.4438
 2806SOL    HW119877   2.931   0.206   1.685 -3.4296 -1.9944  1.5661
 2806SOL    HW219878   2.996   0.091   1.644  0.1099 -0.2936 -0.4752
 2807SOL     OW19879   0.552   1.928  11.282  0.4439  0.1497  0.4213
 2807SOL    HW119880   0.565   1.842  11.242  0.5763 -0.0474  0.8911
 2807SOL    HW219881   0.643   1.954  11.280  0.7012 -0.8541 -1.1734
 2808SOL     OW19882   3.695   1.018   9.201  0.5402 -0.7930  0.0360
 2808SOL    HW119883   3.753   0.999   9.128 -0.1610 -0.3361 -0.6321
 2808SOL    HW219884   3.753   1.028   9.277 -1.3171 -1.0293  1.5094
 2809SOL     OW19885   4.105   4.563   3.453  0.3891 -0.0161 -0.1502
 2809SOL    HW119886   4.094   4.657   3.468  2.1704  0.2779 -0.6741
 2809SOL    HW219887   4.026   4.550   3.400 -0.7410  0.5100  1.4165
 2810SOL     OW19888   4.147   3.150  14.746 -0.7321  0.2473 -0.0916
 2810SOL    HW119889   4.161   3.228  14.692 -0.7352 -0.4306 -1.0582
 2810SOL    HW219890   4.111   3.086  14.686 -2.8758 -0.7550  2.2593
 2811SOL     OW19891   0.003   2.699  14.237 -0.2139  0.4288  0.0356
 2811SOL    HW119892   0.063   2.737  14.172 -0.0762 -1.8714 -1.1963
 2811SOL    HW219893   4.722   2.614  14.195  0.9054  0.4383 -0.1689
 2812SOL     OW19894   0.591   1.547   7.086 -0.4815  0.0190  0.2825
 2812SOL    HW119895   0.582   1.564   7.179  1.0979 -1.2748  0.6814
 2812SOL    HW219896   0.509   1.577   7.047 -0.3772 -0.7639 -0.5601
 2813SOL     OW19897   3.237   2.546   0.109  0.4266 -0.6313 -0.4216
 2813SOL    HW119898   3.216   2.582   0.023  2.9524 -0.3488 -0.9091
 2813SOL    HW219899   3.248   2.454   0.087  1.4813 -0.7742  0.7019
 2814SOL     OW19900   2.749   1.149  16.454  0.0400 -0.5466  0.5086
 2814SOL    HW119901   2.751   1.225  16.395  0.4992 -1.9610 -1.2858
 2814SOL    HW219902   2.801   1.086  16.404  0.1709  0.0436 -0.1023
 2815SOL     OW19903   4.131   2.036   0.811 -0.1797  0.0953  0.0799
 2815SOL    HW119904   4.191   2.037   0.886  1.3958  4.7026 -1.2641
 2815SOL    HW219905   4.103   2.127   0.805 -1.9589 -0.4722 -0.4434
 2816SOL     OW19906   2.053   2.962   3.635  0.2024 -0.4983 -0.6971
 2816SOL    HW119907   1.992   2.932   3.702 -0.8726 -0.7247 -1.7731
 2816SOL    HW219908   2.069   2.879   3.591 -1.2984 -1.8554  1.3796
 2817SOL     OW19909   0.787   2.362   7.679 -0.2442  0.5376  0.8106
 2817SOL    HW119910   0.826   2.309   7.609 -1.6480 -1.4087  1.5235
 2817SOL    HW219911   0.794   2.304   7.754 -3.1371  0.8794  1.3185
 2818SOL     OW19912   4.685   3.852   7.243  0.2335  0.1873 -0.6137
 2818SOL    HW119913   4.665   3.855   7.336 -0.0731 -0.7238 -0.6463
 2818SOL    HW219914   0.051   3.877   7.240  0.1320  0.9220  2.8724
 2819SOL     OW19915   0.130   2.667   3.266  0.0034  0.4777  0.5110
 2819SOL    HW119916   0.140   2.750   3.220  0.7855  0.1731  0.1276
 2819SOL    HW219917   0.221   2.639   3.265  0.5745  2.3583  0.1121
 2820SOL     OW19918   3.517   0.905  10.847  0.6047 -0.0685 -0.5902
 2820SOL    HW119919   3.582   0.916  10.916  1.7740  0.0092 -1.7130
 2820SOL    HW219920   3.569   0.906  10.767  0.6988 -0.0908 -0.5293
 2821SOL     OW19921   2.445   1.398   4.068  0.2671 -0.0312  0.0941
 2821SOL    HW119922   2.514   1.450   4.026  0.8029  2.0769  3.5789
 2821SOL    HW219923   2.437   1.325   4.007 -0.2107  0.2635 -0.1912
 2822SOL     OW19924   3.988   3.535   3.144 -0.3499  0.7709  0.0677
 2822SOL    HW119925   4.020   3.604   3.085  0.3312  0.5857  0.2160
 2822SOL    HW219926   3.924   3.496   3.084 -0.2952 -3.0902  2.5261
 2823SOL     OW19927   0.208   4.719   9.226  0.1273  0.1997  0.2031
 2823SOL    HW119928   0.273   4.653   9.201 -0.6283 -0.9726  1.2911
 2823SOL    HW219929   0.257   0.068   9.257  0.6800 -0.9375  2.0521
 2824SOL     OW19930   1.059   3.037   1.489 -0.0856  0.0984 -0.1669
 2824SOL    HW119931   1.085   3.017   1.400 -0.3075 -0.3105 -0.1411
 2824SOL    HW219932   0.973   2.997   1.503  0.5981 -1.0769  0.7278
 2825SOL     OW19933   3.792   2.132   9.440  0.3487 -0.2333 -0.0354
 2825SOL    HW119934   3.836   2.152   9.523  0.8414  0.0020 -0.3586
 2825SOL    HW219935   3.764   2.220   9.415  0.5601 -0.0179  0.4878
 2826SOL     OW19936   1.020   3.947   9.068 -0.6806  0.0138  0.3566
 2826SOL    HW119937   0.964   3.897   9.009  1.6745  0.6103 -2.4086
 2826SOL    HW219938   0.991   4.034   9.040  0.1850  0.7409  1.7324
 2827SOL     OW19939   2.845   3.446   4.731 -0.0692 -0.1787 -0.2637
 2827SOL    HW119940   2.791   3.481   4.801  1.4171  0.9776  0.2943
 2827SOL    HW219941   2.919   3.414   4.783 -0.1624  0.3124  0.1599
 2828SOL     OW19942   2.282   2.663   7.290 -0.2477  0.2751  0.2723
 2828SOL    HW119943   2.307   2.751   7.318  0.7787  0.0058  0.1772
 2828SOL    HW219944   2.329   2.658   7.207 -1.6645 -0.4444 -0.4946
 2829SOL     OW19945   3.430   4.452  15.285 -0.1485  0.2000  0.4490
 2829SOL    HW119946   3.460   4.519  15.223  0.5786  1.9239  2.6481
 2829SOL    HW219947   3.336   4.466  15.273 -0.0113  0.7194 -0.0217
 2830SOL     OW19948   2.285   2.989   8.828  0.6371 -0.7239 -0.0566
 2830SOL    HW119949   2.216   2.931   8.859 -1.1219  1.1328 -0.5596
 2830SOL    HW219950   2.321   2.939   8.754  0.3144 -1.0902  0.0346
 2831SOL     OW19951   1.969   0.874   5.195  0.0614  0.0776  0.4653
 2831SOL    HW119952   1.920   0.915   5.124  1.2365  0.8841  0.1223
 2831SOL    HW219953   2.043   0.932   5.214  0.4157 -0.3876  0.5371
 2832SOL     OW19954   0.475   4.035   7.832  0.1756  0.1584  0.2889
 2832SOL    HW119955   0.503   3.950   7.798 -0.0062  0.2293 -0.0362
 2832SOL    HW219956   0.402   4.061   7.776  1.3742  2.1610 -0.3312
 2833SOL     OW19957   4.281   3.127   7.218 -0.5030 -0.1230  0.2226
 2833SOL    HW119958   4.324   3.209   7.242 -1.4204  0.4450 -0.1211
 2833SOL    HW219959   4.350   3.090   7.161 -0.6859 -0.8945  0.4927
 2834SOL     OW19960   3.661   0.874   5.598 -0.3021  0.1505  0.0048
 2834SOL    HW119961   3.719   0.809   5.637  0.7642  0.9046 -0.3055
 2834SOL    HW219962   3.672   0.948   5.658 -1.9688 -1.1234  1.8683
 2835SOL     OW19963   3.939   3.883   3.027  0.4736 -0.1374  0.3121
 2835SOL    HW119964   3.984   3.914   2.948  1.4234 -1.8201  0.1889
 2835SOL    HW219965   3.860   3.837   2.996 -0.8912  2.8848 -0.6758
 2836SOL     OW19966   0.328   0.268  11.584 -0.2741  0.2083 -0.6150
 2836SOL    HW119967   0.292   0.211  11.652  0.0191 -1.3646 -1.7900
 2836SOL    HW219968   0.300   0.355  11.614  0.7704  0.0152  0.9393
 2837SOL     OW19969   4.538   2.123   2.468 -0.1002 -0.0286 -0.0113
 2837SOL    HW119970   4.506   2.133   2.378  0.4715 -1.5015 -0.3889
 2837SOL    HW219971   4.626   2.090   2.447 -1.0912 -2.7114  0.0954
 2838SOL     OW19972   1.722   3.534   8.961 -0.2182 -0.3295  0.4815
 2838SOL    HW119973   1.704   3.526   9.054 -1.3920  0.1816  0.2911
 2838SOL    HW219974   1.801   3.481   8.954 -0.0694 -0.1422  0.7330
 2839SOL     OW19975   1.438   3.258   7.987  0.5368 -0.2300  0.1418
 2839SOL    HW119976   1.456   3.321   7.917 -0.4930 -0.5353 -0.4103
 2839SOL    HW219977   1.528   3.235   8.009  0.1628 -1.5183  0.3144
 2840SOL     OW19978   4.196   0.629   3.899  0.5701  0.1824 -0.0515
 2840SOL    HW119979   4.201   0.581   3.817 -1.1361 -0.8549  0.4491
 2840SOL    HW219980   4.286   0.649   3.924  0.0491  0.2639  1.7380
 2841SOL     OW19981   4.457   0.626   3.943 -0.3786 -0.0579  0.2167
 2841SOL    HW119982   4.515   0.563   3.902 -1.0389  1.1816 -2.6458
 2841SOL    HW219983   4.520   0.675   3.995 -0.4015  1.0562 -0.8019
 2842SOL     OW19984   2.083   1.507   8.088  0.4562 -0.1361 -0.0457
 2842SOL    HW119985   2.064   1.427   8.138 -1.0390 -0.2287 -0.7564
 2842SOL    HW219986   2.045   1.566   8.153 -0.9721 -1.6604  0.5210
 2843SOL     OW19987   2.072   4.557   7.834 -0.4550 -0.4835 -0.5289
 2843SOL    HW119988   2.005   4.489   7.839  0.7597 -1.5336  1.3539
 2843SOL    HW219989   2.140   4.517   7.888  0.5368  0.3356 -1.1777
 2844SOL     OW19990   2.133   3.861   3.918 -0.1283  0.3301  0.3471
 2844SOL    HW119991   2.197   3.891   3.983  0.3347  0.7180 -0.2833
 2844SOL    HW219992   2.193   3.839   3.847  0.7943  0.7188  1.0104
 2845SOL     OW19993   1.020   3.500  10.275  0.0045 -0.1721 -0.4446
 2845SOL    HW119994   1.031   3.593  10.295 -1.3220 -0.1205  0.0380
 2845SOL    HW219995   1.067   3.477  10.355  0.4758 -2.0181 -1.2440
 2846SOL     OW19996   1.565   4.695   5.322 -0.0617  0.6210 -0.6767
 2846SOL    HW119997   1.614   0.044   5.357  1.3872 -0.4916 -0.2997
 2846SOL    HW219998   1.622   4.689   5.246  1.1011  0.4432  0.2065
 2847SOL     OW19999   4.677   4.350   8.937  0.3328 -0.1197  0.0457
 2847SOL    HW120000   4.705   4.276   8.882  1.5062 -0.1927  0.7239
 2847SOL    HW220001   0.033   4.360   8.986  1.7178 -3.9968 -1.4288
 2848SOL     OW20002   2.513   2.276   3.367 -0.3243 -0.0761 -0.3609
 2848SOL    HW120003   2.525   2.359   3.323 -1.6995 -0.4097 -1.3875
 2848SOL    HW220004   2.435   2.240   3.324  0.4173 -1.6216 -0.4048
 2849SOL     OW20005   3.292   2.325  13.201  0.2005  0.2395  0.0319
 2849SOL    HW120006   3.338   2.408  13.188 -0.0438  0.2845 -0.5732
 2849SOL    HW220007   3.204   2.360  13.192 -0.1201 -0.3550  0.8203
 2850SOL     OW20008   2.062   1.898   5.386 -0.2139 -0.2740  0.1365
 2850SOL    HW120009   2.037   1.989   5.373 -2.0245 -0.2231  4.0444
 2850SOL    HW220010   2.087   1.901   5.478  1.0099  1.1507 -0.2532
 2851SOL     OW20011   3.703   4.104  16.858  0.3830 -0.0911  0.3228
 2851SOL    HW120012   3.629   4.159  16.884 -0.1242 -0.3049 -0.6551
 2851SOL    HW220013   3.746   4.161  16.794 -1.3401 -0.8780 -1.5564
 2852SOL     OW20014   2.880   3.624   3.780 -0.5866 -0.9474  0.3989
 2852SOL    HW120015   2.789   3.599   3.797 -0.6867 -1.9317 -1.4824
 2852SOL    HW220016   2.923   3.609   3.864  2.6358  2.5068 -0.6485
 2853SOL     OW20017   2.132   3.358   3.021  0.2713  0.5075 -0.0185
 2853SOL    HW120018   2.171   3.398   2.943  0.7111  0.6069  0.2539
 2853SOL    HW220019   2.094   3.279   2.983 -0.1724  0.2042  1.0800
 2854SOL     OW20020   0.690   0.208   6.929  0.3417 -0.4966 -0.2438
 2854SOL    HW120021   0.726   0.234   7.014  1.7035 -0.1769 -0.9264
 2854SOL    HW220022   0.748   0.139   6.899  2.6605  1.5771 -0.4989
 2855SOL     OW20023   3.097   1.498   4.201  0.0020  0.0922 -0.7959
 2855SOL    HW120024   3.081   1.577   4.149 -0.4878 -0.1428 -1.0100
 2855SOL    HW220025   3.128   1.525   4.287  0.1689 -0.3426 -0.7213
 2856SOL     OW20026   3.214   4.414   0.703  0.4158 -0.5986  0.4581
 2856SOL    HW120027   3.303   4.423   0.670 -0.0110 -0.0992 -0.5738
 2856SOL    HW220028   3.229   4.399   0.796  1.6398 -1.6317  0.1006
 2857SOL     OW20029   1.843   4.122   7.767  0.1723 -0.0914  0.4440
 2857SOL    HW120030   1.848   4.074   7.684 -0.0928 -1.0588  0.9882
 2857SOL    HW220031   1.886   4.062   7.827 -0.8822 -0.6869  0.6002
 2858SOL     OW20032   0.850   1.271   1.684 -1.0045  0.2019  0.6820
 2858SOL    HW120033   0.806   1.201   1.731 -0.9701  0.0370  0.4710
 2858SOL    HW220034   0.785   1.275   1.613  1.7357  1.4136 -1.7629
 2859SOL     OW20035   2.684   3.957  17.171 -0.4706  0.0373  0.6195
 2859SOL    HW120036   2.616   3.892  17.154  2.0844 -1.6175 -3.3987
 2859SOL    HW220037   2.760   3.903  17.196  0.5282  0.6375 -1.1481
 2860SOL     OW20038   2.870   0.175   8.672 -0.4803 -0.2641  0.2204
 2860SOL    HW120039   2.955   0.144   8.642 -1.2432 -0.0271 -2.2458
 2860SOL    HW220040   2.897   0.206   8.758 -0.0988  1.7974 -0.6349
 2861SOL     OW20041   3.813   2.026  17.681 -0.1187 -0.5050  0.7159
 2861SOL    HW120042   3.763   1.976   0.040 -1.9844  0.1125 -0.2522
 2861SOL    HW220043   3.841   1.961  17.616 -0.9443 -0.1233 -0.0134
 2862SOL     OW20044   0.675   1.087   1.804 -0.0535  0.5783 -0.6779
 2862SOL    HW120045   0.619   1.036   1.744  1.1040  0.2397 -1.4728
 2862SOL    HW220046   0.705   1.010   1.852 -2.2892 -0.2268 -0.5725
 2863SOL     OW20047   4.443   1.528  17.649 -0.0394 -0.4275 -0.3143
 2863SOL    HW120048   4.480   1.604  17.605 -0.9659 -1.1122 -2.3190
 2863SOL    HW220049   4.478   1.448  17.609  0.1206 -0.1617 -0.6977
 2864SOL     OW20050   1.095   4.528   6.686  0.1935  0.0139  0.2049
 2864SOL    HW120051   1.063   4.617   6.674 -2.0016 -0.8989 -0.7830
 2864SOL    HW220052   1.176   4.556   6.729  0.6796  0.2856 -0.9018
 2865SOL     OW20053   2.187   0.740  15.832  0.3706  0.3215  0.3192
 2865SOL    HW120054   2.161   0.832  15.833 -0.9518 -0.0520  0.1091
 2865SOL    HW220055   2.258   0.743  15.768 -1.5310  2.6245 -1.6893
 2866SOL     OW20056   1.407   1.084   2.382 -0.1183 -0.6612  0.4382
 2866SOL    HW120057   1.486   1.041   2.350 -0.6259 -1.7103  0.5723
 2866SOL    HW220058   1.440   1.145   2.448 -0.8028  0.9011 -0.6752
 2867SOL     OW20059   0.215   1.165  13.040 -0.1850  0.1499 -0.0959
 2867SOL    HW120060   0.257   1.081  13.059 -1.1201 -0.7407 -1.9098
 2867SOL    HW220061   0.157   1.172  13.115  0.7478 -2.7041  0.9079
 2868SOL     OW20062   3.382   0.308   9.486  0.0732 -0.3131  0.0158
 2868SOL    HW120063   3.380   0.345   9.574  0.1216  0.0115 -0.1226
 2868SOL    HW220064   3.408   0.386   9.438 -1.0883  0.1393  0.1309
 2869SOL     OW20065   3.434   1.822  12.033  0.0922  0.4108  0.4605
 2869SOL    HW120066   3.497   1.893  12.046  0.0046  0.6981 -0.6261
 2869SOL    HW220067   3.450   1.811  11.939  0.1405  1.6739  0.3194
 2870SOL     OW20068   3.376   1.655   8.836 -0.2151  0.3497 -0.0912
 2870SOL    HW120069   3.403   1.645   8.744 -1.7694 -3.1942 -0.1597
 2870SOL    HW220070   3.307   1.717   8.812  1.5548  1.4440 -2.3751
 2871SOL     OW20071   0.585   3.497   5.215  0.1629 -0.1656  0.3389
 2871SOL    HW120072   0.505   3.497   5.269 -0.6830  1.5199 -0.8915
 2871SOL    HW220073   0.603   3.404   5.206  1.1335  0.3229 -2.5665
 2872SOL     OW20074   2.560   0.184   8.827 -0.5878  0.0516 -0.3532
 2872SOL    HW120075   2.562   0.267   8.780 -2.0341  0.6687  0.6919
 2872SOL    HW220076   2.610   0.205   8.906  0.6108 -0.6130 -0.9345
 2873SOL     OW20077   0.660   2.052   1.881 -0.0548  0.1953 -0.0659
 2873SOL    HW120078   0.750   2.079   1.900 -1.5318  2.7929  3.2092
 2873SOL    HW220079   0.667   2.017   1.793 -0.2144  1.0380 -0.4106
 2874SOL     OW20080   3.559   0.441   6.640  0.0357  0.6182 -0.4208
 2874SOL    HW120081   3.556   0.473   6.730 -1.9363 -1.0308  0.1003
 2874SOL    HW220082   3.544   0.348   6.656  0.2324  0.6615  0.0218
 2875SOL     OW20083   2.788   2.194  13.797  0.0421 -0.2379 -0.3995
 2875SOL    HW120084   2.880   2.205  13.774  0.0606  0.4837  0.0204
 2875SOL    HW220085   2.802   2.117  13.852 -1.1159  0.0938  0.3595
 2876SOL     OW20086   3.351   0.957   9.521  0.2324  0.8381 -0.2249
 2876SOL    HW120087   3.395   0.941   9.605 -0.7537 -2.2086 -0.2762
 2876SOL    HW220088   3.274   1.007   9.547 -1.2069 -1.1867 -0.6161
 2877SOL     OW20089   0.534   0.892  12.245 -0.0628  0.0980  0.1262
 2877SOL    HW120090   0.471   0.910  12.314 -1.0363 -2.4553 -0.1055
 2877SOL    HW220091   0.575   0.819  12.290 -1.2053 -0.3138  0.4936
 2878SOL     OW20092   0.619   2.228   5.081  0.2902 -0.6658  0.5826
 2878SOL    HW120093   0.610   2.302   5.022 -1.5935 -1.2004  0.2222
 2878SOL    HW220094   0.541   2.182   5.052  0.6414 -1.3668  0.7328
 2879SOL     OW20095   1.038   2.138  15.807  0.1263 -0.0687  0.3822
 2879SOL    HW120096   0.959   2.110  15.853 -0.8978  0.8833 -0.7569
 2879SOL    HW220097   1.107   2.076  15.831  1.7779  1.7680  0.3905
 2880SOL     OW20098   3.567   2.690  15.496  1.0825 -0.4652 -0.2421
 2880SOL    HW120099   3.649   2.736  15.476  1.9065 -2.2413 -0.8811
 2880SOL    HW220100   3.517   2.711  15.417 -1.2314  0.8027  1.5472
 2881SOL     OW20101   0.322   0.460   4.181  0.0964 -0.4962 -0.1431
 2881SOL    HW120102   0.376   0.405   4.237  1.7600 -0.8337 -2.0809
 2881SOL    HW220103   0.366   0.444   4.097 -0.1999 -1.6052 -0.0796
 2882SOL     OW20104   4.446   2.575   4.746  0.4418 -0.4832 -0.1059
 2882SOL    HW120105   4.424   2.536   4.662  0.3824  0.7370 -0.6603
 2882SOL    HW220106   4.537   2.602   4.736  0.2919 -0.9797 -2.7120
 2883SOL     OW20107   3.689   1.796   5.407  0.3628 -0.2429 -0.3091
 2883SOL    HW120108   3.680   1.705   5.379 -3.5923 -0.3792  1.3650
 2883SOL    HW220109   3.621   1.841   5.357  0.1869 -1.1015 -0.8481
 2884SOL     OW20110   2.712   2.405  13.984  0.1136  0.4481  0.0084
 2884SOL    HW120111   2.680   2.477  13.929 -1.4513  0.4899  0.9512
 2884SOL    HW220112   2.739   2.338  13.922 -0.0132  1.5818 -1.2548
 2885SOL     OW20113   0.884   4.392   7.649  0.6273 -0.4474 -0.1899
 2885SOL    HW120114   0.790   4.379   7.657  0.9413 -1.5707  1.6771
 2885SOL    HW220115   0.900   4.328   7.579  1.3086  1.2868 -1.6189
 2886SOL     OW20116   1.115   1.292   1.824 -0.8026 -0.4523  0.3932
 2886SOL    HW120117   1.039   1.265   1.771  0.4439  0.5489 -1.9087
 2886SOL    HW220118   1.106   1.218   1.884 -0.0913 -1.4798 -0.7763
 2887SOL     OW20119   2.752   3.548   5.014 -0.5268 -0.2535  0.3051
 2887SOL    HW120120   2.703   3.599   5.078 -0.9883 -1.3114  0.7836
 2887SOL    HW220121   2.814   3.619   4.995  0.3451 -1.5508 -1.6670
 2888SOL     OW20122   3.741   1.864  14.581  0.4557  0.0399  0.0713
 2888SOL    HW120123   3.732   1.959  14.577  1.7812  0.1092 -1.3192
 2888SOL    HW220124   3.704   1.823  14.502  0.0546  1.8681 -0.6918
 2889SOL     OW20125   2.538   0.795   6.855  0.0147  0.2756  0.7211
 2889SOL    HW120126   2.501   0.846   6.782  0.3392 -0.1661  0.2422
 2889SOL    HW220127   2.499   0.847   6.925 -1.1548 -1.7157  1.5482
 2890SOL     OW20128   3.069   3.178   9.367  0.5058  0.2842 -0.0965
 2890SOL    HW120129   3.124   3.169   9.446 -1.9058 -1.4526  1.3593
 2890SOL    HW220130   3.128   3.169   9.292  0.4062 -1.9012  0.0772
 2891SOL     OW20131   2.148   0.553  12.196  0.4997 -0.1241  0.2111
 2891SOL    HW120132   2.222   0.590  12.244  1.6811  0.1583 -1.8267
 2891SOL    HW220133   2.131   0.478  12.253  1.6291  0.9494  1.9620
 2892SOL     OW20134   1.902   1.854   7.506  0.1932 -0.2959  0.1829
 2892SOL    HW120135   1.930   1.920   7.569 -0.7694 -1.2453  1.6176
 2892SOL    HW220136   1.984   1.847   7.458 -1.6798 -0.3082 -3.0090
 2893SOL     OW20137   3.296   1.685   9.442  0.1562  0.0364 -0.6655
 2893SOL    HW120138   3.339   1.608   9.405  0.1008 -0.0314 -0.5908
 2893SOL    HW220139   3.224   1.695   9.379 -0.8780 -1.3013  0.2829
 2894SOL     OW20140   0.733   1.724  10.437 -0.2631  0.1898 -0.6279
 2894SOL    HW120141   0.699   1.715  10.348 -1.3365 -2.0386 -0.0091
 2894SOL    HW220142   0.786   1.645  10.433 -0.5174 -0.0204  0.1798
 2895SOL     OW20143   2.586   3.275   3.795  0.0645 -0.0833  0.1880
 2895SOL    HW120144   2.568   3.210   3.863 -0.0603 -0.3112 -0.0624
 2895SOL    HW220145   2.678   3.297   3.809  0.1442 -0.5897  0.4561
 2896SOL     OW20146   4.066   1.129   2.435  0.1236 -0.2642  0.3078
 2896SOL    HW120147   4.043   1.216   2.467 -1.2020 -0.5776  0.1972
 2896SOL    HW220148   4.104   1.158   2.351  0.4217 -0.3971  0.3966
 2897SOL     OW20149   2.282   1.181   6.576  0.1754 -0.1138  0.8673
 2897SOL    HW120150   2.346   1.244   6.542 -0.5104 -0.6736 -1.4576
 2897SOL    HW220151   2.208   1.194   6.516  0.8334 -1.3994 -0.2176
 2898SOL     OW20152   0.465   2.993  14.139 -0.2515  0.2554 -0.0466
 2898SOL    HW120153   0.516   2.918  14.110 -0.0707 -0.0737  1.1192
 2898SOL    HW220154   0.453   2.978  14.233  0.1308  0.1370 -0.0161
 2899SOL     OW20155   1.638   1.106  11.874 -0.3481 -0.1254  0.0989
 2899SOL    HW120156   1.705   1.080  11.937 -0.5862  0.4112  0.5679
 2899SOL    HW220157   1.625   1.199  11.888  0.3909  0.2628 -1.7688
 2900SOL     OW20158   3.769   3.001  13.068 -0.1076 -0.2699  0.0924
 2900SOL    HW120159   3.800   2.930  13.012 -1.7490  0.6141 -1.9374
 2900SOL    HW220160   3.819   2.990  13.149 -0.0861 -0.8471 -0.0026
 2901SOL     OW20161   1.498   4.485  17.477  0.5560 -0.1705  0.0071
 2901SOL    HW120162   1.515   4.543  17.551  1.4415 -1.9255  1.1790
 2901SOL    HW220163   1.403   4.492  17.475  0.6397  1.2537  1.1890
 2902SOL     OW20164   0.588   0.876   3.436 -0.3374 -0.1802 -0.8129
 2902SOL    HW120165   0.534   0.800   3.416 -1.5637  1.3596 -3.3824
 2902SOL    HW220166   0.667   0.823   3.447 -1.4536 -1.5882  0.2715
 2903SOL     OW20167   0.879   2.037   5.833 -0.1638 -0.0422 -0.0102
 2903SOL    HW120168   0.925   1.966   5.877  0.6826  1.6922  1.9021
 2903SOL    HW220169   0.818   2.062   5.903 -0.4040 -0.8812  0.0842
 2904SOL     OW20170   1.678   2.095  13.300  0.0138 -0.1067 -0.3853
 2904SOL    HW120171   1.726   2.015  13.320 -1.8324 -0.8323  1.1245
 2904SOL    HW220172   1.750   2.158  13.298 -0.8047  0.7886 -1.3238
 2905SOL     OW20173   2.998   0.499  14.713  0.9089 -0.3440  0.0055
 2905SOL    HW120174   2.984   0.557  14.788 -1.3025 -3.0281  1.6659
 2905SOL    HW220175   3.040   0.558  14.651  0.6519 -0.2007 -0.0347
 2906SOL     OW20176   0.796   2.985  15.438  0.1126  0.3692  0.1713
 2906SOL    HW120177   0.871   2.925  15.437 -0.6892 -0.6549  2.3815
 2906SOL    HW220178   0.734   2.935  15.490 -0.2369  1.8243  1.1589
 2907SOL     OW20179   0.694   4.323  16.669  0.2493 -0.1138  0.1974
 2907SOL    HW120180   0.755   4.314  16.596 -1.2495 -1.9952 -0.8128
 2907SOL    HW220181   0.752   4.358  16.736  1.7952  0.8781 -1.6552
 2908SOL     OW20182   1.562   0.454   5.945  0.4967  0.2095 -0.3565
 2908SOL    HW120183   1.506   0.378   5.934  0.7680  0.1907 -1.7185
 2908SOL    HW220184   1.510   0.518   5.896 -2.4424 -1.5125  0.5572
 2909SOL     OW20185   2.799   3.081   0.727 -0.2792  0.5539  0.0649
 2909SOL    HW120186   2.791   3.015   0.658  0.7437  1.0005 -0.4815
 2909SOL    HW220187   2.709   3.095   0.755 -0.5604 -2.7949  0.8485
 2910SOL     OW20188   0.930   3.793   8.861  0.1213 -0.1986  0.0562
 2910SOL    HW120189   0.958   3.703   8.879 -1.5564 -1.1112 -1.9236
 2910SOL    HW220190   0.892   3.777   8.775 -0.8818 -1.3205  0.7017
 2911SOL     OW20191   1.297   1.259   2.160 -0.6939  0.2858  0.1122
 2911SOL    HW120192   1.347   1.224   2.234 -2.1216 -0.7656  0.5874
 2911SOL    HW220193   1.242   1.183   2.140  0.3887 -0.3097 -0.5533
 2912SOL     OW20194   2.957   4.416   7.158  0.1519  0.9037  0.7426
 2912SOL    HW120195   3.021   4.478   7.192 -1.2424  1.4831  2.3088
 2912SOL    HW220196   2.992   4.337   7.198 -1.5394 -0.6325 -0.8047
 2913SOL     OW20197   1.634   2.102   8.231 -0.1954 -0.0623 -0.1121
 2913SOL    HW120198   1.599   2.191   8.227  0.7049  0.2534 -1.1228
 2913SOL    HW220199   1.597   2.081   8.317  0.6869 -0.6272  0.1338
 2914SOL     OW20200   3.967   1.590  17.521 -0.1259 -0.0597  0.0140
 2914SOL    HW120201   3.965   1.510  17.573  1.6114 -1.1699 -1.6358
 2914SOL    HW220202   3.889   1.576  17.467 -0.2485  1.2245 -0.1417
 2915SOL     OW20203   3.138   1.928  14.164  0.0511 -0.2993  0.0373
 2915SOL    HW120204   3.229   1.959  14.169 -0.2690  0.4460  1.3665
 2915SOL    HW220205   3.142   1.840  14.202 -0.5992 -0.9042 -1.3291
 2916SOL     OW20206   3.729   0.905  14.472 -0.0541 -0.4387 -0.4673
 2916SOL    HW120207   3.655   0.864  14.427  1.1238 -2.6554 -0.3352
 2916SOL    HW220208   3.806   0.868  14.431  0.3598 -2.0091  1.7574
 2917SOL     OW20209   4.645   1.958   7.939 -0.6489 -0.3684 -0.0408
 2917SOL    HW120210   4.584   2.002   7.880  1.3738  2.6014  0.1022
 2917SOL    HW220211   4.715   1.930   7.880 -1.2073 -2.0578  0.1114
 2918SOL     OW20212   4.398   3.992   9.364 -0.2448  0.1877  0.0506
 2918SOL    HW120213   4.432   3.981   9.453  0.5974  1.4492 -0.1106
 2918SOL    HW220214   4.399   3.903   9.329  0.8520 -0.5116  1.8211
 2919SOL     OW20215   1.724   1.701  13.149 -0.0286  0.2484 -0.0893
 2919SOL    HW120216   1.772   1.631  13.104 -0.9273  0.5709 -1.5525
 2919SOL    HW220217   1.787   1.746  13.206  0.7233 -0.2529 -0.5226
 2920SOL     OW20218   1.483   2.231   2.698 -0.3142 -0.2357  0.0783
 2920SOL    HW120219   1.467   2.291   2.626 -0.1632  0.3573  0.5417
 2920SOL    HW220220   1.526   2.155   2.658 -2.7045 -1.4463 -0.2094
 2921SOL     OW20221   4.336   4.339  13.903 -0.4212 -0.4418  0.8512
 2921SOL    HW120222   4.300   4.386  13.978 -0.4613 -0.0126  0.5656
 2921SOL    HW220223   4.261   4.328  13.846  0.2746 -3.8789  0.6025
 2922SOL     OW20224   1.901   2.132   5.444  0.1469 -0.3527  0.0830
 2922SOL    HW120225   1.915   2.220   5.407 -1.5732  0.4711  1.4019
 2922SOL    HW220226   1.817   2.149   5.487  0.4365  0.5955  0.2967
 2923SOL     OW20227   0.215   4.660   9.684  0.3547 -0.0483 -0.0953
 2923SOL    HW120228   0.214   0.006   9.747  1.4204  1.8419 -2.2476
 2923SOL    HW220229   0.292   4.682   9.633  1.0969 -2.0403  0.1413
 2924SOL     OW20230   0.850   0.821   8.745 -0.1199 -0.0879  0.2903
 2924SOL    HW120231   0.812   0.843   8.660 -0.0119  1.2140  0.5828
 2924SOL    HW220232   0.903   0.749   8.713 -0.0577 -0.0649  0.3413
 2925SOL     OW20233   0.163   2.368   5.531 -0.0852 -0.1829 -0.2949
 2925SOL    HW120234   0.237   2.404   5.580  0.2073  2.3040 -2.5566
 2925SOL    HW220235   0.161   2.433   5.460  2.6931  1.3818  1.0854
 2926SOL     OW20236   3.056   1.615   2.889 -0.0138  0.4139 -0.3627
 2926SOL    HW120237   3.123   1.547   2.884 -1.2470 -0.7821 -0.6567
 2926SOL    HW220238   3.079   1.675   2.818 -0.0757 -1.3818 -1.9139
 2927SOL     OW20239   2.133   0.517   6.023  0.2525 -0.1085 -0.2431
 2927SOL    HW120240   2.159   0.500   6.114  2.1328  0.0880 -0.7371
 2927SOL    HW220241   2.186   0.450   5.979 -0.8844 -0.3147 -1.2640
 2928SOL     OW20242   0.370   1.443  13.553  0.7462  0.5503 -0.3583
 2928SOL    HW120243   0.388   1.385  13.479  2.4170 -1.8038  1.8706
 2928SOL    HW220244   0.318   1.377  13.597  1.7412  0.6989  1.0458
 2929SOL     OW20245   1.033   3.618   7.234 -0.5863 -0.4234 -0.3189
 2929SOL    HW120246   0.955   3.674   7.243 -0.5600 -0.5572  0.8145
 2929SOL    HW220247   1.102   3.670   7.194 -0.4436 -0.2674  0.1218
 2930SOL     OW20248   0.939   0.553   8.994 -0.2729  0.0565 -0.2631
 2930SOL    HW120249   0.849   0.529   9.015 -0.2237  0.2060  0.1143
 2930SOL    HW220250   0.960   0.465   8.961  2.4804 -0.0040  1.5517
 2931SOL     OW20251   4.173   3.477  10.143 -0.3560 -0.3137 -0.0195
 2931SOL    HW120252   4.101   3.503  10.202 -0.7942  1.8445 -1.5100
 2931SOL    HW220253   4.130   3.459  10.060  0.8212  1.4179 -1.0089
 2932SOL     OW20254   1.656   1.740   2.547  0.3339  0.2504  0.4067
 2932SOL    HW120255   1.627   1.649   2.559 -0.6536  0.7435  1.7311
 2932SOL    HW220256   1.736   1.713   2.502 -1.0640 -0.3487 -1.7181
 2933SOL     OW20257   4.058   1.564   0.748 -0.6267  0.4657 -0.3835
 2933SOL    HW120258   3.963   1.560   0.757 -0.4816 -5.0743 -1.1789
 2933SOL    HW220259   4.053   1.647   0.700 -1.0062  0.4735 -0.3242
 2934SOL     OW20260   2.025   3.972   5.656 -0.1415  0.0807 -0.2391
 2934SOL    HW120261   2.103   4.023   5.679  1.2460 -0.5701 -3.3964
 2934SOL    HW220262   1.970   4.026   5.600  1.7516 -0.7673 -2.9517
 2935SOL     OW20263   1.411   2.735   8.704 -0.2115  0.5063  0.7259
 2935SOL    HW120264   1.437   2.738   8.612  0.8566 -3.6666  0.8806
 2935SOL    HW220265   1.327   2.689   8.710 -0.4105  0.6973 -0.8409
 2936SOL     OW20266   3.830   1.084   7.261 -0.4259  0.2410  0.0610
 2936SOL    HW120267   3.855   0.999   7.298 -1.0782  1.0705  2.4433
 2936SOL    HW220268   3.758   1.107   7.319 -1.0304 -0.6904 -0.3214
 2937SOL     OW20269   3.571   1.887   6.803  0.2840  0.3115  0.2622
 2937SOL    HW120270   3.578   1.970   6.756 -2.2684  0.0008 -0.6997
 2937SOL    HW220271   3.574   1.912   6.895  0.8720 -0.6155  0.5020
 2938SOL     OW20272   1.944   0.937   4.656 -0.4062 -0.3028 -0.2648
 2938SOL    HW120273   1.886   0.943   4.580 -1.2843 -1.2234  0.3242
 2938SOL    HW220274   1.968   1.028   4.672  0.0170 -0.4195 -0.2467
 2939SOL     OW20275   2.545   0.292   2.457 -0.2471  0.8355  0.0491
 2939SOL    HW120276   2.555   0.371   2.510  2.5451 -0.7973  1.9460
 2939SOL    HW220277   2.557   0.219   2.518 -0.5861  1.1334  0.4753
 2940SOL     OW20278   1.006   3.158  13.221 -0.3094 -0.0226 -0.1453
 2940SOL    HW120279   0.995   3.198  13.307  1.4217 -0.0589  0.0845
 2940SOL    HW220280   1.020   3.237  13.169  3.0314  0.0446  0.8817
 2941SOL     OW20281   4.356   3.698   3.106  0.4050 -0.5597  0.4431
 2941SOL    HW120282   4.377   3.635   3.037 -0.1114  0.8131 -0.9542
 2941SOL    HW220283   4.334   3.777   3.057  1.9996 -0.4550 -0.0986
 2942SOL     OW20284   2.040   0.314   0.960 -0.2029 -0.1574 -0.5529
 2942SOL    HW120285   2.133   0.326   0.944 -0.1518  0.9240  0.5015
 2942SOL    HW220286   2.002   0.288   0.877 -2.7073  0.2488  0.4662
 2943SOL     OW20287   1.413   3.272   4.952 -0.9484 -0.4371  0.0125
 2943SOL    HW120288   1.425   3.179   4.969  0.9377 -0.0371  0.8816
 2943SOL    HW220289   1.408   3.309   5.040 -4.1278  0.7086 -0.6399
 2944SOL     OW20290   1.198   4.048  16.797  0.6999  0.4558 -0.9847
 2944SOL    HW120291   1.122   4.034  16.853  1.5577  1.1025  0.3307
 2944SOL    HW220292   1.262   4.051  16.868 -0.7332 -2.4224  0.4105
 2945SOL     OW20293   4.557   0.284   8.173 -0.3741  0.1538 -0.3842
 2945SOL    HW120294   4.581   0.206   8.123  0.6925  0.1820  0.0810
 2945SOL    HW220295   4.610   0.344   8.122  0.3900  1.6267  2.1157
 2946SOL     OW20296   2.750   2.657  12.004 -0.3929 -0.0306  0.7190
 2946SOL    HW120297   2.759   2.601  12.081 -0.7589  0.5314  1.1735
 2946SOL    HW220298   2.777   2.584  11.948 -0.7684 -0.4362  1.0697
 2947SOL     OW20299   1.713   4.414   4.655  0.0819  0.8480 -0.4364
 2947SOL    HW120300   1.696   4.334   4.704 -1.2777  1.5424  0.2174
 2947SOL    HW220301   1.626   4.423   4.615  0.1355 -0.0962 -0.7735
 2948SOL     OW20302   1.247   1.982   2.169  0.4699  0.1781  0.4038
 2948SOL    HW120303   1.310   1.976   2.241 -0.5196  2.0725  1.4067
 2948SOL    HW220304   1.170   1.947   2.214  1.5909 -3.9140 -0.7965
 2949SOL     OW20305   2.162   1.182   5.734  0.2947  0.2865  0.8943
 2949SOL    HW120306   2.218   1.197   5.658 -0.5539 -0.0530  0.2107
 2949SOL    HW220307   2.167   1.087   5.731  1.0161  0.4345 -1.9278
 2950SOL     OW20308   2.631   3.176   9.235  0.1423  0.2576 -0.0052
 2950SOL    HW120309   2.698   3.108   9.246  2.7508  3.0500  1.5056
 2950SOL    HW220310   2.575   3.138   9.302  1.2334  1.3094  1.4926
 2951SOL     OW20311   0.569   3.792   8.422 -0.9016 -0.1298  0.0412
 2951SOL    HW120312   0.546   3.740   8.345 -4.2254  2.4818 -0.7113
 2951SOL    HW220313   0.589   3.714   8.473  0.8455  0.5328  0.3738
 2952SOL     OW20314   4.294   4.682   8.902  0.0183  0.3084 -0.1599
 2952SOL    HW120315   4.209   4.640   8.888 -0.2259  1.7376 -2.8887
 2952SOL    HW220316   4.308   4.655   8.993 -0.7812  0.7355  0.0964
 2953SOL     OW20317   2.878   4.526  11.196 -0.3620  0.2561  0.1883
 2953SOL    HW120318   2.862   4.618  11.217  2.2623  0.7040  0.2195
 2953SOL    HW220319   2.963   4.513  11.239 -1.3692 -1.6862  1.5931
 2954SOL     OW20320   4.703   1.103   8.768 -0.7600 -0.1475  0.0651
 2954SOL    HW120321   0.002   1.134   8.855 -0.6442  4.3142 -1.5807
 2954SOL    HW220322   4.674   1.017   8.798  0.9530 -0.3949  1.0086
 2955SOL     OW20323   2.302   3.719  14.110 -0.4315  0.6314 -0.3644
 2955SOL    HW120324   2.342   3.725  14.023 -1.6940  0.4729 -0.9664
 2955SOL    HW220325   2.369   3.664  14.150 -1.2956  0.4300  0.8109
 2956SOL     OW20326   0.375   3.440   1.870  0.1289  0.0680 -0.6414
 2956SOL    HW120327   0.369   3.438   1.775  0.2823  2.5001 -0.7054
 2956SOL    HW220328   0.340   3.352   1.884  0.5711 -0.1510 -0.9080
 2957SOL     OW20329   1.975   1.988   2.016  0.2188  0.6655  0.4027
 2957SOL    HW120330   1.966   1.995   2.111 -0.9581 -0.7653  0.3887
 2957SOL    HW220331   1.885   1.981   1.984  0.3297  1.7231 -0.1140
 2958SOL     OW20332   2.000   2.701   0.022 -0.1115 -0.2089  0.0828
 2958SOL    HW120333   2.093   2.706   0.002 -0.0345 -0.2901  0.4117
 2958SOL    HW220334   2.004   2.744   0.107  0.4355  0.2910 -0.1987
 2959SOL     OW20335   4.446   2.362   3.843 -0.3070 -0.4429 -0.3161
 2959SOL    HW120336   4.532   2.332   3.815  1.1771  2.8729  0.7163
 2959SOL    HW220337   4.455   2.457   3.844 -0.1517 -0.4843  2.1488
 2960SOL     OW20338   3.192   3.157   2.572  0.1254  0.0061 -0.2381
 2960SOL    HW120339   3.136   3.084   2.599  3.3106 -2.2068  0.4279
 2960SOL    HW220340   3.138   3.232   2.596 -0.5423 -1.0725  1.6703
 2961SOL     OW20341   1.720   4.713   4.346 -0.0670 -0.0858 -0.2217
 2961SOL    HW120342   1.748   4.659   4.273 -0.2128 -1.0402  0.4274
 2961SOL    HW220343   1.678   0.059   4.300 -1.8291  0.3145  2.0030
 2962SOL     OW20344   4.048   4.443   5.139  0.3845  0.0453  0.3305
 2962SOL    HW120345   4.062   4.350   5.159 -1.7198 -0.5679 -1.1059
 2962SOL    HW220346   4.136   4.469   5.112  0.3296 -0.7523 -0.6265
 2963SOL     OW20347   0.037   0.283   3.398 -0.2866 -0.3808  0.3787
 2963SOL    HW120348   4.713   0.250   3.473  0.7137  1.3122  1.7774
 2963SOL    HW220349   0.005   0.373   3.390 -0.6042 -0.4139  1.2509
 2964SOL     OW20350   2.721   2.675  10.058  0.2011  0.5857  0.5119
 2964SOL    HW120351   2.764   2.757  10.081  1.0053  0.3955 -0.2892
 2964SOL    HW220352   2.632   2.689  10.091  0.5263  1.9593  0.8133
 2965SOL     OW20353   2.336   1.842   1.655 -0.3243  0.0707  0.6055
 2965SOL    HW120354   2.309   1.902   1.586  0.0743 -0.3819  0.0619
 2965SOL    HW220355   2.286   1.874   1.730  1.0280  0.2459  1.4432
 2966SOL     OW20356   0.033   0.628  13.040 -0.1378  0.1306  0.2485
 2966SOL    HW120357   4.696   0.660  12.975  1.1605  1.6221 -0.2479
 2966SOL    HW220358   0.105   0.688  13.027 -0.8543  0.8744 -0.2858
 2967SOL     OW20359   3.224   3.342  17.194 -0.0762  0.3369  0.5162
 2967SOL    HW120360   3.274   3.404  17.141  1.6751 -1.3802  0.1607
 2967SOL    HW220361   3.139   3.333  17.151 -0.3047  2.5209  0.4951
 2968SOL     OW20362   1.659   3.122   2.087  0.4813 -0.0609  0.3259
 2968SOL    HW120363   1.615   3.187   2.033 -2.3275 -2.4169 -0.2573
 2968SOL    HW220364   1.694   3.069   2.015  2.2527 -1.1844  2.0243
 2969SOL     OW20365   3.130   4.215   7.218 -0.0871 -0.4059  0.1484
 2969SOL    HW120366   3.152   4.206   7.310 -1.5987  3.1466  0.8753
 2969SOL    HW220367   3.210   4.206   7.166 -0.9549  1.5759 -1.5404
 2970SOL     OW20368   3.872   4.619   2.917 -0.0458 -0.5252  0.1522
 2970SOL    HW120369   3.806   4.647   2.853 -1.2470 -1.3824  1.0195
 2970SOL    HW220370   3.857   4.525   2.920  0.5994 -0.6570 -0.7142
 2971SOL     OW20371   4.634   0.806  12.608  0.0584  0.5580 -0.0446
 2971SOL    HW120372   4.635   0.803  12.704 -1.2629 -1.7253 -0.0922
 2971SOL    HW220373   4.546   0.820  12.575 -0.1808  2.9366  1.5892
 2972SOL     OW20374   3.763   3.052  15.983  0.4418  0.3580 -0.2178
 2972SOL    HW120375   3.855   3.075  15.972  0.6658 -0.6411 -0.4396
 2972SOL    HW220376   3.724   3.132  16.017  2.5448  0.7484  1.3063
 2973SOL     OW20377   1.732   0.931  10.339 -0.0494 -0.4405 -0.1900
 2973SOL    HW120378   1.641   0.963  10.335  0.5174  1.1217 -0.4725
 2973SOL    HW220379   1.761   0.937  10.248 -2.6839 -0.8989 -1.0807
 2974SOL     OW20380   1.943   4.501   2.815  0.1853 -0.5824  0.6830
 2974SOL    HW120381   1.867   4.444   2.802 -0.3358 -0.4806  3.2720
 2974SOL    HW220382   1.901   4.564   2.873 -0.3227 -0.6372  0.3735
 2975SOL     OW20383   3.669   2.349   0.625  0.1792  0.2850  0.5658
 2975SOL    HW120384   3.722   2.407   0.570 -1.6270  1.8572  0.4843
 2975SOL    HW220385   3.578   2.363   0.598  0.7200 -1.3322 -2.1536
 2976SOL     OW20386   3.454   3.070   1.721 -0.2902 -0.2255 -0.0872
 2976SOL    HW120387   3.428   3.070   1.629  1.3404  0.4860 -0.5484
 2976SOL    HW220388   3.397   3.138   1.755  1.3297  0.5475  1.1060
 2977SOL     OW20389   2.242   2.480   6.595  0.2236 -0.4949  0.1668
 2977SOL    HW120390   2.176   2.540   6.630  1.6250  1.2804 -0.2156
 2977SOL    HW220391   2.223   2.397   6.638 -2.1876  0.3345  0.7081
 2978SOL     OW20392   1.981   3.145   2.273  0.2610  0.0202 -0.3539
 2978SOL    HW120393   2.012   3.184   2.191  2.4333 -1.6946 -0.3649
 2978SOL    HW220394   1.893   3.112   2.258  0.2794  0.1732 -0.8184
 2979SOL     OW20395   0.139   0.266  14.343 -0.0209 -0.4204 -0.1371
 2979SOL    HW120396   0.053   0.289  14.307  0.2209 -0.6895 -0.8950
 2979SOL    HW220397   0.178   0.228  14.264  1.4740  0.3101  0.2688
 2980SOL     OW20398   0.702   0.246   3.269  0.1715 -0.1449 -0.5562
 2980SOL    HW120399   0.672   0.328   3.307  2.8226  0.7391 -0.3572
 2980SOL    HW220400   0.674   0.265   3.179  0.4452 -2.5933 -1.1633
 2981SOL     OW20401   2.230   2.366   3.714 -0.1035 -0.1933  0.4777
 2981SOL    HW120402   2.213   2.342   3.805 -0.4264 -2.4648 -0.1778
 2981SOL    HW220403   2.156   2.332   3.663 -0.0792 -1.3657  1.2395
 2982SOL     OW20404   1.809   4.298   3.547  0.2353  0.6312  0.2040
 2982SOL    HW120405   1.825   4.325   3.457  0.3664 -0.4891 -0.1087
 2982SOL    HW220406   1.883   4.343   3.589 -1.6437  0.4382  3.7178
 2983SOL     OW20407   3.335   3.721   3.019 -0.1747  0.3056  0.7415
 2983SOL    HW120408   3.385   3.667   3.080  0.9770 -0.4336 -0.8568
 2983SOL    HW220409   3.320   3.651   2.955 -0.3682 -0.1337  1.2678
 2984SOL     OW20410   2.657   0.620  10.004  0.1991 -0.2297 -0.2184
 2984SOL    HW120411   2.613   0.536  10.020  0.9779 -0.2236  1.9263
 2984SOL    HW220412   2.748   0.595   9.986  0.5939  0.5066  0.7494
 2985SOL     OW20413   3.398   0.187   5.678 -0.4017  0.3520 -0.0799
 2985SOL    HW120414   3.464   0.203   5.745 -0.7001  0.7801  0.1145
 2985SOL    HW220415   3.392   0.091   5.674 -0.9831  0.3451  1.0524
 2986SOL     OW20416   3.878   0.732   8.382  0.3321 -0.1384 -0.3520
 2986SOL    HW120417   3.951   0.715   8.441  0.9791  3.0122 -0.2462
 2986SOL    HW220418   3.907   0.677   8.308 -1.8553 -1.6621 -0.0605
 2987SOL     OW20419   2.689   2.485  10.352 -0.5394  0.0908 -0.1745
 2987SOL    HW120420   2.724   2.567  10.316  0.1724  0.2319  0.8327
 2987SOL    HW220421   2.615   2.515  10.405 -0.6904 -0.1724 -0.2365
 2988SOL     OW20422   0.338   4.212   2.462  0.7745  0.3639  0.1532
 2988SOL    HW120423   0.278   4.177   2.395  2.9359  1.4758 -2.3878
 2988SOL    HW220424   0.413   4.153   2.452 -1.9702 -3.0134 -0.7037
 2989SOL     OW20425   0.002   1.107   5.926  0.1218 -0.1635  0.5441
 2989SOL    HW120426   4.650   1.160   5.909 -0.7160 -1.9208 -0.9695
 2989SOL    HW220427   0.063   1.168   5.884 -0.5526 -0.6686 -1.1570
 2990SOL     OW20428   0.127   1.295   5.777 -0.4302 -0.2905 -0.3694
 2990SOL    HW120429   0.084   1.361   5.722 -0.4808  0.6024  0.7426
 2990SOL    HW220430   0.194   1.340   5.828 -0.0962  0.2556 -1.2793
 2991SOL     OW20431   2.915   3.226   5.911 -0.3520  0.0264 -0.4403
 2991SOL    HW120432   2.841   3.244   5.971 -1.9406  0.0964 -2.4194
 2991SOL    HW220433   2.925   3.302   5.854  2.2795 -0.2385 -0.3025
 2992SOL     OW20434   3.837   3.096   6.814 -0.2338 -0.0605 -0.3258
 2992SOL    HW120435   3.761   3.039   6.799 -0.2643 -0.0563 -0.1836
 2992SOL    HW220436   3.797   3.162   6.870 -0.0809 -0.6753  0.5129
 2993SOL     OW20437   3.427   2.015   7.734  0.1344 -0.1651 -0.0468
 2993SOL    HW120438   3.417   1.976   7.820  1.2047  1.2473  0.7134
 2993SOL    HW220439   3.488   1.950   7.699 -0.2404 -1.1184  1.1121
 2994SOL     OW20440   4.395   3.747  16.639  0.1156 -0.6153 -0.6542
 2994SOL    HW120441   4.311   3.739  16.685  1.1799 -1.1478  1.1629
 2994SOL    HW220442   4.462   3.690  16.677  0.0420  0.1488  0.6326
 2995SOL     OW20443   1.054   1.301   8.320 -0.0804  0.2990 -0.1740
 2995SOL    HW120444   1.058   1.392   8.348 -0.3351  0.2103  0.1545
 2995SOL    HW220445   1.086   1.300   8.229 -0.4485 -0.4401 -0.2930
 2996SOL     OW20446   4.281   4.067   8.381 -0.3004 -0.0543 -0.2398
 2996SOL    HW120447   4.373   4.079   8.356  0.3721  1.9906  3.3619
 2996SOL    HW220448   4.290   3.973   8.401  0.4962 -0.4616 -2.5095
 2997SOL     OW20449   0.652   1.747  16.532  0.0740 -0.8197  0.1418
 2997SOL    HW120450   0.686   1.658  16.538  0.1102 -0.8261 -0.1283
 2997SOL    HW220451   0.678   1.773  16.443  1.7794  0.4344  1.0199
 2998SOL     OW20452   4.121   2.273   5.785  0.3100 -0.5157  0.2854
 2998SOL    HW120453   4.059   2.202   5.766 -0.1439  0.1985 -0.9092
 2998SOL    HW220454   4.064   2.349   5.794  0.8500 -0.0667 -0.1123
 2999SOL     OW20455   1.496   1.790  13.033 -0.0332 -0.2423 -0.6921
 2999SOL    HW120456   1.536   1.809  12.948 -0.5176  2.9723 -0.1794
 2999SOL    HW220457   1.573   1.765  13.083  2.0567  0.0972 -3.6967
 3000SOL     OW20458   3.784   2.272   0.848 -0.3735 -0.7994 -0.0025
 3000SOL    HW120459   3.733   2.221   0.911 -1.5777 -2.0735 -2.0052
 3000SOL    HW220460   3.711   2.289   0.789 -0.8593 -0.5880  0.6522
 3001SOL     OW20461   4.387   0.887   9.740 -0.2999 -0.0806 -0.4774
 3001SOL    HW120462   4.296   0.856   9.743 -0.6983  1.1412 -0.2525
 3001SOL    HW220463   4.401   0.917   9.829  0.3979  1.0478 -0.9654
 3002SOL     OW20464   3.865   0.231  11.218  0.1798  1.0902 -0.4597
 3002SOL    HW120465   3.831   0.164  11.277 -3.1714  3.7589  0.6294
 3002SOL    HW220466   3.920   0.180  11.159 -0.6664  0.8482 -1.0448
 3003SOL     OW20467   4.457   1.518   3.220 -0.0695  0.1158 -0.0763
 3003SOL    HW120468   4.480   1.611   3.220 -1.8122  0.5368 -0.6493
 3003SOL    HW220469   4.411   1.507   3.138 -0.3641  0.1925  0.0787
 3004SOL     OW20470   3.565   2.898  12.612 -0.8435  0.5660 -0.1882
 3004SOL    HW120471   3.632   2.948  12.565  0.4316 -1.6285 -0.7301
 3004SOL    HW220472   3.511   2.876  12.536  0.2286 -0.6097 -0.6281
 3005SOL     OW20473   3.426   2.207   5.447  0.0899  0.1112 -0.0046
 3005SOL    HW120474   3.405   2.135   5.507 -2.9418  0.2691 -0.9149
 3005SOL    HW220475   3.376   2.281   5.483 -1.8627 -0.3384 -1.8331
 3006SOL     OW20476   3.069   3.335   4.871 -0.4131 -0.0506  0.2157
 3006SOL    HW120477   3.097   3.248   4.843 -0.1674  0.0758  0.0695
 3006SOL    HW220478   3.009   3.304   4.940 -1.8911 -0.6273 -1.3200
 3007SOL     OW20479   3.972   2.091  14.124  0.2300 -0.2851 -0.2967
 3007SOL    HW120480   4.022   2.020  14.164  0.9907  1.1376  1.2639
 3007SOL    HW220481   4.034   2.164  14.131  0.9300 -0.9545  0.4071
 3008SOL     OW20482   4.665   3.871   4.907  0.0111  0.8042 -0.2579
 3008SOL    HW120483   4.608   3.827   4.844  1.2891 -2.9701  1.2177
 3008SOL    HW220484   0.014   3.849   4.852  0.0550 -0.8348  0.4681
 3009SOL     OW20485   1.063   3.626  12.417 -0.7397 -0.1832 -0.1612
 3009SOL    HW120486   0.994   3.692  12.416  0.9417  1.5571 -0.3587
 3009SOL    HW220487   1.132   3.688  12.440 -0.2375 -0.5532 -0.6814
 3010SOL     OW20488   1.929   0.073   2.142 -0.1227 -0.2140  0.1242
 3010SOL    HW120489   1.955   4.711   2.116  0.2871 -0.9425  2.9665
 3010SOL    HW220490   1.921   0.057   2.236 -1.4081  1.5475  0.3214
 3011SOL     OW20491   1.611   2.833   5.133  0.0568 -0.0451  0.5219
 3011SOL    HW120492   1.671   2.879   5.075  0.4440 -0.7625  0.3460
 3011SOL    HW220493   1.610   2.750   5.084 -0.0082  1.1427 -1.5051
 3012SOL     OW20494   2.952   0.243  12.745 -0.1538 -0.0450 -0.7949
 3012SOL    HW120495   2.975   0.187  12.671  1.1134  0.6328 -0.9260
 3012SOL    HW220496   2.897   0.310  12.704 -0.2468  0.4707  0.1845
 3013SOL     OW20497   1.033   4.483   1.670 -0.1442 -0.1748  0.3176
 3013SOL    HW120498   0.987   4.497   1.752  1.6056 -2.1218  1.6211
 3013SOL    HW220499   0.969   4.503   1.602 -0.6569 -1.4650  0.4259
 3014SOL     OW20500   1.071   2.667  15.806 -0.3979 -0.2851  0.5921
 3014SOL    HW120501   1.129   2.723  15.857 -2.3920  3.2600 -0.9766
 3014SOL    HW220502   0.984   2.708  15.813 -1.1959 -1.8795 -0.1676
 3015SOL     OW20503   3.799   0.936   4.752 -0.5607  0.0477  0.4252
 3015SOL    HW120504   3.813   1.012   4.695  0.4104 -0.2308  0.2862
 3015SOL    HW220505   3.706   0.917   4.755 -0.3346 -1.2195 -0.8911
 3016SOL     OW20506   4.010   4.122   7.156  0.5025  0.2998  0.7142
 3016SOL    HW120507   3.953   4.046   7.138  1.3132 -0.5751  1.8189
 3016SOL    HW220508   4.069   4.083   7.221  1.3238  0.3672  0.0051
 3017SOL     OW20509   1.260   2.376  10.675 -0.2601  0.0183 -0.3412
 3017SOL    HW120510   1.294   2.335  10.754  1.8721 -1.4383 -1.9851
 3017SOL    HW220511   1.179   2.326  10.665 -1.1233  1.3067  0.3254
 3018SOL     OW20512   0.975   3.380   9.725  0.3383  0.1837  0.3171
 3018SOL    HW120513   0.896   3.332   9.749  0.9957 -1.2805 -0.4752
 3018SOL    HW220514   1.021   3.326   9.661  1.1202 -0.8791  1.7750
 3019SOL     OW20515   2.674   0.904   5.399 -0.0411  0.1306  0.1500
 3019SOL    HW120516   2.676   0.923   5.493 -1.2671 -2.5021  0.6973
 3019SOL    HW220517   2.659   0.810   5.401  0.4296  0.0629  0.5816
 3020SOL     OW20518   4.664   1.278   0.463 -0.2536 -0.4888 -0.3270
 3020SOL    HW120519   0.034   1.280   0.474 -0.2558  1.1606 -0.5542
 3020SOL    HW220520   4.659   1.202   0.405  0.9601 -1.1157  0.3708
 3021SOL     OW20521   0.085   0.633  11.245  0.5782 -0.3446 -0.4037
 3021SOL    HW120522   0.145   0.565  11.215 -1.3679 -1.3801 -1.9697
 3021SOL    HW220523   0.055   0.669  11.161 -0.0820  0.5997  0.2336
 3022SOL     OW20524   3.751   2.264   3.235 -0.0557  0.5614 -0.0559
 3022SOL    HW120525   3.764   2.304   3.149  1.1023  2.2052  0.8864
 3022SOL    HW220526   3.841   2.250   3.263 -0.4967 -0.6376  0.7454
 3023SOL     OW20527   1.684   3.721   8.751  0.1205 -0.0233  0.6228
 3023SOL    HW120528   1.728   3.673   8.821 -1.0506 -1.8817  0.0821
 3023SOL    HW220529   1.688   3.811   8.784 -0.5946 -0.3144  1.5090
 3024SOL     OW20530   4.379   0.965   6.219  0.0817  0.0195 -0.2099
 3024SOL    HW120531   4.294   0.998   6.248  0.4587  0.0907  0.8343
 3024SOL    HW220532   4.352   0.874   6.230  0.3997  0.3583  3.5891
 3025SOL     OW20533   2.291   3.631   2.551  0.4554  0.3511  0.3114
 3025SOL    HW120534   2.205   3.631   2.509  0.8626  1.4180 -0.5404
 3025SOL    HW220535   2.309   3.725   2.553 -1.2586  0.6710  0.8897
 3026SOL     OW20536   2.604   2.247   6.517  0.2375 -0.5374  0.0947
 3026SOL    HW120537   2.647   2.165   6.492  0.1766 -0.6004  0.1992
 3026SOL    HW220538   2.681   2.293   6.549 -0.5886 -0.6077  2.1508
 3027SOL     OW20539   0.257   3.687   8.836 -0.1548  0.1390 -0.0050
 3027SOL    HW120540   0.313   3.765   8.836 -1.0495  0.7805 -1.4981
 3027SOL    HW220541   0.167   3.719   8.834 -0.0493  0.3553 -1.1737
 3028SOL     OW20542   0.913   0.722  13.426  0.1800 -0.6322 -0.1227
 3028SOL    HW120543   0.916   0.740  13.332 -2.1263 -0.4141 -0.1526
 3028SOL    HW220544   1.002   0.739  13.454 -0.1420 -1.1121  1.1603
 3029SOL     OW20545   2.858   1.676  10.102 -0.0158 -0.7219 -1.0594
 3029SOL    HW120546   2.886   1.608  10.163  1.8763  0.0374 -1.0902
 3029SOL    HW220547   2.802   1.620  10.049  0.8345 -2.7858  0.2293
 3030SOL     OW20548   3.951   1.782   9.241  0.3863 -0.3594 -0.2404
 3030SOL    HW120549   3.899   1.836   9.301  0.0667 -1.2132  0.2437
 3030SOL    HW220550   3.993   1.716   9.296 -1.2114 -0.3426  0.9753
 3031SOL     OW20551   4.349   1.519   0.357  0.2261  0.4137 -0.4832
 3031SOL    HW120552   4.372   1.430   0.332 -0.9283 -0.0942  0.2921
 3031SOL    HW220553   4.384   1.523   0.446 -1.0216  0.5195  0.0025
 3032SOL     OW20554   2.304   3.026   6.287 -0.0609  0.0261  0.0826
 3032SOL    HW120555   2.355   3.095   6.328 -1.2135  0.7069  0.3873
 3032SOL    HW220556   2.380   3.004   6.233  0.3302 -0.9845  1.0532
 3033SOL     OW20557   3.478   0.380   7.882  0.0377  0.1823  0.1402
 3033SOL    HW120558   3.461   0.411   7.971  1.7858 -0.8414  0.8465
 3033SOL    HW220559   3.409   0.432   7.840 -0.6092 -0.7446  0.0484
 3034SOL     OW20560   4.662   0.765   6.647  0.6953 -0.3737 -0.2306
 3034SOL    HW120561   0.023   0.750   6.609 -0.2090 -2.7925 -1.3574
 3034SOL    HW220562   4.617   0.815   6.579 -0.8275  1.1468  1.9038
 3035SOL     OW20563   2.793   2.319   8.923  0.0505 -0.4949 -0.2389
 3035SOL    HW120564   2.793   2.271   8.840  0.3158 -2.6749  1.0390
 3035SOL    HW220565   2.846   2.395   8.899 -2.3354  0.5114 -2.3110
 3036SOL     OW20566   4.687   3.167   3.143  0.4416  0.3241  0.7439
 3036SOL    HW120567   0.007   3.181   3.226 -0.2529  0.5857  1.0906
 3036SOL    HW220568   0.027   3.129   3.086 -1.2151  1.3097 -1.8581
 3037SOL     OW20569   0.035   3.701   0.445  0.5775 -0.6727  0.1616
 3037SOL    HW120570   0.013   3.779   0.497  0.9037  0.6055 -1.6201
 3037SOL    HW220571   0.123   3.681   0.477 -0.0363 -2.9054  0.4445
 3038SOL     OW20572   4.063   3.162   4.427  0.3366 -0.7232  0.2719
 3038SOL    HW120573   4.062   3.198   4.338 -2.3871  1.5503  1.1964
 3038SOL    HW220574   4.102   3.076   4.412  1.2035  0.1240 -2.2885
 3039SOL     OW20575   0.698   2.215   3.707  0.3640  0.1131 -0.2568
 3039SOL    HW120576   0.618   2.212   3.759 -0.6473  0.5273 -1.7891
 3039SOL    HW220577   0.659   2.233   3.622  1.0826  0.1985 -0.5709
 3040SOL     OW20578   1.512   2.239  11.186 -0.0506  0.1548 -0.6773
 3040SOL    HW120579   1.426   2.202  11.206  0.5806 -0.8797  0.1093
 3040SOL    HW220580   1.507   2.335  11.190  0.9248  0.1009  1.8223
 3041SOL     OW20581   3.560   3.825   4.762 -0.1464 -0.1186 -0.7290
 3041SOL    HW120582   3.641   3.843   4.809 -0.7113 -0.1164  0.2250
 3041SOL    HW220583   3.526   3.907   4.726  3.1180  1.6191  0.1533
 3042SOL     OW20584   4.033   3.207  11.175 -0.3962 -0.0059 -0.3048
 3042SOL    HW120585   3.941   3.225  11.158 -0.8443 -0.9178  1.1813
 3042SOL    HW220586   4.044   3.145  11.247  0.3231  2.6942  1.9218
 3043SOL     OW20587   0.968   4.080   4.550 -0.0985  0.3118 -0.3445
 3043SOL    HW120588   0.888   4.029   4.562  0.5492 -0.8051 -0.6899
 3043SOL    HW220589   0.936   4.165   4.519  1.4464  0.6479 -0.9948
 3044SOL     OW20590   1.047   3.570  16.884  0.2128 -0.0740  0.2174
 3044SOL    HW120591   0.979   3.508  16.910  0.6978 -1.3135 -1.4899
 3044SOL    HW220592   1.123   3.536  16.930 -0.5667 -1.1350  0.7081
 3045SOL     OW20593   3.257   3.151   6.565  0.2257  0.0101  0.2290
 3045SOL    HW120594   3.265   3.231   6.617 -2.5435 -0.9860  2.1485
 3045SOL    HW220595   3.226   3.179   6.479  0.3234 -2.2473 -0.5308
 3046SOL     OW20596   4.044   2.331   8.723  0.5222 -0.4089  0.3576
 3046SOL    HW120597   3.986   2.258   8.745 -1.8359  1.4926  0.5221
 3046SOL    HW220598   4.050   2.320   8.628 -1.2403  0.8983  0.0919
 3047SOL     OW20599   3.386   0.857   7.980  0.2279  0.1643  0.2624
 3047SOL    HW120600   3.328   0.796   8.026  0.7299 -0.5129  0.0041
 3047SOL    HW220601   3.352   0.930   8.031 -1.2306 -1.3243  1.4277
 3048SOL     OW20602   3.986   1.395   3.562  0.3050 -0.1817  0.2209
 3048SOL    HW120603   4.054   1.414   3.627  0.0645 -1.5903  0.8793
 3048SOL    HW220604   3.974   1.301   3.575  3.5715 -0.4052  1.6731
 3049SOL     OW20605   1.419   3.226   8.369 -0.2995  0.1586 -0.0730
 3049SOL    HW120606   1.427   3.271   8.453  1.4682  1.0657 -0.7153
 3049SOL    HW220607   1.420   3.138   8.408  1.5608  0.4233  0.4780
 3050SOL     OW20608   2.819   0.541   5.018  0.0447  0.2664 -0.2141
 3050SOL    HW120609   2.771   0.519   5.098  0.1691  0.8311  0.0159
 3050SOL    HW220610   2.839   0.634   5.028  0.1527  0.0453  1.6425
 3051SOL     OW20611   0.903   4.135   3.864 -0.4950  0.3760  0.2077
 3051SOL    HW120612   0.973   4.114   3.803 -1.2899 -1.6283 -0.0103
 3051SOL    HW220613   0.945   4.126   3.950  0.7877 -1.0024 -0.5642
 3052SOL     OW20614   2.683   0.299  15.926  0.2975  0.0002 -0.3296
 3052SOL    HW120615   2.674   0.219  15.978  1.1105  0.8481  1.1073
 3052SOL    HW220616   2.600   0.345  15.933 -0.9933 -2.3563  0.0475
 3053SOL     OW20617   0.345   1.588  13.123 -0.3022 -0.1666 -0.3879
 3053SOL    HW120618   0.369   1.585  13.031  3.1427  2.4114  0.4274
 3053SOL    HW220619   0.423   1.632  13.157  0.2496 -0.9428 -0.6552
 3054SOL     OW20620   1.191   0.910   5.713 -0.3213  0.2798 -0.3563
 3054SOL    HW120621   1.112   0.857   5.712  0.5296 -0.9841 -2.1813
 3054SOL    HW220622   1.169   0.975   5.645 -0.1144 -0.1259 -0.8124
 3055SOL     OW20623   1.048   3.952  16.574 -0.2999  0.1310  0.5106
 3055SOL    HW120624   1.106   3.981  16.644 -0.1130 -1.9166  1.1928
 3055SOL    HW220625   1.087   3.990  16.496  2.2290 -0.3874  1.5432
 3056SOL     OW20626   2.002   4.527  10.086  0.0413  0.2628  0.0899
 3056SOL    HW120627   2.029   4.444  10.125 -0.8954 -1.4735 -2.9276
 3056SOL    HW220628   2.020   4.582  10.162 -0.2579 -0.2367  0.5128
 3057SOL     OW20629   4.153   2.096   5.506  0.3626  0.2358 -0.1826
 3057SOL    HW120630   4.143   2.184   5.469 -1.7197 -0.2962 -0.8481
 3057SOL    HW220631   4.067   2.056   5.491  1.8075 -3.3997  1.0880
 3058SOL     OW20632   2.817   1.796   5.272  0.6594 -0.3871 -0.0606
 3058SOL    HW120633   2.899   1.813   5.224  1.7784 -1.5735  1.4118
 3058SOL    HW220634   2.763   1.769   5.198  1.0926  1.0394 -0.8983
 3059SOL     OW20635   2.217   1.309   0.204 -0.3970  0.1651  0.0982
 3059SOL    HW120636   2.291   1.349   0.251 -1.8250  2.1313  0.6497
 3059SOL    HW220637   2.149   1.366   0.238 -1.0630 -0.0178 -0.9257
 3060SOL     OW20638   2.728   0.512   0.327 -0.1665  0.3428 -0.0265
 3060SOL    HW120639   2.819   0.488   0.311 -0.2264  0.5341 -0.6743
 3060SOL    HW220640   2.706   0.564   0.249  1.2203 -0.3991 -0.9056
 3061SOL     OW20641   3.712   0.356   7.752 -0.3816  0.0335  0.4877
 3061SOL    HW120642   3.778   0.392   7.811  0.5380  0.3565 -0.7358
 3061SOL    HW220643   3.643   0.332   7.813 -2.1153 -2.3440 -2.3780
 3062SOL     OW20644   1.949   2.630   7.660 -0.1755  0.1878  0.1139
 3062SOL    HW120645   1.985   2.585   7.584 -1.8781 -0.8833 -0.0656
 3062SOL    HW220646   2.018   2.602   7.721  1.6021  0.1124 -1.9578
 3063SOL     OW20647   1.423   1.624   3.951  0.1610  0.2157 -0.8718
 3063SOL    HW120648   1.459   1.635   3.863 -0.7706 -1.4097 -1.4479
 3063SOL    HW220649   1.399   1.532   3.945 -1.2115  0.4119  1.7059
 3064SOL     OW20650   4.347   4.087  16.740 -0.5127 -0.1405 -0.1342
 3064SOL    HW120651   4.406   4.147  16.787  0.1944 -0.2107 -0.9347
 3064SOL    HW220652   4.362   4.113  16.649  1.5576  1.2021  0.5703
 3065SOL     OW20653   0.828   3.244   3.725 -0.7021 -0.2704 -0.6377
 3065SOL    HW120654   0.829   3.324   3.672  1.2244  0.4344  0.4797
 3065SOL    HW220655   0.737   3.249   3.756 -0.4164  0.8812  0.0145
 3066SOL     OW20656   0.287   1.173  13.458  0.2751  0.0709  0.0334
 3066SOL    HW120657   0.223   1.229  13.415  1.3079  0.5505 -0.8901
 3066SOL    HW220658   0.275   1.090  13.411 -1.7948  1.0061 -1.0679
 3067SOL     OW20659   1.787   1.258  11.064 -0.0566 -0.2090 -0.6078
 3067SOL    HW120660   1.880   1.279  11.070 -0.6954  2.1450  1.0639
 3067SOL    HW220661   1.795   1.185  11.002 -1.3250 -2.7089  2.1676
 3068SOL     OW20662   2.023   1.710   6.676  0.1711  0.3020  0.1578
 3068SOL    HW120663   2.009   1.628   6.629  1.5757  0.6172 -0.8015
 3068SOL    HW220664   1.942   1.758   6.658  0.0735  0.5962  1.3688
 3069SOL     OW20665   4.320   0.943   7.322  0.1569  0.0634  0.0189
 3069SOL    HW120666   4.243   0.942   7.380  1.0989 -0.8782  1.2757
 3069SOL    HW220667   4.281   0.920   7.238  0.3914 -1.1028  0.2272
 3070SOL     OW20668   2.982   1.713   4.067 -0.2785 -0.2343  0.1586
 3070SOL    HW120669   2.932   1.786   4.104 -1.2441 -1.9918  2.3160
 3070SOL    HW220670   3.040   1.761   4.008 -2.8430  1.0079 -1.3696
 3071SOL     OW20671   0.809   1.734   5.997  0.2436 -0.3942  0.1444
 3071SOL    HW120672   0.803   1.641   6.017  2.3893 -0.5015  0.2687
 3071SOL    HW220673   0.738   1.768   6.052 -2.3188 -3.1183 -1.4668
 3072SOL     OW20674   1.989   1.121   8.606 -0.0474 -0.3329 -0.0203
 3072SOL    HW120675   2.030   1.107   8.691  2.0401 -1.0802 -1.1597
 3072SOL    HW220676   1.988   1.036   8.562  0.2412  0.2881 -1.2305
 3073SOL     OW20677   1.133   3.817   2.186  0.1042 -1.0036 -0.0690
 3073SOL    HW120678   1.062   3.856   2.236 -0.8523  0.4494 -2.5339
 3073SOL    HW220679   1.184   3.896   2.173 -2.3587  0.0985 -3.1218
 3074SOL     OW20680   2.958   2.100   3.808  0.1065  0.3729 -0.3133
 3074SOL    HW120681   2.992   2.166   3.748  0.6069  0.7439  0.3812
 3074SOL    HW220682   2.911   2.143   3.879 -0.3440  0.0285 -0.3960
 3075SOL     OW20683   4.247   3.246   9.539  0.0230 -0.4717 -0.1387
 3075SOL    HW120684   4.188   3.284   9.474  1.5667  2.6835  0.3025
 3075SOL    HW220685   4.217   3.155   9.536 -1.5945  0.0725 -0.7610
 3076SOL     OW20686   4.098   1.325   7.962  0.6629  0.3762 -0.1614
 3076SOL    HW120687   4.152   1.304   7.886  0.6349  2.2219 -0.6931
 3076SOL    HW220688   4.012   1.289   7.941  1.7161 -2.3538  0.2482
 3077SOL     OW20689   2.265   1.480   3.681  0.3603 -0.2305 -0.0310
 3077SOL    HW120690   2.225   1.409   3.729 -2.9336  0.4360 -1.7579
 3077SOL    HW220691   2.211   1.484   3.601  0.5832  0.0896 -0.1680
 3078SOL     OW20692   2.972   0.042   5.687 -0.1749  0.6917  0.1645
 3078SOL    HW120693   3.044   0.040   5.624  1.1675  0.2110  1.7379
 3078SOL    HW220694   3.020   0.015   5.765  0.8864  2.0185 -0.0260
 3079SOL     OW20695   0.412   4.674   5.500 -0.0048 -0.0367  0.3949
 3079SOL    HW120696   0.408   4.595   5.446 -1.5999  0.2606  0.0791
 3079SOL    HW220697   0.449   0.009   5.435  1.1230 -1.5774 -0.4235
 3080SOL     OW20698   3.240   0.474   3.362  0.4373  0.0228 -0.0923
 3080SOL    HW120699   3.281   0.434   3.286  1.0700  2.1695 -0.8766
 3080SOL    HW220700   3.168   0.413   3.377  0.0436  0.8189  1.2692
 3081SOL     OW20701   4.495   0.202   4.843 -0.2769  0.1439  0.2284
 3081SOL    HW120702   4.424   0.231   4.900 -0.8551 -0.3269 -0.2568
 3081SOL    HW220703   4.546   0.143   4.899 -0.2995  1.6061  1.7871
 3082SOL     OW20704   0.857   1.797   3.698 -0.4327  0.5085 -0.4231
 3082SOL    HW120705   0.931   1.773   3.643  2.6872  0.6074  3.6632
 3082SOL    HW220706   0.860   1.720   3.755  1.1847  1.0242  0.1778
 3083SOL     OW20707   3.295   0.352   4.848  0.1217  0.0451 -0.0200
 3083SOL    HW120708   3.223   0.309   4.894 -1.2381  0.4280 -1.7901
 3083SOL    HW220709   3.328   0.292   4.780 -1.0431 -1.9493  1.1837
 3084SOL     OW20710   4.027   0.056   7.679  0.3110 -0.1929  0.2647
 3084SOL    HW120711   4.109   0.062   7.728  1.3594  0.6895 -1.5725
 3084SOL    HW220712   4.058   0.096   7.597 -0.2790 -1.5544 -0.6223
 3085SOL     OW20713   2.165   3.298   6.024  0.8492  0.2095 -0.3355
 3085SOL    HW120714   2.113   3.220   6.043  1.7827  0.3380  2.9190
 3085SOL    HW220715   2.122   3.356   6.088 -0.1492  0.5420 -1.3235
 3086SOL     OW20716   3.233   4.008   0.098 -0.5308  0.0136 -0.1800
 3086SOL    HW120717   3.250   4.009   0.004  2.5284  3.7365  0.4007
 3086SOL    HW220718   3.309   3.961   0.130  0.8985  1.1737 -1.8815
 3087SOL     OW20719   4.693   1.390   3.894 -0.1087  0.2455 -0.8524
 3087SOL    HW120720   4.611   1.432   3.920  1.3626  1.8787  1.1403
 3087SOL    HW220721   4.671   1.298   3.882  3.8107 -0.8183  0.1278
 3088SOL     OW20722   2.001   3.688   4.696  0.3702  0.6604 -0.1188
 3088SOL    HW120723   1.927   3.690   4.635 -0.2170  1.4606  0.6289
 3088SOL    HW220724   2.034   3.777   4.683  0.0688  1.0357  1.6918
 3089SOL     OW20725   2.192   0.309   0.505  0.0425 -0.2921  0.9780
 3089SOL    HW120726   2.223   0.398   0.487 -1.5614  0.0004 -0.4294
 3089SOL    HW220727   2.268   0.257   0.480  1.0472  1.4564  0.4182
 3090SOL     OW20728   2.001   0.670   4.967 -0.5227 -0.2019  0.2010
 3090SOL    HW120729   1.998   0.722   5.048 -0.6548 -0.1052  0.1337
 3090SOL    HW220730   2.022   0.589   5.013  0.6279  1.6480  2.9592
 3091SOL     OW20731   4.497   4.520   4.623  0.4191 -0.3609  0.5270
 3091SOL    HW120732   4.528   4.607   4.598  0.7387 -0.9524 -1.1368
 3091SOL    HW220733   4.528   4.468   4.549 -0.5285 -1.2175  0.7221
 3092SOL     OW20734   4.021   2.607   8.717 -0.3776  0.8695  0.5409
 3092SOL    HW120735   4.011   2.521   8.759  1.0421 -0.3933 -1.7020
 3092SOL    HW220736   4.086   2.647   8.774 -0.8677  0.6474  1.2499
 3093SOL     OW20737   0.931   0.361   0.202  0.0698  0.0393 -0.1290
 3093SOL    HW120738   0.854   0.396   0.246 -0.1882  0.5944 -1.0137
 3093SOL    HW220739   0.989   0.428   0.238  1.5045 -1.9196  1.2156
 3094SOL     OW20740   4.021   3.018   3.118  0.4467  0.1410 -0.3897
 3094SOL    HW120741   4.006   2.947   3.056 -0.8908  0.1635 -0.1044
 3094SOL    HW220742   4.000   3.098   3.071  1.1881  1.2416  1.1288
 3095SOL     OW20743   1.977   0.239   0.646  0.3842  0.4805  0.6163
 3095SOL    HW120744   2.067   0.268   0.632 -1.5455  4.1206 -4.3573
 3095SOL    HW220745   1.944   0.220   0.558 -0.5223  0.4304  0.9661
 3096SOL     OW20746   3.412   0.093   2.929 -0.0122 -0.1176  0.0738
 3096SOL    HW120747   3.374   0.176   2.899  0.7958  0.3395  0.3072
 3096SOL    HW220748   3.504   0.112   2.950  0.2920  0.4692 -1.7365
 3097SOL     OW20749   3.921   4.148   5.362 -0.0722  0.3745  0.3600
 3097SOL    HW120750   3.947   4.076   5.419  0.7523  0.4775  0.1163
 3097SOL    HW220751   3.896   4.210   5.430 -1.1613  1.8123 -1.3551
 3098SOL     OW20752   1.138   4.553   8.144 -0.5066 -0.2170 -0.2990
 3098SOL    HW120753   1.199   4.567   8.217 -0.8104  1.2922 -0.3198
 3098SOL    HW220754   1.122   4.639   8.106 -0.3338 -0.6103 -1.2459
 3099SOL     OW20755   3.878   3.580   6.473  0.0320  0.3993 -0.2218
 3099SOL    HW120756   3.944   3.519   6.508  1.4087  0.8843 -1.9641
 3099SOL    HW220757   3.809   3.579   6.539  1.8339  0.8552  1.6883
 3100SOL     OW20758   1.937   2.874   4.108 -0.2246 -0.1470  0.7482
 3100SOL    HW120759   1.883   2.953   4.107 -0.7606 -0.5508 -2.9483
 3100SOL    HW220760   1.906   2.822   4.182  1.2205  0.4324  1.7449
 3101SOL     OW20761   4.687   3.307   8.856 -0.2841 -0.0872 -0.4654
 3101SOL    HW120762   0.053   3.282   8.858 -0.5541 -0.9813  0.5328
 3101SOL    HW220763   4.648   3.220   8.859 -1.0225  0.2587  0.0844
 3102SOL     OW20764   4.078   1.950  16.255 -0.4678 -0.1132 -0.2825
 3102SOL    HW120765   3.989   1.914  16.249 -0.4119 -0.0114 -1.6787
 3102SOL    HW220766   4.093   1.962  16.161  1.7322  1.1709  0.2233
 3103SOL     OW20767   1.911   0.889  11.128  0.9082  0.0205  0.4283
 3103SOL    HW120768   2.001   0.909  11.155  0.7681 -0.5241  1.3121
 3103SOL    HW220769   1.877   0.976  11.104  2.8547  0.5530 -0.3364
 3104SOL     OW20770   0.454   4.533   9.495  0.0399 -0.0449  0.1377
 3104SOL    HW120771   0.483   4.500   9.580  0.3815  2.9836  1.1977
 3104SOL    HW220772   0.527   4.592   9.476 -0.9410  1.1251 -0.0234
 3105SOL     OW20773   2.147   2.112   6.428  0.0256 -0.8796  0.2469
 3105SOL    HW120774   2.216   2.116   6.494 -0.4859 -0.2281  0.7370
 3105SOL    HW220775   2.071   2.144   6.478  0.1644 -3.1423  1.8680
 3106SOL     OW20776   3.760   1.293  13.860  0.0067 -0.2264 -0.8094
 3106SOL    HW120777   3.847   1.282  13.900 -1.2320 -1.6276  1.5535
 3106SOL    HW220778   3.757   1.388  13.866  0.0487 -0.2980  0.3908
 3107SOL     OW20779   0.832   1.065   6.895  0.3361 -0.0253 -0.3162
 3107SOL    HW120780   0.796   1.150   6.922  0.7357  0.2579 -0.6727
 3107SOL    HW220781   0.902   1.054   6.959  0.3849 -2.2097 -0.7539
 3108SOL     OW20782   2.480   2.563  10.495 -0.0090  0.2283 -0.1174
 3108SOL    HW120783   2.450   2.653  10.481  1.3849  0.6028 -0.6880
 3108SOL    HW220784   2.398   2.515  10.485 -0.8115  0.9453  2.8821
 3109SOL     OW20785   3.367   2.617   8.350  0.1023  0.5272 -0.5414
 3109SOL    HW120786   3.388   2.524   8.341 -0.8385  0.3336 -0.6979
 3109SOL    HW220787   3.322   2.610   8.434  2.4196 -0.9152  0.5997
 3110SOL     OW20788   1.710   3.293  11.271  0.7967  0.1442  0.5105
 3110SOL    HW120789   1.657   3.215  11.252 -0.7465  0.6139  2.8581
 3110SOL    HW220790   1.729   3.326  11.183 -1.1236  2.5246  0.9764
 3111SOL     OW20791   3.607   4.623  10.597  0.2738  0.1796  0.0257
 3111SOL    HW120792   3.595   4.532  10.627  1.0333  0.0337 -0.1183
 3111SOL    HW220793   3.601   4.622  10.502  0.0621 -0.4376  0.0433
 3112SOL     OW20794   3.571   1.919   4.902  0.5015  0.5741 -0.0078
 3112SOL    HW120795   3.608   1.981   4.965  0.0496 -0.5550  1.3772
 3112SOL    HW220796   3.650   1.904   4.850 -0.3233  0.6583 -1.2846
 3113SOL     OW20797   1.169   4.724   3.284 -0.2608  0.4116 -0.4197
 3113SOL    HW120798   1.197   0.084   3.252  2.9418 -0.1510  0.8638
 3113SOL    HW220799   1.118   4.683   3.214 -3.1485  1.4054  1.1352
 3114SOL     OW20800   1.012   2.512   4.004 -0.0632  0.5165  0.0036
 3114SOL    HW120801   1.075   2.503   3.932  0.4460 -0.2217  0.5451
 3114SOL    HW220802   0.999   2.607   4.008 -1.6859  0.2542  0.8631
 3115SOL     OW20803   3.524   1.362   3.169  0.5610  0.2189  0.6542
 3115SOL    HW120804   3.590   1.337   3.104 -0.5868 -1.0659  0.0098
 3115SOL    HW220805   3.491   1.447   3.138  1.2853  0.4984  0.6449
 3116SOL     OW20806   2.633   3.301   5.220 -0.0759  0.2845 -0.1392
 3116SOL    HW120807   2.663   3.297   5.310 -2.4953  0.2398  0.6728
 3116SOL    HW220808   2.628   3.395   5.200 -2.7276  0.4436  1.3142
 3117SOL     OW20809   2.840   2.352   2.463  0.0159 -0.1481 -0.1732
 3117SOL    HW120810   2.903   2.360   2.534 -0.4221 -1.5068  0.3673
 3117SOL    HW220811   2.888   2.374   2.383  1.4712  1.0309  1.0203
 3118SOL     OW20812   0.468   2.241   0.272 -0.2096  0.0389 -0.3258
 3118SOL    HW120813   0.402   2.308   0.258  0.9779  1.0263 -1.1564
 3118SOL    HW220814   0.535   2.305   0.295 -0.8552  0.2907  0.8527
 3119SOL     OW20815   0.119   1.048   5.599 -0.1188 -0.3932  0.2250
 3119SOL    HW120816   0.138   1.128   5.649  1.6225  1.6820 -3.7845
 3119SOL    HW220817   0.178   0.981   5.635  0.6915  0.5205  0.6070
 3120SOL     OW20818   2.191   0.827  12.054 -0.3530  0.3165 -0.7072
 3120SOL    HW120819   2.116   0.813  11.997 -0.9515 -0.6014  0.2978
 3120SOL    HW220820   2.218   0.737  12.072  1.1429  0.5349 -1.8443
 3121SOL     OW20821   4.365   1.293   4.619 -0.6786  0.2912 -0.2957
 3121SOL    HW120822   4.435   1.331   4.566 -0.3235 -0.6446 -0.5054
 3121SOL    HW220823   4.372   1.206   4.580 -2.4616  0.2845 -0.5996
 3122SOL     OW20824   2.385   0.279   1.641  0.3978 -0.0829  0.0435
 3122SOL    HW120825   2.373   0.374   1.645  2.2126  0.0990  1.2626
 3122SOL    HW220826   2.390   0.258   1.735 -0.2930  0.8359  0.2892
 3123SOL     OW20827   2.676   4.181  16.452 -0.2664 -0.7475 -0.5869
 3123SOL    HW120828   2.583   4.166  16.472 -1.2048  3.6940 -1.4737
 3123SOL    HW220829   2.716   4.095  16.449 -2.0022 -1.5007 -2.2367
 3124SOL     OW20830   2.089   0.143   6.302 -0.1620 -0.4781  0.3008
 3124SOL    HW120831   2.100   0.177   6.213 -1.7967  1.5195  0.8422
 3124SOL    HW220832   2.002   0.177   6.323  0.1162 -0.2205  1.0238
 3125SOL     OW20833   3.095   4.270   3.829  0.2862 -0.7178  0.2342
 3125SOL    HW120834   3.051   4.238   3.907 -0.2374  2.2512  1.1501
 3125SOL    HW220835   3.185   4.277   3.860  0.0912 -0.2275  0.6798
 3126SOL     OW20836   0.357   1.556  15.949 -0.2180 -0.2398 -0.1391
 3126SOL    HW120837   0.264   1.578  15.938  0.8921  2.8978 -3.0248
 3126SOL    HW220838   0.378   1.592  16.035  0.9002 -0.0592 -0.4957
 3127SOL     OW20839   2.899   2.551   8.835 -0.3906  0.0746  0.1550
 3127SOL    HW120840   2.934   2.500   8.762  1.6101  0.4353  0.8399
 3127SOL    HW220841   2.858   2.629   8.798  0.2102 -0.1198 -0.9323
 3128SOL     OW20842   0.572   0.011   2.628  0.8143  0.1830 -0.1397
 3128SOL    HW120843   0.637   4.707   2.564  1.1798 -0.7500  0.6743
 3128SOL    HW220844   0.528   4.657   2.653  1.3054  0.3560  1.2630
 3129SOL     OW20845   1.962   4.171   8.362 -0.5267  0.4548 -0.1767
 3129SOL    HW120846   1.867   4.157   8.358 -0.8208  2.9165 -1.9981
 3129SOL    HW220847   1.979   4.194   8.454  1.5075 -0.9103 -0.2093
 3130SOL     OW20848   3.042   2.489  12.845 -0.3462  0.2326 -0.5876
 3130SOL    HW120849   3.072   2.408  12.804 -0.0313 -1.0497  2.1836
 3130SOL    HW220850   2.963   2.508  12.795 -0.6895 -1.6517 -0.7752
 3131SOL     OW20851   1.089   4.360   2.230  0.1633  0.1516 -0.2346
 3131SOL    HW120852   1.133   4.406   2.302  1.0537  0.6750 -1.1158
 3131SOL    HW220853   1.142   4.404   2.163  1.8167 -3.3796 -1.2382
 3132SOL     OW20854   1.505   0.713   0.353 -0.1453 -0.2470 -0.5904
 3132SOL    HW120855   1.546   0.682   0.434  0.1993 -0.1619 -0.7331
 3132SOL    HW220856   1.428   0.656   0.351  0.6018 -1.3815  2.3514
 3133SOL     OW20857   0.305   0.897   9.222  0.7266 -0.3748  0.7388
 3133SOL    HW120858   0.250   0.879   9.298 -1.0142 -0.8054 -0.6150
 3133SOL    HW220859   0.381   0.844   9.246 -0.8742 -1.6335  3.0270
 3134SOL     OW20860   4.567   0.746   9.590 -0.0945 -0.0101 -0.1953
 3134SOL    HW120861   4.488   0.789   9.624 -0.3141  0.3191 -1.1345
 3134SOL    HW220862   4.578   0.680   9.658 -1.0975 -1.2932 -1.2963
 3135SOL     OW20863   1.923   0.467  14.539  0.6831  0.2517 -0.2801
 3135SOL    HW120864   1.932   0.451  14.445  1.6644  1.1857 -0.3445
 3135SOL    HW220865   1.828   0.474  14.534  0.8542  0.6907 -2.9000
 3136SOL     OW20866   4.681   1.229  12.084 -0.1465 -0.3234  0.0290
 3136SOL    HW120867   4.681   1.317  12.049  1.2316  0.0220  0.8599
 3136SOL    HW220868   4.674   1.243  12.179 -0.7612 -0.6235  0.0277
 3137SOL     OW20869   2.575   3.711   6.872 -0.0846  0.1077  0.2553
 3137SOL    HW120870   2.575   3.731   6.966  1.8129  0.1748  0.2458
 3137SOL    HW220871   2.651   3.652   6.871 -1.8165 -2.1275 -2.0441
 3138SOL     OW20872   3.792   2.848  15.489 -0.0985 -0.3984 -0.4500
 3138SOL    HW120873   3.795   2.940  15.462 -0.7685 -0.3750 -0.4543
 3138SOL    HW220874   3.815   2.856  15.582 -0.3775 -2.0715 -0.2513
 3139SOL     OW20875   4.233   3.827   7.473  0.1319 -0.7158 -1.2246
 3139SOL    HW120876   4.302   3.889   7.448  0.7022 -0.5466  0.7447
 3139SOL    HW220877   4.258   3.747   7.427  0.1027 -1.6637  0.4028
 3140SOL     OW20878   2.802   4.090   6.344  0.0572  0.0638 -0.1582
 3140SOL    HW120879   2.837   4.024   6.283  2.8367  0.4264  1.0201
 3140SOL    HW220880   2.792   4.055   6.433 -0.6523  1.3484  0.2757
 3141SOL     OW20881   2.077   2.313   8.225 -0.7298 -0.1171 -0.4405
 3141SOL    HW120882   2.173   2.307   8.220 -0.5545  0.5614  1.9481
 3141SOL    HW220883   2.058   2.249   8.157 -2.4059  0.7461 -0.7875
 3142SOL     OW20884   4.381   4.005   9.037  0.3085  0.3660 -0.5766
 3142SOL    HW120885   4.336   3.940   9.091  1.2291 -0.1415 -0.4117
 3142SOL    HW220886   4.456   3.953   9.008  0.7924  0.5410  0.3469
 3143SOL     OW20887   1.878   0.560  14.112  0.0645 -0.0348 -0.3577
 3143SOL    HW120888   1.808   0.612  14.150  2.2752  0.4056  3.1630
 3143SOL    HW220889   1.851   0.475  14.147  0.6168 -0.4543 -0.9489
 3144SOL     OW20890   2.453   4.067   3.578 -0.1500 -0.8903  0.0989
 3144SOL    HW120891   2.494   4.140   3.530 -0.4454 -1.2584 -0.7163
 3144SOL    HW220892   2.535   4.022   3.596 -0.3201 -1.8118 -1.4110
 3145SOL     OW20893   3.894   0.582   9.574  0.0185  0.1451  0.8263
 3145SOL    HW120894   3.966   0.593   9.635  1.0146 -2.3254  0.1024
 3145SOL    HW220895   3.930   0.598   9.486 -1.1070 -1.0969  0.1347
 3146SOL     OW20896   3.759   4.603   2.503 -0.0853 -0.2523  0.5601
 3146SOL    HW120897   3.719   4.686   2.477 -1.4833 -1.0040  0.3162
 3146SOL    HW220898   3.697   4.569   2.567 -2.3091  1.2032 -0.8244
 3147SOL     OW20899   0.083   1.701  17.693 -0.0528  0.2765  0.3090
 3147SOL    HW120900   0.130   1.685   0.069  0.4022  1.5554  0.2975
 3147SOL    HW220901   0.118   1.788  17.676 -0.6069  0.9359  2.6262
 3148SOL     OW20902   2.088   2.774   3.079  0.1658 -0.3942 -0.4092
 3148SOL    HW120903   2.008   2.824   3.094  0.2614 -0.0502 -1.0084
 3148SOL    HW220904   2.058   2.708   3.016  1.3598 -0.4638 -0.9174
 3149SOL     OW20905   4.111   0.279   2.559 -0.3232 -0.2966 -0.2971
 3149SOL    HW120906   4.039   0.277   2.496 -0.1899 -3.0998 -0.3411
 3149SOL    HW220907   4.188   0.278   2.503  0.0350  1.5856  0.1726
 3150SOL     OW20908   1.109   0.222   1.856  0.3110 -0.3860  0.4816
 3150SOL    HW120909   1.115   0.280   1.781 -0.6802  0.9774  1.4497
 3150SOL    HW220910   1.189   0.170   1.851 -0.0795 -1.0811  1.2868
 3151SOL     OW20911   3.544   4.294   2.542 -0.3769  0.5578 -0.3681
 3151SOL    HW120912   3.551   4.225   2.607  1.1235 -0.5873 -1.7355
 3151SOL    HW220913   3.483   4.257   2.478  1.0603 -2.0462 -0.2360
 3152SOL     OW20914   3.007   3.271   0.976  0.2746 -0.5817 -0.4296
 3152SOL    HW120915   2.920   3.280   0.937  1.2255 -1.8883 -2.8436
 3152SOL    HW220916   2.991   3.234   1.063  3.3004  0.0926  0.3949
 3153SOL     OW20917   4.512   0.049   6.703  0.2802 -0.2869 -0.2155
 3153SOL    HW120918   4.529   0.132   6.658 -0.2702  0.1589  0.4051
 3153SOL    HW220919   4.524   0.074   6.794  1.5844 -0.7073 -0.2768
 3154SOL     OW20920   0.637   2.943   5.498  0.2344  0.0028  0.1642
 3154SOL    HW120921   0.621   2.923   5.590 -1.0045 -0.8774 -0.2469
 3154SOL    HW220922   0.692   3.021   5.508  0.2907  0.1687 -1.4053
 3155SOL     OW20923   4.567   4.238   7.792  0.2383 -0.2087 -0.2245
 3155SOL    HW120924   4.517   4.199   7.863  0.0901 -0.7018 -0.6050
 3155SOL    HW220925   4.653   4.258   7.830  0.8399  1.0020 -2.2037
 3156SOL     OW20926   1.864   0.255   4.451  0.5423 -0.1961  0.7502
 3156SOL    HW120927   1.829   0.165   4.450 -1.7508  0.6978 -0.8508
 3156SOL    HW220928   1.833   0.298   4.371 -0.7805  0.5840  1.6767
 3157SOL     OW20929   3.124   3.338   7.785 -0.3275 -0.2915 -0.3484
 3157SOL    HW120930   3.205   3.294   7.810  0.1065  1.2622  0.9684
 3157SOL    HW220931   3.048   3.285   7.808  1.8170 -2.9440  0.6587
 3158SOL     OW20932   1.033   1.554   8.951 -0.2224  0.2345  0.0403
 3158SOL    HW120933   1.101   1.503   8.994  1.5739  1.2301 -1.6666
 3158SOL    HW220934   0.968   1.489   8.926  0.3463 -0.7688  1.1806
 3159SOL     OW20935   3.756   0.044   5.849  0.0388  0.5674 -0.4799
 3159SOL    HW120936   3.747   0.139   5.858 -0.9414  0.4595 -0.2917
 3159SOL    HW220937   3.843   0.036   5.810  0.6106 -1.7846  1.2702
 3160SOL     OW20938   3.471   0.454  15.309  0.3295 -0.2195  0.2040
 3160SOL    HW120939   3.465   0.545  15.281  0.6326  0.1620  1.3938
 3160SOL    HW220940   3.515   0.411  15.235 -0.3497  0.4670 -0.6000
 3161SOL     OW20941   2.966   4.534   5.213  0.4644  0.5182  0.3556
 3161SOL    HW120942   2.933   4.609   5.262 -1.5449  0.7040 -1.3151
 3161SOL    HW220943   2.891   4.474   5.211  0.5932  0.3108  2.0101
 3162SOL     OW20944   1.273   1.965   3.646 -0.6007  0.0987 -0.3008
 3162SOL    HW120945   1.303   1.877   3.668 -0.5051  0.7013  2.0061
 3162SOL    HW220946   1.223   1.988   3.725  1.0207  1.3888  0.3512
 3163SOL     OW20947   1.240   2.316   5.772 -0.3831  0.0994  0.4607
 3163SOL    HW120948   1.159   2.279   5.807  0.5432 -2.9516 -0.5569
 3163SOL    HW220949   1.287   2.316   5.855 -0.1565  0.0428  0.3329
 3164SOL     OW20950   1.352   1.978  11.041  0.3988 -0.8247  0.2772
 3164SOL    HW120951   1.268   1.946  11.007  0.4447  0.3068 -0.8889
 3164SOL    HW220952   1.323   2.049  11.097 -0.8373  0.2085 -1.6560
 3165SOL     OW20953   1.168   3.681   3.783 -0.3841  0.1924  0.2469
 3165SOL    HW120954   1.246   3.639   3.819  0.0508  1.7919  1.2100
 3165SOL    HW220955   1.176   3.771   3.816 -1.2978  0.1495  0.5651
 3166SOL     OW20956   3.385   0.503  10.265 -0.1769 -0.2365 -0.0655
 3166SOL    HW120957   3.293   0.532  10.266  0.4083  1.5555  2.8703
 3166SOL    HW220958   3.371   0.419  10.308 -0.3463  0.9927  2.2893
 3167SOL     OW20959   0.875   2.487  12.561 -0.4746 -0.0503 -0.0814
 3167SOL    HW120960   0.901   2.530  12.480 -0.9450 -0.5722 -0.5114
 3167SOL    HW220961   0.922   2.407  12.537  2.6061  1.9405 -0.5639
 3168SOL     OW20962   1.136   0.757   0.149  0.2478 -0.1404  0.1795
 3168SOL    HW120963   1.101   0.766   0.238  0.9309  3.8490  0.0807
 3168SOL    HW220964   1.167   0.668   0.165  0.6621  0.1017  0.7141
 3169SOL     OW20965   2.484   3.797   7.147  0.5578 -0.0020 -0.2184
 3169SOL    HW120966   2.494   3.773   7.239  2.7279 -0.9309 -0.6886
 3169SOL    HW220967   2.390   3.809   7.133  0.1120 -0.7668  2.2087
 3170SOL     OW20968   3.549   1.353   5.570 -0.1037 -1.2926  0.7985
 3170SOL    HW120969   3.496   1.309   5.637 -2.6658  1.2039  0.3677
 3170SOL    HW220970   3.621   1.292   5.549 -0.2722 -0.8251 -1.1098
 3171SOL     OW20971   0.577   1.588   9.219  0.1729  0.5893  0.3301
 3171SOL    HW120972   0.540   1.672   9.247 -3.2365 -1.5948  2.3300
 3171SOL    HW220973   0.626   1.609   9.140 -0.8225 -0.1614 -0.4821
 3172SOL     OW20974   2.012   2.863   7.492  0.5565 -0.0211 -0.0474
 3172SOL    HW120975   1.987   2.788   7.546 -2.6937  0.3935 -0.9728
 3172SOL    HW220976   2.099   2.883   7.527  1.1488 -1.2643 -0.8037
 3173SOL     OW20977   1.687   4.314   6.335 -0.3268  0.1980  0.2963
 3173SOL    HW120978   1.759   4.306   6.272 -0.7755 -0.6890 -0.1050
 3173SOL    HW220979   1.670   4.221   6.347  1.3228 -0.4789 -2.4827
 3174SOL     OW20980   4.289   0.675  17.247 -0.1991  0.0142  0.2242
 3174SOL    HW120981   4.216   0.656  17.187  0.4485 -1.2215 -0.1767
 3174SOL    HW220982   4.329   0.588  17.250 -0.8481 -0.3050 -0.1231
 3175SOL     OW20983   0.403   1.719  13.725 -0.0261 -0.2537  0.3315
 3175SOL    HW120984   0.350   1.780  13.775  2.0185 -0.3669  2.6517
 3175SOL    HW220985   0.469   1.707  13.793  0.2839 -0.6586 -0.0359
 3176SOL     OW20986   4.140   2.554   0.649  0.3770  0.4061 -0.3327
 3176SOL    HW120987   4.211   2.509   0.602  0.6226  0.3999  0.0383
 3176SOL    HW220988   4.167   2.645   0.639 -1.2510  0.7079 -1.8516
 3177SOL     OW20989   1.734   1.554  15.663 -0.3778  0.2111  0.1957
 3177SOL    HW120990   1.657   1.508  15.632 -1.2819 -0.3007  3.1975
 3177SOL    HW220991   1.762   1.600  15.583  0.5933  0.9009  0.9202
 3178SOL     OW20992   0.746   1.338   2.789  0.0240 -0.5948 -0.1952
 3178SOL    HW120993   0.719   1.268   2.847 -1.2305 -0.6270 -0.8246
 3178SOL    HW220994   0.764   1.293   2.707  0.8897  1.1988 -1.0046
 3179SOL     OW20995   0.886   0.794   4.679 -0.3338 -0.3972  0.2607
 3179SOL    HW120996   0.822   0.747   4.627 -0.6397  0.6201 -0.2807
 3179SOL    HW220997   0.962   0.740   4.660  1.1609  2.3124 -1.4518
 3180SOL     OW20998   0.043   1.707  13.912 -0.4458 -0.0035  0.2145
 3180SOL    HW120999   0.121   1.661  13.942  0.9132  1.0568 -1.6827
 3180SOL    HW221000   4.703   1.682  13.976 -0.9439 -1.0136 -0.7026
 3181SOL     OW21001   4.618   0.531   6.780 -0.7484  0.5008  0.0519
 3181SOL    HW121002   4.648   0.613   6.741 -0.1985  1.6857  2.9818
 3181SOL    HW221003   4.524   0.551   6.784 -0.7461  0.1760  1.6372
 3182SOL     OW21004   3.922   0.709  12.328 -0.0014  0.5895 -0.8706
 3182SOL    HW121005   3.943   0.802  12.318 -1.5070  0.8752 -1.4371
 3182SOL    HW221006   3.967   0.685  12.409  1.3112  1.8976 -1.2235
 3183SOL     OW21007   3.757   1.161   4.581 -0.0505  0.0106 -0.1490
 3183SOL    HW121008   3.787   1.243   4.620 -0.0248 -0.6923  1.2986
 3183SOL    HW221009   3.662   1.166   4.569  0.0422  2.1159  0.0314
 3184SOL     OW21010   0.332   2.311  13.234  0.3227  0.2670  0.1653
 3184SOL    HW121011   0.322   2.402  13.263 -0.8204 -0.0705  0.8507
 3184SOL    HW221012   0.274   2.314  13.158 -0.7784 -0.5357  0.9594
 3185SOL     OW21013   1.197   3.640   2.704  0.0835 -0.0772 -0.3068
 3185SOL    HW121014   1.120   3.583   2.699  0.3820 -0.3860 -1.3325
 3185SOL    HW221015   1.250   3.619   2.627  1.2884  2.0100 -0.0465
 3186SOL     OW21016   2.521   2.930   5.388  0.3152 -0.5037  0.2329
 3186SOL    HW121017   2.445   2.874   5.369  0.4923 -0.4572 -0.6113
 3186SOL    HW221018   2.509   2.935   5.483 -0.3190 -1.4204  0.2056
 3187SOL     OW21019   0.462   4.555  12.838  0.1593  0.6739 -0.1341
 3187SOL    HW121020   0.399   4.621  12.809  0.9865  0.9960 -1.2081
 3187SOL    HW221021   0.542   4.589  12.799  1.8059 -1.2314  1.6230
 3188SOL     OW21022   0.541   1.623  15.752  0.2414 -0.1471  0.0335
 3188SOL    HW121023   0.515   1.715  15.753  0.2818 -0.1403  0.6394
 3188SOL    HW221024   0.472   1.589  15.808  2.4556  0.6044  3.2317
 3189SOL     OW21025   2.210   3.531   7.456  0.3663  0.3420 -0.2370
 3189SOL    HW121026   2.225   3.521   7.362 -1.9046 -1.4778 -0.4206
 3189SOL    HW221027   2.117   3.509   7.470 -0.0452  2.5181  0.5163
 3190SOL     OW21028   0.007   0.930  13.142 -0.7115  0.3486  0.3354
 3190SOL    HW121029   0.093   0.888  13.143 -0.1622  1.4871  1.6246
 3190SOL    HW221030   0.028   1.009  13.193 -0.4980  1.2929 -1.2068
 3191SOL     OW21031   4.567   4.040  15.029  0.1367 -0.5614 -0.3954
 3191SOL    HW121032   4.546   3.961  15.077  1.2915  0.1829  1.3474
 3191SOL    HW221033   4.662   4.032  15.014  0.1020 -1.2618 -0.2478
 3192SOL     OW21034   3.753   2.412   9.404  0.3201  0.2760 -0.0881
 3192SOL    HW121035   3.827   2.405   9.465  0.5289  3.5561  0.0209
 3192SOL    HW221036   3.802   2.439   9.326  2.0918 -1.0927  0.5338
 3193SOL     OW21037   2.117   2.314   4.981  0.0470  0.3242 -0.0814
 3193SOL    HW121038   2.208   2.294   5.003 -0.1631  0.1831  0.6486
 3193SOL    HW221039   2.087   2.223   4.973  0.1780  0.1868  1.0421
 3194SOL     OW21040   3.844   3.189   5.392  0.0723 -0.0634  0.7185
 3194SOL    HW121041   3.797   3.192   5.475 -0.7935  0.0307  0.2274
 3194SOL    HW221042   3.908   3.119   5.408  1.9762  1.6302  0.5294
 3195SOL     OW21043   0.471   2.958   8.532  0.2424 -0.9815  0.2214
 3195SOL    HW121044   0.421   2.905   8.471 -0.0794  0.6573 -0.9441
 3195SOL    HW221045   0.550   2.960   8.479 -0.9213 -0.3836 -1.4742
 3196SOL     OW21046   1.599   3.883   1.115  0.9484  0.1473  0.1483
 3196SOL    HW121047   1.628   3.973   1.107  0.5994  0.2670  0.2421
 3196SOL    HW221048   1.622   3.850   1.202 -1.0406 -0.3038  0.5056
 3197SOL     OW21049   1.563   2.892  10.357 -0.1425 -0.6110  0.3676
 3197SOL    HW121050   1.589   2.889  10.265 -0.8156  0.0920  0.1541
 3197SOL    HW221051   1.573   2.986  10.367  0.2234 -0.7849  1.5899
 3198SOL     OW21052   0.867   3.469   6.151 -0.1493 -0.5690 -0.5647
 3198SOL    HW121053   0.920   3.427   6.219 -1.4365  0.4933  1.0810
 3198SOL    HW221054   0.829   3.395   6.103 -2.0394  0.1976 -0.2675
 3199SOL     OW21055   1.632   1.642  17.142  0.1516 -0.0040 -0.0344
 3199SOL    HW121056   1.673   1.714  17.190 -1.1227  0.7946 -0.1237
 3199SOL    HW221057   1.705   1.592  17.107  0.2957  1.2190 -1.4537
 3200SOL     OW21058   2.865   0.049   3.302  0.0612  0.2654  0.1305
 3200SOL    HW121059   2.812   0.073   3.226  0.5868  1.1408  0.0366
 3200SOL    HW221060   2.796   0.062   3.368 -0.5139  0.1122 -0.4414
 3201SOL     OW21061   4.278   3.910   2.634  0.0207  0.3062  0.1243
 3201SOL    HW121062   4.369   3.883   2.646 -0.2865 -0.7031  0.1432
 3201SOL    HW221063   4.238   3.824   2.621 -1.3289  0.8837  0.5138
 3202SOL     OW21064   1.528   3.012  16.599  0.1170 -0.4699  0.5088
 3202SOL    HW121065   1.620   3.003  16.575 -0.3660 -1.7122 -0.8236
 3202SOL    HW221066   1.528   3.087  16.659  2.2506  0.1205 -0.2250
 3203SOL     OW21067   1.049   1.855   6.001  0.1251  0.5412  0.3008
 3203SOL    HW121068   0.976   1.794   5.990  1.0309  0.0676 -3.1924
 3203SOL    HW221069   1.059   1.843   6.095 -0.1845  1.5068  0.4645
 3204SOL     OW21070   3.248   4.629   2.227  0.1080  0.1364 -0.5016
 3204SOL    HW121071   3.245   4.626   2.131  1.1028 -0.1818 -0.5179
 3204SOL    HW221072   3.181   4.698   2.226  0.9286  0.9431  0.8592
 3205SOL     OW21073   3.107   1.900   3.889 -0.4307 -0.2608  0.0705
 3205SOL    HW121074   3.068   1.985   3.865  1.9717  0.3321 -1.6873
 3205SOL    HW221075   3.189   1.921   3.932  0.4160  0.9313 -2.1291
 3206SOL     OW21076   4.579   4.397   0.658 -0.5403 -0.0643 -0.5080
 3206SOL    HW121077   4.584   4.469   0.595 -4.0998  2.0894  1.6360
 3206SOL    HW221078   4.509   4.345   0.619  0.4210 -1.4965 -0.3145
 3207SOL     OW21079   0.701   0.826   3.134 -0.2616  0.0874  0.1044
 3207SOL    HW121080   0.734   0.914   3.153 -1.3023  0.3708  0.6066
 3207SOL    HW221081   0.610   0.847   3.111 -1.7023 -3.7415  2.2386
 3208SOL     OW21082   3.577   1.202  15.221 -0.4308  0.4199  0.0202
 3208SOL    HW121083   3.651   1.168  15.271 -0.8498 -2.5831 -1.3586
 3208SOL    HW221084   3.550   1.122  15.175  0.1737 -0.4149  1.1486
 3209SOL     OW21085   0.109   3.241   1.760 -0.2677 -0.2400  0.1681
 3209SOL    HW121086   0.030   3.209   1.804 -1.3694  1.5028 -0.5170
 3209SOL    HW221087   0.183   3.218   1.816 -0.0554 -0.0093 -0.0194
 3210SOL     OW21088   2.703   1.182   9.190 -0.3467 -0.0647 -0.1687
 3210SOL    HW121089   2.615   1.190   9.225 -0.3331 -0.8899  0.0509
 3210SOL    HW221090   2.729   1.268   9.222  0.1014 -0.6568  1.0484
 3211SOL     OW21091   0.216   2.418  13.037 -0.1323  0.1958  0.1659
 3211SOL    HW121092   0.287   2.439  12.977  0.7048  0.6506  1.3155
 3211SOL    HW221093   0.135   2.431  12.987  0.2195 -0.8326 -0.6597
 3212SOL     OW21094   0.365   0.932  12.455 -0.5322 -0.2145 -0.3502
 3212SOL    HW121095   0.443   0.917  12.508  0.1675 -0.4106 -1.4283
 3212SOL    HW221096   0.291   0.949  12.514 -1.1620 -1.4115 -0.7992
 3213SOL     OW21097   1.180   3.703  15.875 -0.0361  0.1974  0.2143
 3213SOL    HW121098   1.217   3.789  15.855  1.3262 -0.7015 -1.0904
 3213SOL    HW221099   1.121   3.718  15.949 -0.1399  0.9608 -0.0220
 3214SOL     OW21100   0.407   1.076   8.045  0.3781  0.2630  0.5530
 3214SOL    HW121101   0.338   1.136   8.016 -1.9099 -1.9521  1.4569
 3214SOL    HW221102   0.353   1.006   8.081 -1.8669  1.0187 -1.3246
 3215SOL     OW21103   0.328   0.204   1.665 -0.4601 -0.7784 -0.0250
 3215SOL    HW121104   0.293   0.158   1.742 -1.7698 -1.6667 -1.1367
 3215SOL    HW221105   0.419   0.173   1.673  0.2300  0.8047 -1.8237
 3216SOL     OW21106   2.116   0.616   0.232 -0.5223 -0.0055  0.4173
 3216SOL    HW121107   2.125   0.554   0.160  0.1550  3.2135 -2.2734
 3216SOL    HW221108   2.163   0.573   0.303 -1.8709 -0.8043  0.8317
 3217SOL     OW21109   2.391   4.621   5.153 -0.6137 -0.2155 -0.2835
 3217SOL    HW121110   2.345   4.539   5.167 -0.1502 -0.6885 -1.4946
 3217SOL    HW221111   2.480   4.596   5.125  0.3355  1.7041  1.0131
 3218SOL     OW21112   4.688   3.229   9.851  0.9467 -0.2074 -0.2570
 3218SOL    HW121113   4.638   3.178   9.787  0.5397 -1.9137  1.4095
 3218SOL    HW221114   4.709   3.160   9.914 -0.9321 -1.6311 -1.1929
 3219SOL     OW21115   0.445   0.593   4.483 -0.0857 -0.1064  0.0538
 3219SOL    HW121116   0.449   0.648   4.405  2.0097  0.4903  0.5903
 3219SOL    HW221117   0.361   0.620   4.520 -0.1752  1.4310 -1.2527
 3220SOL     OW21118   3.839   2.157   1.296  0.0123 -0.4339  0.6290
 3220SOL    HW121119   3.919   2.115   1.329  0.9769 -0.3377 -1.5643
 3220SOL    HW221120   3.879   2.243   1.286  0.6297 -0.7038  0.7693
 3221SOL     OW21121   1.621   3.683   1.520  0.5877 -0.6668  0.5263
 3221SOL    HW121122   1.543   3.679   1.465 -0.1406 -1.5385  1.6388
 3221SOL    HW221123   1.630   3.779   1.520  0.5306 -0.6647 -1.2950
 3222SOL     OW21124   3.516   1.759  14.775 -0.5648 -0.1621 -0.3962
 3222SOL    HW121125   3.519   1.712  14.692 -3.2074 -0.9450 -0.0361
 3222SOL    HW221126   3.595   1.813  14.762  0.1742 -1.2007 -0.2399
 3223SOL     OW21127   2.704   2.436  17.318 -0.2944  0.2034 -0.9762
 3223SOL    HW121128   2.755   2.452  17.239  1.0664 -0.9385 -0.3300
 3223SOL    HW221129   2.765   2.395  17.379 -0.5075  0.4226 -0.6169
 3224SOL     OW21130   1.751   0.874   7.111 -0.1882 -0.2015 -0.3658
 3224SOL    HW121131   1.778   0.954   7.067  2.1417 -0.0254  1.3976
 3224SOL    HW221132   1.809   0.810   7.070  0.8316  0.9883 -0.7471
 3225SOL     OW21133   3.321   1.340   0.346  0.0245  0.1356  0.2961
 3225SOL    HW121134   3.361   1.261   0.381  1.6957  1.4671  1.4026
 3225SOL    HW221135   3.364   1.354   0.262  1.0065  0.7673  0.8934
 3226SOL     OW21136   4.189   1.133   3.494 -0.1428 -0.2489  0.0171
 3226SOL    HW121137   4.109   1.106   3.539 -0.7653  1.2353 -0.1808
 3226SOL    HW221138   4.173   1.122   3.400  0.3215  0.7339 -0.1725
 3227SOL     OW21139   1.987   3.783   2.466  0.0329  0.9912  0.8629
 3227SOL    HW121140   1.964   3.874   2.484  1.2046  1.8353 -1.9328
 3227SOL    HW221141   2.017   3.812   2.380  0.1066  0.9109  0.8622
 3228SOL     OW21142   0.527   0.971   7.327 -0.3627  0.0170 -0.2192
 3228SOL    HW121143   0.539   0.991   7.234  0.1208 -1.2248 -0.4201
 3228SOL    HW221144   0.476   1.049   7.350 -0.7730 -0.3509  0.1047
 3229SOL     OW21145   0.430   1.013   7.652 -0.1402  0.0650 -0.4728
 3229SOL    HW121146   0.511   1.059   7.630  0.3089 -1.1835 -1.4235
 3229SOL    HW221147   0.468   0.935   7.692 -0.1150 -0.9247 -2.4761
 3230SOL     OW21148   3.265   1.415   2.942  0.2793 -0.0737 -0.3606
 3230SOL    HW121149   3.346   1.456   2.971 -0.3370  1.8795 -1.3961
 3230SOL    HW221150   3.272   1.322   2.967 -1.0059 -0.1787 -0.3673
 3231SOL     OW21151   2.979   4.169   2.595  0.0908 -0.3429  0.3120
 3231SOL    HW121152   2.937   4.142   2.676 -1.6599 -2.1578 -1.2049
 3231SOL    HW221153   3.009   4.091   2.547  0.4626 -0.7313  1.1690
 3232SOL     OW21154   1.905   4.475  10.644 -0.3369  0.1116  0.8192
 3232SOL    HW121155   1.862   4.556  10.671 -0.2353  0.0655  1.1269
 3232SOL    HW221156   1.988   4.504  10.606 -1.2676  0.1186 -1.1611
 3233SOL     OW21157   1.470   1.843  15.113  0.4737  0.3082  0.3380
 3233SOL    HW121158   1.403   1.803  15.057  0.5583 -1.5656  1.5886
 3233SOL    HW221159   1.545   1.832  15.056  1.7659 -0.7514  2.2361
 3234SOL     OW21160   1.623   4.425   4.030 -0.2637  0.3969 -0.2241
 3234SOL    HW121161   1.537   4.408   4.070  0.8755 -1.4155  1.4162
 3234SOL    HW221162   1.682   4.388   4.095  0.1236  1.3703 -0.0391
 3235SOL     OW21163   0.386   0.522   5.422  0.5237  0.4797 -0.4311
 3235SOL    HW121164   0.478   0.526   5.450  0.0217  1.1196  1.1179
 3235SOL    HW221165   0.342   0.597   5.463 -0.6558  0.1106 -1.0235
 3236SOL     OW21166   2.789   4.507   4.693 -0.2602 -0.5765 -0.2238
 3236SOL    HW121167   2.741   4.443   4.745  1.1550 -1.8046 -0.4264
 3236SOL    HW221168   2.816   4.457   4.616  2.2150 -0.6687  0.6960
 3237SOL     OW21169   3.461   0.977  16.786  0.8796  0.0908  0.4092
 3237SOL    HW121170   3.477   0.887  16.757 -0.8243 -0.2701  0.5690
 3237SOL    HW221171   3.419   0.959  16.870  1.0603 -0.2001  0.4362
 3238SOL     OW21172   4.702   0.793  10.132 -0.1196 -0.0896 -0.2960
 3238SOL    HW121173   4.724   0.717  10.187  1.1402  0.8156  0.4311
 3238SOL    HW221174   4.657   0.743  10.064  0.6643 -0.4017 -0.5867
 3239SOL     OW21175   2.821   2.424  12.136 -0.0324  0.3929  0.2395
 3239SOL    HW121176   2.892   2.408  12.074 -2.3011 -2.6296 -1.5757
 3239SOL    HW221177   2.788   2.335  12.126 -2.0315  0.9346  1.9942
 3240SOL     OW21178   3.020   2.155  14.066  0.3014  0.1545 -0.5843
 3240SOL    HW121179   2.951   2.101  14.028  0.3425 -0.0681 -0.3406
 3240SOL    HW221180   3.075   2.086  14.101 -0.7533 -0.6516 -0.5235
 3241SOL     OW21181   2.918   1.624  15.952  0.3006 -0.2770 -0.6154
 3241SOL    HW121182   2.975   1.554  15.986  0.1241 -0.2845 -0.3411
 3241SOL    HW221183   2.960   1.645  15.868 -1.6981 -0.8142 -1.7448
 3242SOL     OW21184   3.754   2.760  15.190  0.3835 -0.2978  0.1954
 3242SOL    HW121185   3.662   2.735  15.186  0.7831 -1.9797  1.3324
 3242SOL    HW221186   3.759   2.833  15.128 -0.8587 -1.8079 -1.7213
 3243SOL     OW21187   2.659   1.997   0.432 -0.4594 -0.3211 -0.2903
 3243SOL    HW121188   2.670   1.924   0.371  0.7804  0.6348 -1.1901
 3243SOL    HW221189   2.667   1.954   0.517 -0.2779  0.0547 -0.1177
 3244SOL     OW21190   1.848   4.113   6.001 -0.1574  0.3064  0.4672
 3244SOL    HW121191   1.843   4.149   6.089  0.3472 -0.2848  0.7373
 3244SOL    HW221192   1.908   4.038   6.006 -0.8227 -0.2902 -0.3627
 3245SOL     OW21193   4.722   4.511  11.125 -0.3438 -0.0668  0.2101
 3245SOL    HW121194   0.077   4.529  11.172 -0.3112 -0.2468  0.2233
 3245SOL    HW221195   4.679   4.451  11.186  1.2756 -2.3377 -0.8649
 3246SOL     OW21196   0.388   0.542   2.887 -0.3110 -0.6193 -0.2358
 3246SOL    HW121197   0.461   0.481   2.894 -2.4558 -2.8325  2.7961
 3246SOL    HW221198   0.347   0.512   2.807  0.0499  0.8541 -0.9793
 3247SOL     OW21199   1.957   3.653   2.885  0.6563  0.3862 -0.4159
 3247SOL    HW121200   1.981   3.735   2.927 -1.4898  1.4442 -1.2496
 3247SOL    HW221201   1.888   3.687   2.829  1.2802 -0.0331 -1.4372
 3248SOL     OW21202   2.706   2.440   3.799 -0.2323  0.1620 -0.2390
 3248SOL    HW121203   2.633   2.502   3.795 -0.5082 -0.1166  0.5910
 3248SOL    HW221204   2.669   2.372   3.742  0.3801  2.8041 -3.8099
 3249SOL     OW21205   3.314   1.381   6.359 -0.4467 -0.7106 -0.6010
 3249SOL    HW121206   3.277   1.304   6.403 -0.2930 -0.3911  0.0826
 3249SOL    HW221207   3.304   1.447   6.427  0.5990 -0.3356 -0.8123
 3250SOL     OW21208   4.066   1.597   9.394  0.1985  0.2568 -0.0176
 3250SOL    HW121209   3.997   1.532   9.406 -1.5269  2.7255  3.8646
 3250SOL    HW221210   4.125   1.563   9.462  0.9253  1.2797 -0.1385
 3251SOL     OW21211   1.418   1.697   5.106 -0.4584  0.5997 -0.6524
 3251SOL    HW121212   1.335   1.695   5.154 -0.1344  0.8586 -0.0780
 3251SOL    HW221213   1.458   1.625   5.155  1.1471  1.8645 -0.1117
 3252SOL     OW21214   1.639   4.054  10.784  0.0382  0.5921  0.3556
 3252SOL    HW121215   1.667   4.120  10.720  1.6969 -1.1057 -0.6733
 3252SOL    HW221216   1.628   3.984  10.719  1.4115  1.7920 -1.1667
 3253SOL     OW21217   3.781   3.728   2.844  0.3683  0.2712  0.1074
 3253SOL    HW121218   3.815   3.723   2.755  0.9090 -1.5929  0.4276
 3253SOL    HW221219   3.687   3.710   2.843  0.2461  0.8608  0.8253
 3254SOL     OW21220   2.445   1.572   9.120 -0.1244  0.0797 -0.3849
 3254SOL    HW121221   2.537   1.551   9.104  0.0294  1.0712 -0.8165
 3254SOL    HW221222   2.426   1.565   9.214 -2.1981  0.5015 -0.7875
 3255SOL     OW21223   3.278   3.014   5.304 -0.2660 -0.1495  0.1281
 3255SOL    HW121224   3.316   3.000   5.218 -1.1887  0.3605 -0.3659
 3255SOL    HW221225   3.346   3.066   5.345 -2.2175  2.4875 -0.0047
 3256SOL     OW21226   1.523   2.986   8.508 -0.0998 -0.5503 -0.2922
 3256SOL    HW121227   1.583   2.919   8.542  0.5794 -1.1358 -2.6873
 3256SOL    HW221228   1.587   3.051   8.480  1.2756 -1.3686  0.9473
 3257SOL     OW21229   3.616   4.157   4.382  0.0063 -0.3890 -0.2393
 3257SOL    HW121230   3.682   4.107   4.334 -0.8024 -1.2420 -0.4563
 3257SOL    HW221231   3.657   4.243   4.380  0.5157 -0.7300 -3.1750
 3258SOL     OW21232   1.033   4.308  17.087  0.2736  0.8323  0.3722
 3258SOL    HW121233   1.110   4.347  17.045  0.5952 -0.5352 -0.3120
 3258SOL    HW221234   1.067   4.222  17.111 -3.2281 -0.8388 -0.4920
 3259SOL     OW21235   3.271   2.983   4.003  0.2359 -0.0258  0.2317
 3259SOL    HW121236   3.242   3.066   4.040 -2.1435 -1.8093  2.3897
 3259SOL    HW221237   3.239   2.924   4.071 -0.6423 -0.6555 -0.7296
 3260SOL     OW21238   0.240   1.105   6.269  0.2701 -0.1280 -0.0075
 3260SOL    HW121239   0.156   1.067   6.244 -0.3838  1.0595  0.3760
 3260SOL    HW221240   0.208   1.155   6.344  0.2770  0.3408 -0.3170
 3261SOL     OW21241   3.279   3.655  15.638  0.2601 -0.5149  0.3415
 3261SOL    HW121242   3.186   3.637  15.630  0.3422 -0.6471 -0.3013
 3261SOL    HW221243   3.273   3.714  15.713 -1.5313 -0.6918  0.3261
 3262SOL     OW21244   1.944   3.450   7.439 -0.6234 -0.0955  0.2419
 3262SOL    HW121245   1.888   3.430   7.363  1.3413  0.3047 -1.3168
 3262SOL    HW221246   1.898   3.530   7.466  0.4497  0.7330 -0.3589
 3263SOL     OW21247   2.806   1.531   5.674  0.3942 -0.4686  0.3401
 3263SOL    HW121248   2.795   1.458   5.613 -0.5221  0.5516 -0.7184
 3263SOL    HW221249   2.759   1.598   5.624  0.6938  1.1710  2.2757
 3264SOL     OW21250   0.149   3.665   6.807  0.2687 -0.2321 -0.6119
 3264SOL    HW121251   0.231   3.710   6.783 -0.2424  0.7256 -0.5553
 3264SOL    HW221252   0.115   3.721   6.878  0.6494 -0.5116 -0.2059
 3265SOL     OW21253   0.798   1.374   2.510  0.1692 -0.4602  0.9554
 3265SOL    HW121254   0.745   1.437   2.558 -0.4261  1.5620 -2.3743
 3265SOL    HW221255   0.836   1.432   2.444 -0.5985 -0.1806  0.7576
 3266SOL     OW21256   0.171   0.875   8.340  0.0601 -0.4099  0.2871
 3266SOL    HW121257   0.076   0.865   8.336 -0.0635  0.5101  0.7789
 3266SOL    HW221258   0.194   0.896   8.249 -0.8323  1.6254  0.5228
 3267SOL     OW21259   1.335   4.146  11.735 -0.3699 -0.3110  0.0414
 3267SOL    HW121260   1.401   4.214  11.751  1.5828 -2.0035 -0.8257
 3267SOL    HW221261   1.252   4.190  11.752 -0.3628  0.1490 -1.0843
 3268SOL     OW21262   0.775   1.514   1.165  0.1819  0.5605  0.3823
 3268SOL    HW121263   0.751   1.585   1.224 -0.1424  1.1576 -0.4678
 3268SOL    HW221264   0.702   1.504   1.103  2.0125 -3.2444 -1.1871
 3269SOL     OW21265   0.899   1.348   3.771  0.2948 -0.8853  0.4546
 3269SOL    HW121266   0.823   1.379   3.723  1.3027 -2.0505 -1.9308
 3269SOL    HW221267   0.944   1.428   3.798 -0.4442 -1.0843  2.2425
 3270SOL     OW21268   1.849   2.832   4.752  0.2038 -0.3511  0.0751
 3270SOL    HW121269   1.787   2.762   4.732 -1.3636  1.4103 -1.2843
 3270SOL    HW221270   1.928   2.805   4.706 -0.0045  0.6768 -0.8947
 3271SOL     OW21271   0.789   3.512  17.270  0.2143 -0.0780  0.2628
 3271SOL    HW121272   0.800   3.534  17.177  0.1881 -0.8246  0.0855
 3271SOL    HW221273   0.828   3.427  17.290  0.7767 -0.3511 -1.9336
 3272SOL     OW21274   0.754   1.548   5.024  0.1516  0.2869 -0.4762
 3272SOL    HW121275   0.709   1.482   4.971  0.0869 -0.1092  0.0737
 3272SOL    HW221276   0.689   1.574   5.089  0.5773 -1.5740  0.6940
 3273SOL     OW21277   3.409   1.532   0.585  0.2975  0.1625  0.1159
 3273SOL    HW121278   3.381   1.477   0.511 -0.5911  1.6657 -0.6675
 3273SOL    HW221279   3.358   1.610   0.561  0.5495  0.2460 -0.1571
 3274SOL     OW21280   1.926   2.806  15.528  0.5562 -0.7363 -0.1046
 3274SOL    HW121281   1.907   2.857  15.607  0.9095 -0.3922 -0.2420
 3274SOL    HW221282   2.013   2.773  15.550  0.9548  0.2456 -0.2380
 3275SOL     OW21283   0.272   4.268   6.391 -0.5170 -0.6878  0.1170
 3275SOL    HW121284   0.288   4.226   6.475 -0.7449  0.8367  0.9229
 3275SOL    HW221285   0.354   4.310   6.363 -0.2128 -0.3921  1.4791
 3276SOL     OW21286   2.453   3.387   5.994 -0.1427  0.0935 -0.1956
 3276SOL    HW121287   2.435   3.405   6.087  1.8328  1.2313 -0.0326
 3276SOL    HW221288   2.361   3.373   5.973 -0.7832  2.1864  1.2060
 3277SOL     OW21289   0.203   1.814   8.175 -0.1461 -0.0249 -0.0668
 3277SOL    HW121290   0.163   1.810   8.262  1.5032 -1.3572  0.6286
 3277SOL    HW221291   0.194   1.721   8.153 -0.9985  0.5583 -2.1814
 3278SOL     OW21292   4.285   3.905  16.949  0.5970 -0.1233  0.3392
 3278SOL    HW121293   4.313   3.975  16.890 -0.4073  0.9223  1.0986
 3278SOL    HW221294   4.329   3.823  16.928 -1.1028 -0.6738 -1.0331
 3279SOL     OW21295   1.257   3.835   9.040  0.2444 -0.1288  0.2960
 3279SOL    HW121296   1.250   3.772   8.968 -1.3922 -1.2846  1.4583
 3279SOL    HW221297   1.172   3.878   9.029 -0.2327 -0.8273  1.1902
 3280SOL     OW21298   1.996   4.235   4.715  0.5933 -0.5320 -0.1836
 3280SOL    HW121299   1.970   4.145   4.732 -1.5557  0.3581  1.2813
 3280SOL    HW221300   2.057   4.226   4.642 -0.0943  0.4455 -0.8703
 3281SOL     OW21301   3.421   1.047   2.748 -0.2588  0.1473  0.4079
 3281SOL    HW121302   3.328   1.067   2.747 -0.4013 -0.6349 -1.4716
 3281SOL    HW221303   3.455   1.117   2.693  0.1846  1.4653  2.3406
 3282SOL     OW21304   3.077   1.190   7.306  0.1635 -0.3433  0.5331
 3282SOL    HW121305   3.036   1.252   7.245  1.8008  1.9893  1.7997
 3282SOL    HW221306   3.163   1.173   7.269 -0.3509 -0.7834 -0.4665
 3283SOL     OW21307   2.942   0.549   9.360 -0.2235 -0.9223  0.2209
 3283SOL    HW121308   2.897   0.631   9.340  0.5579 -0.6035 -0.2148
 3283SOL    HW221309   2.962   0.555   9.453  1.0330  2.4632 -0.2738
 3284SOL     OW21310   1.001   2.876   4.255 -0.3547  0.1929  0.0413
 3284SOL    HW121311   1.075   2.908   4.306 -0.5887  1.7317 -0.5951
 3284SOL    HW221312   0.938   2.863   4.325  0.9327  1.1811  1.3769
 3285SOL     OW21313   3.976   3.757   5.348 -0.0546  0.1230  0.5166
 3285SOL    HW121314   3.905   3.768   5.412  1.5428 -2.1170  2.6540
 3285SOL    HW221315   3.932   3.712   5.276  0.5682 -0.9688  0.8197
 3286SOL     OW21316   3.861   2.633   0.723 -0.0663  0.0273  0.0210
 3286SOL    HW121317   3.943   2.605   0.682  0.3436 -0.5302  1.2071
 3286SOL    HW221318   3.887   2.670   0.808 -0.6252 -1.3498  0.7765
 3287SOL     OW21319   1.394   3.497   4.689  0.0782  0.1820 -0.1118
 3287SOL    HW121320   1.347   3.414   4.691  0.4648 -0.0317  0.1903
 3287SOL    HW221321   1.335   3.551   4.637  0.9973 -0.5076 -1.8892
 3288SOL     OW21322   2.744   1.201  15.011  0.8022 -0.0221 -0.9453
 3288SOL    HW121323   2.655   1.172  14.990  0.2608  2.3692 -1.9985
 3288SOL    HW221324   2.792   1.131  14.967 -1.7260 -1.7038 -1.0130
 3289SOL     OW21325   2.943   0.321   5.174 -0.1603 -0.5328  0.2524
 3289SOL    HW121326   3.023   0.336   5.124 -0.7026 -0.5759 -0.6303
 3289SOL    HW221327   2.951   0.383   5.246  1.1562  2.3394 -2.3445
 3290SOL     OW21328   0.150   4.715   5.533  0.3729 -0.2484  0.9581
 3290SOL    HW121329   0.138   0.047   5.608 -1.5007  1.2225 -0.4807
 3290SOL    HW221330   0.240   4.685   5.542  1.4228  2.6399 -0.2374
 3291SOL     OW21331   1.373   1.436   6.878 -0.4803 -0.1176  0.5779
 3291SOL    HW121332   1.289   1.397   6.851 -0.3723 -0.2583  0.4478
 3291SOL    HW221333   1.415   1.441   6.792 -0.9984  1.3578  0.4089
 3292SOL     OW21334   3.412   2.938   9.150  0.1170  0.5461  0.4525
 3292SOL    HW121335   3.326   2.896   9.158 -0.1788  0.5667 -2.7511
 3292SOL    HW221336   3.457   2.887   9.217 -2.0797 -0.8276  0.8890
 3293SOL     OW21337   1.971   2.934  15.023  0.7334  0.0354  0.1745
 3293SOL    HW121338   1.949   2.994  15.094  1.5358  2.2056 -1.4276
 3293SOL    HW221339   2.064   2.958  15.021  0.7509  0.1391  1.5543
 3294SOL     OW21340   2.251   1.902   6.735 -0.2206  0.6536  0.2641
 3294SOL    HW121341   2.193   1.830   6.710  0.5590  0.6511 -1.5206
 3294SOL    HW221342   2.333   1.882   6.691 -0.8845  0.2759 -0.8143
 3295SOL     OW21343   1.712   1.997   1.457  0.5873  0.0784 -0.0705
 3295SOL    HW121344   1.621   1.986   1.432  0.8742 -2.0048 -0.1907
 3295SOL    HW221345   1.713   2.077   1.511  0.0958  0.9386 -1.3460
 3296SOL     OW21346   4.286   2.928   4.111 -0.6453  0.3849 -0.1784
 3296SOL    HW121347   4.329   2.962   4.032  0.4270  0.0619  0.2602
 3296SOL    HW221348   4.220   2.873   4.068  1.7201 -2.1624 -0.5777
 3297SOL     OW21349   2.527   0.669   1.151  0.2239 -0.1555  0.2491
 3297SOL    HW121350   2.535   0.764   1.145 -0.9589 -0.0287  0.5686
 3297SOL    HW221351   2.602   0.649   1.095  0.3447 -1.8547  1.0042
 3298SOL     OW21352   3.657   3.885  16.988 -0.6011 -0.6616 -0.6696
 3298SOL    HW121353   3.705   3.812  16.952 -1.8214 -0.8149 -1.9881
 3298SOL    HW221354   3.677   3.961  16.933  0.7239  0.3454  1.1910
 3299SOL     OW21355   2.708   4.011   7.184 -0.4201 -0.5348  0.0035
 3299SOL    HW121356   2.657   4.064   7.123 -2.1558 -0.6210  1.3949
 3299SOL    HW221357   2.654   3.933   7.197 -1.1471 -0.0369 -0.0305
 3300SOL     OW21358   2.693   0.574   7.686  0.3480 -0.5284 -0.5149
 3300SOL    HW121359   2.739   0.652   7.655  0.5791 -0.2239  0.5970
 3300SOL    HW221360   2.606   0.591   7.650 -0.2709 -3.0921 -0.2020
 3301SOL     OW21361   0.580   2.416  15.762  0.1824 -0.4158  0.2480
 3301SOL    HW121362   0.633   2.456  15.831  1.1627  1.0823 -1.3798
 3301SOL    HW221363   0.493   2.437  15.795  0.8477 -0.0347  1.7793
 3302SOL     OW21364   2.014   3.874   5.942  0.3019 -0.2556 -0.6722
 3302SOL    HW121365   2.000   3.908   5.854  0.6144 -2.5833 -1.6290
 3302SOL    HW221366   2.100   3.830   5.938  0.8898  1.0071 -1.6113
 3303SOL     OW21367   1.827   1.052  10.910 -0.0163  0.0898  0.3153
 3303SOL    HW121368   1.761   1.038  10.843  0.8476 -1.4046 -0.2075
 3303SOL    HW221369   1.895   1.006  10.862  0.9498  0.2341  1.5367
 3304SOL     OW21370   0.173   0.304   2.566  0.0985 -0.4392 -0.0068
 3304SOL    HW121371   0.144   0.392   2.591  1.7976  0.1848 -0.2260
 3304SOL    HW221372   0.245   0.287   2.627 -0.2660 -0.7157  0.3480
 3305SOL     OW21373   4.202   2.243  15.921  0.0547  0.2621  0.3659
 3305SOL    HW121374   4.175   2.156  15.951  1.6783 -1.2280 -2.4060
 3305SOL    HW221375   4.200   2.226  15.826  0.5669 -0.0148  0.4039
 3306SOL     OW21376   3.806   3.745   7.360  0.4547 -0.4243 -0.1932
 3306SOL    HW121377   3.790   3.661   7.404  1.1920 -0.4264  0.0626
 3306SOL    HW221378   3.725   3.753   7.309  0.9607 -0.3345 -0.9763
 3307SOL     OW21379   3.982   2.484   3.718 -0.0285 -0.1528  0.2621
 3307SOL    HW121380   4.002   2.393   3.739 -0.4733  0.4238  3.2905
 3307SOL    HW221381   4.068   2.525   3.730  0.5862 -1.9185  1.8720
 3308SOL     OW21382   2.734   0.649   2.839 -0.1070 -0.9068 -0.2228
 3308SOL    HW121383   2.800   0.682   2.779  0.0073 -0.0898  0.3600
 3308SOL    HW221384   2.716   0.730   2.887 -1.3330 -1.3042  0.0043
 3309SOL     OW21385   3.121   3.251   4.043  0.0048  0.2605 -0.1966
 3309SOL    HW121386   3.035   3.221   4.015  0.1270  0.5076 -0.8490
 3309SOL    HW221387   3.102   3.291   4.128  2.3032  1.3188 -0.1595
 3310SOL     OW21388   0.087   2.064   0.782 -0.2837  0.2619  0.2004
 3310SOL    HW121389   0.014   2.043   0.723  0.0896 -1.0950  0.2219
 3310SOL    HW221390   0.158   2.104   0.732  0.4716  0.3796  1.3574
 3311SOL     OW21391   4.478   0.070   0.138  0.2716 -0.1188  0.0978
 3311SOL    HW121392   4.503   0.008   0.206  2.1519 -0.2977 -0.7552
 3311SOL    HW221393   4.556   0.078   0.084  0.7052 -1.3348  0.5576
 3312SOL     OW21394   1.854   2.933  10.925  0.8655 -0.2431 -0.2124
 3312SOL    HW121395   1.762   2.908  10.936  1.5096 -2.6948 -0.3289
 3312SOL    HW221396   1.856   2.942  10.830  4.0889 -0.9107 -0.1997
 3313SOL     OW21397   1.473   3.230   4.451 -0.0863 -0.1550 -0.1070
 3313SOL    HW121398   1.431   3.206   4.534 -1.2900  0.0423 -0.6505
 3313SOL    HW221399   1.394   3.264   4.408  1.4430 -0.7842 -3.3712
 3314SOL     OW21400   0.626   0.663   2.456 -0.2944  0.5645  0.1434
 3314SOL    HW121401   0.581   0.616   2.386  0.7317  0.1452 -0.2405
 3314SOL    HW221402   0.715   0.683   2.425 -1.4295  0.2023 -3.2839
 3315SOL     OW21403   1.217   1.273   4.252  0.2005  0.1368 -0.0249
 3315SOL    HW121404   1.147   1.218   4.285 -0.8996  0.4500 -1.8365
 3315SOL    HW221405   1.172   1.354   4.277  1.0553  0.9021 -0.9493
 3316SOL     OW21406   0.351   4.520  15.250  0.3901  0.0389  0.1321
 3316SOL    HW121407   0.329   4.499  15.341  0.5120  0.1862  0.1950
 3316SOL    HW221408   0.343   4.614  15.236 -2.0449 -0.0893  0.6761
 3317SOL     OW21409   0.168   2.125   8.490  0.3034  0.3487 -0.1973
 3317SOL    HW121410   0.213   2.149   8.409 -1.1679  0.0467 -1.0936
 3317SOL    HW221411   0.200   2.194   8.550 -1.0141  1.2180 -0.4987
 3318SOL     OW21412   4.631   1.624   7.748 -0.8542 -0.2305  0.2744
 3318SOL    HW121413   4.601   1.577   7.826 -1.2386 -1.2064 -0.4615
 3318SOL    HW221414   4.558   1.679   7.720  1.2544  2.0766 -0.6769
 3319SOL     OW21415   0.355   0.879   5.734 -0.4097  0.0430  0.3271
 3319SOL    HW121416   0.428   0.864   5.673 -0.9835  2.2991 -0.9423
 3319SOL    HW221417   0.375   0.966   5.769  3.8245 -1.1373  0.8433
 3320SOL     OW21418   3.091   3.524  10.674 -0.2321 -0.8923 -0.5602
 3320SOL    HW121419   3.105   3.613  10.642 -1.1247 -0.2451  0.8342
 3320SOL    HW221420   3.128   3.522  10.762  0.6792  0.7203 -0.9325
 3321SOL     OW21421   0.819   4.113  11.444 -0.2196  0.1297 -0.2563
 3321SOL    HW121422   0.739   4.127  11.394  0.8982 -1.7395 -2.5600
 3321SOL    HW221423   0.862   4.066  11.372  1.2973  1.2294 -0.0749
 3322SOL     OW21424   4.717   1.387   0.214 -0.4370  0.3069 -0.5291
 3322SOL    HW121425   4.716   1.352   0.303  0.8646  0.9959 -0.2555
 3322SOL    HW221426   0.083   1.411   0.204 -0.2290  0.6687  2.3142
 3323SOL     OW21427   0.509   2.143   2.732 -0.7184  0.0957  0.2257
 3323SOL    HW121428   0.519   2.234   2.761 -2.5834  0.0775  0.9764
 3323SOL    HW221429   0.589   2.098   2.758 -0.1977 -0.1289 -1.7663
 3324SOL     OW21430   3.472   0.488  17.002 -0.3351  0.5675 -0.7089
 3324SOL    HW121431   3.563   0.469  16.982 -0.6007 -1.5970  0.0846
 3324SOL    HW221432   3.436   0.494  16.913 -0.2141 -0.8747 -0.8486
 3325SOL     OW21433   1.692   0.911   8.502 -0.3916  0.0838 -0.0784
 3325SOL    HW121434   1.599   0.931   8.485 -0.2899  2.1841  1.6594
 3325SOL    HW221435   1.702   0.957   8.586 -0.6420 -1.2614  0.6804
 3326SOL     OW21436   0.154   1.699   4.831  0.0428 -0.1882  0.1239
 3326SOL    HW121437   0.193   1.668   4.749  0.6831 -0.5780  0.5784
 3326SOL    HW221438   0.064   1.669   4.820 -0.0957  0.7319 -1.2312
 3327SOL     OW21439   0.876   4.564   8.340  0.2527  0.3630  0.2630
 3327SOL    HW121440   0.943   4.596   8.399 -0.1713 -0.5592  1.2463
 3327SOL    HW221441   0.830   4.505   8.400  0.2892 -0.6233 -0.6778
 3328SOL     OW21442   3.532   2.538   2.486 -0.2784 -0.1884  0.2871
 3328SOL    HW121443   3.587   2.615   2.467  0.4986 -0.6997  0.4755
 3328SOL    HW221444   3.541   2.484   2.408  2.2377  0.9245 -0.2237
 3329SOL     OW21445   4.545   3.971   3.373 -0.3658 -0.1182 -0.1698
 3329SOL    HW121446   4.476   3.904   3.367  0.7671 -1.1306 -1.7474
 3329SOL    HW221447   4.483   4.034   3.410  1.5055  0.2141  2.4294
 3330SOL     OW21448   2.084   2.644   8.614 -0.3329 -0.2043  0.2624
 3330SOL    HW121449   2.021   2.645   8.686  0.2000  1.0040  0.7293
 3330SOL    HW221450   2.134   2.564   8.629 -2.0203 -1.1533  0.7619
 3331SOL     OW21451   3.702   0.200   6.138  0.4412  0.1873 -0.4087
 3331SOL    HW121452   3.679   0.114   6.175 -2.2067  1.3036  0.5188
 3331SOL    HW221453   3.797   0.195   6.151 -0.4009 -0.5398  5.4710
 3332SOL     OW21454   2.242   3.568   8.003 -0.3485 -0.0337  0.1174
 3332SOL    HW121455   2.197   3.489   8.033 -0.3823 -0.5972 -1.4070
 3332SOL    HW221456   2.330   3.532   7.992 -0.9395 -0.9637 -1.5128
 3333SOL     OW21457   0.461   1.737  14.212 -0.4139 -0.1127  0.1171
 3333SOL    HW121458   0.399   1.763  14.280 -1.7992  0.1540 -1.2492
 3333SOL    HW221459   0.543   1.785  14.220 -0.0681 -0.4442 -1.4980
 3334SOL     OW21460   3.719   2.953   2.119 -0.2140 -0.3369  0.5009
 3334SOL    HW121461   3.753   3.016   2.055 -1.3733  0.1465  0.3546
 3334SOL    HW221462   3.639   2.921   2.078 -0.4290 -0.0541  0.7011
 3335SOL     OW21463   2.921   0.341  12.187 -0.8038 -0.5688  0.2232
 3335SOL    HW121464   2.880   0.302  12.264 -0.2963 -2.2661 -0.3412
 3335SOL    HW221465   3.011   0.360  12.214 -0.9171 -0.2649  0.3833
 3336SOL     OW21466   3.220   4.698   1.966  0.1374 -0.0111  0.7315
 3336SOL    HW121467   3.147   4.691   1.905 -0.6926 -1.3708  1.8966
 3336SOL    HW221468   3.288   4.657   1.913  0.3539  0.8463  0.3349
 3337SOL     OW21469   3.794   1.633   5.029  0.2086 -0.5412 -0.0265
 3337SOL    HW121470   3.883   1.601   5.043  0.5930  0.3427 -0.4731
 3337SOL    HW221471   3.750   1.573   4.969  0.1002  0.9053 -1.3909
 3338SOL     OW21472   3.351   3.667   3.755  0.2082 -0.1617  0.3323
 3338SOL    HW121473   3.362   3.664   3.660  1.1052  1.1774  0.3911
 3338SOL    HW221474   3.421   3.607   3.782 -0.2478 -1.8143 -2.2319
 3339SOL     OW21475   4.353   3.439   9.301  0.0001  0.1611 -0.2174
 3339SOL    HW121476   4.297   3.370   9.266 -0.1888  0.1433  0.1242
 3339SOL    HW221477   4.347   3.415   9.394  2.2635 -2.5631 -0.7383
 3340SOL     OW21478   3.403   4.336   5.105  0.0650 -0.2568  0.6401
 3340SOL    HW121479   3.448   4.323   5.022 -0.2347  0.9326  0.2897
 3340SOL    HW221480   3.476   4.384   5.144 -0.4140 -0.2416  1.5234
 3341SOL     OW21481   3.855   0.315   4.758  0.0217  0.4945  0.2417
 3341SOL    HW121482   3.776   0.290   4.710  1.5006  0.7482 -2.2732
 3341SOL    HW221483   3.900   0.370   4.695 -0.1834  1.6741  1.1283
 3342SOL     OW21484   2.518   1.632   2.203 -0.2291 -0.1982  0.1759
 3342SOL    HW121485   2.509   1.693   2.276  3.0214  0.1099  0.2911
 3342SOL    HW221486   2.499   1.692   2.132 -0.7562  1.2101  1.4986
 3343SOL     OW21487   2.044   1.617  13.751 -0.1364 -0.0224  0.5897
 3343SOL    HW121488   2.137   1.604  13.771  0.2951  1.7544 -0.2661
 3343SOL    HW221489   2.030   1.711  13.768  2.2971  0.3664  0.3826
 3344SOL     OW21490   0.728   1.953   8.545 -0.4261 -0.5382  0.5550
 3344SOL    HW121491   0.639   1.946   8.509  0.5073  0.3138 -1.8862
 3344SOL    HW221492   0.714   1.923   8.635 -0.3627 -0.7446  0.4957
 3345SOL     OW21493   3.087   4.622   6.671  0.2174  0.3144 -0.3802
 3345SOL    HW121494   3.125   4.538   6.696 -0.9033 -0.4971 -1.3922
 3345SOL    HW221495   3.057   4.658   6.755 -0.9979 -1.3679 -0.0801
 3346SOL     OW21496   2.809   4.167   2.835  0.0676  0.8453 -0.4471
 3346SOL    HW121497   2.782   4.258   2.844  1.3275  1.2455 -0.7301
 3346SOL    HW221498   2.721   4.136   2.816  0.0861  1.9199 -2.2439
 3347SOL     OW21499   3.617   3.062   2.928  0.5148  0.2493  0.5199
 3347SOL    HW121500   3.648   3.141   2.884 -0.6760  1.1815  1.3658
 3347SOL    HW221501   3.524   3.063   2.908  0.7569  0.3049 -0.6115
 3348SOL     OW21502   2.573   2.516   3.215 -0.6439  0.2516 -0.1628
 3348SOL    HW121503   2.668   2.509   3.202 -1.0640 -2.5255 -1.7705
 3348SOL    HW221504   2.568   2.607   3.245 -0.1936 -0.5306  2.2981
 3349SOL     OW21505   0.779   0.610   2.103  0.1058 -0.3762 -0.1888
 3349SOL    HW121506   0.858   0.565   2.075 -1.1961 -1.6724 -1.7292
 3349SOL    HW221507   0.743   0.639   2.019 -0.8873 -3.6039 -0.8586
 3350SOL     OW21508   4.161   3.633  12.850  0.4333  0.8505 -0.2823
 3350SOL    HW121509   4.117   3.563  12.897  1.5286  2.4652  3.1091
 3350SOL    HW221510   4.239   3.582  12.828 -0.2823  0.2857 -1.5421
 3351SOL     OW21511   3.655   0.534  10.198  0.3431 -0.0509 -0.2483
 3351SOL    HW121512   3.636   0.572  10.111 -0.0468 -0.9096 -0.5334
 3351SOL    HW221513   3.562   0.519  10.215  0.3080  0.3723 -0.0761
 3352SOL     OW21514   1.725   2.021   1.926 -0.6809 -0.1915 -0.2389
 3352SOL    HW121515   1.684   2.067   1.853 -0.6962 -2.2213 -1.5027
 3352SOL    HW221516   1.646   1.970   1.945 -0.0271 -0.4142  1.9659
 3353SOL     OW21517   4.543   0.090   8.523  0.2727  0.3146 -0.1468
 3353SOL    HW121518   4.637   0.103   8.537  0.1066  0.1284  1.1676
 3353SOL    HW221519   4.523   0.034   8.598  1.6490  1.7807  1.3228
 3354SOL     OW21520   2.197   1.429   3.134 -0.2589  0.1538  0.3056
 3354SOL    HW121521   2.120   1.376   3.156  1.3372 -1.0075  2.9954
 3354SOL    HW221522   2.164   1.452   3.047  0.4483 -0.0056  0.0012
 3355SOL     OW21523   1.414   4.192   5.284  0.3087 -0.2312  0.2808
 3355SOL    HW121524   1.443   4.280   5.260  2.2904 -1.0644 -0.4509
 3355SOL    HW221525   1.452   4.187   5.371  0.1831  1.8080  0.4437
 3356SOL     OW21526   4.365   3.475   8.271 -0.3186 -0.2145 -0.8997
 3356SOL    HW121527   4.285   3.483   8.322  1.4258  1.4033  1.5838
 3356SOL    HW221528   4.411   3.558   8.283  0.0604 -0.2952 -1.8382
 3357SOL     OW21529   2.409   2.439   7.357  0.4566 -0.1223  0.4844
 3357SOL    HW121530   2.398   2.533   7.338 -2.4115 -0.4717  0.3605
 3357SOL    HW221531   2.380   2.438   7.448 -0.0359 -2.3387  0.2861
 3358SOL     OW21532   2.243   3.090   3.231  0.6199 -0.1193 -0.0038
 3358SOL    HW121533   2.166   3.110   3.284 -1.7401 -1.5304 -2.8688
 3358SOL    HW221534   2.295   3.171   3.228 -0.3158  0.5127  0.8361
 3359SOL     OW21535   3.406   0.390  14.903  0.3927  0.4715 -0.1191
 3359SOL    HW121536   3.471   0.353  14.963 -0.9203 -1.0177  0.3674
 3359SOL    HW221537   3.438   0.480  14.891 -0.9342  0.9918  0.2753
 3360SOL     OW21538   2.064   2.289   2.565 -0.2408 -0.1489 -0.1780
 3360SOL    HW121539   2.068   2.334   2.480 -1.4584  1.5992  0.6766
 3360SOL    HW221540   2.090   2.362   2.622 -1.6574 -0.6898  1.1412
 3361SOL     OW21541   1.031   2.638   6.634 -0.2133  0.0274 -0.1292
 3361SOL    HW121542   0.979   2.634   6.554  0.1263  1.8034 -0.4331
 3361SOL    HW221543   1.117   2.619   6.598  0.1533  1.8203 -0.1647
 3362SOL     OW21544   4.188   2.070   8.835  0.2593 -0.1089  0.0864
 3362SOL    HW121545   4.178   2.015   8.912  0.1047  0.6463  0.6034
 3362SOL    HW221546   4.107   2.119   8.843  0.1237 -0.4298  0.6577
 3363SOL     OW21547   3.431   2.602   4.057 -0.3196 -0.5059  0.5362
 3363SOL    HW121548   3.346   2.645   4.063 -0.4383 -0.2865 -2.4232
 3363SOL    HW221549   3.462   2.622   4.145 -1.1171  1.4970  0.3711
 3364SOL     OW21550   1.955   2.213  16.691 -0.1326  0.3133 -0.4110
 3364SOL    HW121551   1.955   2.254  16.605  0.0531  1.2961  0.0509
 3364SOL    HW221552   2.047   2.186  16.694  0.0539  1.1826  2.2397
 3365SOL     OW21553   0.335   4.707   7.878 -0.2812 -0.1823  0.4008
 3365SOL    HW121554   0.341   4.704   7.973 -1.2527  0.9566  0.5053
 3365SOL    HW221555   0.254   4.659   7.860  0.0711 -0.8359  0.5669
 3366SOL     OW21556   0.053   4.552   6.408  0.8475 -0.2965  0.0842
 3366SOL    HW121557   0.004   4.495   6.349 -0.3717  2.2700 -1.3784
 3366SOL    HW221558   4.705   4.584   6.459  1.6651  1.9122 -0.1342
 3367SOL     OW21559   2.770   3.091   5.429  0.1214 -0.1932  0.4105
 3367SOL    HW121560   2.828   3.016   5.425 -1.2016 -1.3351  2.4431
 3367SOL    HW221561   2.695   3.036   5.407  0.0949 -0.9585  2.4301
 3368SOL     OW21562   1.963   3.367  15.244 -0.0491 -0.2265  0.2514
 3368SOL    HW121563   2.048   3.376  15.287  0.1038  0.0423 -0.1030
 3368SOL    HW221564   1.963   3.272  15.237  3.7434 -0.2201 -0.0748
 3369SOL     OW21565   0.102   1.279   3.666 -0.3001 -0.2055  0.2308
 3369SOL    HW121566   0.053   1.330   3.731 -1.0838 -0.1468 -0.4068
 3369SOL    HW221567   0.138   1.346   3.607 -0.8585  0.1038  0.2390
 3370SOL     OW21568   0.837   3.599   6.698 -0.0242  0.4074  0.4780
 3370SOL    HW121569   0.779   3.576   6.770 -1.0061  1.7297  0.1117
 3370SOL    HW221570   0.925   3.570   6.725  0.9797 -0.0448 -3.3533
 3371SOL     OW21571   0.330   4.542  15.814 -0.3249  0.3630  0.1372
 3371SOL    HW121572   0.290   4.628  15.827  0.1730  0.4253  1.2913
 3371SOL    HW221573   0.380   4.570  15.737 -3.4944  0.2743 -1.9421
 3372SOL     OW21574   1.608   4.057  16.131 -0.2276  0.4927  0.3708
 3372SOL    HW121575   1.688   4.102  16.105 -1.6786  1.5691 -2.2212
 3372SOL    HW221576   1.654   3.992  16.184  2.3546 -0.1533 -2.6527
 3373SOL     OW21577   4.640   2.507   5.088  0.1016 -0.2190  0.3709
 3373SOL    HW121578   4.635   2.436   5.152  1.4420 -0.6026  0.0436
 3373SOL    HW221579   4.560   2.488   5.039  1.0376 -0.7099 -0.9571
 3374SOL     OW21580   3.626   2.822  17.684  0.1029  0.0942 -0.0574
 3374SOL    HW121581   3.681   2.791   0.050 -0.1567 -1.6832 -0.6297
 3374SOL    HW221582   3.545   2.805   0.027  0.3062  1.5458  0.7799
 3375SOL     OW21583   3.768   2.332   4.358 -0.2286 -0.0401 -0.2841
 3375SOL    HW121584   3.833   2.289   4.413 -0.8237 -2.8817 -1.8335
 3375SOL    HW221585   3.783   2.289   4.274  0.2320  0.0094 -0.2248
 3376SOL     OW21586   3.855   1.578   3.407 -0.1606 -0.0857  0.3632
 3376SOL    HW121587   3.901   1.501   3.442  1.9009  0.5528 -0.8991
 3376SOL    HW221588   3.789   1.598   3.473 -1.6280 -0.4518 -0.9824
 3377SOL     OW21589   4.145   1.043   1.385  0.4111  0.5148  0.2239
 3377SOL    HW121590   4.069   1.067   1.332  3.2934  0.6140 -3.7602
 3377SOL    HW221591   4.205   0.999   1.325  2.6394  2.8107  0.7598
 3378SOL     OW21592   0.927   4.353  15.859 -0.1928  0.0577  0.1024
 3378SOL    HW121593   0.919   4.448  15.865 -2.1699 -0.0972 -0.3495
 3378SOL    HW221594   0.872   4.338  15.783  1.5822  1.2779 -1.4131
 3379SOL     OW21595   0.352   2.149   8.696 -0.1196  0.0671  0.1774
 3379SOL    HW121596   0.433   2.120   8.738 -1.6362 -1.6227  1.9378
 3379SOL    HW221597   0.314   2.197   8.770  1.5979  1.4630  0.1495
 3380SOL     OW21598   2.008   3.790  11.843 -0.1521  0.1113  0.1898
 3380SOL    HW121599   1.917   3.776  11.818  0.2391 -0.2734 -0.9982
 3380SOL    HW221600   2.045   3.780  11.756  2.3318 -1.2454  1.3987
 3381SOL     OW21601   1.075   4.266   7.101 -0.0517  0.3396  0.7107
 3381SOL    HW121602   1.016   4.340   7.113 -0.1223  0.6737 -1.8596
 3381SOL    HW221603   1.118   4.293   7.020  0.2752 -1.5527  0.2563
 3382SOL     OW21604   3.886   1.192   9.012 -0.1851  0.2951  0.2009
 3382SOL    HW121605   3.888   1.266   9.073  2.6263  1.6019 -1.4604
 3382SOL    HW221606   3.823   1.230   8.951 -0.0160  0.7789  0.3268
 3383SOL     OW21607   4.685   2.858   8.696  0.5422 -0.3457  0.6792
 3383SOL    HW121608   4.641   2.921   8.754 -1.6222  0.2551 -1.5969
 3383SOL    HW221609   4.620   2.788   8.701  0.7992 -0.5743  0.7707
 3384SOL     OW21610   0.169   0.576   5.088  0.0718 -0.4445  0.2344
 3384SOL    HW121611   0.237   0.606   5.028  0.8610 -0.4209  1.1403
 3384SOL    HW221612   0.091   0.599   5.038  1.9446 -0.1350 -2.5584
 3385SOL     OW21613   2.928   1.672  13.344  0.0020 -0.0448 -0.1328
 3385SOL    HW121614   2.949   1.585  13.377  0.2372 -0.6530 -1.9027
 3385SOL    HW221615   2.844   1.685  13.388 -0.2716 -0.5589 -0.5119
 3386SOL     OW21616   1.091   2.238  13.430  0.2680 -0.2073  0.1516
 3386SOL    HW121617   1.124   2.313  13.381  2.0933 -0.9170  0.2868
 3386SOL    HW221618   1.172   2.223  13.479  0.0599  0.4840  0.7010
 3387SOL     OW21619   3.408   0.631  13.548  0.0714 -0.1484  0.6389
 3387SOL    HW121620   3.393   0.644  13.641  0.3191  2.7237  0.2990
 3387SOL    HW221621   3.403   0.724  13.523 -0.2018  0.0729  1.5078
 3388SOL     OW21622   4.655   1.848   4.726 -0.0808  0.1261  0.1410
 3388SOL    HW121623   0.018   1.876   4.704 -0.2663  1.2950  0.8820
 3388SOL    HW221624   4.651   1.860   4.821 -0.6317 -2.3476  0.4324
 3389SOL     OW21625   3.477   4.055   3.677  0.0538  0.3641 -1.1496
 3389SOL    HW121626   3.558   4.009   3.697  0.4941  0.2513 -3.1053
 3389SOL    HW221627   3.487   4.061   3.582  0.5634  3.9718 -0.8726
 3390SOL     OW21628   1.229   2.967   4.400 -0.0131 -0.2738 -0.2711
 3390SOL    HW121629   1.176   3.029   4.451  2.5387 -0.3396  2.4598
 3390SOL    HW221630   1.309   3.014   4.376 -1.3870  1.1113 -2.1263
 3391SOL     OW21631   4.451   2.677   5.212  0.0848 -0.2047  0.1095
 3391SOL    HW121632   4.383   2.672   5.145 -0.4303  0.8051  0.5538
 3391SOL    HW221633   4.524   2.714   5.162  0.0897 -2.0029 -1.1904
 3392SOL     OW21634   3.678   0.901   7.051  0.0185 -0.3802  0.9398
 3392SOL    HW121635   3.768   0.929   7.035 -0.0946 -1.3369 -1.5446
 3392SOL    HW221636   3.633   0.985   7.059  0.0673 -0.1888 -0.7085
 3393SOL     OW21637   0.647   2.111  17.373 -0.3012 -0.1502  0.9433
 3393SOL    HW121638   0.572   2.163  17.347  0.3623 -0.1315 -0.9298
 3393SOL    HW221639   0.594   2.038  17.403 -0.4726 -0.1081  0.7454
 3394SOL     OW21640   4.126   1.229  16.536 -0.1814  0.3500 -0.0407
 3394SOL    HW121641   4.130   1.175  16.615  0.2596  1.7213  0.8938
 3394SOL    HW221642   4.040   1.270  16.545 -1.3642 -1.7577 -1.9186
 3395SOL     OW21643   4.064   0.896  17.152  0.0745  0.1142  0.0792
 3395SOL    HW121644   4.037   0.808  17.181  2.6111 -0.9751 -0.9068
 3395SOL    HW221645   4.054   0.939  17.237  0.2269 -1.5355  0.9406
 3396SOL     OW21646   2.730   1.309   5.531  0.6343  0.2324  0.1989
 3396SOL    HW121647   2.739   1.349   5.445  2.0009 -0.0777  0.1847
 3396SOL    HW221648   2.788   1.232   5.530  0.2423 -0.0949  2.3181
 3397SOL     OW21649   3.679   3.437   5.681  0.1735  0.4597  0.0628
 3397SOL    HW121650   3.622   3.361   5.667 -0.3501  1.0279 -0.8795
 3397SOL    HW221651   3.656   3.447   5.773 -1.3393 -0.7765 -0.1844
 3398SOL     OW21652   1.824   2.094  12.666  0.0427  0.3673 -0.2530
 3398SOL    HW121653   1.785   2.014  12.630  2.1183 -1.3215  1.1921
 3398SOL    HW221654   1.916   2.080  12.643  0.9719  1.6814  2.7553
 3399SOL     OW21655   0.751   1.569   7.494 -0.4343  0.1753  0.0420
 3399SOL    HW121656   0.714   1.480   7.492 -1.1477  0.4622  0.6467
 3399SOL    HW221657   0.687   1.619   7.444 -1.3780 -0.4598  0.6294
 3400SOL     OW21658   0.509   3.381  13.532 -0.4459 -0.0482 -0.1067
 3400SOL    HW121659   0.470   3.439  13.597  0.7247  1.6083 -0.8962
 3400SOL    HW221660   0.557   3.452  13.490  0.1134 -1.3846 -1.6956
 3401SOL     OW21661   3.628   2.783  13.652  0.1357 -0.0997  0.4907
 3401SOL    HW121662   3.687   2.809  13.723  1.7432 -1.3776 -0.3848
 3401SOL    HW221663   3.649   2.851  13.588  0.7232 -0.3992  0.3658
 3402SOL     OW21664   4.005   1.305   2.055  0.1458 -0.6809 -0.3830
 3402SOL    HW121665   4.061   1.254   2.113 -1.7631  0.7411  2.7710
 3402SOL    HW221666   3.987   1.246   1.982 -1.7354 -1.2564  0.5436
 3403SOL     OW21667   1.173   4.136  13.908  0.4966  0.0383 -0.1945
 3403SOL    HW121668   1.117   4.202  13.950  1.4095 -0.6907  2.1748
 3403SOL    HW221669   1.208   4.090  13.984  2.5759  1.0419 -0.5323
 3404SOL     OW21670   3.254   1.484   9.027 -0.1748 -0.8246  0.3706
 3404SOL    HW121671   3.304   1.403   9.036  0.4805 -0.2420  1.8355
 3404SOL    HW221672   3.305   1.527   8.958 -0.3779 -2.2426 -0.6787
 3405SOL     OW21673   0.676   1.375  14.453  0.2831  0.4283 -0.5772
 3405SOL    HW121674   0.632   1.400  14.372 -3.2123 -0.1421  1.1466
 3405SOL    HW221675   0.599   1.369  14.509  0.4835 -0.2477 -0.3760
 3406SOL     OW21676   1.999   2.978   0.888 -0.4102 -0.3400 -0.3243
 3406SOL    HW121677   2.054   2.984   0.966  1.3002  2.0666 -1.7078
 3406SOL    HW221678   1.939   3.048   0.914 -0.0144  0.3624 -1.2925
 3407SOL     OW21679   2.688   1.232  15.503  0.3755  0.0410 -0.4888
 3407SOL    HW121680   2.772   1.193  15.527  0.4420 -2.0446 -4.0042
 3407SOL    HW221681   2.704   1.314  15.456  0.6821 -0.6435 -1.5892
 3408SOL     OW21682   1.818   4.708   2.963  0.0618 -0.6392  0.2971
 3408SOL    HW121683   1.808   0.077   2.966  1.6947 -0.5209  1.8603
 3408SOL    HW221684   1.894   4.695   3.020 -0.5442  3.3412  2.0002
 3409SOL     OW21685   4.566   0.855   3.756  0.6114 -0.1081 -0.3668
 3409SOL    HW121686   4.650   0.846   3.710 -0.3024 -1.4312 -1.7842
 3409SOL    HW221687   4.520   0.771   3.748  1.9898 -0.7641 -1.4473
 3410SOL     OW21688   1.107   4.165  13.187 -0.3587 -0.1962  0.6695
 3410SOL    HW121689   1.162   4.136  13.260  0.8782  0.4641  0.0102
 3410SOL    HW221690   1.068   4.246  13.222 -1.8593 -1.0659  0.9978
 3411SOL     OW21691   4.024   3.990   9.597  0.5752 -0.1629 -0.2983
 3411SOL    HW121692   3.998   4.074   9.634  0.6308 -0.5483  0.6212
 3411SOL    HW221693   4.120   3.987   9.588  0.7737  0.4080  1.5584
 3412SOL     OW21694   0.037   3.399  15.451  0.4198 -0.1865  0.1629
 3412SOL    HW121695   0.094   3.453  15.505  0.2019  0.1670  0.0378
 3412SOL    HW221696   0.068   3.312  15.477  2.1183 -0.6202 -3.2274
 3413SOL     OW21697   0.286   0.041  15.265 -0.3789 -0.6581  0.3346
 3413SOL    HW121698   0.232   0.110  15.304 -1.3291 -0.6657 -0.9777
 3413SOL    HW221699   0.234   0.016  15.189  1.4552 -0.4523 -0.9811
 3414SOL     OW21700   3.080   4.530   2.891  0.6026  0.1848 -0.2150
 3414SOL    HW121701   3.163   4.572   2.868  1.0999 -0.8499 -0.3177
 3414SOL    HW221702   3.079   4.477   2.971  1.5151  1.3849  0.6074
 3415SOL     OW21703   2.795   1.809  14.984  0.3405  0.1272 -1.0558
 3415SOL    HW121704   2.750   1.821  14.899 -1.5805  1.8291  0.1917
 3415SOL    HW221705   2.750   1.862  15.050  0.5112 -0.3058 -0.5958
 3416SOL     OW21706   3.554   3.470   0.806 -0.1454 -0.3422  0.0284
 3416SOL    HW121707   3.536   3.426   0.889 -1.3115 -0.3311 -0.2127
 3416SOL    HW221708   3.645   3.499   0.813  0.1397 -1.4088  0.7488
 3417SOL     OW21709   4.428   1.669   5.513  0.0890 -0.1585 -0.0176
 3417SOL    HW121710   4.470   1.718   5.584 -1.7394 -2.5462  2.7349
 3417SOL    HW221711   4.353   1.724   5.493 -1.3335 -1.9532  0.3602
 3418SOL     OW21712   3.881   1.361   6.220  0.0473 -0.0635 -0.4085
 3418SOL    HW121713   3.895   1.267   6.237  0.4719  0.1377  0.3612
 3418SOL    HW221714   3.805   1.370   6.277 -0.0405  0.0664 -0.5465
 3419SOL     OW21715   0.123   3.513   2.871  0.9948 -0.2772 -0.2299
 3419SOL    HW121716   0.036   3.497   2.834  0.4356  1.4453  0.3385
 3419SOL    HW221717   0.145   3.597   2.831  2.7572  0.2422  1.7836
 3420SOL     OW21718   4.614   2.871   8.422  0.2125  0.0771 -0.4023
 3420SOL    HW121719   4.629   2.884   8.516 -0.5937  1.1920 -0.4218
 3420SOL    HW221720   4.527   2.832   8.415  0.5085 -0.1607 -2.7403
 3421SOL     OW21721   0.581   3.456   9.301  0.2572  1.1941 -0.0023
 3421SOL    HW121722   0.654   3.496   9.348 -0.6318 -0.2902  2.6873
 3421SOL    HW221723   0.526   3.533   9.286 -2.4410 -0.5727  0.7596
 3422SOL     OW21724   3.530   1.956   4.199  0.6546  0.3184 -0.6711
 3422SOL    HW121725   3.590   1.899   4.246  0.0386 -0.1438 -0.4530
 3422SOL    HW221726   3.596   2.021   4.172  0.8616  0.2094 -0.4301
 3423SOL     OW21727   0.311   1.898   3.744  0.0687  0.0884 -0.4076
 3423SOL    HW121728   0.236   1.924   3.798 -0.8779 -0.4227 -1.4753
 3423SOL    HW221729   0.328   1.805   3.757  0.4653  0.2255  0.0489
 3424SOL     OW21730   2.427   0.967   8.551  0.2470 -0.3783 -0.3936
 3424SOL    HW121731   2.439   0.990   8.643 -1.6352 -1.0666  0.0466
 3424SOL    HW221732   2.518   0.960   8.523  0.5895  0.3569  0.5338
 3425SOL     OW21733   3.642   0.998   3.133 -0.1077  0.0922  0.3807
 3425SOL    HW121734   3.722   0.946   3.126  0.2099  0.2665  2.9983
 3425SOL    HW221735   3.618   1.025   3.044  0.2288 -1.3359 -0.1474
 3426SOL     OW21736   2.785   3.260   9.442 -0.4549 -0.1955 -0.3398
 3426SOL    HW121737   2.857   3.221   9.392  0.1870 -0.5339  0.8658
 3426SOL    HW221738   2.708   3.242   9.387 -1.0299 -0.3368  0.5072
 3427SOL     OW21739   2.297   1.221   8.639 -0.1426 -0.1274  0.4291
 3427SOL    HW121740   2.248   1.154   8.686 -2.2982  0.7345 -0.6075
 3427SOL    HW221741   2.326   1.172   8.563 -1.4773  2.6126 -1.8225
 3428SOL     OW21742   1.695   2.366  13.077 -0.0309  0.2575  0.7142
 3428SOL    HW121743   1.751   2.349  13.153 -0.5616  2.1313  1.5308
 3428SOL    HW221744   1.695   2.283  13.030 -0.3652  0.8796 -0.3878
 3429SOL     OW21745   0.858   2.926   0.469 -0.1970  0.2387 -0.5151
 3429SOL    HW121746   0.938   2.963   0.507 -0.6108 -0.6357  1.2150
 3429SOL    HW221747   0.856   2.841   0.513 -1.6804  0.0172 -1.0289
 3430SOL     OW21748   1.016   4.217   7.477 -0.4140 -0.6037  0.1541
 3430SOL    HW121749   1.021   4.171   7.561 -0.1879  0.0013  0.4713
 3430SOL    HW221750   1.094   4.191   7.429  0.3697 -0.7837  1.5325
 3431SOL     OW21751   0.394   2.303   6.188 -0.1127  0.1380  0.1447
 3431SOL    HW121752   0.428   2.327   6.273  0.9189 -0.7011 -0.0407
 3431SOL    HW221753   0.436   2.376   6.144 -2.0896  1.7653  0.9638
 3432SOL     OW21754   2.158   3.211  11.457 -0.4255  0.2680 -0.1052
 3432SOL    HW121755   2.161   3.264  11.537  3.1548  0.4439 -0.3506
 3432SOL    HW221756   2.131   3.122  11.477 -0.0329  0.3695  0.8566
 3433SOL     OW21757   3.537   2.001   6.256  0.6868 -0.4967  0.0843
 3433SOL    HW121758   3.580   2.004   6.170  1.2195 -2.0628  0.2960
 3433SOL    HW221759   3.489   1.918   6.254 -0.3335  0.0919  0.2803
 3434SOL     OW21760   1.625   0.848   3.657  0.4697  0.2997 -0.1707
 3434SOL    HW121761   1.582   0.925   3.696 -0.5735 -0.3957  0.0640
 3434SOL    HW221762   1.615   0.783   3.727  1.0492  1.5732  1.0979
 3435SOL     OW21763   2.542   4.024  15.254 -0.5226  0.1294  0.5666
 3435SOL    HW121764   2.573   4.072  15.178  0.5008  0.5936  1.2806
 3435SOL    HW221765   2.609   3.956  15.260 -0.8299 -0.2570 -0.3845
 3436SOL     OW21766   1.690   4.096   8.244  0.4129  0.2453  0.6079
 3436SOL    HW121767   1.688   4.078   8.338 -0.3454  0.0877  0.5634
 3436SOL    HW221768   1.620   4.161   8.254 -0.6292 -1.1091  1.9643
 3437SOL     OW21769   0.072   0.289   9.379 -0.3514  0.6281  0.3796
 3437SOL    HW121770   0.021   0.222   9.332 -1.5026 -0.0327  2.5766
 3437SOL    HW221771   0.140   0.313   9.316 -1.6386  0.0130 -1.2610
 3438SOL     OW21772   2.276   4.333  15.618 -0.2335 -0.3936  0.4797
 3438SOL    HW121773   2.218   4.304  15.548 -0.9189 -1.1967  1.3772
 3438SOL    HW221774   2.244   4.422  15.636  1.5641  0.2628  0.4071
 3439SOL     OW21775   1.074   4.036   4.294  0.1150  0.9802  0.2562
 3439SOL    HW121776   0.996   4.076   4.254 -0.5795  1.2608  1.8856
 3439SOL    HW221777   1.052   4.039   4.387 -1.1850 -1.2082  0.0355
 3440SOL     OW21778   1.556   4.022   3.925  0.0936  0.5051 -0.8388
 3440SOL    HW121779   1.557   4.056   4.014  1.3600 -0.6852 -0.4086
 3440SOL    HW221780   1.514   4.097   3.881  0.8779  0.1942 -2.1427
 3441SOL     OW21781   2.357   1.296  16.763 -0.1999  0.7517 -0.0484
 3441SOL    HW121782   2.331   1.267  16.850  0.6445  2.8116  0.8785
 3441SOL    HW221783   2.449   1.267  16.768 -1.2940 -2.5766  1.0487
 3442SOL     OW21784   1.225   4.658   5.810 -0.4691 -0.2246  0.1700
 3442SOL    HW121785   1.221   4.563   5.794  1.6613 -0.0815 -1.0763
 3442SOL    HW221786   1.307   4.662   5.859 -0.8261 -1.8185  0.9267
 3443SOL     OW21787   4.008   2.365   9.543  0.1855 -0.3436 -0.0192
 3443SOL    HW121788   4.094   2.346   9.504  0.8523 -0.7614  1.6561
 3443SOL    HW221789   4.029   2.397   9.631 -0.4507 -2.3567  0.8715
 3444SOL     OW21790   0.222   0.104  14.124 -0.7068 -0.0314 -0.0898
 3444SOL    HW121791   0.276   0.025  14.131 -3.1987 -1.8875 -1.4760
 3444SOL    HW221792   0.220   0.095  14.028  2.7990 -0.4955 -0.1304
 3445SOL     OW21793   1.244   3.398   4.432 -0.1472 -0.4589  0.3825
 3445SOL    HW121794   1.174   3.463   4.430  0.1841 -0.1700 -1.5606
 3445SOL    HW221795   1.294   3.426   4.355 -0.8231 -1.5205 -0.4437
 3446SOL     OW21796   1.048   2.559  14.503  0.6064 -0.4780  0.1270
 3446SOL    HW121797   1.130   2.523  14.537  0.9428 -0.0594 -0.2475
 3446SOL    HW221798   1.088   2.603  14.429  0.3986 -2.5669 -1.2233
 3447SOL     OW21799   0.936   2.085   2.631  1.0994 -0.0561 -0.0577
 3447SOL    HW121800   0.959   2.153   2.693  0.0251 -1.0530  1.4348
 3447SOL    HW221801   0.868   2.037   2.679 -1.1507  2.9227 -0.3136
 3448SOL     OW21802   1.733   3.765   9.347 -0.1777  0.6928  0.6353
 3448SOL    HW121803   1.717   3.824   9.273  0.6815  1.7387  1.2814
 3448SOL    HW221804   1.648   3.771   9.392 -0.3817 -0.1587  0.3732
 3449SOL     OW21805   3.382   1.911   0.762  0.0137  0.2539  0.4309
 3449SOL    HW121806   3.472   1.884   0.778 -0.0458 -0.0555  0.2322
 3449SOL    HW221807   3.390   1.937   0.670 -0.7215  0.5734  0.4552
 3450SOL     OW21808   0.513   2.921   7.236  0.1713 -0.0045  0.7013
 3450SOL    HW121809   0.445   2.890   7.295 -0.7692 -1.3534 -1.1021
 3450SOL    HW221810   0.548   2.836   7.208  2.6367  1.6841 -1.3935
 3451SOL     OW21811   2.551   1.594   1.106  0.5501 -0.9058  0.0431
 3451SOL    HW121812   2.476   1.538   1.125 -0.6670  1.5024  2.3804
 3451SOL    HW221813   2.501   1.676   1.108 -0.7604 -1.6635 -1.9851
 3452SOL     OW21814   2.823   3.698   5.653  0.0829 -0.0759  0.2556
 3452SOL    HW121815   2.797   3.619   5.699 -0.4619  0.9207  1.6374
 3452SOL    HW221816   2.768   3.759   5.701  0.1197  0.2807 -0.1476
 3453SOL     OW21817   1.402   1.724   3.099  0.1314 -0.3265  0.4311
 3453SOL    HW121818   1.377   1.816   3.101  1.4566  0.0332  0.2415
 3453SOL    HW221819   1.472   1.729   3.164  2.8337  1.0073 -2.5871
 3454SOL     OW21820   1.384   2.361  14.235 -0.5284  0.6219 -0.2199
 3454SOL    HW121821   1.302   2.316  14.217 -0.2917  0.7480 -1.5979
 3454SOL    HW221822   1.372   2.382  14.328 -2.0846 -2.8974  0.3527
 3455SOL     OW21823   3.529   1.662  15.544  0.0161 -0.3061  0.1681
 3455SOL    HW121824   3.525   1.570  15.517 -0.0323  0.1749 -1.4392
 3455SOL    HW221825   3.624   1.670  15.540  0.1579 -0.6519  2.6127
 3456SOL     OW21826   0.990   1.495  16.297 -0.0134 -0.4415 -0.6298
 3456SOL    HW121827   1.032   1.411  16.280  0.1856 -0.1452 -1.5909
 3456SOL    HW221828   0.951   1.509  16.210  1.6216  1.0296 -1.1193
 3457SOL     OW21829   1.788   3.046   7.560 -0.4528  0.1771 -0.1874
 3457SOL    HW121830   1.813   2.984   7.490 -2.1459  0.4679 -1.0637
 3457SOL    HW221831   1.782   2.986   7.634 -0.0936 -1.5978 -1.5761
 3458SOL     OW21832   0.519   3.932   4.181 -0.2520  0.2063 -0.2218
 3458SOL    HW121833   0.552   3.978   4.103 -0.5041  0.6265 -0.0784
 3458SOL    HW221834   0.442   3.898   4.135  1.0640 -3.1181 -0.0140
 3459SOL     OW21835   3.535   0.542  14.493 -0.7518  0.3171 -0.1736
 3459SOL    HW121836   3.512   0.577  14.580  1.9355  0.6162  0.4320
 3459SOL    HW221837   3.478   0.592  14.435 -0.1568 -0.1439 -1.1551
 3460SOL     OW21838   4.682   1.063   7.942 -0.1622  0.8728 -0.1579
 3460SOL    HW121839   4.605   1.119   7.944  1.1284  2.5180  2.7443
 3460SOL    HW221840   4.663   1.010   7.864  1.5817 -1.6852  1.1520
 3461SOL     OW21841   3.253   0.430  13.399  0.3060 -0.4300  0.0126
 3461SOL    HW121842   3.255   0.457  13.308 -0.5924 -0.5414 -0.0332
 3461SOL    HW221843   3.308   0.498  13.438  2.5425 -1.1360 -1.8967
 3462SOL     OW21844   1.774   1.996  13.809 -0.2935  0.8916  0.1000
 3462SOL    HW121845   1.698   1.947  13.840  1.0617 -1.9931 -1.1940
 3462SOL    HW221846   1.767   2.068  13.872  1.8252 -0.2687  1.6752
 3463SOL     OW21847   3.100   2.293   3.679  0.4680  0.1969  0.8188
 3463SOL    HW121848   3.157   2.314   3.753 -0.8891  2.2149  1.2827
 3463SOL    HW221849   3.080   2.380   3.645 -1.0851 -1.0061 -1.3531
 3464SOL     OW21850   1.734   0.579   4.873  0.5238 -0.1124  0.6106
 3464SOL    HW121851   1.821   0.602   4.904  0.8933 -2.4085  1.3133
 3464SOL    HW221852   1.733   0.616   4.785  1.1123 -2.0980 -0.2169
 3465SOL     OW21853   3.438   2.413   2.259  0.1075 -0.2261  0.4773
 3465SOL    HW121854   3.352   2.372   2.261  0.4719 -0.9116  2.4618
 3465SOL    HW221855   3.409   2.494   2.217  2.4591  2.2249  3.5601
 3466SOL     OW21856   3.777   4.405  10.879  0.7231  0.0684 -0.3642
 3466SOL    HW121857   3.830   4.326  10.890 -0.7630 -0.7034  1.2511
 3466SOL    HW221858   3.790   4.418  10.785  0.7040 -1.5325 -0.5928
 3467SOL     OW21859   3.887   0.974  14.915  0.3507  0.0668  0.1011
 3467SOL    HW121860   3.884   1.048  14.855 -2.3420  0.9794  1.3374
 3467SOL    HW221861   3.837   0.912  14.862  0.2523  1.6834 -1.6958
 3468SOL     OW21862   2.482   0.790  11.104  0.5678  0.0629 -0.2904
 3468SOL    HW121863   2.513   0.774  11.193 -2.6695 -0.5751  0.7245
 3468SOL    HW221864   2.562   0.772  11.055  1.1580  0.5334  0.5074
 3469SOL     OW21865   3.375   4.491   3.195 -0.6711  0.0549  0.3037
 3469SOL    HW121866   3.329   4.570   3.223 -0.2048  0.4155  0.0618
 3469SOL    HW221867   3.467   4.509   3.216 -0.4197 -0.2785 -0.5162
 3470SOL     OW21868   0.515   2.942  17.534  0.2639 -0.3356  0.3260
 3470SOL    HW121869   0.474   2.938  17.620  0.6952  1.2566  0.6135
 3470SOL    HW221870   0.440   2.908  17.485 -0.5132  0.7889  0.7299
 3471SOL     OW21871   4.217   3.191   6.587  0.4755 -0.0836  0.2380
 3471SOL    HW121872   4.258   3.142   6.516  0.2132 -0.6314  0.4651
 3471SOL    HW221873   4.278   3.171   6.658  0.7780  1.9488  0.5441
 3472SOL     OW21874   0.140   0.106   3.172 -0.0761  0.2639  0.3119
 3472SOL    HW121875   0.066   0.047   3.185  1.7288 -1.9681  0.3272
 3472SOL    HW221876   0.159   0.083   3.081  0.5206 -0.2350  0.5653
 3473SOL     OW21877   0.212   0.701   4.585  0.2937 -0.0323 -0.2881
 3473SOL    HW121878   0.164   0.644   4.644 -0.7444  0.6947 -0.4193
 3473SOL    HW221879   0.238   0.782   4.628  0.3356  0.4335 -1.1765
 3474SOL     OW21880   1.984   3.409   6.213 -0.0913  0.5610 -0.0644
 3474SOL    HW121881   1.900   3.376   6.246  0.9239 -0.7406  1.2289
 3474SOL    HW221882   2.015   3.475   6.275 -2.9745  1.6322  0.2623
 3475SOL     OW21883   0.342   1.467   3.116  0.0501  0.0047  0.9352
 3475SOL    HW121884   0.326   1.538   3.054 -1.8019 -1.8079 -0.6964
 3475SOL    HW221885   0.438   1.468   3.120  0.1336 -1.9393 -0.1253
 3476SOL     OW21886   3.733   3.579   8.658 -0.2016  0.6262  0.6555
 3476SOL    HW121887   3.645   3.604   8.687 -1.1147 -0.6836 -1.0627
 3476SOL    HW221888   3.739   3.485   8.672  0.0624  0.5261 -0.1435
 3477SOL     OW21889   1.334   2.916   8.309  0.4911  0.2398  0.5805
 3477SOL    HW121890   1.251   2.935   8.353  0.8185  0.3968  1.1334
 3477SOL    HW221891   1.396   2.918   8.382  0.8178 -1.2589  0.3631
 3478SOL     OW21892   3.838   1.862  16.618  0.5413 -0.4084  0.5259
 3478SOL    HW121893   3.803   1.790  16.669  1.0797 -0.5971  0.6314
 3478SOL    HW221894   3.926   1.831  16.595 -0.3665 -3.2502  0.9441
 3479SOL     OW21895   3.264   4.402   4.176 -0.6155  0.5647  0.2276
 3479SOL    HW121896   3.268   4.355   4.259 -0.7640 -1.3851 -0.8776
 3479SOL    HW221897   3.357   4.410   4.157 -1.1246 -0.2073 -2.5691
 3480SOL     OW21898   1.465   1.544   5.423  0.1504 -0.1520  0.7360
 3480SOL    HW121899   1.544   1.551   5.370 -1.1077 -0.8200 -1.2104
 3480SOL    HW221900   1.509   1.499   5.495  1.3528 -1.5013 -0.8663
 3481SOL     OW21901   4.066   2.221   1.875  0.0247  0.5874 -0.0456
 3481SOL    HW121902   4.063   2.250   1.966  1.2142 -1.8321  0.7641
 3481SOL    HW221903   4.098   2.301   1.832  0.1912  0.7785  0.4396
 3482SOL     OW21904   4.324   2.070   7.107  0.7277  0.2843 -0.2010
 3482SOL    HW121905   4.245   2.034   7.146  0.5341 -2.4942 -3.1667
 3482SOL    HW221906   4.283   2.109   7.030 -3.5307 -2.1728  0.8291
 3483SOL     OW21907   3.140   2.865   4.603 -0.4052 -0.4008 -0.0629
 3483SOL    HW121908   3.113   2.777   4.579  0.7085 -1.1562  1.4702
 3483SOL    HW221909   3.221   2.846   4.651 -0.3721 -0.6940 -0.2338
 3484SOL     OW21910   4.150   2.912   7.964  0.2999 -0.0420 -0.0762
 3484SOL    HW121911   4.152   2.839   7.902  2.5721 -0.6924  0.7699
 3484SOL    HW221912   4.171   2.985   7.905 -0.6427  2.5638  2.8039
 3485SOL     OW21913   3.246   1.355  12.013  0.4078 -0.0909  0.3458
 3485SOL    HW121914   3.226   1.263  12.026  0.4400  0.0694  1.5580
 3485SOL    HW221915   3.157   1.392  12.008  0.1260 -0.8304 -0.0737
 3486SOL     OW21916   1.060   0.191   1.498  0.2358  0.4612  0.3601
 3486SOL    HW121917   0.965   0.181   1.504  0.2017 -1.2949 -3.4101
 3486SOL    HW221918   1.075   0.258   1.565 -3.3753  1.6673 -0.0120
 3487SOL     OW21919   1.391   2.313   4.884  0.5282  0.3085  0.1814
 3487SOL    HW121920   1.483   2.291   4.869  0.6720 -0.2983  1.9154
 3487SOL    HW221921   1.396   2.409   4.884  0.8362  0.2916  0.3420
 3488SOL     OW21922   2.748   4.388   5.201  0.2371  0.5346 -0.4032
 3488SOL    HW121923   2.798   4.312   5.171 -0.5988  0.2684 -1.1273
 3488SOL    HW221924   2.675   4.369   5.141  0.2559  1.0218 -0.5811
 3489SOL     OW21925   4.244   3.722   4.931 -0.8473  0.2851 -0.2166
 3489SOL    HW121926   4.339   3.730   4.944 -0.9293  1.5636 -0.3794
 3489SOL    HW221927   4.231   3.682   4.845  1.9650  2.7268 -1.8001
 3490SOL     OW21928   0.645   3.766   4.356 -0.6007  0.0809  0.1750
 3490SOL    HW121929   0.598   3.832   4.305 -1.8575 -0.4923  0.5926
 3490SOL    HW221930   0.680   3.830   4.419  0.2631  0.0515 -0.2690
 3491SOL     OW21931   3.479   0.637   6.302 -0.8106 -0.0799  0.0407
 3491SOL    HW121932   3.433   0.647   6.385  0.6209 -3.8142  1.2810
 3491SOL    HW221933   3.475   0.542   6.303  0.8806 -0.1653 -2.6228
 3492SOL     OW21934   3.500   1.232   8.543  0.0140 -0.2279 -0.4010
 3492SOL    HW121935   3.497   1.280   8.626 -1.2110 -1.2699  0.1638
 3492SOL    HW221936   3.447   1.156   8.567  0.0035  0.2867  1.2487
 3493SOL     OW21937   0.297   1.158  15.649  0.0474 -0.1299 -0.2306
 3493SOL    HW121938   0.365   1.217  15.682 -1.3701  3.2307 -3.2278
 3493SOL    HW221939   0.233   1.224  15.621  0.0434 -0.2520 -0.5064
 3494SOL     OW21940   1.368   1.142   7.651 -0.2182 -0.7583  0.5798
 3494SOL    HW121941   1.398   1.080   7.584  2.9259  1.7179 -0.3071
 3494SOL    HW221942   1.449   1.173   7.691 -0.2395 -1.0735  0.8592
 3495SOL     OW21943   2.284   2.625   3.772  0.0721  0.4138  0.0690
 3495SOL    HW121944   2.309   2.671   3.692 -0.6175  0.8066  0.0822
 3495SOL    HW221945   2.244   2.547   3.734  0.7384  1.0944 -2.0349
 3496SOL     OW21946   1.397   4.261   7.041 -0.4184 -0.0745  0.2046
 3496SOL    HW121947   1.421   4.328   6.977 -0.4754  0.3489  0.6226
 3496SOL    HW221948   1.375   4.325   7.109 -1.5173 -0.1002 -0.1302
 3497SOL     OW21949   0.913   1.748   2.746 -0.0416  0.1535  0.0957
 3497SOL    HW121950   0.945   1.658   2.759  1.1087  0.8191  1.9288
 3497SOL    HW221951   1.000   1.785   2.760 -0.4073  0.5041  1.4263
 3498SOL     OW21952   1.917   4.050   8.814  0.2737  0.5434  0.0051
 3498SOL    HW121953   1.939   4.012   8.899 -0.3618 -0.5583 -0.3199
 3498SOL    HW221954   1.822   4.053   8.806  0.2681  0.5309  0.0625
 3499SOL     OW21955   3.983   1.606   6.121 -0.0636 -0.5623  0.0636
 3499SOL    HW121956   3.936   1.531   6.157 -0.3209 -0.4844 -0.1113
 3499SOL    HW221957   4.070   1.593   6.160  0.6526  1.9391 -0.7170
 3500SOL     OW21958   1.374   1.427  11.162  0.1985 -0.1581  0.1671
 3500SOL    HW121959   1.280   1.432  11.174 -0.0878 -3.4332 -0.7013
 3500SOL    HW221960   1.391   1.518  11.137  1.2394 -0.4087 -0.0750
 3501SOL     OW21961   1.383   1.813   2.796  0.1476 -0.3344  0.0081
 3501SOL    HW121962   1.461   1.797   2.849  0.7225  0.1845 -0.6834
 3501SOL    HW221963   1.322   1.835   2.866 -0.4743 -2.0608  0.0142
 3502SOL     OW21964   4.024   3.335   9.353  0.8156 -0.0673  0.2234
 3502SOL    HW121965   3.975   3.374   9.426 -0.2137 -1.7451  0.4287
 3502SOL    HW221966   3.959   3.284   9.304 -1.3757  1.2039  1.7782
 3503SOL     OW21967   3.921   3.774  12.848 -0.0202 -0.0263 -0.4724
 3503SOL    HW121968   3.997   3.718  12.831 -0.4199 -1.2124  1.6160
 3503SOL    HW221969   3.875   3.751  12.767 -0.0868  0.0459 -0.4541
 3504SOL     OW21970   1.128   2.213   0.713  0.2930 -0.1919 -0.0165
 3504SOL    HW121971   1.042   2.212   0.755  0.2883  0.2238 -0.0142
 3504SOL    HW221972   1.185   2.221   0.790 -0.6837 -0.3681  0.7305
 3505SOL     OW21973   1.880   0.025   7.970 -0.3139 -0.0519  0.0475
 3505SOL    HW121974   1.972   0.049   7.975 -0.8089  2.0746 -1.0332
 3505SOL    HW221975   1.868   4.685   7.902  0.5251 -0.1477 -0.0111
 3506SOL     OW21976   3.892   3.141   8.896 -0.1387  0.2368 -0.6885
 3506SOL    HW121977   3.807   3.174   8.924  0.0111 -0.8865  1.0370
 3506SOL    HW221978   3.865   3.059   8.856  1.8656  0.0733 -1.7379
 3507SOL     OW21979   0.167   4.415   9.788 -0.9472 -0.4513 -0.2735
 3507SOL    HW121980   0.079   4.386   9.762 -0.8486 -2.0680  1.2200
 3507SOL    HW221981   0.164   4.502   9.747 -0.0543 -0.9634 -1.3921
 3508SOL     OW21982   0.185   1.094   2.553  0.3430 -0.1069  0.3720
 3508SOL    HW121983   0.130   1.125   2.625  1.0298 -1.1438  1.3558
 3508SOL    HW221984   0.263   1.070   2.603  0.4059  0.1446  0.3913
 3509SOL     OW21985   4.655   1.063   2.388 -0.2151 -0.2585  0.1886
 3509SOL    HW121986   0.004   1.099   2.435 -0.0503 -1.5085  0.8978
 3509SOL    HW221987   4.662   0.974   2.423  1.2898 -0.2602 -0.0861
 3510SOL     OW21988   1.037   4.285   7.864  0.2885  0.4872 -0.5547
 3510SOL    HW121989   0.987   4.297   7.783 -0.1564 -0.6580 -0.4529
 3510SOL    HW221990   0.975   4.317   7.930  0.8460 -0.7773  0.5822
 3511SOL     OW21991   4.241   1.946   7.981 -0.3227 -0.1409  0.5525
 3511SOL    HW121992   4.175   1.978   8.042 -0.7630 -1.4375  0.7514
 3511SOL    HW221993   4.264   1.872   8.037  1.7553 -0.9933 -1.4450
 3512SOL     OW21994   0.339   3.329  13.324 -0.3431  0.1082 -0.0283
 3512SOL    HW121995   0.394   3.316  13.401  0.4621 -1.3057 -0.8318
 3512SOL    HW221996   0.401   3.357  13.256 -1.5398 -1.2013 -1.6400
 3513SOL     OW21997   0.391   3.981   2.702  0.3328 -0.2776 -0.4339
 3513SOL    HW121998   0.351   3.895   2.720 -3.5533  2.1494  2.6350
 3513SOL    HW221999   0.312   4.035   2.701 -0.1977 -1.0163  2.4855
 3514SOL     OW22000   3.478   3.840   2.802 -0.3842 -0.0265  0.7210
 3514SOL    HW122001   3.445   3.855   2.891 -0.5099  0.1825  0.6372
 3514SOL    HW222002   3.436   3.756   2.783 -0.4268  0.6133 -1.9949
 3515SOL     OW22003   3.419   4.254   6.572 -0.1924 -0.0289  0.1177
 3515SOL    HW122004   3.426   4.330   6.514  1.3331 -0.7291 -0.6188
 3515SOL    HW222005   3.444   4.185   6.510  2.6723 -0.0411  1.3271
 3516SOL     OW22006   0.214   4.402   7.503 -0.0662 -0.8308  0.6919
 3516SOL    HW122007   0.226   4.456   7.581  0.4987 -0.9838  0.7118
 3516SOL    HW222008   0.141   4.447   7.461  1.0275  1.5035  1.3049
 3517SOL     OW22009   1.916   0.713   4.318  0.3747 -0.3296  0.8337
 3517SOL    HW122010   1.907   0.791   4.263  0.8826 -0.3327  0.7530
 3517SOL    HW222011   1.992   0.672   4.277  1.4138  1.0661  1.3935
 3518SOL     OW22012   4.593   2.468   7.442 -0.9545  0.2855 -0.3539
 3518SOL    HW122013   4.643   2.547   7.459 -0.1765 -0.5528  1.2293
 3518SOL    HW222014   4.668   2.411   7.457 -3.1509 -1.9846  1.8909
 3519SOL     OW22015   4.428   2.172   8.798  0.2117  0.1098 -0.6680
 3519SOL    HW122016   4.347   2.124   8.817  1.0119 -1.2942 -0.8001
 3519SOL    HW222017   4.495   2.108   8.775  1.4207  1.6216 -1.3130
 3520SOL     OW22018   1.539   0.732   7.215 -0.0370 -0.2234  0.4914
 3520SOL    HW122019   1.557   0.641   7.239  2.8295  0.2615  0.2182
 3520SOL    HW222020   1.627   0.769   7.206  0.1582 -1.4669 -2.7019
 3521SOL     OW22021   0.375   4.639   1.644 -0.4482  0.6030 -0.3593
 3521SOL    HW122022   0.286   4.607   1.634 -0.4551  0.6587 -0.4709
 3521SOL    HW222023   0.360   4.679   1.730 -1.5155 -1.5160  0.4393
 3522SOL     OW22024   1.219   0.616   3.643 -0.2281  0.2444  0.3411
 3522SOL    HW122025   1.247   0.659   3.723  0.1831 -0.1601  0.4114
 3522SOL    HW222026   1.128   0.594   3.664  0.0049 -0.3034  0.7618
 3523SOL     OW22027   2.279   3.877   9.074 -0.2884 -0.2112  0.0762
 3523SOL    HW122028   2.197   3.926   9.078 -2.1892 -3.3304 -0.4884
 3523SOL    HW222029   2.252   3.792   9.038 -0.8703 -0.0444  0.1244
 3524SOL     OW22030   0.745   3.030  11.749  0.0788 -0.2696  0.5813
 3524SOL    HW122031   0.708   3.073  11.825 -1.3739 -0.2541 -0.1389
 3524SOL    HW222032   0.721   2.940  11.769 -0.0634 -0.2908  0.3146
 3525SOL     OW22033   1.751   0.479   4.278  0.5399 -0.2167  0.2692
 3525SOL    HW122034   1.663   0.492   4.314 -0.2924  1.2666 -2.3332
 3525SOL    HW222035   1.796   0.563   4.290  0.2048 -0.1336  0.9974
 3526SOL     OW22036   1.074   3.223  11.381  0.3305 -0.1571 -0.1331
 3526SOL    HW122037   1.045   3.265  11.301 -1.3838 -1.3948 -0.1616
 3526SOL    HW222038   1.127   3.284  11.432 -0.0995  1.7841 -2.0145
 3527SOL     OW22039   0.728   2.673   4.547 -0.2303 -0.0598  0.1425
 3527SOL    HW122040   0.699   2.737   4.482 -2.3568 -1.8814 -0.6919
 3527SOL    HW222041   0.746   2.600   4.488  2.7381  2.4087 -2.0230
 3528SOL     OW22042   2.003   1.473   9.511  0.1472  0.3612 -0.3025
 3528SOL    HW122043   2.008   1.423   9.593 -1.9141 -1.4904 -1.3198
 3528SOL    HW222044   2.092   1.507   9.498  0.7903 -0.9140  0.7811
 3529SOL     OW22045   0.283   4.047   9.043 -0.5828 -0.1082  0.3720
 3529SOL    HW122046   0.343   4.096   8.987  0.2197 -1.3615  0.1469
 3529SOL    HW222047   0.318   4.064   9.131 -4.6767  2.1059  1.5760
 3530SOL     OW22048   2.308   0.754   2.103 -0.1947  0.3527  0.1747
 3530SOL    HW122049   2.363   0.684   2.066 -0.4656 -0.6726  1.7009
 3530SOL    HW222050   2.322   0.830   2.047 -0.8892  1.2851  1.2726
 3531SOL     OW22051   4.127   3.381   9.874  0.3761 -0.6409 -0.4832
 3531SOL    HW122052   4.086   3.443   9.813 -2.4030  0.1054  2.1117
 3531SOL    HW222053   4.216   3.376   9.841  1.5147 -0.9515  2.6068
 3532SOL     OW22054   4.720   0.948   1.765  0.4207  0.1057 -0.1590
 3532SOL    HW122055   0.026   1.013   1.828  0.8097  1.1982 -1.4877
 3532SOL    HW222056   4.636   0.934   1.810  0.0690 -0.4023 -0.9761
 3533SOL     OW22057   2.591   1.767   1.388  0.1837  0.2339  0.2916
 3533SOL    HW122058   2.503   1.775   1.352 -0.0392  0.4612  0.8912
 3533SOL    HW222059   2.623   1.687   1.345  1.1956  0.7454  0.0998
 3534SOL     OW22060   2.136   2.921  10.168 -0.7454  0.1694 -0.5488
 3534SOL    HW122061   2.179   2.983  10.227 -0.0661  1.3429 -2.2753
 3534SOL    HW222062   2.175   2.839  10.196  0.4861  1.0202  0.2470
 3535SOL     OW22063   0.437   3.132   0.230  0.0658 -0.3774  0.1058
 3535SOL    HW122064   0.479   3.124   0.315 -0.9314 -1.2371  0.5287
 3535SOL    HW222065   0.389   3.214   0.243 -0.1574 -0.4846 -0.0340
 3536SOL     OW22066   2.067   2.117   2.926  0.1355 -0.1011 -0.5321
 3536SOL    HW122067   2.013   2.196   2.921  1.0638  0.6262  0.8262
 3536SOL    HW222068   2.145   2.145   2.878  0.6280 -0.4692  0.0450
 3537SOL     OW22069   1.151   3.040   1.765  0.3631 -0.3166 -0.3584
 3537SOL    HW122070   1.101   3.106   1.813  0.1612 -0.2253 -0.6905
 3537SOL    HW222071   1.128   3.061   1.674 -0.0380  0.4221 -0.0890
 3538SOL     OW22072   3.211   2.369   8.245 -0.6434 -0.2221 -0.0966
 3538SOL    HW122073   3.233   2.305   8.176 -1.0930  0.6731 -1.0721
 3538SOL    HW222074   3.193   2.450   8.198 -1.3911 -0.8737 -0.9372
 3539SOL     OW22075   0.977   4.552   1.991 -0.6450  0.1178  0.2535
 3539SOL    HW122076   1.068   4.565   2.018 -1.5124 -2.5677  4.4067
 3539SOL    HW222077   0.983   4.459   1.969 -0.6663  0.4340 -1.1048
 3540SOL     OW22078   2.772   3.751   7.981 -0.2225  0.1736  0.2872
 3540SOL    HW122079   2.838   3.820   7.974  0.8517 -1.1113 -2.2305
 3540SOL    HW222080   2.706   3.790   7.924  1.2158 -0.2961 -1.7039
 3541SOL     OW22081   3.732   1.214  16.287  0.0325  0.0677 -0.0127
 3541SOL    HW122082   3.705   1.206  16.196  1.3815 -0.7776 -0.3489
 3541SOL    HW222083   3.774   1.299  16.285 -0.3136  0.2111 -0.9848
 3542SOL     OW22084   1.321   3.563   2.941 -0.2795 -0.3540  0.4631
 3542SOL    HW122085   1.261   3.599   2.875  0.4499  0.5722  0.3016
 3542SOL    HW222086   1.288   3.473   2.937  0.4200 -0.6281  0.7956
 3543SOL     OW22087   3.875   1.573   4.457  0.1166 -0.6331 -0.8475
 3543SOL    HW122088   3.825   1.647   4.424 -1.5184 -0.0107  2.9639
 3543SOL    HW222089   3.924   1.563   4.375  0.5404  3.7322 -1.1436
 3544SOL     OW22090   3.122   0.548   5.974 -0.1669  0.4031  0.2413
 3544SOL    HW122091   3.158   0.492   6.042 -1.5341 -2.6865 -1.5867
 3544SOL    HW222092   3.172   0.629   5.987  0.5330 -0.0039  0.0672
 3545SOL     OW22093   1.382   0.380   7.848  0.4386 -0.5604  0.3488
 3545SOL    HW122094   1.465   0.332   7.852 -0.2487 -1.5349  2.7163
 3545SOL    HW222095   1.387   0.428   7.931 -0.1443 -1.4726  0.9091
 3546SOL     OW22096   2.167   4.649  15.651  0.3789  0.4612 -0.5507
 3546SOL    HW122097   2.232   4.655  15.722 -2.8842 -0.5847  2.5382
 3546SOL    HW222098   2.191   4.711  15.582  0.6928  0.6931 -0.2348
 3547SOL     OW22099   4.345   4.409   7.100 -0.5203 -0.2442  0.0695
 3547SOL    HW122100   4.367   4.477   7.163  1.0166  0.7125 -1.4954
 3547SOL    HW222101   4.343   4.462   7.020 -0.4013 -0.1127  0.1539
 3548SOL     OW22102   0.083   2.105   6.890  0.1468 -0.6961  0.3694
 3548SOL    HW122103   4.722   2.096   6.930  0.4647 -0.6546  1.0862
 3548SOL    HW222104   0.131   2.109   6.973  1.5311  0.4649 -0.5062
 3549SOL     OW22105   4.029   4.150   2.124 -0.2720 -0.1792 -0.3855
 3549SOL    HW122106   4.104   4.103   2.086 -0.1420 -1.8553  1.9634
 3549SOL    HW222107   4.069   4.237   2.122 -3.3679  1.3237  2.8672
 3550SOL     OW22108   0.519   1.355   5.618  0.3954  0.2995 -0.0301
 3550SOL    HW122109   0.524   1.426   5.682 -2.0459  0.7107 -0.2798
 3550SOL    HW222110   0.546   1.405   5.541  1.6784 -0.5349 -0.1179
 3551SOL     OW22111   4.067   0.957   9.509 -0.0631  0.0769  0.0477
 3551SOL    HW122112   4.126   0.934   9.580  1.0001  0.5551 -0.6885
 3551SOL    HW222113   4.089   0.901   9.435  0.2307  1.3304 -0.8163
 3552SOL     OW22114   2.152   1.754   5.900  0.0656  0.0596  0.1767
 3552SOL    HW122115   2.201   1.694   5.843 -0.6759  0.4487 -0.8887
 3552SOL    HW222116   2.211   1.829   5.898 -0.9446  0.9030  2.8393
 3553SOL     OW22117   3.713   3.983   2.521 -0.0286  0.0463  0.0941
 3553SOL    HW122118   3.664   3.932   2.456 -1.5919  2.0074 -0.2573
 3553SOL    HW222119   3.786   4.024   2.474  2.0807 -0.6567  2.7597
 3554SOL     OW22120   3.802   1.393   5.938 -0.0941 -0.1622 -0.4071
 3554SOL    HW122121   3.845   1.310   5.917 -1.0742  0.0787 -3.3751
 3554SOL    HW222122   3.828   1.419   6.026  0.4405 -1.3442 -0.2087
 3555SOL     OW22123   0.669   1.928   3.865  0.2783 -0.3859 -0.0529
 3555SOL    HW122124   0.649   2.013   3.826 -0.1553  0.0174  1.0404
 3555SOL    HW222125   0.723   1.874   3.808  2.8994  1.4230  0.6702
 3556SOL     OW22126   0.049   4.229   5.517  0.0346  0.2191 -0.1891
 3556SOL    HW122127   0.120   4.270   5.566 -1.3477  1.3662  0.8584
 3556SOL    HW222128   0.080   4.139   5.525 -0.0588  0.3432  1.4497
 3557SOL     OW22129   4.692   2.459   8.311  0.2131 -0.3113 -0.5820
 3557SOL    HW122130   4.701   2.429   8.402 -0.5144  2.0853  0.2760
 3557SOL    HW222131   0.021   2.398   8.262  1.2688  1.1414 -1.2015
 3558SOL     OW22132   0.088   0.495   2.753  0.3721  0.2090 -0.0320
 3558SOL    HW122133   0.098   0.589   2.737  2.2840  0.4213  2.3577
 3558SOL    HW222134   0.079   0.501   2.848 -1.7975 -0.2634 -0.2155
 3559SOL     OW22135   0.093   3.387   6.240  0.8655 -0.2551 -0.3107
 3559SOL    HW122136   0.026   3.367   6.305  0.6284  0.2274 -0.4079
 3559SOL    HW222137   0.157   3.332   6.284  0.0142 -0.7988  0.2428
 3560SOL     OW22138   0.424   1.949   4.590 -0.3191  0.8033 -0.5262
 3560SOL    HW122139   0.419   1.888   4.516  2.8743  3.8783 -3.2475
 3560SOL    HW222140   0.407   2.027   4.537  1.0938  1.5693  0.1583
 3561SOL     OW22141   4.441   1.093   7.587  0.4585 -0.2307 -0.0929
 3561SOL    HW122142   4.470   1.025   7.647 -0.3475 -1.6496 -1.3048
 3561SOL    HW222143   4.456   1.041   7.507 -0.6141 -1.5279  0.5484
 3562SOL     OW22144   3.616   2.847   9.337  0.1501  0.0432 -0.1112
 3562SOL    HW122145   3.603   2.924   9.392 -2.7506 -2.6518  2.9284
 3562SOL    HW222146   3.686   2.801   9.385  0.2025  0.7015  0.4468
 3563SOL     OW22147   3.539   4.213  12.671 -0.2848 -0.2373 -0.0641
 3563SOL    HW122148   3.446   4.191  12.680 -0.2607 -0.1424  0.3892
 3563SOL    HW222149   3.546   4.258  12.755  1.4930 -0.9956  0.2048
 3564SOL     OW22150   4.373   0.488   7.729 -0.3288  0.5381 -0.1639
 3564SOL    HW122151   4.303   0.513   7.669  0.7622 -1.1257 -2.1543
 3564SOL    HW222152   4.356   0.549   7.801 -1.7873 -0.4438  0.3229
 3565SOL     OW22153   4.334   1.706   7.427  0.0047 -0.5462  0.2184
 3565SOL    HW122154   4.318   1.798   7.407  0.9447 -0.9333 -2.3057
 3565SOL    HW222155   4.250   1.661   7.440 -0.2558  0.5018  2.1889
 3566SOL     OW22156   3.213   3.806   9.443  0.3316  0.5652 -0.5424
 3566SOL    HW122157   3.159   3.836   9.370  0.6462  2.3366 -0.0309
 3566SOL    HW222158   3.290   3.853   9.414  0.9318 -0.9988 -1.5045
 3567SOL     OW22159   0.140   3.912   6.554  0.6193 -0.3159 -0.1548
 3567SOL    HW122160   0.115   4.000   6.583  2.7370  0.2832 -0.1520
 3567SOL    HW222161   0.063   3.866   6.588 -1.5587  0.6675 -3.8141
 3568SOL     OW22162   1.739   0.446   2.202 -1.0190  0.0836 -0.4250
 3568SOL    HW122163   1.735   0.373   2.140  1.8803 -0.7148  0.3242
 3568SOL    HW222164   1.796   0.507   2.155 -0.0088  0.5630  1.4184
 3569SOL     OW22165   2.806   4.508   8.091  0.0890 -0.1558 -0.1695
 3569SOL    HW122166   2.760   4.558   8.159 -0.5205 -2.0334  0.7973
 3569SOL    HW222167   2.819   4.582   8.032 -0.5797 -0.1686 -0.3338
 3570SOL     OW22168   2.447   1.044  15.976  0.4371 -0.0071  0.1180
 3570SOL    HW122169   2.486   0.959  15.993  0.8157  0.1816  0.1912
 3570SOL    HW222170   2.398   1.054  16.058  0.1156  0.3514 -0.1199
 3571SOL     OW22171   0.042   1.268   9.567  0.1171 -0.4226 -0.2431
 3571SOL    HW122172   0.068   1.239   9.655 -1.2802 -2.0351 -0.3604
 3571SOL    HW222173   0.068   1.360   9.574 -1.7955 -0.1160  2.6036
 3572SOL     OW22174   3.640   0.221  12.993  0.4116  0.1849  0.2594
 3572SOL    HW122175   3.564   0.266  13.029  1.6917  0.4636  2.6082
 3572SOL    HW222176   3.662   0.281  12.922 -0.7436  0.4419  0.1295
 3573SOL     OW22177   0.466   1.081   2.647  0.4217  0.2596 -0.9168
 3573SOL    HW122178   0.558   1.102   2.626  0.3935 -0.3248 -1.5982
 3573SOL    HW222179   0.459   1.105   2.740 -0.0021  0.0493 -0.8971
 3574SOL     OW22180   3.622   4.075   7.813  0.5803  0.0803  0.2715
 3574SOL    HW122181   3.595   4.010   7.878  0.5625 -0.3098 -0.1266
 3574SOL    HW222182   3.692   4.122   7.859 -1.3476  4.1988 -1.0233
 3575SOL     OW22183   0.272   1.789   2.529 -0.3412  0.1619  0.3952
 3575SOL    HW122184   0.301   1.879   2.546  2.0702 -0.2362 -1.6067
 3575SOL    HW222185   0.229   1.764   2.611 -0.4488 -0.7008  0.0746
 3576SOL     OW22186   1.767   3.418   7.228  0.2021 -0.1957  0.3708
 3576SOL    HW122187   1.682   3.461   7.239 -1.0104 -2.6976  0.6949
 3576SOL    HW222188   1.793   3.431   7.137  0.7419 -1.3572  0.3658
 3577SOL     OW22189   2.573   4.446   4.982  0.1241  0.0942  0.0266
 3577SOL    HW122190   2.558   4.502   4.905  0.6625  0.1479 -0.0407
 3577SOL    HW222191   2.592   4.372   4.924  0.5280 -0.3139  0.6903
 3578SOL     OW22192   2.401   2.905   2.516  0.0006  0.1502 -0.0194
 3578SOL    HW122193   2.393   2.983   2.571 -0.5795 -0.7094  1.1051
 3578SOL    HW222194   2.444   2.936   2.436 -1.6107 -1.3586 -1.4667
 3579SOL     OW22195   2.373   0.155  10.826 -0.3151  0.4195  0.0741
 3579SOL    HW122196   2.375   0.176  10.733  0.4286 -0.2485 -0.0604
 3579SOL    HW222197   2.289   0.110  10.841 -0.2138  0.2401  0.0970
 3580SOL     OW22198   3.024   1.077   4.861  0.2922 -0.3596 -0.6082
 3580SOL    HW122199   3.023   1.041   4.773  1.1877 -1.0384 -0.3364
 3580SOL    HW222200   3.077   1.153   4.841  0.5202 -0.2360  0.4508
 3581SOL     OW22201   1.314   1.871   6.522 -0.2320 -0.4859 -0.1435
 3581SOL    HW122202   1.317   1.911   6.609 -1.8010  1.8228 -1.1437
 3581SOL    HW222203   1.243   1.918   6.479  0.0878 -0.2427 -0.4023
 3582SOL     OW22204   2.451   1.481   2.877  0.5615  0.1781  0.4633
 3582SOL    HW122205   2.502   1.423   2.932 -0.7733  0.4123  1.9311
 3582SOL    HW222206   2.363   1.486   2.914  0.0658  1.1808 -0.7978
 3583SOL     OW22207   1.659   3.301  10.654  0.2671 -0.1347 -0.1903
 3583SOL    HW122208   1.642   3.376  10.711  1.4446 -0.6213  0.8153
 3583SOL    HW222209   1.581   3.250  10.676  1.2634 -0.9968  1.3370
 3584SOL     OW22210   2.705   1.003   8.450  0.2128  0.3357 -0.0855
 3584SOL    HW122211   2.697   0.982   8.357 -0.3664  0.8733 -0.1562
 3584SOL    HW222212   2.708   1.098   8.440 -0.4857  0.7027  3.2640
 3585SOL     OW22213   2.656   1.438  17.605 -0.4675 -0.4556 -0.0051
 3585SOL    HW122214   2.597   1.389  17.548 -0.6964  0.8821 -0.9094
 3585SOL    HW222215   2.591   1.489  17.654  0.2563  0.6982 -0.2477
 3586SOL     OW22216   1.369   2.418   8.853 -0.1045  0.0689  0.0880
 3586SOL    HW122217   1.456   2.391   8.884 -0.5355 -1.0067  0.3612
 3586SOL    HW222218   1.326   2.401   8.937 -0.0889 -1.4262 -0.2068
 3587SOL     OW22219   1.780   0.192   8.391  0.2435  0.0649 -0.0991
 3587SOL    HW122220   1.709   0.160   8.335  1.9042 -1.8939 -1.0916
 3587SOL    HW222221   1.828   0.240   8.324  2.3073 -0.2542  1.1478
 3588SOL     OW22222   3.327   4.176  15.329 -0.2841 -0.4138  0.0902
 3588SOL    HW122223   3.339   4.271  15.332  1.9489 -0.6980  0.5007
 3588SOL    HW222224   3.340   4.157  15.236 -0.4312 -1.8091  0.3463
 3589SOL     OW22225   3.271   1.953   2.526 -0.1471 -0.4157 -0.1441
 3589SOL    HW122226   3.225   1.980   2.448 -1.9996 -0.4882  0.9260
 3589SOL    HW222227   3.325   2.027   2.553  2.1156 -1.5288 -1.6404
 3590SOL     OW22228   3.476   2.015  11.305  0.7493  0.0550  0.4908
 3590SOL    HW122229   3.430   2.073  11.245 -0.0339 -2.7117 -1.6066
 3590SOL    HW222230   3.470   1.923  11.280 -1.1670  0.5138 -0.7364
 3591SOL     OW22231   4.467   0.818   5.846 -0.3265 -0.1193 -0.2427
 3591SOL    HW122232   4.457   0.779   5.933 -0.5117 -0.1964 -0.2992
 3591SOL    HW222233   4.377   0.849   5.835  0.2358  0.7462 -2.4638
 3592SOL     OW22234   1.021   4.597  15.623 -0.2649  0.0506 -0.0737
 3592SOL    HW122235   1.027   4.690  15.600  2.6377 -0.2085 -0.3553
 3592SOL    HW222236   0.968   4.600  15.702 -0.5817 -1.8786 -0.2266
 3593SOL     OW22237   1.812   1.588   0.750  0.2060  0.2951  0.6298
 3593SOL    HW122238   1.784   1.504   0.786 -2.7692  0.9967 -0.0056
 3593SOL    HW222239   1.733   1.610   0.701 -0.4563 -1.2400  1.0042
 3594SOL     OW22240   1.792   2.557   5.901 -1.4589 -0.4733  0.0219
 3594SOL    HW122241   1.749   2.636   5.870  1.3738  0.2274 -2.1697
 3594SOL    HW222242   1.723   2.523   5.958 -0.9666 -0.8050  0.4255
 3595SOL     OW22243   2.478   1.793  13.786 -0.1876 -0.1165 -0.2511
 3595SOL    HW122244   2.424   1.826  13.858 -0.9856 -1.6554 -0.1492
 3595SOL    HW222245   2.557   1.845  13.799 -0.1835  0.1103 -1.1552
 3596SOL     OW22246   0.686   3.809   3.878 -0.2408  0.0333 -0.0091
 3596SOL    HW122247   0.717   3.725   3.843  1.1760  0.6668 -0.2437
 3596SOL    HW222248   0.693   3.871   3.806  2.2394 -0.8164 -0.4836
 3597SOL     OW22249   2.822   0.311   8.093 -0.6018  0.7725 -0.4126
 3597SOL    HW122250   2.879   0.240   8.065 -1.7395 -0.2386 -0.1797
 3597SOL    HW222251   2.877   0.389   8.079  1.0069  0.0455  1.8989
 3598SOL     OW22252   0.163   0.417  10.126  0.1881 -0.4875 -0.0405
 3598SOL    HW122253   0.229   0.347  10.124  0.0467 -0.6267  0.1447
 3598SOL    HW222254   0.222   0.492  10.116  0.9733 -1.1628 -0.4779
 3599SOL     OW22255   1.478   1.845  10.724  0.7353  0.6057  0.3962
 3599SOL    HW122256   1.386   1.828  10.703  1.0422  0.9429 -1.2182
 3599SOL    HW222257   1.524   1.787  10.663 -1.7455  0.0125 -0.8961
 3600SOL     OW22258   1.610   3.104  15.802 -0.4552  0.2107 -0.4608
 3600SOL    HW122259   1.617   3.046  15.878 -0.5628  1.3003  0.3843
 3600SOL    HW222260   1.668   3.175  15.828 -0.0587  0.4806 -2.0907
 3601SOL     OW22261   1.995   2.242   6.612 -0.0782  0.1655  0.2275
 3601SOL    HW122262   1.998   2.338   6.616  2.0907 -0.0189  2.9426
 3601SOL    HW222263   1.913   2.221   6.658  1.4280 -0.5796  2.5737
 3602SOL     OW22264   4.579   2.878   6.348  1.0397  0.3874  0.1652
 3602SOL    HW122265   4.648   2.924   6.396  0.7165 -0.3692  1.3495
 3602SOL    HW222266   4.542   2.827   6.420  1.9031  0.1810  0.4710
 3603SOL     OW22267   3.642   0.472   9.676  0.0061  0.0695 -0.2300
 3603SOL    HW122268   3.716   0.524   9.643 -0.4730  0.5943 -0.4691
 3603SOL    HW222269   3.677   0.384   9.662  1.3920  0.7105 -0.8237
 3604SOL     OW22270   1.161   2.445  17.487  0.0086 -0.1588  0.1786
 3604SOL    HW122271   1.136   2.360  17.450  1.2497 -1.1740  1.6971
 3604SOL    HW222272   1.187   2.500  17.413 -1.3432  0.5249  0.2088
 3605SOL     OW22273   4.692   1.672   3.722  0.4428 -0.0722 -0.1080
 3605SOL    HW122274   4.722   1.752   3.763  0.4988  0.2298 -0.7387
 3605SOL    HW222275   4.632   1.632   3.785  0.5507  1.5639  1.0161
 3606SOL     OW22276   3.073   1.815   7.626 -0.0707 -0.4233 -0.8609
 3606SOL    HW122277   3.069   1.730   7.582  3.7711 -0.8756 -0.3718
 3606SOL    HW222278   3.153   1.809   7.679 -0.0518  1.4503 -0.6803
 3607SOL     OW22279   2.769   1.727  13.609 -0.1431 -0.1303 -0.3124
 3607SOL    HW122280   2.856   1.703  13.641 -0.5701 -3.1029 -1.3979
 3607SOL    HW222281   2.746   1.794  13.673  0.7638 -0.5537  0.4505
 3608SOL     OW22282   1.105   3.088   3.221  0.1350  0.3450  0.5379
 3608SOL    HW122283   1.175   3.102   3.157  0.3458 -0.6393  0.5516
 3608SOL    HW222284   1.106   3.174   3.262  1.9035  1.2432 -1.3646
 3609SOL     OW22285   4.640   2.509   7.058 -0.0367 -0.3543 -0.0582
 3609SOL    HW122286   4.582   2.558   7.116 -0.6181  0.0002 -0.9274
 3609SOL    HW222287   4.716   2.513   7.116 -0.4675 -2.4717  0.6481
 3610SOL     OW22288   0.727   2.349   8.500 -0.0348  1.0477 -0.1797
 3610SOL    HW122289   0.732   2.383   8.410 -0.4406  0.3630 -0.4609
 3610SOL    HW222290   0.646   2.389   8.532  0.6184  1.6667  0.6953
 3611SOL     OW22291   3.950   1.300   4.284  0.0223  0.4339  0.3772
 3611SOL    HW122292   4.010   1.372   4.264 -1.8900  2.3620  1.6221
 3611SOL    HW222293   3.996   1.264   4.360 -1.3634  0.1881  1.1041
 3612SOL     OW22294   1.100   1.238   6.879 -0.4661 -0.8684  0.4336
 3612SOL    HW122295   1.095   1.149   6.913  0.1084 -1.8130 -1.9347
 3612SOL    HW222296   1.104   1.219   6.785 -0.5409  1.7263 -0.1211
 3613SOL     OW22297   3.967   2.602  15.506  0.2535 -0.5862  0.3027
 3613SOL    HW122298   3.973   2.513  15.540 -1.0802 -1.0267 -0.5979
 3613SOL    HW222299   4.025   2.648  15.566 -0.8307  1.4257 -0.1739
 3614SOL     OW22300   3.050   3.215  15.848  0.4204 -0.0445  0.4697
 3614SOL    HW122301   3.058   3.120  15.856  0.6124 -0.0817 -0.1074
 3614SOL    HW222302   2.957   3.229  15.865  0.7776  1.1965  1.3834
 3615SOL     OW22303   3.151   1.562   3.409 -0.0723 -0.1604 -0.0251
 3615SOL    HW122304   3.187   1.644   3.374 -0.2317  0.3232  0.9571
 3615SOL    HW222305   3.095   1.541   3.334 -0.8412 -0.2969  0.5937
 3616SOL     OW22306   0.093   2.057   2.875 -0.0648  0.2061  0.3994
 3616SOL    HW122307   0.053   2.144   2.874  1.2236  0.7984 -0.1677
 3616SOL    HW222308   0.139   2.064   2.791 -1.0272  1.7143 -0.0011
 3617SOL     OW22309   4.485   2.091   7.739  0.0141  0.0309  0.0149
 3617SOL    HW122310   4.417   2.144   7.698  1.0249  0.8430 -0.6115
 3617SOL    HW222311   4.564   2.119   7.693  0.5154 -1.3763  0.0284
 3618SOL     OW22312   0.038   3.643   5.063  0.2665  0.3895 -0.4062
 3618SOL    HW122313   4.704   3.654   5.137 -0.4531 -2.7317 -0.5295
 3618SOL    HW222314   0.009   3.713   5.004 -1.4331 -0.6703 -0.8118
 3619SOL     OW22315   4.369   0.114   2.786  0.2912 -0.5282  0.0428
 3619SOL    HW122316   4.343   0.171   2.859  0.6288 -0.2286 -0.0701
 3619SOL    HW222317   4.317   0.036   2.806 -1.1042  1.0275  2.5767
 3620SOL     OW22318   1.338   4.188  10.163  0.6367  0.0867 -0.0247
 3620SOL    HW122319   1.334   4.134  10.242 -0.0583  1.3257  0.7912
 3620SOL    HW222320   1.321   4.274  10.202  0.4869 -0.5006  1.2208
 3621SOL     OW22321   2.402   2.454  11.758  0.6252 -0.0738  0.2055
 3621SOL    HW122322   2.470   2.431  11.822 -1.1421 -1.7259  1.5242
 3621SOL    HW222323   2.346   2.376  11.763  1.2059 -0.5764 -1.1909
 3622SOL     OW22324   4.621   1.160   4.568 -0.0048  0.4703  0.0127
 3622SOL    HW122325   4.614   1.255   4.558 -0.3132  0.3534 -0.8587
 3622SOL    HW222326   4.668   1.135   4.489 -2.1933 -2.4503 -0.3475
 3623SOL     OW22327   3.701   2.998   3.442  0.4702 -0.2447  0.0335
 3623SOL    HW122328   3.658   3.082   3.424  0.6090 -0.4377 -1.1616
 3623SOL    HW222329   3.775   2.990   3.381  0.9943  1.4982  0.4356
 3624SOL     OW22330   1.311   0.654   6.284 -0.0355 -0.1165  0.1896
 3624SOL    HW122331   1.376   0.689   6.224  1.1262 -2.3087  0.1884
 3624SOL    HW222332   1.338   0.563   6.295  0.1146 -0.0627  0.2607
 3625SOL     OW22333   3.402   1.210   3.385  0.6848  0.0593  0.4519
 3625SOL    HW122334   3.313   1.233   3.414  1.3375 -0.3570  2.7321
 3625SOL    HW222335   3.423   1.270   3.313 -3.8294 -0.1799 -1.1144
 3626SOL     OW22336   3.809   2.190   6.638  0.3542 -0.0458  0.4882
 3626SOL    HW122337   3.734   2.201   6.696 -1.0458  0.4040 -1.4149
 3626SOL    HW222338   3.780   2.122   6.578 -1.6251  1.0151  0.2352
 3627SOL     OW22339   3.802   0.348   6.814  0.2569  0.1164 -0.6767
 3627SOL    HW122340   3.785   0.392   6.897  0.5706  0.2906 -0.7039
 3627SOL    HW222341   3.759   0.264   6.833  2.9602 -1.1674 -0.1813
 3628SOL     OW22342   0.985   2.181   4.601 -0.2846  0.5309  0.0454
 3628SOL    HW122343   0.989   2.113   4.534  3.6709  0.5428  0.2421
 3628SOL    HW222344   1.076   2.210   4.612 -0.0009 -0.2949 -0.1448
 3629SOL     OW22345   1.902   0.395   4.034 -0.5506 -0.0594 -0.2413
 3629SOL    HW122346   1.833   0.419   4.095 -0.1438 -0.4031  0.3445
 3629SOL    HW222347   1.905   0.469   3.972 -2.2930  1.1300  1.1057
 3630SOL     OW22348   0.197   4.636   5.137  0.4818 -0.0734 -0.0973
 3630SOL    HW122349   0.219   0.002   5.125  0.1037  0.2540  1.8002
 3630SOL    HW222350   0.180   4.614   5.045  0.8700  0.8807 -0.4009
 3631SOL     OW22351   0.691   0.748  12.416  0.1920  0.2624 -0.1393
 3631SOL    HW122352   0.780   0.765  12.384 -0.9329  0.3995 -3.2004
 3631SOL    HW222353   0.710   0.680  12.480  1.4219 -1.8384 -2.7173
 3632SOL     OW22354   0.970   2.913  13.113 -0.1092 -0.0586  0.5520
 3632SOL    HW122355   0.937   2.950  13.031  0.8822 -2.6602 -1.0135
 3632SOL    HW222356   1.011   2.989  13.154 -1.8826  1.0950  0.1830
 3633SOL     OW22357   2.430   3.081   5.619  0.0583  0.1314 -0.5815
 3633SOL    HW122358   2.471   3.130   5.691 -0.2972  0.2051 -0.4304
 3633SOL    HW222359   2.429   3.155   5.558  0.2048  0.4914 -0.1500
 3634SOL     OW22360   3.646   0.021   2.757  0.5227  0.4407 -0.1548
 3634SOL    HW122361   3.585   0.085   2.721  0.9941  2.2539  2.3031
 3634SOL    HW222362   3.592   4.670   2.739 -0.1323  1.2666 -1.6739
 3635SOL     OW22363   0.200   0.098   7.143 -0.1768  0.1633 -0.2382
 3635SOL    HW122364   0.162   0.020   7.103  0.7417  0.5045 -1.7998
 3635SOL    HW222365   0.244   0.142   7.070  0.1931  0.4989  0.1940
 3636SOL     OW22366   1.307   1.539   4.611  0.2226  0.3303 -0.1188
 3636SOL    HW122367   1.380   1.478   4.623 -0.1301 -0.2582 -0.9488
 3636SOL    HW222368   1.305   1.574   4.700 -1.3064  1.0838 -0.4369
 3637SOL     OW22369   3.578   4.032  16.511 -0.0029  0.1011 -0.4105
 3637SOL    HW122370   3.612   4.094  16.447  0.2132  0.2543 -0.1479
 3637SOL    HW222371   3.518   4.093  16.554  0.5068  1.3368 -1.4757
 3638SOL     OW22372   3.009   2.964   2.645 -0.0925  1.0761  0.3923
 3638SOL    HW122373   3.068   2.890   2.657 -0.6372  0.6363  0.3468
 3638SOL    HW222374   2.981   2.974   2.736 -3.2787  0.1081 -0.4786
 3639SOL     OW22375   4.722   1.032   6.705 -0.1576 -0.0634 -0.2002
 3639SOL    HW122376   4.704   0.939   6.695 -1.7074  0.0092  1.8958
 3639SOL    HW222377   0.041   1.032   6.790 -0.8668 -2.8484  0.1700
 3640SOL     OW22378   3.821   4.175   7.964 -0.4937 -0.0162 -0.1952
 3640SOL    HW122379   3.813   4.218   8.049  3.2657 -3.1232  1.7957
 3640SOL    HW222380   3.915   4.187   7.950 -0.4445  0.9134  0.9349
 3641SOL     OW22381   2.667   4.379   5.460  0.8141 -0.2890 -0.5214
 3641SOL    HW122382   2.719   4.451   5.495  1.3760 -1.4592  1.0505
 3641SOL    HW222383   2.666   4.388   5.364  1.2540 -1.3324 -0.6291
 3642SOL     OW22384   1.672   2.460   7.390 -0.4713  0.0165  0.1186
 3642SOL    HW122385   1.708   2.541   7.425 -2.6346  0.6845  0.7841
 3642SOL    HW222386   1.702   2.453   7.300 -2.9109  2.0855 -0.8652
 3643SOL     OW22387   1.066   3.109   8.833 -0.0089 -0.0257  0.0299
 3643SOL    HW122388   1.121   3.188   8.833 -0.6512  0.4255 -0.3670
 3643SOL    HW222389   1.130   3.037   8.831  0.4819  0.3960  0.4060
 3644SOL     OW22390   4.142   1.563   9.129  0.5573 -0.3340  0.2412
 3644SOL    HW122391   4.226   1.517   9.129 -0.2545 -1.8319 -2.5581
 3644SOL    HW222392   4.141   1.587   9.222  2.9791  1.3610 -0.1812
 3645SOL     OW22393   1.609   0.879   6.353  0.1260  0.1820 -0.1035
 3645SOL    HW122394   1.570   0.827   6.283 -1.6897 -0.6345  1.5134
 3645SOL    HW222395   1.574   0.830   6.427  0.0605 -0.5168 -0.5940
 3646SOL     OW22396   1.156   2.679  14.272 -0.1051  0.1935  0.4755
 3646SOL    HW122397   1.157   2.772  14.295 -1.7180  0.2765  0.2385
 3646SOL    HW222398   1.183   2.685  14.180  1.6945 -2.0359  0.8499
 3647SOL     OW22399   0.856   2.933  17.363  0.5342 -0.0613 -0.5645
 3647SOL    HW122400   0.864   3.008  17.303  1.2896  0.1557 -0.1943
 3647SOL    HW222401   0.938   2.888  17.380  2.0545  2.8286 -0.3105
 3648SOL     OW22402   0.404   4.210   8.848  0.4490  0.4103  0.1196
 3648SOL    HW122403   0.499   4.215   8.855  0.4212  0.6120  0.3523
 3648SOL    HW222404   0.388   4.294   8.805 -1.0740  0.1302  0.1450
 3649SOL     OW22405   0.678   4.158   1.252 -0.2132 -0.5917 -0.3797
 3649SOL    HW122406   0.721   4.226   1.303 -0.3850  0.0189 -1.0377
 3649SOL    HW222407   0.592   4.199   1.255  0.2091  0.3510 -1.1267
 3650SOL     OW22408   2.115   4.581   6.233  0.0224  0.1637 -0.4401
 3650SOL    HW122409   2.199   4.563   6.191  0.8458  2.4913  0.2052
 3650SOL    HW222410   2.120   4.676   6.244  0.1353 -0.0126  0.9880
 3651SOL     OW22411   3.495   4.614   5.901 -0.2309  0.1003 -1.0289
 3651SOL    HW122412   3.580   4.573   5.890 -0.4792 -0.6283 -0.2761
 3651SOL    HW222413   3.508   4.696   5.949  0.3218  0.3825 -1.6791
 3652SOL     OW22414   2.809   0.410  11.220  0.5106  0.3254 -0.0994
 3652SOL    HW122415   2.751   0.470  11.266  0.3551  0.3065 -0.2705
 3652SOL    HW222416   2.814   0.332  11.274  0.4361 -0.1796 -0.8132
 3653SOL     OW22417   4.064   4.595  16.519 -0.6098  0.0728 -0.2012
 3653SOL    HW122418   4.063   4.509  16.477  0.5307  0.5205 -1.1594
 3653SOL    HW222419   4.005   4.632  16.454 -0.4929 -1.3281 -1.1147
 3654SOL     OW22420   1.919   1.678   6.389 -0.1213  0.3994  0.1136
 3654SOL    HW122421   1.865   1.750   6.420 -0.2203 -0.4003  1.8059
 3654SOL    HW222422   1.933   1.695   6.296  0.8491 -4.3939 -0.6343
 3655SOL     OW22423   0.319   2.441   2.470 -0.8428  0.1422 -0.0405
 3655SOL    HW122424   0.390   2.493   2.508 -1.7893  1.2302  0.2320
 3655SOL    HW222425   0.315   2.484   2.384 -0.3810 -0.2755 -0.2703
 3656SOL     OW22426   2.000   1.058   8.072  0.1203 -0.5134  0.1955
 3656SOL    HW122427   2.072   1.025   8.126  0.5666  1.6016  0.8948
 3656SOL    HW222428   1.966   1.130   8.124 -1.0380  0.2766 -1.6619
 3657SOL     OW22429   2.789   2.983   4.838  0.2913  0.2843 -0.0086
 3657SOL    HW122430   2.759   2.897   4.806  0.3953 -0.0511  0.8018
 3657SOL    HW222431   2.820   2.953   4.923 -2.2090  0.2380  0.8992
 3658SOL     OW22432   2.179   0.307   1.327 -0.2788 -0.7708 -0.0835
 3658SOL    HW122433   2.216   0.259   1.253  2.4739 -0.9453  1.4153
 3658SOL    HW222434   2.235   0.385   1.324 -0.6013 -0.6514 -2.6835
 3659SOL     OW22435   0.057   1.903   3.892  0.1152  0.5349  0.4447
 3659SOL    HW122436   4.714   1.857   3.940  1.1487  0.3224  1.7176
 3659SOL    HW222437   0.035   1.995   3.901  1.4855  1.1097 -2.0220
 3660SOL     OW22438   0.646   3.647   0.556  0.0306 -0.0785 -0.1821
 3660SOL    HW122439   0.557   3.615   0.536 -0.2550 -0.5907  1.9726
 3660SOL    HW222440   0.667   3.624   0.646  1.7192 -0.6091 -0.7049
 3661SOL     OW22441   0.418   0.457  15.875  0.4172 -0.3098 -0.0127
 3661SOL    HW122442   0.468   0.501  15.943  1.5583  0.4793 -1.3627
 3661SOL    HW222443   0.487   0.453  15.809  0.5640 -0.5909  0.1579
 3662SOL     OW22444   0.540   1.831   4.099  0.5871 -0.0784  0.5328
 3662SOL    HW122445   0.448   1.809   4.086  0.7926  0.7163 -2.3013
 3662SOL    HW222446   0.578   1.849   4.013  3.7026 -1.7028  1.5759
 3663SOL     OW22447   1.917   0.230  15.367 -0.0434 -0.0757 -0.1780
 3663SOL    HW122448   1.973   0.225  15.445  2.3268  1.9161 -1.7569
 3663SOL    HW222449   1.983   0.190  15.311 -0.0736  0.1010 -0.3401
 3664SOL     OW22450   2.222   0.863  11.119 -0.4926  0.0666  0.1026
 3664SOL    HW122451   2.315   0.855  11.098 -0.8940 -0.0502 -1.5896
 3664SOL    HW222452   2.220   0.823  11.206 -0.0592 -2.0762 -0.8863
 3665SOL     OW22453   0.669   0.880   6.327  0.5582  0.2848  0.4483
 3665SOL    HW122454   0.742   0.860   6.269 -1.0878  0.6831 -1.7533
 3665SOL    HW222455   0.659   0.803   6.382  0.0327  0.4320  0.5649
 3666SOL     OW22456   2.598   2.489   2.421 -0.3534 -0.0704 -0.4854
 3666SOL    HW122457   2.691   2.469   2.411 -0.1910  0.6377 -0.3419
 3666SOL    HW222458   2.599   2.539   2.502 -1.0052 -1.2725  0.2690
 3667SOL     OW22459   1.013   0.070   5.138  0.1834  0.3632 -0.5547
 3667SOL    HW122460   0.992   0.164   5.146  0.0559  0.2556  0.3535
 3667SOL    HW222461   1.089   0.064   5.195 -0.7143 -1.0011  0.4920
 3668SOL     OW22462   3.921   0.881   8.020 -0.2226 -0.3963  0.2261
 3668SOL    HW122463   4.008   0.914   8.045 -1.2916  1.8070  1.0489
 3668SOL    HW222464   3.948   0.832   7.943  1.5057 -0.1725  0.6893
 3669SOL     OW22465   4.376   4.605  13.645 -0.5377 -0.3394  0.0304
 3669SOL    HW122466   4.458   4.650  13.625 -1.9515  2.1709 -0.0497
 3669SOL    HW222467   4.368   4.623  13.738 -0.5792  0.1032 -0.0595
 3670SOL     OW22468   0.203   0.969   7.511  0.4251 -0.1351  0.1487
 3670SOL    HW122469   0.172   0.885   7.545 -1.1121  0.6006  0.5556
 3670SOL    HW222470   0.293   0.974   7.543  0.1161 -0.7652  1.1337
 3671SOL     OW22471   2.587   2.842  16.835  0.4632 -0.4413  0.5007
 3671SOL    HW122472   2.635   2.875  16.759 -2.3522  0.1807 -1.0005
 3671SOL    HW222473   2.590   2.749  16.812  2.0011 -1.0746  3.2885
 3672SOL     OW22474   0.680   1.875   7.104 -0.4402  0.6011 -0.0020
 3672SOL    HW122475   0.695   1.970   7.105  0.3245  0.4882 -0.2268
 3672SOL    HW222476   0.772   1.850   7.116 -0.1747  1.4240 -0.2926
 3673SOL     OW22477   2.079   0.982   6.691  0.1884 -0.2985 -0.0581
 3673SOL    HW122478   2.123   0.993   6.607  0.5313  0.9104  0.2824
 3673SOL    HW222479   2.080   0.887   6.706  2.5936  0.0173  1.6546
 3674SOL     OW22480   3.816   0.764   7.512  0.2524  0.1351 -0.2308
 3674SOL    HW122481   3.747   0.704   7.543 -0.4899  2.3745  2.4415
 3674SOL    HW222482   3.793   0.831   7.576  1.3198  0.4467 -0.1898
 3675SOL     OW22483   2.324   4.166   1.894  0.0764 -0.5683 -0.0251
 3675SOL    HW122484   2.231   4.185   1.899  0.4287  0.2140  3.5019
 3675SOL    HW222485   2.337   4.192   1.985  0.5932  4.3000 -1.4999
 3676SOL     OW22486   3.286   1.100   8.075  0.0185  0.2288 -0.3992
 3676SOL    HW122487   3.211   1.098   8.016 -1.0688  0.2170  0.9775
 3676SOL    HW222488   3.314   1.192   8.074 -0.7781  0.4831  0.9549
 3677SOL     OW22489   3.218   4.404   8.165 -0.7465  0.3680  0.2163
 3677SOL    HW122490   3.147   4.447   8.212  0.6468  1.5851  1.2109
 3677SOL    HW222491   3.248   4.471   8.104  0.0955 -2.7584 -2.8569
 3678SOL     OW22492   4.237   1.866   4.063 -0.0947  0.6631 -0.0741
 3678SOL    HW122493   4.142   1.849   4.058  0.1574 -0.5712 -0.6747
 3678SOL    HW222494   4.259   1.909   3.980 -3.2851 -0.2584 -1.4062
 3679SOL     OW22495   0.446   4.136   8.245 -0.1697  0.7707  0.1695
 3679SOL    HW122496   0.414   4.104   8.330  2.9872  1.1585  1.5156
 3679SOL    HW222497   0.393   4.074   8.195  0.6293 -0.5104  0.8801
 3680SOL     OW22498   3.826   1.602   1.807 -0.1804  0.1770  0.5340
 3680SOL    HW122499   3.804   1.659   1.880 -0.3971 -0.2062  0.7672
 3680SOL    HW222500   3.769   1.526   1.817 -1.1135  0.7554 -0.4104
 3681SOL     OW22501   0.859   0.992  12.575  0.6913  0.0957  0.6213
 3681SOL    HW122502   0.764   0.991  12.591  0.7024  0.8592  0.7496
 3681SOL    HW222503   0.888   0.930  12.642  1.3143  0.9268  1.1263
 3682SOL     OW22504   4.669   4.715   9.298  0.7887 -0.0513  0.8255
 3682SOL    HW122505   0.037   4.722   9.279  0.7221 -0.8335  0.2191
 3682SOL    HW222506   4.666   4.662   9.378  0.9512 -1.5388 -0.1558
 3683SOL     OW22507   1.053   4.693   9.113 -0.0258 -0.5773  0.1438
 3683SOL    HW122508   1.077   0.059   9.122  1.2672 -0.8941  0.0214
 3683SOL    HW222509   0.993   4.676   9.185  0.9421 -1.1142  0.8231
 3684SOL     OW22510   0.844   1.691   3.296  0.5248 -0.7454 -0.0005
 3684SOL    HW122511   0.769   1.639   3.267 -0.9461  2.6479 -2.2453
 3684SOL    HW222512   0.865   1.749   3.223 -0.1662 -1.3335 -0.6720
 3685SOL     OW22513   1.263   3.827   4.298  0.2448 -0.0754  0.5355
 3685SOL    HW122514   1.328   3.898   4.293 -0.6521  0.6449 -1.1555
 3685SOL    HW222515   1.184   3.880   4.284  0.6145  0.1313 -0.7915
 3686SOL     OW22516   1.387   0.628  16.649  0.2619 -0.3141  0.2784
 3686SOL    HW122517   1.304   0.619  16.601 -0.3132 -0.7590  1.3549
 3686SOL    HW222518   1.385   0.722  16.667  2.8655 -0.5767  1.7819
 3687SOL     OW22519   0.034   1.966   5.991  0.3544  0.3537 -0.1480
 3687SOL    HW122520   4.696   1.969   6.062  1.4543 -1.0894  0.9063
 3687SOL    HW222521   0.078   2.048   6.017 -1.4473  1.2852 -0.0588
 3688SOL     OW22522   0.630   3.959   0.644  0.8785  0.0256 -0.3403
 3688SOL    HW122523   0.713   3.960   0.691 -0.3715 -0.2111  1.8998
 3688SOL    HW222524   0.596   4.046   0.662  0.1862 -0.2493 -0.3222
 3689SOL     OW22525   4.614   2.519   5.410  0.4301 -0.6631 -0.0604
 3689SOL    HW122526   4.626   2.545   5.318 -3.1935 -0.8940 -0.6012
 3689SOL    HW222527   4.655   2.593   5.454 -0.4472 -0.3697  0.2641
 3690SOL     OW22528   0.665   3.556   8.585  0.2192 -0.6629 -0.0401
 3690SOL    HW122529   0.670   3.527   8.676 -0.5292  1.9522  0.8346
 3690SOL    HW222530   0.757   3.570   8.564 -0.2773  0.7634 -1.2970
 3691SOL     OW22531   3.648   2.394   8.344 -0.4003 -0.2751  0.6176
 3691SOL    HW122532   3.560   2.373   8.376 -0.6521  0.2270  0.2452
 3691SOL    HW222533   3.654   2.368   8.253 -2.3562 -0.7622  0.6231
 3692SOL     OW22534   3.468   2.600   2.046  0.7181  0.0860  0.4910
 3692SOL    HW122535   3.485   2.642   1.962  0.3087 -0.5630  0.0806
 3692SOL    HW222536   3.439   2.675   2.098 -0.8038  0.2044 -0.5523
 3693SOL     OW22537   0.915   2.953   2.898  0.3228 -0.5604 -0.0468
 3693SOL    HW122538   0.918   2.915   2.810 -2.4429 -3.0636  0.9244
 3693SOL    HW222539   0.962   2.884   2.945 -0.7284  0.1902  2.0953
 3694SOL     OW22540   2.035   0.110   5.023  0.5581 -0.5388 -0.2654
 3694SOL    HW122541   1.960   0.061   4.990 -0.4421  1.7506 -1.4649
 3694SOL    HW222542   2.048   0.061   5.104 -0.5657  0.8209  0.7330
 3695SOL     OW22543   3.863   2.017   0.540  0.1741  0.1252  0.1334
 3695SOL    HW122544   3.894   2.022   0.449  1.7802  1.2057  0.7315
 3695SOL    HW222545   3.840   2.109   0.548 -2.1492 -0.6559  2.3971
 3696SOL     OW22546   2.381   2.819   1.196 -0.4843  0.4210  0.1681
 3696SOL    HW122547   2.291   2.844   1.219 -1.3715 -0.6236 -2.0923
 3696SOL    HW222548   2.414   2.821   1.286 -0.0706 -0.2525  0.0311
 3697SOL     OW22549   2.527   2.079  14.534  0.5914 -0.4916 -0.5300
 3697SOL    HW122550   2.586   2.013  14.571 -1.3908 -1.4724  0.9087
 3697SOL    HW222551   2.446   2.029  14.542 -0.8823  2.4802  2.8778
 3698SOL     OW22552   1.036   0.403   3.773 -0.2591 -0.2498  0.0474
 3698SOL    HW122553   0.981   0.457   3.715 -1.7210 -1.2455  0.5099
 3698SOL    HW222554   1.040   0.318   3.729  0.2437 -0.6005  0.7735
 3699SOL     OW22555   0.890   4.388   2.791 -0.4952 -0.2675 -0.0744
 3699SOL    HW122556   0.811   4.437   2.813  0.8007  2.1147 -0.7321
 3699SOL    HW222557   0.856   4.320   2.732  0.6971 -0.9101 -0.0341
 3700SOL     OW22558   1.331   2.888   1.481 -0.6076 -0.4874  0.0837
 3700SOL    HW122559   1.334   2.804   1.436  3.1850 -0.0382 -0.5543
 3700SOL    HW222560   1.264   2.937   1.433 -0.6634 -0.4926  0.1564
 3701SOL     OW22561   4.150   0.562   7.984 -0.1086 -0.6582 -0.2187
 3701SOL    HW122562   4.191   0.476   7.997 -0.4116 -0.6279  0.9951
 3701SOL    HW222563   4.100   0.555   8.066  2.1513 -0.1074  1.2292
 3702SOL     OW22564   4.598   2.918   6.798 -0.0886  0.2611 -0.2983
 3702SOL    HW122565   4.657   2.842   6.802  0.5148  0.6843 -1.1018
 3702SOL    HW222566   4.640   2.977   6.860  0.9140 -0.1363 -0.5964
 3703SOL     OW22567   4.120   2.262   4.057  0.1925  0.7768  0.2867
 3703SOL    HW122568   4.085   2.208   3.986 -0.8330  0.1627  1.2616
 3703SOL    HW222569   4.154   2.340   4.013  0.1005 -0.4162 -1.9278
 3704SOL     OW22570   4.637   1.057  14.931  0.1019  0.0288  0.0260
 3704SOL    HW122571   0.003   1.077  14.946  0.1002  0.7541 -0.9614
 3704SOL    HW222572   4.635   1.019  14.843 -3.6475 -4.3027  1.9645
 3705SOL     OW22573   0.780   1.197   6.576 -0.1491 -0.3748 -0.4124
 3705SOL    HW122574   0.791   1.276   6.524 -1.6056  0.6597  0.8245
 3705SOL    HW222575   0.861   1.154   6.549  0.8866  0.0457  1.9816
 3706SOL     OW22576   4.010   4.410   9.277  0.3554  0.1156  0.5208
 3706SOL    HW122577   3.944   4.364   9.330 -0.3907  2.2059  1.3993
 3706SOL    HW222578   3.940   4.443   9.222  0.4786  0.9297  0.8401
 3707SOL     OW22579   2.201   0.843   8.607 -0.1806  0.0418 -0.0716
 3707SOL    HW122580   2.168   0.899   8.678 -2.7247 -1.0767 -0.4030
 3707SOL    HW222581   2.284   0.886   8.587 -0.4527  1.5423  2.0691
 3708SOL     OW22582   0.167   3.783   2.755  0.5427  0.8619 -0.5162
 3708SOL    HW122583   0.077   3.817   2.757  0.3117  0.3166 -2.1032
 3708SOL    HW222584   0.207   3.813   2.837 -0.0622  2.9977 -1.0251
 3709SOL     OW22585   4.701   2.600  17.431 -0.5790 -1.3123 -0.2308
 3709SOL    HW122586   4.632   2.648  17.385 -1.4134 -2.8640 -0.6140
 3709SOL    HW222587   4.715   2.651  17.510  0.1634  0.6629 -1.6333
 3710SOL     OW22588   2.844   4.099  16.694 -0.0526  0.5096 -0.1789
 3710SOL    HW122589   2.834   4.116  16.788  1.7751  2.3453 -0.3200
 3710SOL    HW222590   2.756   4.124  16.664 -0.7083 -0.2406  1.0920
 3711SOL     OW22591   2.022   3.856   4.396  0.0441 -0.5042  0.7120
 3711SOL    HW122592   2.010   3.761   4.397 -2.2474 -0.2278 -1.1893
 3711SOL    HW222593   2.102   3.862   4.344  1.1479 -0.8134  2.3806
 3712SOL     OW22594   1.889   2.958   6.688  0.0301  0.8443 -0.2807
 3712SOL    HW122595   1.934   2.922   6.765  0.0896 -0.7291 -1.0595
 3712SOL    HW222596   1.955   3.015   6.647  2.1639 -0.3127  1.5123
 3713SOL     OW22597   3.382   4.487  12.470  0.2710 -0.7568  0.0199
 3713SOL    HW122598   3.383   4.520  12.380  3.6218  0.1453  0.3876
 3713SOL    HW222599   3.473   4.467  12.494  0.3589  0.2723  0.5573
 3714SOL     OW22600   3.168   0.907   8.503  0.4183  0.1423  0.4045
 3714SOL    HW122601   3.074   0.923   8.513  0.3032 -1.5613  2.0746
 3714SOL    HW222602   3.173   0.812   8.510  1.0785 -0.1109 -3.6362
 3715SOL     OW22603   4.021   2.556   5.825  0.0023  0.3812  0.0123
 3715SOL    HW122604   3.948   2.584   5.768  1.3844  1.5209 -1.1933
 3715SOL    HW222605   4.072   2.637   5.827  0.5414 -0.0461  2.5997
 3716SOL     OW22606   3.770   0.649   4.903  0.0619 -0.0389 -0.0767
 3716SOL    HW122607   3.813   0.722   4.858  1.1394 -1.7634 -1.8686
 3716SOL    HW222608   3.842   0.603   4.947  0.7083  0.7586 -0.3058
 3717SOL     OW22609   2.792   2.184   1.417  0.1516  0.2837 -0.3604
 3717SOL    HW122610   2.780   2.278   1.406 -0.3874  0.4376  1.5535
 3717SOL    HW222611   2.830   2.174   1.504 -0.4710 -1.4150 -0.2737
 3718SOL     OW22612   0.695   1.395  13.334 -0.0701 -0.7500 -0.4685
 3718SOL    HW122613   0.716   1.301  13.332 -0.7219 -0.8837 -0.8683
 3718SOL    HW222614   0.609   1.395  13.292  0.0456 -0.6489 -0.7036
 3719SOL     OW22615   2.341   1.875   3.771 -0.1647 -0.3378  0.6284
 3719SOL    HW122616   2.362   1.783   3.786  0.6972 -0.0016  1.5408
 3719SOL    HW222617   2.324   1.916   3.857 -1.4722  0.4033  0.0190
 3720SOL     OW22618   1.526   3.909   7.599  0.0288  0.1933  0.1236
 3720SOL    HW122619   1.464   3.854   7.647 -1.2859  1.1067 -0.5413
 3720SOL    HW222620   1.608   3.877   7.637 -1.1136 -0.8396  1.7313
 3721SOL     OW22621   4.267   3.282   5.981 -0.4444 -0.1202  0.7831
 3721SOL    HW122622   4.194   3.248   6.032 -0.3192 -1.4227  0.1015
 3721SOL    HW222623   4.314   3.199   5.971  0.8462  0.5186  1.5246
 3722SOL     OW22624   0.445   0.057   7.479 -0.4186  0.3841  0.0368
 3722SOL    HW122625   0.488   0.139   7.455  3.4021 -1.1396  1.7586
 3722SOL    HW222626   0.354   0.081   7.457 -0.7445  0.4963  1.5021
 3723SOL     OW22627   0.930   2.034   5.304 -0.2123 -0.0847  0.5126
 3723SOL    HW122628   0.913   1.949   5.343  0.2637  0.5023  1.9794
 3723SOL    HW222629   0.987   2.073   5.371  1.1321 -1.0832 -0.0410
 3724SOL     OW22630   3.464   4.247   0.432  0.3959  0.5313 -0.0923
 3724SOL    HW122631   3.375   4.272   0.407  0.6608  1.2967 -0.2754
 3724SOL    HW222632   3.472   4.276   0.523  1.3081 -0.1812  0.0586
 3725SOL     OW22633   0.320   1.749   6.312 -0.2329  0.4613 -0.3137
 3725SOL    HW122634   0.363   1.832   6.289 -1.8286  0.7535 -2.2287
 3725SOL    HW222635   0.226   1.768   6.313 -0.3542 -0.1604 -0.2280
 3726SOL     OW22636   3.380   0.220  14.135 -0.3833  0.2451  0.5312
 3726SOL    HW122637   3.324   0.163  14.188  0.1857 -0.1229  0.7493
 3726SOL    HW222638   3.322   0.243  14.063 -1.6557 -1.7351  0.9380
 3727SOL     OW22639   2.451   2.185  10.879 -0.4564  0.1307  0.6339
 3727SOL    HW122640   2.545   2.165  10.884 -0.0192  2.1269  0.3825
 3727SOL    HW222641   2.448   2.236  10.798 -1.9742  1.3063  1.4321
 3728SOL     OW22642   3.920   4.702  14.561 -0.4072 -0.6110  0.2894
 3728SOL    HW122643   3.838   4.681  14.606 -0.9364 -1.1772 -0.9211
 3728SOL    HW222644   3.889   0.057  14.520 -1.1550 -0.9548  0.1648
 3729SOL     OW22645   0.514   4.153   2.905 -0.9786  0.6951 -0.0805
 3729SOL    HW122646   0.446   4.104   2.859  0.6189 -0.2639 -1.4050
 3729SOL    HW222647   0.463   4.161   2.986  2.0983  0.3964  1.8695
 3730SOL     OW22648   2.803   0.097   6.475 -0.5361 -0.2235 -0.0681
 3730SOL    HW122649   2.718   0.142   6.475 -0.1729  0.4589 -0.2385
 3730SOL    HW222650   2.782   0.016   6.522  2.7589 -1.8385 -1.3869
 3731SOL     OW22651   0.613   3.552   6.003 -0.1371 -0.3690 -0.0093
 3731SOL    HW122652   0.544   3.492   6.032  0.7127 -1.9774 -1.3810
 3731SOL    HW222653   0.671   3.531   6.076  0.6266 -1.0705 -0.8262
 3732SOL     OW22654   0.022   4.536  12.974  0.2319 -0.3000 -0.8554
 3732SOL    HW122655   0.058   4.453  12.942  0.1262 -0.5562 -0.3211
 3732SOL    HW222656   0.081   4.596  12.929 -0.8108  1.1844 -0.2233
 3733SOL     OW22657   4.148   4.530   7.507 -0.2121  0.6610 -0.0102
 3733SOL    HW122658   4.240   4.553   7.516 -0.2901  1.3959 -1.1574
 3733SOL    HW222659   4.137   4.466   7.436 -0.0694  0.1454  0.4358
 3734SOL     OW22660   0.010   2.416   4.070  0.5861  0.1149 -0.0226
 3734SOL    HW122661   4.725   2.422   4.165 -0.4434  0.4372 -0.1590
 3734SOL    HW222662   0.046   2.496   4.034  0.1839 -0.7090 -2.2624
 3735SOL     OW22663   1.252   2.969   5.841 -0.2214  0.1681  0.1295
 3735SOL    HW122664   1.237   2.895   5.782 -0.8076 -0.5038  1.1396
 3735SOL    HW222665   1.280   3.034   5.775 -1.5076  1.0415  0.4442
 3736SOL     OW22666   4.314   2.036   2.621  0.1515  0.4450  0.6489
 3736SOL    HW122667   4.393   2.076   2.585  1.4281 -2.4478  0.2630
 3736SOL    HW222668   4.314   1.950   2.580 -1.5774  0.7748 -0.0656
 3737SOL     OW22669   2.341   2.133   0.705  0.2966  0.0968 -0.2598
 3737SOL    HW122670   2.275   2.070   0.735  0.4623  0.6345  1.2655
 3737SOL    HW222671   2.415   2.116   0.763  1.6551  3.4643 -1.0224
 3738SOL     OW22672   1.980   3.871   9.008 -0.0308 -0.1114  0.2083
 3738SOL    HW122673   1.990   3.791   8.957  0.9174 -1.0290  1.8101
 3738SOL    HW222674   1.889   3.861   9.038  0.0127  0.1653  0.4362
 3739SOL     OW22675   2.264   3.010   7.594  0.2491  0.9938 -0.4600
 3739SOL    HW122676   2.279   2.935   7.653  4.0698  2.3721  0.2531
 3739SOL    HW222677   2.205   3.061   7.650 -2.1015 -0.6906 -1.3737
 3740SOL     OW22678   2.014   4.572   8.661 -0.0571  0.0161 -0.1653
 3740SOL    HW122679   1.976   4.561   8.749 -0.9551 -0.6970 -0.6374
 3740SOL    HW222680   1.948   4.631   8.625 -1.3987 -2.4498 -1.7965
 3741SOL     OW22681   4.235   0.130   7.849  0.0135 -0.3119 -0.1819
 3741SOL    HW122682   4.323   0.116   7.813 -0.2126  0.0592 -0.8829
 3741SOL    HW222683   4.252   0.193   7.920 -2.8747  0.3803 -0.1203
 3742SOL     OW22684   1.081   2.950  15.275 -0.0603  0.3519  0.6887
 3742SOL    HW122685   1.112   2.929  15.187 -0.1852 -0.9784  0.9651
 3742SOL    HW222686   1.122   2.881  15.327 -1.2239 -1.2454 -0.5103
 3743SOL     OW22687   3.391   1.110   2.020  0.0152  0.2402 -0.3834
 3743SOL    HW122688   3.424   1.080   1.935 -2.1765  2.3344 -1.9774
 3743SOL    HW222689   3.297   1.092   2.023  0.3601 -1.9351 -2.4876
 3744SOL     OW22690   3.851   3.737   2.578  0.0516  0.0198 -0.2570
 3744SOL    HW122691   3.774   3.682   2.566 -0.3832  0.2553  1.3959
 3744SOL    HW222692   3.811   3.824   2.572 -0.3170 -0.0575  1.1726
 3745SOL     OW22693   0.329   0.333   6.553 -0.3665  0.4703  0.4705
 3745SOL    HW122694   0.377   0.322   6.635 -0.1763  0.6629  0.3850
 3745SOL    HW222695   0.242   0.307   6.584 -0.5951  0.2645 -0.3402
 3746SOL     OW22696   4.160   3.424   6.868 -0.1133 -0.0201  0.3015
 3746SOL    HW122697   4.247   3.419   6.907  0.1927 -0.3080 -0.4259
 3746SOL    HW222698   4.116   3.348   6.907  1.4107 -1.4481 -0.7820
 3747SOL     OW22699   3.702   0.282   5.000  0.0887  0.6396  0.2297
 3747SOL    HW122700   3.722   0.359   4.946  0.3641  0.0795 -0.4658
 3747SOL    HW222701   3.766   0.283   5.071 -0.2078 -3.5226  0.5744
 3748SOL     OW22702   0.737   3.749  13.670 -0.0555 -0.3619 -0.3587
 3748SOL    HW122703   0.657   3.782  13.710  0.8267 -1.5791  2.3844
 3748SOL    HW222704   0.801   3.820  13.669  0.8644 -1.1858 -0.0691
 3749SOL     OW22705   1.532   0.284   3.041 -0.4386  0.3793 -0.2412
 3749SOL    HW122706   1.562   0.227   3.112  1.1666 -0.2434 -1.4209
 3749SOL    HW222707   1.619   0.306   3.007  0.5821 -0.5688  1.7562
 3750SOL     OW22708   4.523   4.051   2.376  0.0018 -0.0525  0.1468
 3750SOL    HW122709   4.461   4.005   2.318  0.0810 -0.7187  0.5789
 3750SOL    HW222710   4.539   3.973   2.430  2.0748 -0.0416 -0.4680
 3751SOL     OW22711   4.116   4.640  16.777  0.7968 -0.3210  0.4082
 3751SOL    HW122712   4.108   4.621  16.683  0.7599  2.1115 -0.0696
 3751SOL    HW222713   4.102   0.009  16.779  0.5337 -0.3223 -0.9512
 3752SOL     OW22714   0.061   3.028   4.256  0.8145  0.1167 -0.4076
 3752SOL    HW122715   4.716   3.034   4.191 -0.8767 -0.2810  1.3996
 3752SOL    HW222716   0.126   2.995   4.194  0.4580  0.4569 -0.9581
 3753SOL     OW22717   3.867   0.528   2.588 -0.5487  0.5961 -0.2097
 3753SOL    HW122718   3.863   0.437   2.617 -1.5318  0.7774  0.2194
 3753SOL    HW222719   3.962   0.524   2.580 -0.4147  0.2682  1.6832
 3754SOL     OW22720   0.233   1.414   2.461  0.9872 -0.3817 -0.2186
 3754SOL    HW122721   0.184   1.486   2.422 -0.0353 -0.8366  0.2156
 3754SOL    HW222722   0.213   1.428   2.554  4.1585 -1.9442  0.6938
 3755SOL     OW22723   4.581   0.760   4.164  0.3192 -0.0938  0.2776
 3755SOL    HW122724   4.675   0.742   4.160  0.2935  0.6239 -3.1033
 3755SOL    HW222725   4.565   0.771   4.258 -0.0219 -2.0099  0.4411
 3756SOL     OW22726   1.402   2.576  10.572 -0.3512  0.0458  0.6103
 3756SOL    HW122727   1.444   2.595  10.656  2.2539 -1.3948 -0.3736
 3756SOL    HW222728   1.338   2.513  10.605 -0.7173  0.4508  0.6752
 3757SOL     OW22729   3.776   4.332   0.545  0.4471 -0.3602  0.2917
 3757SOL    HW122730   3.818   4.383   0.614 -0.9091 -0.5782  1.2810
 3757SOL    HW222731   3.686   4.358   0.561  0.1749 -1.8209  1.1384
 3758SOL     OW22732   3.419   0.150  14.723  0.6691  0.5676 -0.1017
 3758SOL    HW122733   3.444   0.232  14.681  1.7725  0.4588  0.3423
 3758SOL    HW222734   3.335   0.130  14.681  0.5632  2.4043 -0.7642
 3759SOL     OW22735   1.765   0.761   6.683 -0.1069  0.0866 -0.2563
 3759SOL    HW122736   1.803   0.846   6.664  0.6277 -0.0113  0.7421
 3759SOL    HW222737   1.679   0.763   6.641  0.3141 -0.4806 -1.1310
 3760SOL     OW22738   2.624   1.399   7.256 -0.6845  0.3471  0.1724
 3760SOL    HW122739   2.583   1.421   7.173 -0.6609  1.8098  0.5412
 3760SOL    HW222740   2.609   1.305   7.260 -0.7233  0.3880  1.0325
 3761SOL     OW22741   3.159   0.611   2.544  0.2285 -0.3706 -0.6578
 3761SOL    HW122742   3.227   0.679   2.543  0.8232 -0.8947  2.8426
 3761SOL    HW222743   3.124   0.620   2.455  1.7688  2.4837 -0.9756
 3762SOL     OW22744   0.847   2.477   3.651 -0.4757 -0.2074 -0.0288
 3762SOL    HW122745   0.783   2.456   3.720  1.2165  0.8309  1.8572
 3762SOL    HW222746   0.905   2.402   3.640  0.5182  0.6239 -0.3822
 3763SOL     OW22747   0.656   2.043  10.440  0.5673 -0.5387  0.2603
 3763SOL    HW122748   0.744   2.037  10.401 -0.0447  1.3831 -1.4674
 3763SOL    HW222749   0.619   2.030  10.353  1.6485  3.6988 -0.8516
 3764SOL     OW22750   3.837   3.328   4.515  0.8280  0.3119  0.6668
 3764SOL    HW122751   3.921   3.283   4.503 -0.7890 -2.2775 -1.0625
 3764SOL    HW222752   3.797   3.326   4.428 -1.2800  0.0841  1.6336
 3765SOL     OW22753   1.262   2.854   9.254  0.0281  0.0341  0.5003
 3765SOL    HW122754   1.290   2.859   9.162 -0.1118  0.4765  0.4788
 3765SOL    HW222755   1.261   2.760   9.267 -0.7363 -0.2152 -1.3648
 3766SOL     OW22756   0.859   0.358   0.545 -0.6451 -0.3805  0.2671
 3766SOL    HW122757   0.920   0.431   0.557  0.0986 -0.5491 -2.6220
 3766SOL    HW222758   0.814   0.376   0.462 -0.1188  0.2005  0.1091
 3767SOL     OW22759   0.976   1.936   0.812  0.2027 -0.4372  0.5245
 3767SOL    HW122760   1.013   1.917   0.898  0.1508 -3.1822 -0.0564
 3767SOL    HW222761   0.956   2.029   0.822 -0.7219 -0.4819 -0.8386
 3768SOL     OW22762   2.611   2.123   8.367 -0.5576  0.2939 -0.4752
 3768SOL    HW122763   2.575   2.096   8.451  0.1891  2.9026  0.6985
 3768SOL    HW222764   2.637   2.214   8.380 -0.9258  0.3971 -0.4779
 3769SOL     OW22765   0.634   3.434   2.274  0.5491  0.2638  0.1444
 3769SOL    HW122766   0.563   3.464   2.217  0.6880  0.0333 -0.1524
 3769SOL    HW222767   0.692   3.509   2.263  2.1982 -0.5210  3.3123
 3770SOL     OW22768   1.215   4.093   5.607 -0.1099 -0.0188  0.2216
 3770SOL    HW122769   1.172   4.034   5.670  1.3840 -0.8669  0.4457
 3770SOL    HW222770   1.179   4.178   5.632 -0.7661 -0.3827  0.5132
 3771SOL     OW22771   0.109   2.574  10.261 -0.4985 -0.2686  0.0450
 3771SOL    HW122772   0.124   2.605  10.350 -1.9287  2.7586 -0.7785
 3771SOL    HW222773   0.119   2.480  10.278 -0.3594 -0.1646  0.5248
 3772SOL     OW22774   1.510   1.560   1.869  0.0272 -0.3573  0.0979
 3772SOL    HW122775   1.511   1.538   1.776 -0.7556 -1.4102  0.3308
 3772SOL    HW222776   1.446   1.495   1.900  0.5683 -1.2526 -0.6848
 3773SOL     OW22777   1.496   4.528  11.462 -0.2285 -0.1849  0.1046
 3773SOL    HW122778   1.405   4.560  11.457 -0.5665 -0.4779  3.8635
 3773SOL    HW222779   1.522   4.532  11.371 -2.3276 -1.7981 -0.5689
 3774SOL     OW22780   0.080   1.754   7.591 -0.0151  0.1466  0.1645
 3774SOL    HW122781   0.168   1.720   7.605  0.0221  0.4044  0.5524
 3774SOL    HW222782   0.035   1.701   7.657  1.1654 -3.5275 -1.9554
 3775SOL     OW22783   3.479   3.644  17.316 -0.0757 -0.3758 -0.5308
 3775SOL    HW122784   3.481   3.650  17.412  1.5041  1.0313 -0.6535
 3775SOL    HW222785   3.518   3.557  17.306  1.8912  0.6237 -1.4184
 3776SOL     OW22786   4.579   2.234  16.735 -0.5430 -0.7023  0.4720
 3776SOL    HW122787   4.656   2.196  16.778 -1.0301 -1.9863  0.2189
 3776SOL    HW222788   4.577   2.313  16.789  1.0171 -0.1098 -0.3585
 3777SOL     OW22789   3.784   4.361   4.022  0.2184  0.1625 -0.4812
 3777SOL    HW122790   3.837   4.300   3.971  1.1820  1.6939 -1.3135
 3777SOL    HW222791   3.816   4.348   4.111 -0.5756 -2.5608 -0.5857
 3778SOL     OW22792   1.937   3.895  16.132  0.1368  0.2225 -0.1221
 3778SOL    HW122793   2.029   3.869  16.123  0.0294  0.3304 -1.4214
 3778SOL    HW222794   1.904   3.815  16.173  0.2093  0.6438  0.7628
 3779SOL     OW22795   4.248   4.572   4.707 -0.3047  0.2934 -0.0690
 3779SOL    HW122796   4.332   4.551   4.666  0.0371  1.7537 -0.1272
 3779SOL    HW222797   4.243   4.486   4.749  3.3724 -0.9410 -2.1411
 3780SOL     OW22798   4.286   3.901   9.717  0.2354  0.0096 -0.6248
 3780SOL    HW122799   4.295   3.805   9.715 -1.4982 -0.1432 -0.8530
 3780SOL    HW222800   4.308   3.912   9.810 -1.6579 -1.3620 -0.0265
 3781SOL     OW22801   4.393   2.637   3.831  0.5812 -0.6326  0.2430
 3781SOL    HW122802   4.342   2.646   3.750 -0.6049 -0.4441  1.0118
 3781SOL    HW222803   4.465   2.689   3.795  0.8775 -1.6814 -0.7052
 3782SOL     OW22804   2.359   2.176   8.216  0.6176  0.0994  0.2592
 3782SOL    HW122805   2.367   2.167   8.121 -0.9253 -0.8654  0.2308
 3782SOL    HW222806   2.439   2.227   8.234  0.6099 -0.0951  0.8302
 3783SOL     OW22807   0.854   4.268   5.088 -0.1803 -0.1191 -0.3208
 3783SOL    HW122808   0.846   4.363   5.093 -0.3828  0.0059 -3.0133
 3783SOL    HW222809   0.787   4.239   5.151  0.1457  1.0960  0.5930
 3784SOL     OW22810   0.949   4.035   5.338  0.0462  0.1178  0.1117
 3784SOL    HW122811   0.885   4.062   5.272  0.5255 -1.8640 -1.1393
 3784SOL    HW222812   0.893   4.030   5.416  0.5887 -2.1995  0.3466
 3785SOL     OW22813   2.441   1.112   3.983  0.0729  0.0280 -0.2267
 3785SOL    HW122814   2.381   1.082   3.915  1.1190 -2.8198  0.1468
 3785SOL    HW222815   2.465   1.033   4.031  0.4073  0.4568  0.3161
 3786SOL     OW22816   0.602   0.879   6.786  0.3127 -0.0548  0.4124
 3786SOL    HW122817   0.669   0.947   6.778 -0.7577  1.3039  2.8304
 3786SOL    HW222818   0.643   0.799   6.754 -0.6061  0.3364 -1.8191
 3787SOL     OW22819   2.264   0.987   1.560  0.2999 -0.5160 -0.1553
 3787SOL    HW122820   2.335   1.008   1.621  0.5963  0.0258 -0.6860
 3787SOL    HW222821   2.242   1.075   1.528  0.8240 -0.5472 -0.6005
 3788SOL     OW22822   3.414   2.683   8.757 -0.0446 -0.3147  0.2585
 3788SOL    HW122823   3.343   2.632   8.718  0.7493  0.5746 -2.2961
 3788SOL    HW222824   3.495   2.654   8.717  0.2204 -0.1317  0.6653
 3789SOL     OW22825   3.799   2.439  15.263  0.1717  0.1442  0.2254
 3789SOL    HW122826   3.787   2.361  15.208  0.3500  0.4148 -0.1984
 3789SOL    HW222827   3.752   2.505  15.212 -0.4907 -0.3116  0.2554
 3790SOL     OW22828   4.128   1.874   0.101 -0.2825 -0.0616  0.6512
 3790SOL    HW122829   4.151   1.815   0.029  0.1827 -0.0589  0.7959
 3790SOL    HW222830   4.207   1.855   0.153 -0.1398  0.9930  0.8263
 3791SOL     OW22831   0.053   2.341   2.994 -0.4156  0.1006 -0.7203
 3791SOL    HW122832   4.721   2.412   3.019 -0.5142  0.4547 -1.9903
 3791SOL    HW222833   0.102   2.378   2.921 -0.1638  0.0370 -0.5850
 3792SOL     OW22834   1.577   2.901   6.673 -0.5975 -0.1638 -0.2944
 3792SOL    HW122835   1.670   2.906   6.698 -0.1575  0.7044 -2.0430
 3792SOL    HW222836   1.543   2.942   6.752  0.7845  0.6150 -0.0958
 3793SOL     OW22837   3.880   3.890   7.101 -0.4238  0.1753 -0.1405
 3793SOL    HW122838   3.843   3.853   7.181 -1.1530 -1.2873 -1.1513
 3793SOL    HW222839   3.932   3.814   7.077 -1.3989 -0.3392 -0.6224
 3794SOL     OW22840   3.364   4.619   7.488  0.5187  0.6229  0.4914
 3794SOL    HW122841   3.337   4.533   7.519  0.7225  0.5012  0.3318
 3794SOL    HW222842   3.282   4.666   7.506 -1.9434 -2.6532 -2.3088
 3795SOL     OW22843   3.455   0.034   3.493  0.1093 -0.2829 -0.0510
 3795SOL    HW122844   3.372   4.712   3.487 -0.8882  1.4623 -0.2755
 3795SOL    HW222845   3.430   0.106   3.552 -0.9622 -1.6138  1.1164
 3796SOL     OW22846   4.681   2.263   3.261 -0.5101  0.5347  0.6320
 3796SOL    HW122847   4.706   2.283   3.171 -0.4531 -0.9450  0.3178
 3796SOL    HW222848   4.600   2.216   3.245 -0.4566  0.8398 -0.5588
 3797SOL     OW22849   2.145   2.588   3.280  0.6011 -0.6932  0.1203
 3797SOL    HW122850   2.127   2.495   3.291  3.2569 -0.8263  3.2602
 3797SOL    HW222851   2.150   2.600   3.185 -0.1368  2.4385  0.4573
 3798SOL     OW22852   1.874   2.209  14.770  0.2170 -0.0230  0.0691
 3798SOL    HW122853   1.820   2.279  14.734  0.6148  0.3578  0.2047
 3798SOL    HW222854   1.812   2.152  14.816  0.9503 -1.6561 -0.9558
 3799SOL     OW22855   1.781   2.389   2.459  0.8011 -0.3486 -0.2699
 3799SOL    HW122856   1.874   2.384   2.438  1.1201  0.1772  1.0527
 3799SOL    HW222857   1.791   2.406   2.553 -2.4077  0.2829 -0.0578
 3800SOL     OW22858   2.742   0.905   4.611 -0.2435 -0.3813 -0.1139
 3800SOL    HW122859   2.755   0.976   4.549 -2.0719  1.1278  1.2090
 3800SOL    HW222860   2.716   0.954   4.689 -1.2401 -1.3188  0.1505
 3801SOL     OW22861   2.922   0.549   8.343  0.0596 -0.3961  0.0492
 3801SOL    HW122862   2.873   0.628   8.365  0.5738 -0.8432  2.8425
 3801SOL    HW222863   2.879   0.489   8.404  0.6650 -0.8120  0.0684
 3802SOL     OW22864   4.366   3.654   4.494  0.1092  0.4612  0.4813
 3802SOL    HW122865   4.356   3.586   4.427 -3.0009  0.3860  1.0148
 3802SOL    HW222866   4.376   3.735   4.444 -0.3918  0.0114 -0.3472
 3803SOL     OW22867   1.932   0.502  15.524 -0.4891  0.3352  0.1142
 3803SOL    HW122868   1.959   0.529  15.612  0.1133  0.7734 -0.2024
 3803SOL    HW222869   1.946   0.408  15.536  1.1351  0.1617 -3.0708
 3804SOL     OW22870   4.132   3.520   0.185  0.1963 -0.7480  0.1730
 3804SOL    HW122871   4.051   3.567   0.165  1.4986  0.8908 -1.3135
 3804SOL    HW222872   4.183   3.580   0.240 -1.7169  1.4630 -0.4732
 3805SOL     OW22873   2.295   3.346   8.378 -0.5947 -0.0610 -0.2428
 3805SOL    HW122874   2.321   3.406   8.449 -2.6456 -0.4040  0.8014
 3805SOL    HW222875   2.358   3.364   8.309 -0.0293  0.3693  0.3785
 3806SOL     OW22876   1.006   0.487   1.965  0.1340  0.5812  0.2365
 3806SOL    HW122877   1.049   0.402   1.960 -0.8368  0.1625 -0.8684
 3806SOL    HW222878   1.021   0.515   1.875  0.2803  0.4610  0.2233
 3807SOL     OW22879   3.875   2.104   1.680 -0.0014  0.1474 -0.3532
 3807SOL    HW122880   3.919   2.164   1.741 -0.2658  1.4678 -1.4464
 3807SOL    HW222881   3.939   2.034   1.685 -1.4037 -1.0933  0.1016
 3808SOL     OW22882   2.347   1.142   6.192  0.3890 -0.6362 -0.2854
 3808SOL    HW122883   2.406   1.216   6.175  0.2735 -0.6187 -0.5956
 3808SOL    HW222884   2.408   1.075   6.223  1.0519  0.9812  1.8973
 3809SOL     OW22885   2.857   2.190   8.107  0.0071  0.1274  0.6032
 3809SOL    HW122886   2.768   2.157   8.108  0.2290 -0.4876 -0.0801
 3809SOL    HW222887   2.876   2.179   8.014 -0.3962  1.1546  0.4021
 3810SOL     OW22888   1.794   0.500   7.519 -0.3493  0.2351  0.3223
 3810SOL    HW122889   1.886   0.494   7.542 -0.3600 -0.4079  0.1954
 3810SOL    HW222890   1.764   0.435   7.582 -1.1665 -1.6829 -2.0593
 3811SOL     OW22891   1.714   1.408   7.503 -0.1189  0.7120 -0.1469
 3811SOL    HW122892   1.721   1.501   7.522 -0.0911  0.8660 -0.8972
 3811SOL    HW222893   1.785   1.403   7.439 -0.2646  0.5098 -0.2912
 3812SOL     OW22894   4.101   0.720  12.510 -0.2551 -0.8442 -0.2652
 3812SOL    HW122895   4.126   0.750  12.423  0.0475  0.0690  0.1374
 3812SOL    HW222896   4.187   0.692  12.543  0.1525 -1.0531 -1.5247
 3813SOL     OW22897   2.279   1.098   8.340 -0.2669  0.2820  0.0125
 3813SOL    HW122898   2.331   1.033   8.387 -3.2310 -1.6795  0.5164
 3813SOL    HW222899   2.204   1.045   8.315 -0.3763  0.1807  0.5653
 3814SOL     OW22900   1.804   3.474   0.197  0.5195 -0.0429  0.0742
 3814SOL    HW122901   1.789   3.496   0.105 -0.6286 -1.3514 -0.0565
 3814SOL    HW222902   1.721   3.427   0.209  0.3743  0.2197  0.1000
 3815SOL     OW22903   2.450   4.305   5.582 -0.6666 -0.1334  0.3248
 3815SOL    HW122904   2.512   4.339   5.518  0.5362 -1.2319  0.8965
 3815SOL    HW222905   2.498   4.223   5.599 -0.6842 -0.3091 -0.4754
 3816SOL     OW22906   1.985   2.092   8.086  0.1424  0.6186 -0.1748
 3816SOL    HW122907   1.930   2.092   8.007 -1.0723  0.1721  0.6736
 3816SOL    HW222908   1.947   2.018   8.134 -2.0309  1.4803 -0.5728
 3817SOL     OW22909   2.317   3.195   9.610 -1.2682 -0.2043  0.0559
 3817SOL    HW122910   2.311   3.290   9.619 -3.3902 -0.4605  1.2640
 3817SOL    HW222911   2.222   3.190   9.603 -1.1258 -3.1199  0.0994
 3818SOL     OW22912   1.094   2.471  10.910  0.3682  0.1367  0.2536
 3818SOL    HW122913   1.140   2.444  10.989  1.2723 -0.8635 -0.6247
 3818SOL    HW222914   1.059   2.383  10.892 -0.7153  0.4771  0.6646
 3819SOL     OW22915   4.702   2.133   3.592 -0.3564  0.2168  0.5296
 3819SOL    HW122916   4.660   2.215   3.569  1.3161  1.0281  0.3279
 3819SOL    HW222917   0.065   2.164   3.610 -0.4520 -0.7743  2.7182
 3820SOL     OW22918   1.938   0.625   2.095 -1.0204 -0.1785 -0.1569
 3820SOL    HW122919   1.981   0.540   2.082 -0.1998  0.4743 -1.6775
 3820SOL    HW222920   2.001   0.680   2.048  1.1691 -1.0246  1.7709
 3821SOL     OW22921   0.574   0.003   9.154 -0.9506  0.4544  0.3166
 3821SOL    HW122922   0.621   4.722   9.237 -0.1452 -2.6034 -0.3891
 3821SOL    HW222923   0.514   4.658   9.177  0.6138 -0.9120  0.2598
 3822SOL     OW22924   3.013   0.546   4.452  0.0435  0.4958 -0.1143
 3822SOL    HW122925   3.059   0.478   4.500 -0.2617 -0.2136 -0.8179
 3822SOL    HW222926   3.001   0.495   4.372  0.8902  0.6331 -0.3302
 3823SOL     OW22927   2.796   2.238   9.934  0.4285  0.4249  0.3758
 3823SOL    HW122928   2.864   2.171   9.945 -1.0694 -1.5461 -2.3842
 3823SOL    HW222929   2.839   2.317   9.968  0.4721  0.0488  1.2043
 3824SOL     OW22930   0.387   0.206   9.285  0.3431 -0.0152  0.3106
 3824SOL    HW122931   0.440   0.143   9.236  1.7641  0.5402  1.0989
 3824SOL    HW222932   0.434   0.205   9.369  0.1566  0.5254  0.4240
 3825SOL     OW22933   2.100   2.235   5.629  0.2389  0.3753 -0.3002
 3825SOL    HW122934   2.040   2.172   5.589 -0.4184 -0.2888  1.7200
 3825SOL    HW222935   2.071   2.239   5.720 -0.5937  0.4177 -0.5622
 3826SOL     OW22936   0.002   3.273   1.199  0.2121  0.0487 -0.4243
 3826SOL    HW122937   4.647   3.315   1.171  1.0117  1.6023 -0.4027
 3826SOL    HW222938   0.055   3.322   1.137  2.4909 -1.3573  0.4158
 3827SOL     OW22939   1.343   0.394   4.183 -0.5050 -0.4326 -0.6814
 3827SOL    HW122940   1.326   0.441   4.101  3.5947  1.0801 -0.6472
 3827SOL    HW222941   1.397   0.446   4.242 -2.5217 -0.0278  0.8148
 3828SOL     OW22942   0.679   4.193  13.652 -0.1407  0.0667  0.2259
 3828SOL    HW122943   0.673   4.151  13.566  2.1607 -1.0262  0.5857
 3828SOL    HW222944   0.771   4.220  13.653 -0.3092  0.6670 -0.2656
 3829SOL     OW22945   4.551   4.424   3.628 -0.4588  0.3227  0.6219
 3829SOL    HW122946   4.613   4.447   3.559 -1.2368 -0.9397 -0.4959
 3829SOL    HW222947   4.536   4.331   3.611  0.4782 -0.0617  1.9280
 3830SOL     OW22948   3.778   2.268   2.062  0.6438 -0.0563  0.1284
 3830SOL    HW122949   3.860   2.305   2.095  0.6854  1.3959 -1.5890
 3830SOL    HW222950   3.775   2.297   1.971 -0.2965  0.0673  0.2029
 3831SOL     OW22951   3.932   2.184   5.223  0.1401  0.1448  0.1660
 3831SOL    HW122952   3.914   2.156   5.313  2.6967 -1.2194  0.2587
 3831SOL    HW222953   3.936   2.279   5.231  1.5253  0.1820 -0.8479
 3832SOL     OW22954   4.541   4.556   5.807 -0.1816 -0.5936 -0.6645
 3832SOL    HW122955   4.466   4.501   5.831 -0.4821  0.3342  0.5200
 3832SOL    HW222956   4.528   4.547   5.713 -0.8909 -2.5170 -0.3882
 3833SOL     OW22957   0.567   0.466   6.138 -0.6304  0.2895  0.6007
 3833SOL    HW122958   0.629   0.528   6.177 -0.1222  0.3121 -0.2454
 3833SOL    HW222959   0.554   0.405   6.212 -1.2062  0.0100  0.2691
 3834SOL     OW22960   2.945   0.770   2.690 -0.0082 -0.1707 -0.0174
 3834SOL    HW122961   2.955   0.760   2.595 -0.1545  0.7400 -0.1328
 3834SOL    HW222962   3.018   0.825   2.720 -0.8660  0.9991 -0.0607
 3835SOL     OW22963   3.523   3.220  16.271 -0.4368  0.5039 -0.5032
 3835SOL    HW122964   3.493   3.130  16.284  0.1691  0.4028  0.2303
 3835SOL    HW222965   3.450   3.269  16.309 -0.8026 -1.4090  1.2698
 3836SOL     OW22966   0.147   0.198   2.169  0.5318 -0.3318  0.0148
 3836SOL    HW122967   0.154   0.104   2.190 -0.0163  0.0762  2.0069
 3836SOL    HW222968   0.079   0.222   2.232  0.2436 -0.0613 -0.4045
 3837SOL     OW22969   1.196   2.674  10.753 -0.0437  0.5310  0.2146
 3837SOL    HW122970   1.177   2.696  10.662 -1.3460 -0.7850  0.1556
 3837SOL    HW222971   1.162   2.586  10.768 -0.0913  0.4615 -0.2854
 3838SOL     OW22972   3.862   3.168   2.448 -0.0835  0.1977  0.3612
 3838SOL    HW122973   3.925   3.130   2.388 -0.0826  1.0667 -0.1863
 3838SOL    HW222974   3.813   3.089   2.472  2.0920 -0.9897  0.9023
 3839SOL     OW22975   4.119   2.910   6.314  0.7884  0.4255 -0.3380
 3839SOL    HW122976   4.024   2.900   6.324  0.9589 -0.6796  0.1453
 3839SOL    HW222977   4.123   2.902   6.218 -0.0392  1.1331 -0.4395
 3840SOL     OW22978   2.711   0.237   9.041 -0.4995  0.5757 -0.3505
 3840SOL    HW122979   2.780   0.173   9.023 -2.7258 -2.0922  0.7593
 3840SOL    HW222980   2.714   0.251   9.136  0.6620 -1.7224 -0.0388
 3841SOL     OW22981   4.411   3.991   7.314 -0.2184  0.2308 -0.2162
 3841SOL    HW122982   4.433   4.075   7.274  0.2709  0.4018  0.4085
 3841SOL    HW222983   4.362   3.946   7.246  1.7102 -0.8420 -0.8940
 3842SOL     OW22984   0.841   3.999   2.147 -0.6935 -0.0430  0.4691
 3842SOL    HW122985   0.768   3.947   2.182 -0.2210 -1.4107 -0.5685
 3842SOL    HW222986   0.905   3.975   2.214 -0.2796  0.7798  0.3676
 3843SOL     OW22987   0.129   4.475   6.094  0.1389  0.0540  0.0570
 3843SOL    HW122988   0.212   4.445   6.133  0.4965  1.6682  0.5207
 3843SOL    HW222989   0.067   4.444   6.160  0.7672 -0.5035  0.3874
 3844SOL     OW22990   1.063   3.780  16.106  0.3787 -0.0223  0.7539
 3844SOL    HW122991   1.023   3.864  16.083  1.6507  0.1618 -0.7661
 3844SOL    HW222992   1.049   3.783  16.201 -0.3872  1.0255  0.5942
 3845SOL     OW22993   2.292   3.422  12.736 -0.1005  0.3242  0.2169
 3845SOL    HW122994   2.232   3.348  12.728  0.8480 -0.2861 -1.2611
 3845SOL    HW222995   2.252   3.460  12.814 -1.9523 -2.4243  0.6182
 3846SOL     OW22996   1.164   2.326   5.360 -0.4057  0.2980  0.2809
 3846SOL    HW122997   1.198   2.330   5.271 -1.0350  0.2123  0.0335
 3846SOL    HW222998   1.083   2.276   5.350  0.2660 -0.5350 -0.8875
 3847SOL     OW22999   2.754   4.709   5.424 -0.3050  0.1514 -0.1015
 3847SOL    HW123000   2.750   4.700   5.519  1.1462 -0.1867 -0.0722
 3847SOL    HW223001   2.838   0.022   5.400  0.5804 -2.0836 -0.5648
 3848SOL     OW23002   1.219   4.343   3.440 -0.4049 -0.3553  0.1048
 3848SOL    HW123003   1.272   4.264   3.444 -2.1589 -1.4123  2.5068
 3848SOL    HW223004   1.279   4.403   3.396 -2.9744  1.0718 -1.4873
 3849SOL     OW23005   0.346   0.528   0.710 -0.3481 -0.1515  0.2784
 3849SOL    HW123006   0.306   0.560   0.628 -2.2928 -2.1696  0.4454
 3849SOL    HW223007   0.396   0.605   0.737 -2.5739  1.1536  0.7012
 3850SOL     OW23008   4.431   2.139   3.191  0.7493 -0.2915  0.3639
 3850SOL    HW123009   4.342   2.172   3.204  0.7669 -0.6386  1.3835
 3850SOL    HW223010   4.429   2.090   3.273  1.8072  1.8832  1.7072
 3851SOL     OW23011   0.788   4.373  14.120 -0.0955  0.2719 -0.3392
 3851SOL    HW123012   0.729   4.311  14.079  0.7892 -0.3419 -0.6927
 3851SOL    HW223013   0.755   4.382  14.209  1.4946 -2.6598  0.5559
 3852SOL     OW23014   4.210   4.010   8.705 -0.0910 -0.4142 -0.5758
 3852SOL    HW123015   4.120   3.981   8.715 -0.4982  1.2429  0.4521
 3852SOL    HW223016   4.219   4.068   8.780  1.7052  0.7626 -1.6812
 3853SOL     OW23017   1.496   3.377   5.196  0.0020 -0.0860 -0.0676
 3853SOL    HW123018   1.446   3.314   5.248 -0.6955  0.9141  0.4721
 3853SOL    HW223019   1.576   3.339   5.161 -0.7510 -1.8795  0.1113
 3854SOL     OW23020   4.389   0.887   3.037  0.1063  0.0271 -0.3008
 3854SOL    HW123021   4.326   0.954   3.010  2.1221  2.0364  0.0330
 3854SOL    HW223022   4.474   0.931   3.027 -0.8433  1.8117 -0.5634
 3855SOL     OW23023   0.133   4.558   1.581 -0.2599 -0.2922  0.3125
 3855SOL    HW123024   0.057   4.563   1.524 -0.2225 -0.5692  0.2391
 3855SOL    HW223025   0.157   4.466   1.573  3.6323  0.5352  2.0749
 3856SOL     OW23026   3.013   4.450   3.637  0.4115  0.5435 -0.1337
 3856SOL    HW123027   3.065   4.446   3.557 -0.6759 -1.0241 -0.7548
 3856SOL    HW223028   3.059   4.386   3.692  0.0790  0.9110  0.5823
 3857SOL     OW23029   2.982   2.393   0.653 -0.4518  0.0639  0.1808
 3857SOL    HW123030   3.004   2.331   0.584  0.1865  2.1315 -1.5043
 3857SOL    HW223031   2.897   2.414   0.612 -0.4021  0.7615  0.4285
 3858SOL     OW23032   0.170   0.816   0.191 -0.4062 -0.1450 -0.2543
 3858SOL    HW123033   0.101   0.870   0.153  0.2344  1.1473  0.4241
 3858SOL    HW223034   0.247   0.866   0.166 -0.5162 -0.4708 -1.2337
 3859SOL     OW23035   1.720   1.143   7.577 -0.2579 -0.0121  0.2696
 3859SOL    HW123036   1.810   1.164   7.600  0.3767 -1.3824 -0.9693
 3859SOL    HW223037   1.686   1.232   7.573  0.3482  0.2568  1.0442
 3860SOL     OW23038   2.462   0.344  11.268 -0.6413 -0.1142 -0.2281
 3860SOL    HW123039   2.514   0.408  11.317 -0.7691 -0.7325  0.7074
 3860SOL    HW223040   2.488   0.371  11.180 -0.9976  1.0710  0.0389
 3861SOL     OW23041   2.951   1.041   1.823 -0.1114  0.5016  0.2771
 3861SOL    HW123042   3.020   1.106   1.834  0.5761 -0.4923  1.8150
 3861SOL    HW223043   2.996   0.961   1.796 -0.0507  0.2328  1.1696
 3862SOL     OW23044   4.287   2.138   6.854 -0.0472 -0.5678  0.4565
 3862SOL    HW123045   4.200   2.143   6.815  0.3470  1.2382 -0.1785
 3862SOL    HW223046   4.321   2.207   6.797  1.3486 -0.5063  1.3675
 3863SOL     OW23047   1.851   1.813   3.452 -0.1004  0.7697  0.5696
 3863SOL    HW123048   1.823   1.842   3.539  0.2460 -0.6059  1.1341
 3863SOL    HW223049   1.885   1.724   3.465 -2.6423  0.0123  2.0789
 3864SOL     OW23050   0.577   4.452   1.044 -0.2247  0.3517 -0.1573
 3864SOL    HW123051   0.665   4.440   1.010  0.8886  0.3098  2.7294
 3864SOL    HW223052   0.517   4.418   0.978  0.9646 -2.5211  0.2720
 3865SOL     OW23053   4.561   3.393  13.421 -0.4208 -0.5046 -0.7464
 3865SOL    HW123054   4.654   3.410  13.405  0.4018 -2.5105  1.9160
 3865SOL    HW223055   4.550   3.390  13.516 -2.2687 -0.9195 -0.9766
 3866SOL     OW23056   2.140   3.342   9.846  0.3988 -0.4873  0.8267
 3866SOL    HW123057   2.129   3.423   9.896  0.8984  0.6958 -1.0085
 3866SOL    HW223058   2.132   3.364   9.753 -1.3049 -1.3341  0.7589
 3867SOL     OW23059   4.307   1.532   3.489 -0.3060  0.6764 -0.0313
 3867SOL    HW123060   4.246   1.462   3.469  2.2288 -1.1998 -1.1084
 3867SOL    HW223061   4.344   1.536   3.401 -1.4063  0.1283 -0.5184
 3868SOL     OW23062   4.538   1.289  16.101  0.5197 -0.5962  0.2412
 3868SOL    HW123063   4.499   1.248  16.024 -3.0177 -1.1965  2.3057
 3868SOL    HW223064   4.572   1.367  16.058 -1.2256 -0.7794 -1.4987
 3869SOL     OW23065   0.604   1.021   8.983 -0.1700  0.3581 -0.2553
 3869SOL    HW123066   0.613   0.946   9.042 -0.4280  0.7276  0.2470
 3869SOL    HW223067   0.631   1.096   9.035  1.7152 -1.0618  0.7866
 3870SOL     OW23068   3.604   0.382   2.960  0.4261 -0.0837 -0.1739
 3870SOL    HW123069   3.678   0.401   2.903 -0.9195  0.1780 -1.8251
 3870SOL    HW223070   3.621   0.295   2.996 -3.5067 -1.7539 -2.4288
 3871SOL     OW23071   4.226   3.430  17.643  0.3447 -0.0545 -0.1907
 3871SOL    HW123072   4.319   3.451  17.638  0.6519 -1.0210  1.5317
 3871SOL    HW223073   4.202   3.453   0.028 -0.1267  2.3109 -0.9104
 3872SOL     OW23074   1.519   4.619   6.116  0.6805  0.0756  0.3421
 3872SOL    HW123075   1.588   4.681   6.137  0.9707  0.3719 -1.4931
 3872SOL    HW223076   1.481   4.666   6.041 -2.1725  0.1394  1.8078
 3873SOL     OW23077   4.104   1.377   5.273  0.0835  0.2394 -0.0548
 3873SOL    HW123078   4.098   1.305   5.336 -2.4639  1.6896  1.3537
 3873SOL    HW223079   4.103   1.454   5.330 -1.8281  0.5411 -0.5187
 3874SOL     OW23080   3.699   0.450   4.420  0.3741  0.1423 -0.2807
 3874SOL    HW123081   3.757   0.432   4.346  0.0954 -0.7425 -0.2782
 3874SOL    HW223082   3.622   0.396   4.402  0.0691  0.8244 -1.0269
 3875SOL     OW23083   1.130   0.401   3.044 -0.2741  0.1552 -0.4719
 3875SOL    HW123084   1.046   0.356   3.044 -0.1567 -0.0657 -0.7826
 3875SOL    HW223085   1.150   0.407   2.951 -0.2701  0.1142 -0.4735
 3876SOL     OW23086   2.992   2.535   7.584 -0.6559 -0.0237 -0.1295
 3876SOL    HW123087   3.039   2.517   7.665 -0.5067 -0.3812 -0.2963
 3876SOL    HW223088   2.907   2.565   7.617 -0.1138  2.6152 -1.0753
 3877SOL     OW23089   3.229   0.369  16.030  0.4162  0.0225 -0.1898
 3877SOL    HW123090   3.168   0.393  16.099  0.7213 -0.7682  0.3531
 3877SOL    HW223091   3.181   0.420  15.965 -1.0438  1.3527  1.9524
 3878SOL     OW23092   1.618   2.140   6.642 -0.0460  0.0144 -0.5000
 3878SOL    HW123093   1.553   2.074   6.668  2.9152 -2.5937  0.3023
 3878SOL    HW223094   1.570   2.170   6.565  0.8744 -0.6312 -1.3170
 3879SOL     OW23095   3.992   0.246   8.263  0.1047 -0.6456 -0.7647
 3879SOL    HW123096   3.948   0.212   8.341 -0.1881  0.9053 -0.2593
 3879SOL    HW223097   3.987   0.167   8.209 -0.2519  0.3484 -2.1702
 3880SOL     OW23098   1.272   3.715   4.543 -0.3223 -0.1243  0.1202
 3880SOL    HW123099   1.280   3.750   4.455  1.7110  1.6733  1.0301
 3880SOL    HW223100   1.246   3.785   4.603 -1.0786 -0.8939  0.7047
 3881SOL     OW23101   3.282   4.159   3.242 -0.0771  0.2738 -0.5465
 3881SOL    HW123102   3.352   4.152   3.177 -1.1880 -1.9863 -1.4746
 3881SOL    HW223103   3.236   4.078   3.221  0.8442 -0.3314 -0.2144
 3882SOL     OW23104   0.553   3.014   9.876  0.1960  0.0517 -0.0430
 3882SOL    HW123105   0.647   3.006   9.891 -0.0071 -2.1474 -0.0316
 3882SOL    HW223106   0.528   2.923   9.893 -0.9360  0.1554 -1.1446
 3883SOL     OW23107   3.580   0.502   2.202 -0.0412  0.1487 -0.0226
 3883SOL    HW123108   3.607   0.516   2.111 -0.6076 -0.1792 -0.2432
 3883SOL    HW223109   3.566   0.591   2.234 -2.7571 -0.4389  0.3822
 3884SOL     OW23110   1.588   1.911   9.099  0.0792 -0.1533 -0.1453
 3884SOL    HW123111   1.640   1.902   9.179 -0.5328 -1.7246  0.0625
 3884SOL    HW223112   1.511   1.946   9.143  0.6697  1.2841 -0.2610
 3885SOL     OW23113   4.324   2.449   8.459 -0.0950  0.3777 -0.0302
 3885SOL    HW123114   4.300   2.454   8.552 -1.3676 -1.8696 -0.2313
 3885SOL    HW223115   4.407   2.403   8.456  0.0039  0.5895 -0.5418
 3886SOL     OW23116   1.927   0.824   3.160 -0.3152 -0.6287 -0.7079
 3886SOL    HW123117   1.931   0.898   3.099 -0.7828  0.0862  0.1357
 3886SOL    HW223118   1.838   0.792   3.151 -0.5584 -0.9420  2.8840
 3887SOL     OW23119   1.896   0.447  15.204  0.5316 -0.2954 -1.0224
 3887SOL    HW123120   1.879   0.371  15.260  1.2030  0.6231  0.4350
 3887SOL    HW223121   1.991   0.436  15.196  0.5427 -0.3980 -0.7486
 3888SOL     OW23122   2.048   3.077  13.573 -0.3455  0.0114 -0.2848
 3888SOL    HW123123   2.021   3.001  13.521  2.3676 -0.4568 -0.9655
 3888SOL    HW223124   2.140   3.059  13.590 -0.4573  0.9221  1.2272
 3889SOL     OW23125   3.414   4.030   6.240  0.6578 -0.3360  0.1667
 3889SOL    HW123126   3.470   4.027   6.317  0.7004 -0.9081  0.1127
 3889SOL    HW223127   3.396   4.124   6.237 -0.5135 -0.6059 -1.4756
 3890SOL     OW23128   1.440   3.421   7.743 -0.0138 -0.3987 -0.1872
 3890SOL    HW123129   1.488   3.413   7.661 -2.7211 -0.5972 -1.7739
 3890SOL    HW223130   1.414   3.510   7.720 -0.2789  0.6106  4.1055
 3891SOL     OW23131   3.085   2.575   5.831 -0.1523  0.0561  0.1653
 3891SOL    HW123132   3.101   2.504   5.770 -1.4842  0.0488 -0.1868
 3891SOL    HW223133   3.152   2.561   5.898 -0.4110 -2.0178 -0.0288
 3892SOL     OW23134   4.600   3.630   6.270  0.5468  0.3406 -0.0174
 3892SOL    HW123135   4.579   3.650   6.361 -0.7110  2.2107 -0.7131
 3892SOL    HW223136   4.623   3.537   6.274  0.2218  0.2580 -0.0790
 3893SOL     OW23137   0.924   2.769   4.029  0.1160 -0.1975  0.1839
 3893SOL    HW123138   0.948   2.811   4.112 -0.9361 -1.3702  1.0768
 3893SOL    HW223139   0.935   2.842   3.968 -0.1262  0.7284  1.2592
 3894SOL     OW23140   2.761   2.704   2.035  0.3761 -0.0455 -0.0184
 3894SOL    HW123141   2.722   2.705   2.123 -1.4704 -1.0806 -0.8196
 3894SOL    HW223142   2.746   2.611   2.018  0.3412 -0.3797  1.7821
 3895SOL     OW23143   4.419   4.149   8.053  0.0396 -0.2959  0.3489
 3895SOL    HW123144   4.434   4.220   8.116 -0.3041  1.5392 -1.6152
 3895SOL    HW223145   4.324   4.150   8.065  0.0332 -2.7185  0.3710
 3896SOL     OW23146   1.361   3.460   1.398 -0.0568  0.0912  0.6429
 3896SOL    HW123147   1.349   3.555   1.389  1.7748  0.3287  0.7283
 3896SOL    HW223148   1.389   3.449   1.307 -0.1239  1.1861  0.4884
 3897SOL     OW23149   3.932   0.690   9.325 -0.2022 -0.2394  0.1636
 3897SOL    HW123150   4.014   0.649   9.297 -0.9799  0.4731 -3.1441
 3897SOL    HW223151   3.878   0.677   9.247  0.0654 -1.0010  0.1027
 3898SOL     OW23152   0.258   1.674   2.920  0.2895  0.7699 -0.1543
 3898SOL    HW123153   0.232   1.714   2.837  1.4877  0.7546 -0.5349
 3898SOL    HW223154   0.184   1.676   2.981  0.1158 -0.6888 -0.3179
 3899SOL     OW23155   0.018   2.213   4.678  0.1875 -0.1438  0.9850
 3899SOL    HW123156   0.084   2.145   4.692 -1.1456 -1.5624  0.3674
 3899SOL    HW223157   4.722   2.227   4.770 -0.4343 -3.0058  1.2616
 3900SOL     OW23158   0.393   3.596   2.160 -0.5774 -0.0370  0.2619
 3900SOL    HW123159   0.312   3.641   2.185 -1.7852 -0.8371 -2.2097
 3900SOL    HW223160   0.433   3.672   2.118  0.7667 -1.6632 -1.3855
 3901SOL     OW23161   2.669   4.365   7.694  0.3387 -0.0525 -0.1588
 3901SOL    HW123162   2.699   4.295   7.750 -2.1747 -1.1283 -0.1371
 3901SOL    HW223163   2.678   4.436   7.758  0.4378  2.3072 -2.7630
 3902SOL     OW23164   1.240   0.953   4.361 -0.2978  0.2713 -0.1330
 3902SOL    HW123165   1.191   0.997   4.431  1.9275 -1.3275  2.4238
 3902SOL    HW223166   1.327   0.987   4.380 -0.2430 -0.6400  1.2680
 3903SOL     OW23167   1.848   0.515   4.561 -0.1371  0.1984 -0.3712
 3903SOL    HW123168   1.887   0.468   4.488  1.7732  1.0709  0.0936
 3903SOL    HW223169   1.916   0.558   4.613 -0.3512 -0.8776  0.7812
 3904SOL     OW23170   3.366   1.640   6.964 -0.0779  0.3920 -0.2954
 3904SOL    HW123171   3.303   1.573   6.936 -1.2841  2.1006 -1.6562
 3904SOL    HW223172   3.350   1.698   6.889  0.7092  1.4529  0.3514
 3905SOL     OW23173   0.945   2.901   3.307 -0.4552 -0.1111 -0.2943
 3905SOL    HW123174   1.013   2.961   3.275 -0.3403  0.3944  0.8958
 3905SOL    HW223175   0.876   2.967   3.315 -1.3920 -1.2762  1.3029
 3906SOL     OW23176   0.702   3.653  14.393 -0.1124  0.0319 -0.5363
 3906SOL    HW123177   0.647   3.695  14.327 -1.6842 -0.7523  0.2782
 3906SOL    HW223178   0.764   3.598  14.346  1.5078 -0.5030  2.2099
 3907SOL     OW23179   1.759   1.073   6.094 -0.3109  0.0315 -0.3120
 3907SOL    HW123180   1.711   1.083   6.011 -1.4878 -0.4825  0.2995
 3907SOL    HW223181   1.823   1.144   6.098 -1.1469  0.7319  0.6755
 3908SOL     OW23182   1.706   2.430   6.688 -0.0948  0.1492  0.3306
 3908SOL    HW123183   1.663   2.345   6.702 -1.2696  0.9178  1.3927
 3908SOL    HW223184   1.687   2.438   6.594  0.4094  0.1005  0.2287
 3909SOL     OW23185   2.093   2.888  12.624  0.2268  0.2878 -0.5360
 3909SOL    HW123186   2.146   2.821  12.579  1.0180 -0.5324  1.6026
 3909SOL    HW223187   2.007   2.874  12.585  0.1287 -0.4002 -0.0889
 3910SOL     OW23188   2.621   4.181   3.123 -0.7488 -0.4900  0.7200
 3910SOL    HW123189   2.620   4.270   3.086  0.0027 -0.6808  0.2507
 3910SOL    HW223190   2.595   4.200   3.213  2.0178 -0.8817  1.6055
 3911SOL     OW23191   2.249   4.511   8.054  0.2255 -0.0077  0.5277
 3911SOL    HW123192   2.313   4.453   8.014  2.2199  2.4044  0.2090
 3911SOL    HW223193   2.230   4.481   8.143  1.9829  0.6839  1.1450
 3912SOL     OW23194   0.299   4.111   7.603 -0.1701 -0.1722 -0.2735
 3912SOL    HW123195   0.344   4.157   7.532 -0.6631  0.6283 -0.0612
 3912SOL    HW223196   0.240   4.182   7.627 -1.2916 -1.2180  0.0550
 3913SOL     OW23197   0.466   2.087  15.467 -0.2989 -0.2329 -0.5006
 3913SOL    HW123198   0.521   2.116  15.541  0.0368  1.2097 -1.3144
 3913SOL    HW223199   0.472   2.169  15.417 -0.1816  0.2735  0.3363
 3914SOL     OW23200   3.320   4.597   2.833 -0.2590 -0.3836 -0.5678
 3914SOL    HW123201   3.405   4.555   2.822  0.0106 -0.2784  1.0193
 3914SOL    HW223202   3.335   4.685   2.869  1.1490 -0.6467 -0.5107
 3915SOL     OW23203   0.797   3.141   3.380  0.5113 -0.4175  0.2740
 3915SOL    HW123204   0.779   3.135   3.287  0.9538 -0.2389  0.1788
 3915SOL    HW223205   0.831   3.229   3.397 -1.4873  0.9005 -2.8230
 3916SOL     OW23206   2.560   0.478   9.307  0.0939  0.1450 -0.0116
 3916SOL    HW123207   2.586   0.567   9.284  0.6381  0.1442  0.6173
 3916SOL    HW223208   2.478   0.487   9.259  0.0789  0.2943  0.0415
 3917SOL     OW23209   3.090   0.247   3.606  0.3810  0.2740 -0.3401
 3917SOL    HW123210   3.071   0.244   3.513  1.3630 -0.6956 -0.5069
 3917SOL    HW223211   3.077   0.340   3.624  1.1740  0.2671  0.2876
 3918SOL     OW23212   3.018   1.617   4.513 -0.0221  0.2069 -0.2214
 3918SOL    HW123213   3.008   1.543   4.574 -1.5972  1.3149  0.8537
 3918SOL    HW223214   3.108   1.609   4.481 -0.8990 -4.1053 -1.6337
 3919SOL     OW23215   2.646   3.629   8.234  0.3046  0.0044 -0.5415
 3919SOL    HW123216   2.680   3.654   8.320  1.7486  1.9547 -1.7062
 3919SOL    HW223217   2.682   3.696   8.176 -1.8517  0.7961 -0.9727
 3920SOL     OW23218   1.886   0.686   0.052 -0.1634 -0.4065  0.0446
 3920SOL    HW123219   1.909   0.650   0.138 -0.0927 -0.4690 -0.0006
 3920SOL    HW223220   1.824   0.756   0.072  0.7674  0.2165  0.7332
 3921SOL     OW23221   3.914   0.433   7.921 -0.5667 -0.0229  0.5254
 3921SOL    HW123222   3.884   0.464   8.006  2.7164 -0.1042  1.7159
 3921SOL    HW223223   4.008   0.451   7.925 -0.3239 -1.0415 -0.6593
 3922SOL     OW23224   1.959   2.015  13.553  0.3700  0.5095  0.1164
 3922SOL    HW123225   1.970   2.109  13.539  0.9301  0.4956  0.4629
 3922SOL    HW223226   1.950   2.013  13.648 -0.0094  0.4399  0.0773
 3923SOL     OW23227   0.361   2.558   6.399  0.6673 -0.0807  0.2642
 3923SOL    HW123228   0.276   2.517   6.412 -0.1183  1.5485  0.2574
 3923SOL    HW223229   0.334   2.647   6.421  0.7095 -0.4397  1.7529
 3924SOL     OW23230   0.430   2.201   3.789 -0.2996 -0.1509 -0.2003
 3924SOL    HW123231   0.356   2.259   3.808  0.3836  0.8193 -0.5362
 3924SOL    HW223232   0.380   2.127   3.753  0.5054 -0.7577 -0.0674
 3925SOL     OW23233   4.691   1.052   4.324 -0.8154 -0.1634  0.0664
 3925SOL    HW123234   0.037   1.077   4.266 -0.2467 -1.0850  0.3768
 3925SOL    HW223235   4.704   0.958   4.331 -0.5005 -0.2918 -2.2220
 3926SOL     OW23236   0.108   2.296  17.095 -0.0997 -0.1837 -0.3169
 3926SOL    HW123237   0.123   2.317  17.187  0.3438  2.5597 -1.0180
 3926SOL    HW223238   0.190   2.255  17.069  0.1334  0.5327 -0.6990
 3927SOL     OW23239   4.187   2.467  13.184 -0.9340  0.1346 -0.1632
 3927SOL    HW123240   4.153   2.398  13.241  0.9315 -1.1241 -0.5795
 3927SOL    HW223241   4.212   2.529  13.253  3.5132 -2.4565  0.5120
 3928SOL     OW23242   0.051   2.647   7.501 -0.2500  0.5776 -0.8467
 3928SOL    HW123243   0.032   2.740   7.491 -1.5678  0.4429  0.4228
 3928SOL    HW223244   0.077   2.652   7.593 -0.7119 -0.9660 -0.6366
 3929SOL     OW23245   1.802   1.449  17.070  0.7258 -0.2027  0.2163
 3929SOL    HW123246   1.811   1.356  17.087  1.1833 -0.1171  0.4327
 3929SOL    HW223247   1.846   1.450  16.985 -0.5340  2.4695 -0.4206
 3930SOL     OW23248   1.977   2.257  11.742  0.2425  0.0462 -0.2209
 3930SOL    HW123249   2.055   2.275  11.795 -1.8136  1.2278  2.4316
 3930SOL    HW223250   1.994   2.314  11.667 -0.0376  0.0156 -0.3068
 3931SOL     OW23251   3.242   0.962   6.688 -0.7793  0.0725 -0.2213
 3931SOL    HW123252   3.328   0.922   6.704 -1.6413 -1.2598  1.1292
 3931SOL    HW223253   3.188   0.889   6.660 -1.0761 -0.1737  0.9922
 3932SOL     OW23254   4.603   3.370  17.259  0.4091  0.1053  0.2038
 3932SOL    HW123255   4.634   3.285  17.230 -2.8527 -2.1074  3.3130
 3932SOL    HW223256   4.685   3.415  17.237 -0.5847  1.4410 -0.7863
 3933SOL     OW23257   3.894   2.473   1.003 -0.5545 -0.0366  0.7090
 3933SOL    HW123258   3.815   2.489   1.056  0.0658 -1.8149  2.1755
 3933SOL    HW223259   3.861   2.399   0.952 -0.2946  0.3149  0.0372
 3934SOL     OW23260   2.491   2.787   8.041 -0.1503  0.3213  0.1315
 3934SOL    HW123261   2.551   2.824   7.977  1.7128  0.1875  1.7880
 3934SOL    HW223262   2.418   2.847   8.034  0.0099  0.2320 -2.0488
 3935SOL     OW23263   3.538   3.879  16.012  0.4845 -0.7076  0.3797
 3935SOL    HW123264   3.457   3.912  16.051  0.1853 -0.4517 -0.4581
 3935SOL    HW223265   3.523   3.920  15.927  0.4223  1.5348  1.4702
 3936SOL     OW23266   3.522   0.944   1.258 -0.3403  0.7878 -0.2186
 3936SOL    HW123267   3.438   0.930   1.216  0.0923  1.4520 -1.2981
 3936SOL    HW223268   3.545   1.032   1.228 -0.0731  0.5091 -0.8306
 3937SOL     OW23269   2.868   4.029   8.061 -0.4022 -0.0443 -0.4383
 3937SOL    HW123270   2.955   4.069   8.058  0.4611 -2.0820 -2.0190
 3937SOL    HW223271   2.862   4.005   8.153  0.1340 -0.7226 -0.5839
 3938SOL     OW23272   1.442   3.662   8.659 -0.5475  0.3052 -0.7837
 3938SOL    HW123273   1.531   3.687   8.681 -0.8786  0.5696  0.2702
 3938SOL    HW223274   1.413   3.721   8.590  1.8326  1.6919 -0.5872
 3939SOL     OW23275   3.346   1.791  15.903  0.0055  0.5347 -0.3090
 3939SOL    HW123276   3.359   1.783  15.808 -1.2374  2.3241 -0.6215
 3939SOL    HW223277   3.426   1.840  15.921  1.2809 -1.1799 -1.3173
 3940SOL     OW23278   0.777   0.839   8.479  0.7077 -0.1692 -0.5572
 3940SOL    HW123279   0.747   0.867   8.392  1.9906  1.6002 -0.4160
 3940SOL    HW223280   0.761   0.747   8.459 -2.1083  0.3265 -0.5553
 3941SOL     OW23281   0.277   3.349   9.288 -0.1746 -0.2202  0.1940
 3941SOL    HW123282   0.279   3.402   9.368  1.8348 -1.7841  1.1760
 3941SOL    HW223283   0.230   3.403   9.225  0.4645 -1.5445 -1.3961
 3942SOL     OW23284   1.620   1.836   9.905  0.1328 -0.5647  0.2517
 3942SOL    HW123285   1.669   1.885   9.839 -1.5379  1.3350  0.4316
 3942SOL    HW223286   1.535   1.866   9.874  0.4124  0.0935  0.1230
 3943SOL     OW23287   4.236   4.065  11.408  0.0771 -0.0832  0.0155
 3943SOL    HW123288   4.271   4.122  11.476  0.4829 -1.9976  1.4234
 3943SOL    HW223289   4.176   4.125  11.364 -0.8173 -0.3650  0.8226
 3944SOL     OW23290   0.929   2.985   2.326 -0.2860  0.0567 -0.3191
 3944SOL    HW123291   0.872   3.062   2.330 -0.4699 -0.1839  1.5683
 3944SOL    HW223292   0.878   2.932   2.387  1.3251 -1.7535 -0.5497
 3945SOL     OW23293   0.147   3.776  15.039 -0.1272  0.2328  0.3162
 3945SOL    HW123294   0.129   3.870  15.037  0.5658  0.3822  1.4504
 3945SOL    HW223295   0.238   3.768  15.009 -0.6885  0.9246 -1.6216
 3946SOL     OW23296   2.780   0.782   9.375 -0.4609 -0.0545 -0.5010
 3946SOL    HW123297   2.718   0.754   9.307  0.9410 -0.5620 -1.5713
 3946SOL    HW223298   2.816   0.859   9.330 -0.2073  0.8193  1.2210
 3947SOL     OW23299   1.091   1.323   3.425 -0.1811 -0.1717  0.0708
 3947SOL    HW123300   1.185   1.339   3.437  0.4626 -3.1350 -1.0113
 3947SOL    HW223301   1.082   1.240   3.471 -0.0012 -0.0230  0.3761
 3948SOL     OW23302   2.011   1.706   7.906  0.1988  0.1915  0.0753
 3948SOL    HW123303   2.039   1.635   7.964  0.8743  0.9093  0.6238
 3948SOL    HW223304   1.915   1.699   7.905  0.4422 -3.2302  0.3882
 3949SOL     OW23305   4.663   1.303   8.390  0.0566 -0.6523  0.1608
 3949SOL    HW123306   4.657   1.367   8.461 -1.0756 -0.4599 -0.1051
 3949SOL    HW223307   0.030   1.296   8.367  0.0972 -1.4388  0.5729
 3950SOL     OW23308   2.253   2.555   2.219  0.1012 -0.4089 -0.2869
 3950SOL    HW123309   2.255   2.650   2.232 -1.5368 -0.4721  0.4334
 3950SOL    HW223310   2.176   2.549   2.162  0.4568 -2.1340 -0.5919
 3951SOL     OW23311   0.863   2.056   6.691  0.3596  0.4223 -0.1770
 3951SOL    HW123312   0.936   2.086   6.637 -1.9267  0.7018 -3.1630
 3951SOL    HW223313   0.811   2.136   6.693 -0.1606  0.0565  0.9217
 3952SOL     OW23314   2.829   1.260   6.627 -0.4822 -0.0114 -0.4244
 3952SOL    HW123315   2.851   1.236   6.717  0.7207  0.9529 -0.4660
 3952SOL    HW223316   2.871   1.195   6.571 -1.3137 -1.5426  0.7292
 3953SOL     OW23317   0.693   0.493  15.831 -0.0142 -0.0159 -0.2036
 3953SOL    HW123318   0.720   0.464  15.918  0.7091 -0.5829 -0.6194
 3953SOL    HW223319   0.777   0.527  15.799  0.6885 -1.1520  0.4317
 3954SOL     OW23320   2.121   4.151   3.425 -0.6060 -0.2362 -0.3268
 3954SOL    HW123321   2.111   4.087   3.496 -0.5244 -1.3744 -1.3405
 3954SOL    HW223322   2.106   4.233   3.472 -0.2767  0.8005 -2.0174
 3955SOL     OW23323   4.590   4.445  13.444  0.0418 -0.7810 -0.4672
 3955SOL    HW123324   4.605   4.533  13.409 -4.3551  0.0054 -0.4360
 3955SOL    HW223325   4.552   4.419  13.360 -0.4775  1.2224 -0.8601
 3956SOL     OW23326   1.972   1.840   3.927  0.6121  0.0588 -0.6010
 3956SOL    HW123327   2.003   1.909   3.869  0.4777 -1.2493 -2.2177
 3956SOL    HW223328   2.054   1.807   3.963 -0.2845  0.7243  2.0442
 3957SOL     OW23329   3.501   0.195   2.609  0.1345  0.5872  0.3278
 3957SOL    HW123330   3.528   0.241   2.530  2.0306 -3.2164 -1.2584
 3957SOL    HW223331   3.419   0.155   2.579  0.4189  0.4264 -0.2244
 3958SOL     OW23332   0.533   1.830   8.819  0.2198  0.5970  0.1401
 3958SOL    HW123333   0.622   1.837   8.852  0.7054  1.3789 -1.3563
 3958SOL    HW223334   0.512   1.741   8.849  1.9259 -0.9592 -3.3693
 3959SOL     OW23335   3.676   2.522   7.918 -0.3574 -0.1825 -0.2525
 3959SOL    HW123336   3.648   2.610   7.894 -1.2839 -0.3067  0.3704
 3959SOL    HW223337   3.619   2.456   7.876  1.2315 -2.5774  1.3502
 3960SOL     OW23338   4.260   1.841  13.447  0.2928  0.2526 -0.0062
 3960SOL    HW123339   4.176   1.845  13.494  0.5051  3.1610  0.1225
 3960SOL    HW223340   4.311   1.867  13.524  2.8545  0.9061 -1.9224
 3961SOL     OW23341   3.406   1.442   3.846 -0.0055  0.0037  0.1195
 3961SOL    HW123342   3.369   1.474   3.764 -1.1693  0.1193  0.6786
 3961SOL    HW223343   3.450   1.370   3.801 -1.7779 -1.7256  1.1308
 3962SOL     OW23344   1.011   3.862   5.695  0.7746  0.5053  0.2777
 3962SOL    HW123345   1.036   3.781   5.649 -0.3591 -0.2768  1.0090
 3962SOL    HW223346   0.916   3.847   5.697  0.8109 -0.2561 -2.4958
 3963SOL     OW23347   3.494   2.562   7.473 -0.0949  0.2324 -0.2071
 3963SOL    HW123348   3.527   2.473   7.467  1.2650  0.8818 -2.2463
 3963SOL    HW223349   3.435   2.557   7.398 -0.3455 -0.9427  0.0758
 3964SOL     OW23350   0.296   1.442   9.139 -0.0459 -0.2169 -0.0574
 3964SOL    HW123351   0.280   1.381   9.211 -3.1244  0.8853  0.1754
 3964SOL    HW223352   0.302   1.380   9.066  0.9837 -1.3455  0.9610
 3965SOL     OW23353   1.890   3.835   8.428 -0.4408 -0.2866 -0.0344
 3965SOL    HW123354   1.864   3.836   8.521 -0.1219  0.4721  0.0449
 3965SOL    HW223355   1.985   3.828   8.422 -0.4229 -0.3692  0.3453
 3966SOL     OW23356   0.977   0.588   8.630 -0.0153 -0.5126 -0.1548
 3966SOL    HW123357   0.976   0.560   8.539 -2.4153  0.3147 -0.3885
 3966SOL    HW223358   0.957   0.508   8.679  0.5043 -0.7636 -0.3531
 3967SOL     OW23359   0.653   3.472   6.902  0.5934  0.1641 -0.2010
 3967SOL    HW123360   0.683   3.544   6.959  2.9878 -0.0562 -1.1884
 3967SOL    HW223361   0.560   3.464   6.925  0.4228 -2.0148 -1.7025
 3968SOL     OW23362   3.604   4.269   0.880  0.2468 -0.2820  0.1795
 3968SOL    HW123363   3.625   4.177   0.866 -3.0942 -1.1409  0.7546
 3968SOL    HW223364   3.542   4.258   0.952 -1.5423 -1.4978 -1.5719
 3969SOL     OW23365   2.532   2.388   5.482  0.6846 -0.2135 -0.8436
 3969SOL    HW123366   2.456   2.414   5.429 -0.3284  1.6763  1.5900
 3969SOL    HW223367   2.499   2.310   5.527  3.6350 -0.7154  0.4201
 3970SOL     OW23368   3.157   1.069   7.862  0.4306 -0.5632  0.6847
 3970SOL    HW123369   3.203   1.032   7.786 -1.8072  0.7199 -1.2912
 3970SOL    HW223370   3.138   1.160   7.842 -0.9808 -0.8606  0.6959
 3971SOL     OW23371   3.527   0.891   9.795  0.0994  0.1036  0.3420
 3971SOL    HW123372   3.616   0.875   9.826  0.2738  0.7027  0.1457
 3971SOL    HW223373   3.475   0.833   9.851  0.4673  0.8659  1.4734
 3972SOL     OW23374   1.405   1.362   3.862  0.3684  0.1675  0.3943
 3972SOL    HW123375   1.411   1.286   3.921 -0.4187 -0.1917  0.0156
 3972SOL    HW223376   1.329   1.344   3.806  1.6760 -1.3776 -0.9104
 3973SOL     OW23377   1.449   1.003  10.353  0.0416 -0.4741 -0.0947
 3973SOL    HW123378   1.412   0.987  10.439 -1.0045 -4.9462 -1.3751
 3973SOL    HW223379   1.403   0.941  10.296  0.3840  0.6256 -1.5792
 3974SOL     OW23380   3.242   4.366   3.430 -0.2943 -0.5420  0.1912
 3974SOL    HW123381   3.179   4.304   3.464  1.1651 -1.7525  0.7030
 3974SOL    HW223382   3.241   4.342   3.337  1.4433 -0.0338  0.0360
 3975SOL     OW23383   2.674   4.171  17.336  0.0972 -0.5191 -0.1866
 3975SOL    HW123384   2.600   4.177  17.395 -1.4876 -0.4093 -2.1856
 3975SOL    HW223385   2.652   4.097  17.279 -3.8083 -0.0611  0.7469
 3976SOL     OW23386   2.434   0.727   0.626 -0.3848 -0.0768  0.0155
 3976SOL    HW123387   2.444   0.750   0.534 -1.1455  1.9638  0.4479
 3976SOL    HW223388   2.363   0.662   0.621 -1.6441  1.2744  0.4078
 3977SOL     OW23389   2.172   1.344   8.348  0.1349 -0.0650 -0.7088
 3977SOL    HW123390   2.218   1.261   8.352 -0.0693 -0.1628 -0.3718
 3977SOL    HW223391   2.248   1.399   8.365 -0.0618  1.0678 -3.3368
 3978SOL     OW23392   2.375   3.325   5.476  0.4708 -0.1494 -0.5562
 3978SOL    HW123393   2.286   3.345   5.505  0.0884  0.0996 -1.8922
 3978SOL    HW223394   2.363   3.305   5.383 -0.7184 -2.1583  0.0327
 3979SOL     OW23395   1.260   0.754   5.292 -0.0600  0.6586 -0.2310
 3979SOL    HW123396   1.219   0.756   5.206 -0.8271  1.5313  0.1552
 3979SOL    HW223397   1.319   0.829   5.285  2.9965 -1.6469  0.9091
 3980SOL     OW23398   0.746   4.158   9.700  0.0817 -0.1380 -0.1485
 3980SOL    HW123399   0.741   4.097   9.774 -3.3640  0.1025 -0.1681
 3980SOL    HW223400   0.821   4.209   9.728  0.1768 -1.6529  2.3224
 3981SOL     OW23401   2.479   3.419   4.938  0.2983  0.3978 -0.5241
 3981SOL    HW123402   2.427   3.423   5.018  1.0849 -0.5747  0.0486
 3981SOL    HW223403   2.500   3.326   4.925 -1.6512 -0.1103 -0.0950
 3982SOL     OW23404   4.189   3.546   4.675  0.4230 -0.4357  0.1055
 3982SOL    HW123405   4.102   3.556   4.638  0.7975 -0.5785 -0.8063
 3982SOL    HW223406   4.248   3.596   4.618  1.6847 -2.8675 -0.7308
 3983SOL     OW23407   2.868   4.668   2.805  0.0542  0.0124  0.2086
 3983SOL    HW123408   2.947   4.627   2.839  0.0857  1.5923  2.0075
 3983SOL    HW223409   2.900   4.673   2.714  1.3053  2.2879  0.7733
 3984SOL     OW23410   0.535   4.397   5.629 -0.4910 -0.2767  0.1966
 3984SOL    HW123411   0.452   4.349   5.627 -1.7419  1.8930  0.5838
 3984SOL    HW223412   0.557   4.399   5.536 -0.6306  3.3443  0.2387
 3985SOL     OW23413   0.667   3.052   2.790 -0.0087 -0.4083 -0.0685
 3985SOL    HW123414   0.673   3.145   2.811 -2.2663 -0.5548  1.2671
 3985SOL    HW223415   0.591   3.051   2.732 -0.0396 -0.3298 -0.0304
 3986SOL     OW23416   3.530   2.840   1.888 -0.6716 -0.4875  0.0201
 3986SOL    HW123417   3.505   2.918   1.838  0.2932 -0.0108  0.2835
 3986SOL    HW223418   3.590   2.796   1.828 -1.1763 -1.0908 -0.0558
 3987SOL     OW23419   2.659   2.276  10.223 -0.4869 -0.1709 -0.7275
 3987SOL    HW123420   2.665   2.362  10.264  1.6121 -0.5832 -0.2142
 3987SOL    HW223421   2.673   2.297  10.131 -2.1532 -0.3698 -1.0354
 3988SOL     OW23422   3.902   1.109   3.539  0.0946  0.5743 -0.2807
 3988SOL    HW123423   3.916   1.023   3.500  0.0713 -0.4786  2.0924
 3988SOL    HW223424   3.819   1.138   3.502 -0.1586  0.0146 -0.1486
 3989SOL     OW23425   1.504   0.178   8.720  0.2454 -0.3522 -0.2396
 3989SOL    HW123426   1.453   0.243   8.768 -0.7564 -0.5931 -0.9643
 3989SOL    HW223427   1.585   0.228   8.717 -0.4534  0.7957  0.0156
 3990SOL     OW23428   4.001   0.208  13.088 -0.2282 -0.5629 -0.2103
 3990SOL    HW123429   3.972   0.269  13.156  0.5514  1.4652 -1.7203
 3990SOL    HW223430   3.938   0.221  13.018  0.5021 -0.1048 -0.7863
 3991SOL     OW23431   3.416   0.128   8.080 -0.3475 -0.4117  0.1354
 3991SOL    HW123432   3.402   0.071   8.155 -3.2477  1.3309  0.9020
 3991SOL    HW223433   3.511   0.138   8.074 -0.2218 -2.1993 -0.9018
 3992SOL     OW23434   3.506   2.856   3.619  0.4729 -0.3723 -0.8089
 3992SOL    HW123435   3.583   2.866   3.563 -0.1830  0.1655 -1.6049
 3992SOL    HW223436   3.435   2.868   3.555 -1.2811 -1.7016  0.8826
 3993SOL     OW23437   2.243   1.943   2.267 -0.2198 -0.5558 -0.2941
 3993SOL    HW123438   2.150   1.965   2.266 -0.2151 -0.4868  0.3120
 3993SOL    HW223439   2.274   2.002   2.337 -3.9346  0.4132  0.5066
 3994SOL     OW23440   2.104   1.188  17.684 -0.3421 -0.0767  0.6141
 3994SOL    HW123441   2.184   1.170   0.027 -0.3019  0.5016  0.7532
 3994SOL    HW223442   2.041   1.200   0.051  1.0260  2.5351  1.3429
 3995SOL     OW23443   4.180   3.070   7.752  0.3240  0.1224  0.4591
 3995SOL    HW123444   4.222   3.155   7.743  1.1475 -0.2755  0.5425
 3995SOL    HW223445   4.179   3.039   7.661 -1.4934  0.4650  0.3689
 3996SOL     OW23446   4.172   1.014   8.769 -0.4871  0.6770 -0.0325
 3996SOL    HW123447   4.244   0.963   8.732  0.4673  0.6861  1.7932
 3996SOL    HW223448   4.097   0.966   8.732  1.3690 -0.2100 -2.6402
 3997SOL     OW23449   3.263   3.607   9.989 -0.1223  0.0706  0.0828
 3997SOL    HW123450   3.300   3.648   9.912  0.4032  1.5297  1.1186
 3997SOL    HW223451   3.218   3.680  10.033  0.7056  0.7610 -0.2297
 3998SOL     OW23452   3.549   3.587  15.640 -0.5486 -0.0904  0.3036
 3998SOL    HW123453   3.454   3.587  15.630 -0.2972 -0.4969 -2.2444
 3998SOL    HW223454   3.574   3.675  15.613 -0.6321 -0.3020 -0.4793
 3999SOL     OW23455   0.980   0.762  11.709  0.2745 -0.3521 -0.2571
 3999SOL    HW123456   0.951   0.793  11.795  1.0123  1.3292 -0.6046
 3999SOL    HW223457   0.980   0.847  11.665  0.0256  0.7463  1.8662
 4000SOL     OW23458   4.595   3.453  12.745 -0.1497  0.4730  0.0702
 4000SOL    HW123459   4.680   3.421  12.716 -0.0052  0.2318  0.7542
 4000SOL    HW223460   4.579   3.535  12.699 -1.8356 -1.8568 -3.4486
 4001SOL     OW23461   2.536   3.361  11.180 -0.1167 -0.1437  0.2310
 4001SOL    HW123462   2.566   3.338  11.268  1.0970 -0.9015 -0.3874
 4001SOL    HW223463   2.458   3.305  11.181  0.3495 -0.7813  0.4657
 4002SOL     OW23464   2.165   2.607   0.379 -0.2304 -0.5843 -0.1431
 4002SOL    HW123465   2.075   2.600   0.348 -0.3174 -1.5521  0.3183
 4002SOL    HW223466   2.188   2.536   0.318  0.5259  1.2767 -2.0361
 4003SOL     OW23467   3.582   1.001   5.822  0.2529  0.2026  0.0407
 4003SOL    HW123468   3.511   1.057   5.791 -1.0987 -0.2459  2.2998
 4003SOL    HW223469   3.537   0.921   5.850 -1.1890  1.4367  1.2519
 4004SOL     OW23470   0.918   3.226   8.025 -0.3184 -0.4512  0.2665
 4004SOL    HW123471   0.833   3.185   8.040 -0.1742 -0.5615  0.7906
 4004SOL    HW223472   0.903   3.269   7.941 -4.4122  0.1356  1.3072
 4005SOL     OW23473   2.053   1.124  11.179 -0.2756 -0.1866  0.0845
 4005SOL    HW123474   2.060   1.219  11.166 -1.0962 -0.4230 -2.1181
 4005SOL    HW223475   2.023   1.124  11.270 -0.1873 -0.0892  0.1130
 4006SOL     OW23476   3.208   1.287   4.872 -0.4525 -0.0221  0.0914
 4006SOL    HW123477   3.205   1.382   4.880 -1.1298 -0.0719  0.3563
 4006SOL    HW223478   3.264   1.273   4.949 -1.9560 -1.2670  0.9592
 4007SOL     OW23479   0.209   1.929   5.008  0.4786 -0.7467 -0.1416
 4007SOL    HW123480   0.173   1.847   4.973 -1.7031  0.9868 -1.9773
 4007SOL    HW223481   0.169   1.921   5.094  1.3866  2.5562  0.5757
 4008SOL     OW23482   3.100   3.033   7.919 -0.8933 -0.0926 -0.5834
 4008SOL    HW123483   3.169   3.070   7.864 -1.1028  0.5181 -0.4315
 4008SOL    HW223484   3.144   3.031   8.004 -0.3336  1.5609 -0.8267
 4009SOL     OW23485   3.233   3.817  17.468 -0.0796  0.2328  0.4804
 4009SOL    HW123486   3.294   3.780  17.405  1.8433  0.9433  1.8955
 4009SOL    HW223487   3.266   3.907  17.473 -0.6226  0.4815 -0.6016
 4010SOL     OW23488   1.474   3.082   0.613  0.3694  0.3038  0.1226
 4010SOL    HW123489   1.395   3.098   0.562  1.7542 -0.0828 -2.1238
 4010SOL    HW223490   1.538   3.099   0.544  0.6948 -0.6686  0.1797
 4011SOL     OW23491   2.503   3.677  14.469 -0.0477  0.1364 -0.4405
 4011SOL    HW123492   2.587   3.711  14.436 -0.1277  0.2889 -0.4869
 4011SOL    HW223493   2.532   3.650  14.557 -0.5015  1.8426  0.2370
 4012SOL     OW23494   2.237   0.302   4.156 -0.2481  0.1180  0.9565
 4012SOL    HW123495   2.319   0.268   4.192  0.5936 -0.7580 -1.7598
 4012SOL    HW223496   2.198   0.363   4.219  0.6763  2.8839 -1.1681
 4013SOL     OW23497   0.672   4.110  16.879 -0.0616 -0.3213 -0.4136
 4013SOL    HW123498   0.760   4.147  16.867 -0.2787 -0.2713 -1.9207
 4013SOL    HW223499   0.625   4.190  16.903 -0.1214 -0.1908 -0.9541
 4014SOL     OW23500   3.620   1.798   8.055  0.0724  0.3156  0.0857
 4014SOL    HW123501   3.683   1.742   8.099  0.2453  1.0126  0.7181
 4014SOL    HW223502   3.677   1.817   7.980 -1.4238 -0.5303 -1.2542
 4015SOL     OW23503   1.665   2.294   1.288  0.2334  0.0711  0.0904
 4015SOL    HW123504   1.653   2.251   1.373 -1.3038 -1.8094 -1.0975
 4015SOL    HW223505   1.760   2.283   1.277  0.2658  0.9725 -0.5275
 4016SOL     OW23506   0.077   4.244   3.269 -0.6056  0.8024  0.1545
 4016SOL    HW123507   0.022   4.255   3.191 -0.7877 -0.9114  0.0253
 4016SOL    HW223508   0.166   4.242   3.234 -0.3032  1.8243  0.8760
 4017SOL     OW23509   4.654   1.049   0.323 -0.0856  0.1018 -0.9602
 4017SOL    HW123510   4.685   1.069   0.234 -0.1922  0.6032 -0.8814
 4017SOL    HW223511   4.594   0.979   0.296  0.5126 -0.0158 -2.0213
 4018SOL     OW23512   2.219   3.846   7.146 -0.5163  0.2884  0.3751
 4018SOL    HW123513   2.148   3.847   7.082 -2.6534 -0.0898  2.7381
 4018SOL    HW223514   2.177   3.861   7.230 -0.9637 -4.2409  0.9994
 4019SOL     OW23515   1.384   4.416   9.307  0.3501 -0.3415 -0.2318
 4019SOL    HW123516   1.328   4.364   9.250  0.3234  0.7396 -1.1941
 4019SOL    HW223517   1.346   4.417   9.395  1.5709  0.7722  0.2880
 4020SOL     OW23518   3.116   2.597   4.498 -0.3392  0.1927 -0.0177
 4020SOL    HW123519   3.200   2.551   4.504 -0.2022  0.4413  0.0040
 4020SOL    HW223520   3.053   2.526   4.487 -1.9601  1.5459  0.4889
 4021SOL     OW23521   4.323   4.559   8.575 -0.1200  0.1066  0.2688
 4021SOL    HW123522   4.301   4.467   8.564  2.2309 -0.3841 -0.4082
 4021SOL    HW223523   4.270   4.611   8.514 -0.3990 -0.8087 -0.2615
 4022SOL     OW23524   3.040   3.183   6.969 -0.2049 -0.0113 -0.4856
 4022SOL    HW123525   3.070   3.273   6.976  1.6424 -0.8736  2.5157
 4022SOL    HW223526   2.951   3.204   6.997  0.1874  1.6761 -0.5175
 4023SOL     OW23527   1.839   3.188   0.952 -0.8917 -0.7608  0.0863
 4023SOL    HW123528   1.804   3.231   1.030 -0.1064 -1.4484  0.8169
 4023SOL    HW223529   1.766   3.199   0.891 -0.0945  0.2683 -0.6795
 4024SOL     OW23530   0.613   1.647   7.907  0.2656 -0.1993  0.0857
 4024SOL    HW123531   0.535   1.618   7.954 -0.3212  0.0365 -0.7469
 4024SOL    HW223532   0.618   1.580   7.839  1.2638  0.4413 -0.4875
 4025SOL     OW23533   2.181   1.787   9.640  0.3759 -0.2225 -0.2282
 4025SOL    HW123534   2.118   1.778   9.711  1.6246  1.8327  1.1253
 4025SOL    HW223535   2.208   1.696   9.628  0.7427 -0.4447  2.5096
 4026SOL     OW23536   1.871   4.097   1.531 -0.0254 -0.1078 -0.1457
 4026SOL    HW123537   1.925   4.176   1.537 -1.1554  0.7158 -0.8153
 4026SOL    HW223538   1.940   4.037   1.557  1.1337  1.1988 -0.1735
 4027SOL     OW23539   2.330   3.363   3.222  0.5335  0.3561 -0.2205
 4027SOL    HW123540   2.343   3.457   3.238 -0.9936  1.0544 -3.1095
 4027SOL    HW223541   2.275   3.374   3.145 -1.9755 -1.1577  1.3780
 4028SOL     OW23542   1.732   4.196  12.197  1.1525  0.1314 -0.2609
 4028SOL    HW123543   1.639   4.192  12.175  1.3861 -1.3274 -0.9490
 4028SOL    HW223544   1.776   4.165  12.118 -0.5600 -0.5681 -0.9535
 4029SOL     OW23545   2.797   0.389  11.823  0.0152 -0.3765 -0.1286
 4029SOL    HW123546   2.785   0.308  11.873 -1.0865  1.0044  1.8316
 4029SOL    HW223547   2.756   0.456  11.878  1.6578  2.4434 -2.3207
 4030SOL     OW23548   2.925   3.704   8.792  0.1213  0.2782 -0.6991
 4030SOL    HW123549   2.908   3.793   8.822  2.5601  0.3433  0.5012
 4030SOL    HW223550   2.879   3.662   8.865  0.6419  0.3391 -0.3368
 4031SOL     OW23551   3.394   3.706   4.352  0.3292  0.6038  0.7117
 4031SOL    HW123552   3.369   3.785   4.400 -1.3343  1.7379 -2.0500
 4031SOL    HW223553   3.440   3.654   4.418  0.1306 -0.8995 -0.3394
 4032SOL     OW23554   3.299   0.979   5.027 -0.2001  0.1944 -0.4005
 4032SOL    HW123555   3.263   1.005   4.942 -0.0608  1.9282  0.0617
 4032SOL    HW223556   3.381   0.947   4.989 -1.5283 -2.2545 -1.1782
 4033SOL     OW23557   1.091   2.762   3.070 -0.6970 -0.5579  0.0181
 4033SOL    HW123558   1.169   2.711   3.093 -1.0024 -1.6112 -1.2445
 4033SOL    HW223559   1.064   2.777   3.160 -3.0892 -1.8207 -0.4849
 4034SOL     OW23560   4.699   2.751   4.731 -0.0473 -0.5932 -0.3119
 4034SOL    HW123561   0.066   2.752   4.751  0.2342  1.7471 -1.7402
 4034SOL    HW223562   4.664   2.736   4.819  1.2770 -0.2999  0.2725
 4035SOL     OW23563   3.657   1.486   4.823 -0.0985  0.5150 -0.2492
 4035SOL    HW123564   3.609   1.543   4.762  0.2327  1.3546  0.2752
 4035SOL    HW223565   3.599   1.411   4.834  0.0947  0.2650 -0.9038
 4036SOL     OW23566   1.458   0.498   6.597  0.2779 -0.7932 -0.1550
 4036SOL    HW123567   1.498   0.419   6.561 -1.4076 -1.1288 -1.2684
 4036SOL    HW223568   1.415   0.469   6.677 -0.9305  0.6091 -0.2820
 4037SOL     OW23569   1.596   1.690   5.778 -0.5854  0.0955  0.1471
 4037SOL    HW123570   1.590   1.717   5.686 -2.5704 -2.0220 -0.3499
 4037SOL    HW223571   1.577   1.773   5.822 -0.9755 -0.7888  1.6596
 4038SOL     OW23572   4.521   0.513   8.827  0.4279 -0.0506 -0.7735
 4038SOL    HW123573   4.460   0.442   8.848 -0.0950  0.5340 -0.2769
 4038SOL    HW223574   4.492   0.593   8.872 -3.4122 -2.7107  1.5216
 4039SOL     OW23575   2.415   1.194   5.225 -0.0474 -0.1697 -0.2571
 4039SOL    HW123576   2.493   1.143   5.200  0.8994  0.2204  1.8881
 4039SOL    HW223577   2.380   1.195   5.137  0.8584 -0.7688 -0.6345
 4040SOL     OW23578   4.584   1.074   8.508 -0.1191 -0.3629  0.0485
 4040SOL    HW123579   4.603   1.152   8.455 -1.7152  0.9900  1.4981
 4040SOL    HW223580   4.627   1.091   8.592  1.3925 -0.0554 -0.7848
 4041SOL     OW23581   0.627   1.182   0.969 -0.0856  0.0952  0.2046
 4041SOL    HW123582   0.616   1.251   1.034 -1.0547  0.8304 -0.7349
 4041SOL    HW223583   0.608   1.234   0.892  2.0785 -0.4477 -0.6905
 4042SOL     OW23584   2.055   4.159   5.324 -0.0621 -0.0714  0.0932
 4042SOL    HW123585   2.007   4.160   5.241  1.4492  2.6556 -0.7364
 4042SOL    HW223586   1.988   4.194   5.383  0.7547  0.7112  0.5535
 4043SOL     OW23587   1.219   2.607   9.245 -0.7600  0.1389  0.2743
 4043SOL    HW123588   1.125   2.623   9.251 -0.9454 -0.3248 -1.4240
 4043SOL    HW223589   1.217   2.530   9.188  1.7242  1.4199 -1.5217
 4044SOL     OW23590   0.999   4.558   7.186  0.0782  0.1603 -0.0768
 4044SOL    HW123591   1.055   4.536   7.260 -2.0749  0.0979  1.5694
 4044SOL    HW223592   0.912   4.536   7.221  0.3097  1.0367  1.0499
 4045SOL     OW23593   1.101   1.036   0.280  0.7271 -0.1086 -0.3974
 4045SOL    HW123594   1.022   1.054   0.231  1.6113 -0.4486 -1.9437
 4045SOL    HW223595   1.156   0.989   0.217  0.6754  1.7740 -1.8406
 4046SOL     OW23596   2.851   3.457   8.129 -0.4440  0.9251 -0.1386
 4046SOL    HW123597   2.838   3.551   8.135  0.7635  1.1179 -0.4766
 4046SOL    HW223598   2.805   3.439   8.211 -1.5123 -1.3712 -1.2445
 4047SOL     OW23599   1.296   3.280  12.116  0.4522  0.3877 -0.4975
 4047SOL    HW123600   1.227   3.236  12.164  1.1903 -0.9006 -0.6341
 4047SOL    HW223601   1.267   3.370  12.132 -2.3259 -0.0487 -3.0347
 4048SOL     OW23602   4.623   0.806   4.955 -0.4434 -0.4270 -0.7082
 4048SOL    HW123603   4.588   0.861   4.886  2.1985 -0.5141 -2.1083
 4048SOL    HW223604   4.673   0.862   5.014 -0.2613  0.0001 -1.2767
 4049SOL     OW23605   1.770   0.007   6.188 -0.6172 -0.2876  0.1180
 4049SOL    HW123606   1.778   4.675   6.264 -1.9410 -0.9214 -0.2348
 4049SOL    HW223607   1.851   4.706   6.146 -0.7610  2.1493 -1.7018
 4050SOL     OW23608   3.171   3.555   0.926  0.6777  0.2882  0.0056
 4050SOL    HW123609   3.173   3.461   0.947 -0.9343  0.3356  0.3593
 4050SOL    HW223610   3.232   3.591   0.990  0.8421  1.7395 -0.9646
 4051SOL     OW23611   1.102   0.147  10.777  0.1982 -0.3706 -0.3915
 4051SOL    HW123612   1.034   0.209  10.751 -0.4790 -0.3588  1.3566
 4051SOL    HW223613   1.182   0.196  10.793 -0.0689 -0.0801  0.0786
 4052SOL     OW23614   0.989   2.791   8.603 -0.0644 -0.3135 -0.3470
 4052SOL    HW123615   0.996   2.772   8.697 -1.0439 -1.0786 -0.4310
 4052SOL    HW223616   0.933   2.715   8.586 -0.6577 -0.0728  0.5185
 4053SOL     OW23617   1.763   4.571   6.425  0.6130  0.1709  0.2359
 4053SOL    HW123618   1.760   4.480   6.394 -0.4144  0.0442  0.7090
 4053SOL    HW223619   1.835   4.568   6.488 -0.8072 -2.5219  1.7310
 4054SOL     OW23620   0.015   3.621  10.168  0.2501  0.4122 -0.3050
 4054SOL    HW123621   0.037   3.699  10.116  0.6815 -0.9583 -2.1482
 4054SOL    HW223622   4.667   3.657  10.217  0.3572  0.2908 -0.0582
 4055SOL     OW23623   0.514   2.423   2.822  0.1145 -0.5995 -0.3183
 4055SOL    HW123624   0.560   2.477   2.757  1.2940  1.8250  2.5187
 4055SOL    HW223625   0.535   2.461   2.907  0.8464 -1.5987 -0.0554
 4056SOL     OW23626   3.826   4.167   0.344 -0.0819 -0.4144 -0.2205
 4056SOL    HW123627   3.744   4.179   0.296 -1.0071 -0.7633  1.2779
 4056SOL    HW223628   3.809   4.219   0.422  0.1210 -1.3957  0.4799
 4057SOL     OW23629   2.741   2.180   3.493 -0.0276  0.1078  0.5365
 4057SOL    HW123630   2.653   2.197   3.460  1.1628  4.1061 -0.5793
 4057SOL    HW223631   2.743   2.088   3.519 -1.7677 -0.3297 -0.9062
 4058SOL     OW23632   3.248   2.176   6.791 -1.1595 -0.1557  0.5164
 4058SOL    HW123633   3.246   2.205   6.882  0.0448 -0.1223  0.5341
 4058SOL    HW223634   3.197   2.247   6.753 -0.6214  0.9471  1.8500
 4059SOL     OW23635   1.350   2.019   9.199  0.2449  0.5453  0.4314
 4059SOL    HW123636   1.289   2.010   9.126 -1.2056  0.8509  1.6079
 4059SOL    HW223637   1.365   2.113   9.207  0.8160  0.3190  1.9202
 4060SOL     OW23638   4.344   1.740   6.550  0.3773 -0.0781 -0.0551
 4060SOL    HW123639   4.372   1.794   6.476 -1.0299  0.0037 -0.5180
 4060SOL    HW223640   4.353   1.797   6.627 -1.0914 -1.0303  0.8082
 4061SOL     OW23641   3.892   2.686   3.552  0.5071  0.1373 -0.1603
 4061SOL    HW123642   3.899   2.606   3.605  0.2218  0.0006 -0.3289
 4061SOL    HW223643   3.920   2.753   3.614  1.1435  0.4665 -0.8182
 4062SOL     OW23644   1.346   0.579   8.046 -0.2180  0.1264  0.4627
 4062SOL    HW123645   1.337   0.652   7.985 -0.6099  0.4553  0.9182
 4062SOL    HW223646   1.434   0.599   8.078 -1.1452  0.4845  2.7713
 4063SOL     OW23647   0.717   1.742   6.464 -0.3624  0.7772 -1.4140
 4063SOL    HW123648   0.671   1.683   6.404  0.0632 -0.7693 -0.2204
 4063SOL    HW223649   0.640   1.785   6.501 -0.0412 -0.7251  1.0027
 4064SOL     OW23650   0.611   4.403   7.684 -0.1755  0.5210  0.6105
 4064SOL    HW123651   0.642   4.488   7.653 -0.1506 -0.6818 -2.6206
 4064SOL    HW223652   0.518   4.409   7.666  0.0354 -1.8096 -1.1564
 4065SOL     OW23653   4.725   2.065   1.727 -0.5901 -0.2661 -0.0030
 4065SOL    HW123654   0.090   2.093   1.726 -0.2401 -1.3884  0.6257
 4065SOL    HW223655   0.016   1.995   1.790 -0.5730  0.0746  0.3661
 4066SOL     OW23656   0.320   0.689   3.834  0.2509  0.2321  0.0997
 4066SOL    HW123657   0.316   0.633   3.755  0.0901  0.0598  0.2292
 4066SOL    HW223658   0.406   0.725   3.811  0.7152 -0.2601  1.0523
 4067SOL     OW23659   0.972   1.498   1.605 -0.0236 -0.4199  0.2936
 4067SOL    HW123660   0.956   1.419   1.656  0.8018 -0.1786  0.9169
 4067SOL    HW223661   1.054   1.479   1.558 -0.5467  1.0917 -1.2420
 4068SOL     OW23662   4.193   4.137  10.487 -0.1953 -0.2908  0.0817
 4068SOL    HW123663   4.102   4.109  10.498 -0.7226  1.4141  0.2073
 4068SOL    HW223664   4.196   4.182  10.402  0.3096  1.1595  0.8541
 4069SOL     OW23665   2.760   2.985   1.501 -0.1413 -0.4566 -0.2145
 4069SOL    HW123666   2.721   3.020   1.581 -1.5696 -0.3122 -0.9705
 4069SOL    HW223667   2.739   3.063   1.449  0.0236 -0.3804 -0.1650
 4070SOL     OW23668   3.311   2.003   8.652 -0.1034  0.3897 -0.3305
 4070SOL    HW123669   3.396   2.042   8.634 -0.7058  1.5442 -0.7372
 4070SOL    HW223670   3.268   2.000   8.566 -1.0795 -0.2136  0.1812
 4071SOL     OW23671   1.406   1.610   9.173 -0.1450  0.3714 -0.1908
 4071SOL    HW123672   1.458   1.665   9.231  0.4658  0.5803 -0.9320
 4071SOL    HW223673   1.417   1.657   9.090 -0.8354  1.3875  0.2969
 4072SOL     OW23674   3.210   1.730   2.293 -0.2707  0.2332  0.0716
 4072SOL    HW123675   3.270   1.779   2.236  2.2850  0.2344  2.7926
 4072SOL    HW223676   3.252   1.646   2.313  1.0475  0.9300  0.1856
 4073SOL     OW23677   0.065   2.190   3.898  0.1314 -0.3811 -0.0388
 4073SOL    HW123678   0.037   2.271   3.942 -0.4691 -0.5999 -0.0185
 4073SOL    HW223679   0.095   2.219   3.812 -0.7515  0.5831 -0.0293
 4074SOL     OW23680   2.777   1.189  17.284 -0.0270  0.1498 -0.5136
 4074SOL    HW123681   2.758   1.275  17.247  0.4735  1.0261  1.2585
 4074SOL    HW223682   2.814   1.138  17.211 -1.7494 -0.2372 -1.1195
 4075SOL     OW23683   4.505   2.192   6.031 -0.1109 -0.0106 -0.3668
 4075SOL    HW123684   4.580   2.248   6.011  0.9995 -1.3377  0.0690
 4075SOL    HW223685   4.539   2.125   6.091 -2.0068 -1.9555 -1.4615
 4076SOL     OW23686   1.794   0.750   8.298 -0.5214  0.2199  0.5887
 4076SOL    HW123687   1.888   0.762   8.313 -0.5585 -0.4512  1.3387
 4076SOL    HW223688   1.763   0.805   8.370 -4.1548  0.9499 -1.5278
 4077SOL     OW23689   3.032   0.913  14.665  0.4211  0.2183  0.4374
 4077SOL    HW123690   3.028   0.841  14.602 -1.3379  0.3288  0.4003
 4077SOL    HW223691   3.115   0.896  14.709  1.5461  2.7198 -0.7356
 4078SOL     OW23692   3.777   1.390   1.038 -0.6784  0.3230 -0.2497
 4078SOL    HW123693   3.859   1.406   1.086 -1.2784 -0.7738  1.1522
 4078SOL    HW223694   3.743   1.477   1.021  1.0807  1.2598  0.9879
 4079SOL     OW23695   3.367   4.173  17.050  0.0136 -0.5609  0.1131
 4079SOL    HW123696   3.430   4.208  16.987  0.4099  0.8005  1.2800
 4079SOL    HW223697   3.305   4.245  17.061  1.9159  1.0645  0.2015
 4080SOL     OW23698   2.774   1.368  15.258  0.6205  0.0857  0.2627
 4080SOL    HW123699   2.758   1.325  15.174  2.8373 -0.2339  0.0225
 4080SOL    HW223700   2.847   1.314  15.288 -0.6938 -1.2609  1.0433
 4081SOL     OW23701   3.904   4.080   4.572  0.4057 -0.2560 -0.5203
 4081SOL    HW123702   3.866   4.073   4.485 -0.4005 -0.3218 -0.1555
 4081SOL    HW223703   3.839   4.129   4.622  1.8322  0.1802  0.9373
 4082SOL     OW23704   2.339   4.149   6.073 -0.3122  0.6329 -0.0414
 4082SOL    HW123705   2.371   4.239   6.068 -1.5777  1.0883 -0.0404
 4082SOL    HW223706   2.291   4.165   6.154  2.8328 -0.9986  2.1260
 4083SOL     OW23707   3.344   4.380   5.937 -0.4531  0.5093  0.5441
 4083SOL    HW123708   3.390   4.464   5.938 -1.0043  0.7332  4.4743
 4083SOL    HW223709   3.326   4.376   5.843 -0.9973 -0.2807  0.6862
 4084SOL     OW23710   4.297   4.094   5.994  0.0095  0.5443  0.8980
 4084SOL    HW123711   4.306   4.167   5.933 -1.2320  1.7276  2.1295
 4084SOL    HW223712   4.204   4.106   6.012  0.0280 -0.0267  1.3940
 4085SOL     OW23713   2.207   1.062   5.289  0.3606  1.1919  0.4640
 4085SOL    HW123714   2.276   1.117   5.252  1.2784  0.8178  1.6182
 4085SOL    HW223715   2.260   1.003   5.343 -0.8662 -0.5240 -0.1919
 4086SOL     OW23716   2.740   4.641   0.194 -0.7217 -0.2317  0.0709
 4086SOL    HW123717   2.830   4.660   0.223 -1.2691  1.6205  0.5463
 4086SOL    HW223718   2.689   4.711   0.234 -1.2839  0.7856 -2.4530
 4087SOL     OW23719   2.726   1.343  16.218 -0.0730  0.1699  0.2908
 4087SOL    HW123720   2.803   1.394  16.195  0.0582 -0.6692 -1.1275
 4087SOL    HW223721   2.702   1.326  16.127  0.1043 -0.0265  0.2812
 4088SOL     OW23722   2.062   2.092   5.891  0.4348  0.2987  0.2342
 4088SOL    HW123723   1.998   2.040   5.940  0.6510  2.5512  2.9174
 4088SOL    HW223724   2.083   2.165   5.949  1.9449 -0.6975  0.9743
 4089SOL     OW23725   2.165   2.368   8.543  0.1391  0.3458  0.1566
 4089SOL    HW123726   2.141   2.331   8.628  1.4914  1.0294  0.8275
 4089SOL    HW223727   2.102   2.321   8.488 -1.4907 -0.3188  2.5576
 4090SOL     OW23728   3.695   4.242   3.588  0.1352 -0.2425  0.2581
 4090SOL    HW123729   3.752   4.178   3.631  2.3510  2.0502  0.7455
 4090SOL    HW223730   3.648   4.190   3.522 -1.1002 -1.5339  2.1592
 4091SOL     OW23731   1.597   3.901   5.424 -0.3777 -0.4920 -1.0844
 4091SOL    HW123732   1.663   3.849   5.469 -0.7179 -0.5650 -0.6801
 4091SOL    HW223733   1.564   3.829   5.370  0.0879 -2.0526  0.7306
 4092SOL     OW23734   2.629   4.053   5.352  0.5537  0.1497 -0.1378
 4092SOL    HW123735   2.715   4.015   5.368  0.0089 -1.4050 -0.9592
 4092SOL    HW223736   2.600   4.056   5.444  2.5145 -1.9556  0.5529
 4093SOL     OW23737   3.773   3.225   9.224 -0.2407  0.1526 -0.6196
 4093SOL    HW123738   3.785   3.145   9.173 -1.6030 -1.7492  1.9757
 4093SOL    HW223739   3.731   3.190   9.303  2.2843 -0.9525  0.2299
 4094SOL     OW23740   1.897   3.272   5.547 -0.7058 -0.0778 -0.2337
 4094SOL    HW123741   1.941   3.193   5.516 -0.2461 -0.5656  1.6355
 4094SOL    HW223742   1.944   3.282   5.630  1.9715  0.7925 -1.8682
 4095SOL     OW23743   3.256   3.296   8.543  0.4177  0.0621 -0.3166
 4095SOL    HW123744   3.160   3.293   8.550  0.5367 -1.0611  0.8304
 4095SOL    HW223745   3.279   3.236   8.472  1.6131  0.8998 -0.6368
 4096SOL     OW23746   3.095   3.735   5.522 -0.8736 -0.5104  0.6323
 4096SOL    HW123747   3.147   3.659   5.496  0.9392  0.7570  0.5628
 4096SOL    HW223748   3.016   3.698   5.561  0.0455 -1.6244  1.4452
 4097SOL     OW23749   1.090   1.019   7.008  0.1023  0.1745 -0.6295
 4097SOL    HW123750   1.097   0.924   7.019  1.5771  0.3132 -0.3129
 4097SOL    HW223751   1.155   1.046   7.074  1.6872 -0.2000 -2.0581
 4098SOL     OW23752   0.804   0.438  12.838  0.2051 -0.0695  0.1092
 4098SOL    HW123753   0.720   0.482  12.823  0.4904 -0.1559 -1.6335
 4098SOL    HW223754   0.774   0.375  12.904 -2.0692  1.5320  0.6232
 4099SOL     OW23755   1.030   2.940   2.082  0.0710 -0.1010  0.0380
 4099SOL    HW123756   1.024   3.033   2.060  1.2588 -0.2882 -1.1109
 4099SOL    HW223757   1.016   2.939   2.176 -0.8260 -0.3135 -0.0940
 4100SOL     OW23758   3.781   2.076   4.747  0.1823  0.4469 -0.2794
 4100SOL    HW123759   3.725   2.137   4.795 -0.3877 -1.3758  1.3560
 4100SOL    HW223760   3.853   2.063   4.808 -0.8792  0.6908  1.0225
 4101SOL     OW23761   1.331   2.285   9.221 -0.3542 -0.3467 -0.3281
 4101SOL    HW123762   1.273   2.324   9.155  1.7402 -0.3322 -2.1473
 4101SOL    HW223763   1.292   2.317   9.302 -0.7627 -0.4022 -0.5028
 4102SOL     OW23764   1.677   1.708   4.317  0.5189  0.3637  0.5559
 4102SOL    HW123765   1.587   1.742   4.314  0.0376 -0.8455  1.5167
 4102SOL    HW223766   1.723   1.764   4.254  0.1705 -1.6541 -1.4883
 4103SOL     OW23767   1.418   3.638  10.112  0.2467  0.2271 -0.2033
 4103SOL    HW123768   1.413   3.554  10.066 -3.8334 -0.8511  2.1917
 4103SOL    HW223769   1.408   3.698  10.038 -1.7555 -1.2581 -1.1361
 4104SOL     OW23770   2.723   3.650  15.753  0.1419 -0.3840 -0.2643
 4104SOL    HW123771   2.662   3.714  15.716 -1.0280 -0.4131  1.6508
 4104SOL    HW223772   2.690   3.577  15.700 -1.7491  1.4372 -1.6248
 4105SOL     OW23773   0.646   2.837   8.721 -0.1223  0.5339  0.1967
 4105SOL    HW123774   0.603   2.851   8.636 -1.2126  0.5895  0.7615
 4105SOL    HW223775   0.675   2.927   8.738  0.4285  0.3350  0.3049
 4106SOL     OW23776   4.645   0.525   7.675  0.0078  0.2128 -0.1977
 4106SOL    HW123777   4.636   0.547   7.582  0.1902 -0.1864 -0.3071
 4106SOL    HW223778   4.557   0.488   7.683 -0.2900  0.8407 -0.5038
 4107SOL     OW23779   3.205   0.671   4.274 -0.3326  0.6582 -0.5608
 4107SOL    HW123780   3.281   0.614   4.278 -0.8137  0.0281 -0.4341
 4107SOL    HW223781   3.154   0.629   4.343  1.3076  1.0118  0.8577
 4108SOL     OW23782   3.198   4.661   3.423  0.1826  0.6569 -0.7515
 4108SOL    HW123783   3.110   4.661   3.385 -1.3044  0.7967  2.7056
 4108SOL    HW223784   3.209   4.567   3.432 -0.1972  0.5122 -1.8581
 4109SOL     OW23785   4.052   0.223   3.045  0.2544  0.5131  0.2052
 4109SOL    HW123786   4.060   0.191   2.955  0.2810  0.9946  0.0321
 4109SOL    HW223787   3.998   0.301   3.030  0.2294  0.2277 -1.2340
 4110SOL     OW23788   1.807   4.614   1.847 -0.1946  0.5185 -0.1927
 4110SOL    HW123789   1.836   4.694   1.803 -0.7122  0.6068 -0.3755
 4110SOL    HW223790   1.721   4.642   1.878  0.2408 -0.7339  2.1486
 4111SOL     OW23791   0.744   4.437   8.591  0.5083  0.1750 -0.1943
 4111SOL    HW123792   0.666   4.490   8.578  0.9398  1.3189  1.8464
 4111SOL    HW223793   0.701   4.351   8.583  0.4630  0.5660 -4.3191
 4112SOL     OW23794   3.519   2.506   5.723  0.3816  0.0718  0.1271
 4112SOL    HW123795   3.576   2.434   5.750  1.8102  1.4155  0.7311
 4112SOL    HW223796   3.492   2.539   5.809 -2.1760  1.0179 -1.0193
 4113SOL     OW23797   1.608   2.752   3.230 -0.2822 -0.0517  0.1376
 4113SOL    HW123798   1.526   2.801   3.235 -0.1580  0.4047 -2.0779
 4113SOL    HW223799   1.652   2.772   3.312 -0.1413  1.1222 -0.2221
 4114SOL     OW23800   0.880   0.414  14.031  0.2708 -0.1125 -0.5282
 4114SOL    HW123801   0.887   0.478  14.102  2.8393  2.3660 -3.0101
 4114SOL    HW223802   0.973   0.391  14.041  0.5272  1.0256 -0.2466
 4115SOL     OW23803   4.518   1.086  11.776  0.2201  0.0440 -0.2126
 4115SOL    HW123804   4.425   1.088  11.753  0.3580 -1.1299 -0.8799
 4115SOL    HW223805   4.530   1.181  11.770 -1.3672  0.3533  1.7843
 4116SOL     OW23806   2.627   1.302   3.832  0.7378  0.4089  0.6011
 4116SOL    HW123807   2.712   1.308   3.876  0.9922  1.3299 -0.0175
 4116SOL    HW223808   2.599   1.213   3.851 -1.3251  0.8759 -0.2824
 4117SOL     OW23809   1.019   0.308  12.746 -0.3812  0.2488 -0.3361
 4117SOL    HW123810   0.957   0.357  12.800  1.6623  1.1015  1.2249
 4117SOL    HW223811   0.989   0.316  12.655 -2.7180 -0.7333  0.3355
 4118SOL     OW23812   3.648   3.178  14.594 -0.3309  0.5949 -0.6597
 4118SOL    HW123813   3.678   3.260  14.554 -0.8644  0.5833 -1.0808
 4118SOL    HW223814   3.677   3.107  14.537  0.0291 -0.0965  0.3884
 4119SOL     OW23815   1.978   2.972   8.709 -0.0181 -0.4945  0.8473
 4119SOL    HW123816   2.054   2.921   8.735  0.0316 -0.2298  1.2224
 4119SOL    HW223817   2.002   2.989   8.618  3.4547  0.9379  2.0352
 4120SOL     OW23818   1.123   0.436   2.756  0.0112 -0.1193  0.0767
 4120SOL    HW123819   1.182   0.475   2.691  2.9654 -1.9101  1.6783
 4120SOL    HW223820   1.074   0.373   2.702 -0.7003 -0.5201  1.2015
 4121SOL     OW23821   2.918   1.179   5.273 -0.9311  0.1317 -0.6458
 4121SOL    HW123822   2.974   1.255   5.260 -1.2988  0.3221 -1.1396
 4121SOL    HW223823   2.970   1.108   5.234  1.9495  1.8991  0.0588
 4122SOL     OW23824   3.770   0.767   9.831 -0.2119  0.2200  0.1414
 4122SOL    HW123825   3.850   0.760   9.883  1.1736  2.6146 -1.6612
 4122SOL    HW223826   3.803   0.740   9.745  0.5109 -0.7810  0.7304
 4123SOL     OW23827   1.377   3.611   9.191  0.3489 -0.2210  0.6307
 4123SOL    HW123828   1.351   3.571   9.108  1.2203  0.8744 -0.1642
 4123SOL    HW223829   1.325   3.690   9.178  1.4180  0.6635  1.7627
 4124SOL     OW23830   4.588   2.079   0.331  0.4480  0.0888 -0.0453
 4124SOL    HW123831   4.492   2.074   0.331  0.3890  1.2085 -2.1579
 4124SOL    HW223832   4.598   2.126   0.248 -0.3067 -0.2174 -0.3125
 4125SOL     OW23833   2.055   1.355   2.424  0.3346 -0.3568  0.2033
 4125SOL    HW123834   2.112   1.358   2.348  0.3561  2.9813  0.3450
 4125SOL    HW223835   2.029   1.447   2.429  0.5706 -0.4486  3.2196
 4126SOL     OW23836   3.892   0.184   5.548 -0.4250 -0.6348 -0.3623
 4126SOL    HW123837   3.942   0.186   5.467 -0.8775 -2.0999 -0.6941
 4126SOL    HW223838   3.836   0.108   5.531 -1.1014 -0.5021  1.2887
 4127SOL     OW23839   3.225   3.956   6.827 -0.5772  0.4916 -0.3621
 4127SOL    HW123840   3.170   3.982   6.754 -0.4581 -0.3526 -0.7564
 4127SOL    HW223841   3.279   4.034   6.838  1.5478 -0.8139 -1.5769
 4128SOL     OW23842   3.165   3.365   3.580 -1.0328 -0.0652  0.0314
 4128SOL    HW123843   3.120   3.280   3.584 -1.6289  0.3664  2.3568
 4128SOL    HW223844   3.188   3.374   3.672  0.5083  1.4096 -0.5023
 4129SOL     OW23845   4.663   3.811  15.243 -0.0899  0.1147 -0.2328
 4129SOL    HW123846   0.004   3.779  15.183  0.6632 -0.2022  0.7637
 4129SOL    HW223847   4.586   3.779  15.196  0.8051 -0.9389 -0.9874
 4130SOL     OW23848   2.477   3.364   6.804  0.0642  0.7097  0.8584
 4130SOL    HW123849   2.456   3.345   6.896 -0.6007  0.2028  0.6027
 4130SOL    HW223850   2.559   3.411   6.821  0.7604 -0.0983 -0.2799
 4131SOL     OW23851   2.166   2.276   1.997  0.4816  0.3309 -0.5578
 4131SOL    HW123852   2.107   2.211   2.035  2.4445 -0.9756  0.2427
 4131SOL    HW223853   2.147   2.356   2.047 -1.3970 -1.2823  1.3304
 4132SOL     OW23854   1.998   3.112   2.927  0.0186 -0.2272 -0.1793
 4132SOL    HW123855   1.965   3.065   3.005  1.5301 -1.0160 -0.0122
 4132SOL    HW223856   2.059   3.044   2.899  0.7557  0.2228  0.3467
 4133SOL     OW23857   1.271   0.409  14.668  0.3006  0.5302  0.3535
 4133SOL    HW123858   1.318   0.454  14.738  2.1263  0.6651 -0.9574
 4133SOL    HW223859   1.336   0.405  14.597 -1.3610 -0.2889 -1.1202
 4134SOL     OW23860   0.711   3.138   4.602 -0.2957 -0.2039  0.1676
 4134SOL    HW123861   0.689   3.190   4.679 -2.5177 -1.9723  0.7074
 4134SOL    HW223862   0.621   3.108   4.593 -1.4317  2.9656  0.7305
 4135SOL     OW23863   0.239   4.556  11.253  0.1934  0.4641 -0.2503
 4135SOL    HW123864   0.209   4.630  11.306 -0.0626 -0.7298  1.2521
 4135SOL    HW223865   0.332   4.565  11.273 -0.6554  0.2522  3.6480
 4136SOL     OW23866   3.143   0.049   7.511  0.2289  0.2596 -0.0253
 4136SOL    HW123867   3.072   0.075   7.452 -1.0879  0.2048  1.5225
 4136SOL    HW223868   3.111   0.061   7.601 -1.1920  0.3998 -0.5545
 4137SOL     OW23869   1.009   1.219   4.976 -0.4203 -0.4534 -0.0299
 4137SOL    HW123870   1.079   1.283   4.986  0.7436 -1.5468 -1.1992
 4137SOL    HW223871   1.054   1.149   5.024  0.5975 -0.3804 -0.9069
 4138SOL     OW23872   2.753   3.503   0.669 -0.4929 -0.0315 -0.0333
 4138SOL    HW123873   2.672   3.458   0.649 -2.3676  2.4624  1.9960
 4138SOL    HW223874   2.803   3.491   0.587 -2.3517 -1.6857 -0.9052
 4139SOL     OW23875   3.826   4.720   4.818 -0.4885 -0.0466 -0.7344
 4139SOL    HW123876   3.912   4.725   4.775  0.4732  1.0719  1.2630
 4139SOL    HW223877   3.772   0.056   4.770  0.9187  0.8623 -1.1684
 4140SOL     OW23878   0.745   3.879   6.730 -0.1695 -0.3292  0.0913
 4140SOL    HW123879   0.799   3.801   6.719  0.5477  0.3275 -1.0941
 4140SOL    HW223880   0.688   3.864   6.655  0.7370 -2.5936 -0.1559
 4141SOL     OW23881   0.560   3.393  13.887 -0.6705  0.3595  0.1102
 4141SOL    HW123882   0.549   3.344  13.968 -1.2376  2.4723  1.3189
 4141SOL    HW223883   0.476   3.435  13.864 -0.6140 -0.7498 -2.1273
 4142SOL     OW23884   0.626   1.562   2.602  0.3283  0.6992  0.0149
 4142SOL    HW123885   0.569   1.548   2.678  1.8355 -1.3315  0.7647
 4142SOL    HW223886   0.559   1.580   2.535 -3.6958  0.3812  3.9154
 4143SOL     OW23887   2.783   3.330   5.544  0.1151  0.2840 -0.1819
 4143SOL    HW123888   2.875   3.312   5.562  0.0231  0.1316  0.1454
 4143SOL    HW223889   2.758   3.242   5.516 -0.1025  0.2664  0.0667
 4144SOL     OW23890   0.809   1.984  11.337 -0.1866  0.2857  0.5723
 4144SOL    HW123891   0.830   1.891  11.332 -2.1252  0.0094 -2.4100
 4144SOL    HW223892   0.889   2.015  11.295 -1.6694  0.7435 -1.8794
 4145SOL     OW23893   3.483   1.077   4.531 -0.1446  0.3707  0.2188
 4145SOL    HW123894   3.423   1.011   4.566 -1.3191  0.2785 -2.0155
 4145SOL    HW223895   3.460   1.075   4.438 -0.8006 -0.5878  0.4044
 4146SOL     OW23896   3.160   4.357   6.694 -0.0900  0.3521  0.0488
 4146SOL    HW123897   3.197   4.313   6.617 -1.9395 -0.3904 -0.4255
 4146SOL    HW223898   3.237   4.347   6.750 -2.1012 -0.5843  2.6981
 4147SOL     OW23899   4.315   2.174  16.619  0.4153  0.0655  0.4272
 4147SOL    HW123900   4.399   2.140  16.651  0.1811 -0.6072  0.3331
 4147SOL    HW223901   4.314   2.134  16.532  1.7496 -1.4654  1.1086
 4148SOL     OW23902   2.340   1.022   2.620  0.3790  0.3309  0.5488
 4148SOL    HW123903   2.256   1.066   2.608  0.4108  0.3220  0.2954
 4148SOL    HW223904   2.394   1.058   2.549  1.0897 -1.1016  0.3682
 4149SOL     OW23905   1.976   2.334   4.144 -0.1390  0.5756 -0.6122
 4149SOL    HW123906   1.920   2.332   4.222  1.8723  0.9901  0.8310
 4149SOL    HW223907   1.907   2.356   4.081  0.8758  0.1982 -1.8460
 4150SOL     OW23908   1.483   1.552   8.369  0.4650 -0.1324  0.1412
 4150SOL    HW123909   1.418   1.621   8.385 -0.2020 -0.3268 -1.7215
 4150SOL    HW223910   1.566   1.595   8.387  0.9595 -0.5170 -1.1837
 4151SOL     OW23911   4.490   2.629   6.470 -0.3731 -0.0396  0.0262
 4151SOL    HW123912   4.517   2.580   6.392 -0.8842  0.8186 -0.6848
 4151SOL    HW223913   4.404   2.652   6.435 -0.3689 -0.3023 -0.1572
 4152SOL     OW23914   4.725   3.119   6.925  0.9683 -0.3484  0.0799
 4152SOL    HW123915   0.007   3.182   6.854  2.3176  0.3188  0.8190
 4152SOL    HW223916   0.068   3.154   6.981  1.7113 -0.6105 -0.6672
 4153SOL     OW23917   3.843   1.039   5.299 -0.2044 -0.1252 -0.5104
 4153SOL    HW123918   3.868   0.965   5.355  1.3114  0.8458  0.0921
 4153SOL    HW223919   3.778   1.007   5.237  0.3435  2.4426 -2.4168
 4154SOL     OW23920   1.421   3.458   3.985  0.2647 -0.4469  0.0199
 4154SOL    HW123921   1.423   3.506   4.068 -2.3269 -0.5372  0.1317
 4154SOL    HW223922   1.432   3.526   3.919  0.8178  0.6071  1.1860
 4155SOL     OW23923   3.636   2.807   5.723 -0.7722 -0.0560 -0.1664
 4155SOL    HW123924   3.602   2.752   5.793  0.8120 -1.3381 -0.4086
 4155SOL    HW223925   3.729   2.809   5.747 -0.0375 -0.6702 -2.9421
 4156SOL     OW23926   4.130   0.849   9.782  0.2245 -0.5718  0.0807
 4156SOL    HW123927   4.106   0.757   9.770 -1.3466 -0.2102  0.4933
 4156SOL    HW223928   4.082   0.879   9.859  2.0319  1.2711  0.5031
 4157SOL     OW23929   1.263   1.018  16.167  0.0509 -0.1038  0.3330
 4157SOL    HW123930   1.304   1.096  16.203  0.2750  0.2879 -0.7659
 4157SOL    HW223931   1.322   0.994  16.095 -2.6338  0.4127 -2.0510
 4158SOL     OW23932   0.450   0.201   5.785  0.7241  0.5207  0.2138
 4158SOL    HW123933   0.373   0.187   5.841  0.6728 -0.7894 -0.1763
 4158SOL    HW223934   0.396   0.231   5.712  1.0132 -0.6823 -0.4895
 4159SOL     OW23935   4.180   2.025   2.857 -0.7850  0.0233 -0.0436
 4159SOL    HW123936   4.232   1.953   2.892  1.5710  1.0262 -1.4780
 4159SOL    HW223937   4.217   2.043   2.771 -2.5931  2.8879 -0.2352
 4160SOL     OW23938   3.593   4.210   0.194  0.4278  0.5423  0.5936
 4160SOL    HW123939   3.527   4.170   0.250 -0.7956  2.8897  0.8226
 4160SOL    HW223940   3.565   4.301   0.206 -4.2556 -0.6930 -1.1877
 4161SOL     OW23941   2.671   4.701   3.493 -0.5959  0.2920  0.1742
 4161SOL    HW123942   2.742   0.001   3.553 -0.4188 -2.1172  0.9916
 4161SOL    HW223943   2.661   4.608   3.508  1.4305  0.0578  0.0598
 4162SOL     OW23944   3.225   4.211   0.276  0.1578 -0.5198  0.2121
 4162SOL    HW123945   3.153   4.270   0.254 -0.4015 -1.4792 -0.5091
 4162SOL    HW223946   3.235   4.164   0.193 -0.6921  0.3482 -0.3907
 4163SOL     OW23947   3.610   0.267  15.659  0.1152 -0.2498 -0.2093
 4163SOL    HW123948   3.525   0.296  15.627  0.0216  1.8550  1.9069
 4163SOL    HW223949   3.657   0.343  15.623  0.0789  0.1808  0.6391
 4164SOL     OW23950   0.932   1.943   1.658  0.4918 -0.4676  0.2428
 4164SOL    HW123951   0.959   1.907   1.743  2.2194 -3.4023 -1.5524
 4164SOL    HW223952   0.932   2.039   1.656  1.2858 -0.5078 -1.9873
 4165SOL     OW23953   1.436   3.327   9.071  0.5353  0.2661 -0.0959
 4165SOL    HW123954   1.529   3.309   9.080  0.8030  1.4181 -0.4843
 4165SOL    HW223955   1.417   3.306   9.163 -1.5863 -1.2086 -0.8619
 4166SOL     OW23956   0.590   2.822  15.537  0.1557 -0.8489  0.3513
 4166SOL    HW123957   0.495   2.822  15.541  0.1037  1.8448 -0.9753
 4166SOL    HW223958   0.595   2.728  15.524  0.8280 -0.7513 -0.1350
 4167SOL     OW23959   3.191   0.967   3.882 -0.2220 -0.1029  0.0328
 4167SOL    HW123960   3.158   0.973   3.792  0.5131 -1.4245 -0.3216
 4167SOL    HW223961   3.279   1.003   3.877 -0.5655  0.9807  1.8000
 4168SOL     OW23962   0.762   3.208   4.110 -0.5524 -0.0905  0.0339
 4168SOL    HW123963   0.841   3.216   4.056  0.1475  0.8088  1.2038
 4168SOL    HW223964   0.798   3.242   4.192  4.0064 -0.0223 -1.9748
 4169SOL     OW23965   0.811   2.372   5.562  0.0931 -0.0562  0.4300
 4169SOL    HW123966   0.754   2.348   5.489  0.0837 -1.6221  0.9569
 4169SOL    HW223967   0.877   2.304   5.559 -1.2220 -1.1943 -2.0365
 4170SOL     OW23968   0.198   2.304   3.595 -0.1220 -0.4007  0.3747
 4170SOL    HW123969   0.255   2.282   3.522  0.2381  0.4177  0.4097
 4170SOL    HW223970   0.240   2.386   3.622  0.7235 -0.4202 -0.9367
 4171SOL     OW23971   4.489   3.082   7.831  0.1448  0.1326  0.1365
 4171SOL    HW123972   4.433   3.075   7.909  0.7631  1.0406  0.6611
 4171SOL    HW223973   4.566   3.035   7.863 -1.3527 -1.8315  0.8762
 4172SOL     OW23974   1.418   1.990   1.780  0.3375 -0.4732  0.0757
 4172SOL    HW123975   1.370   1.977   1.699  2.1593  0.5931 -1.1744
 4172SOL    HW223976   1.490   2.041   1.743  1.0683 -0.7040  1.1956
 4173SOL     OW23977   2.756   0.715   1.738  0.8669  0.2952  0.2318
 4173SOL    HW123978   2.733   0.793   1.688 -0.2541 -0.4802 -0.4684
 4173SOL    HW223979   2.732   0.734   1.828  1.5100 -0.6910  0.6118
 4174SOL     OW23980   1.754   3.745   2.741 -0.6118 -0.5904 -0.7796
 4174SOL    HW123981   1.723   3.830   2.709  2.2018  1.2421  1.4111
 4174SOL    HW223982   1.675   3.721   2.790 -0.4712  3.1299  1.2580
 4175SOL     OW23983   0.811   1.547  16.836  0.3412 -0.3519 -0.3025
 4175SOL    HW123984   0.889   1.492  16.835 -0.6349 -1.7361 -0.8807
 4175SOL    HW223985   0.777   1.539  16.747 -1.1275 -1.3475  0.3462
 4176SOL     OW23986   3.599   2.243  16.343 -0.1591  0.2679 -0.4576
 4176SOL    HW123987   3.542   2.308  16.385 -0.0965 -1.3722  2.2067
 4176SOL    HW223988   3.641   2.200  16.418 -1.5818 -1.0991 -0.4529
 4177SOL     OW23989   1.606   2.088   7.154  0.4223  0.3958 -0.0492
 4177SOL    HW123990   1.682   2.101   7.209 -0.5366  0.5509  1.2393
 4177SOL    HW223991   1.632   2.133   7.073 -0.3180  0.4560 -0.2613
 4178SOL     OW23992   2.851   1.584   3.064  0.6955  0.1393 -0.2319
 4178SOL    HW123993   2.927   1.551   3.110 -0.0185 -0.0523  0.7984
 4178SOL    HW223994   2.899   1.609   2.985  0.8914  0.5695  0.0249
 4179SOL     OW23995   0.517   1.034   4.658  0.3876  0.0061  0.0519
 4179SOL    HW123996   0.589   0.990   4.702  0.1531 -0.6102 -0.1791
 4179SOL    HW223997   0.523   1.124   4.688  1.3697  0.6519 -2.0855
 4180SOL     OW23998   3.079   0.860   9.591  0.5247  0.1954  0.2297
 4180SOL    HW123999   3.008   0.808   9.629  1.2241  0.3146  1.6814
 4180SOL    HW224000   3.086   0.933   9.652  1.5602  0.9419 -0.7876
 4181SOL     OW24001   4.081   1.060  10.912  0.4911  0.5797  0.0997
 4181SOL    HW124002   4.138   0.999  10.959 -0.3653 -0.8557 -0.7005
 4181SOL    HW224003   4.038   1.103  10.986 -0.7108 -1.2471  0.4677
 4182SOL     OW24004   2.929   2.912   3.430 -0.2880  0.4455  0.0761
 4182SOL    HW124005   2.843   2.912   3.471  0.8253 -0.1119  2.3734
 4182SOL    HW224006   2.932   2.817   3.425  0.2840  0.5579 -1.8426
 4183SOL     OW24007   3.498   2.641  13.833 -0.4381 -0.2271 -0.4318
 4183SOL    HW124008   3.511   2.546  13.824 -1.5361 -0.3929 -0.2721
 4183SOL    HW224009   3.567   2.687  13.787  0.3511 -0.4888  0.4819
 4184SOL     OW24010   1.858   4.341   2.417  0.6011  0.0779 -0.2311
 4184SOL    HW124011   1.932   4.376   2.467 -0.1845  1.4135  0.0124
 4184SOL    HW224012   1.862   4.253   2.454  2.3688  1.0623  1.9335
 4185SOL     OW24013   1.202   4.122   7.289 -0.9891  0.2740 -0.4398
 4185SOL    HW124014   1.277   4.180   7.298 -1.2387  0.4259  0.6424
 4185SOL    HW224015   1.156   4.167   7.219  0.2300  1.6634 -0.3489
 4186SOL     OW24016   0.289   4.080  13.458 -0.6890 -0.0391 -0.3485
 4186SOL    HW124017   0.208   4.128  13.475 -0.4845  0.3464 -0.4792
 4186SOL    HW224018   0.353   4.151  13.452 -1.6001  0.8869  0.8730
 4187SOL     OW24019   3.146   3.611   4.415 -0.1423 -0.0598 -0.0501
 4187SOL    HW124020   3.162   3.571   4.500  1.5012  0.2349 -0.2257
 4187SOL    HW224021   3.224   3.663   4.398 -0.3853 -0.0073 -0.9927
 4188SOL     OW24022   0.834   2.872  14.259 -0.3777 -0.2531  0.5759
 4188SOL    HW124023   0.910   2.883  14.315 -0.6806 -2.8812  1.5160
 4188SOL    HW224024   0.852   2.945  14.199 -3.3849  1.1270  1.3450
 4189SOL     OW24025   2.472   0.633  16.833 -0.2042 -0.1830 -0.6160
 4189SOL    HW124026   2.389   0.586  16.831  0.3431 -1.2110  0.7276
 4189SOL    HW224027   2.467   0.669  16.921 -2.3398  0.0926 -0.8525
 4190SOL     OW24028   1.365   3.758   3.552 -0.3932  0.4482  0.4002
 4190SOL    HW124029   1.444   3.811   3.543  0.5172 -0.9106  0.3508
 4190SOL    HW224030   1.409   3.680   3.588 -1.3614  0.3443  1.3694
 4191SOL     OW24031   0.042   1.980  17.340  0.1056  0.3434  0.7153
 4191SOL    HW124032   4.687   1.929  17.336  1.6782 -2.2333  2.0888
 4191SOL    HW224033   0.012   2.044  17.276  2.7664  1.7947  0.9301
 4192SOL     OW24034   3.184   1.071   0.593 -0.2422  0.1651  0.0307
 4192SOL    HW124035   3.259   1.013   0.580 -1.9924 -2.4339  1.8243
 4192SOL    HW224036   3.145   1.079   0.506 -1.7221  0.2774  0.7072
 4193SOL     OW24037   4.245   2.159  14.393 -0.4695 -0.2361 -0.0018
 4193SOL    HW124038   4.215   2.078  14.352  2.3140 -1.2420 -0.0406
 4193SOL    HW224039   4.159   2.193  14.416 -1.0159 -1.7087  0.1342
 4194SOL     OW24040   4.327   2.141  15.298  0.1219 -0.3612 -0.5184
 4194SOL    HW124041   4.263   2.095  15.352  0.9130  0.6749  1.3165
 4194SOL    HW224042   4.404   2.163  15.352 -0.1138 -2.2158  0.5693
 4195SOL     OW24043   1.490   3.680  12.226 -0.5666 -0.2035 -0.3473
 4195SOL    HW124044   1.531   3.667  12.140 -0.5755  1.3678 -0.5826
 4195SOL    HW224045   1.408   3.636  12.204  0.3824 -1.3250 -1.6548
 4196SOL     OW24046   3.897   1.768   2.348 -0.0263 -0.8070 -0.4181
 4196SOL    HW124047   3.823   1.721   2.309  0.6593 -1.3780 -1.0287
 4196SOL    HW224048   3.864   1.786   2.436  0.1652  2.1274 -0.9244
 4197SOL     OW24049   4.591   3.826   1.089  0.0176  0.5123  0.1387
 4197SOL    HW124050   4.547   3.788   1.165  0.8886 -0.7503  0.0116
 4197SOL    HW224051   4.519   3.869   1.043  0.4878  1.0970 -0.0460
 4198SOL     OW24052   3.127   2.016   3.198  0.0431  0.3577 -0.2611
 4198SOL    HW124053   3.123   2.086   3.264  2.2905 -1.3712  1.7082
 4198SOL    HW224054   3.058   2.044   3.138 -0.7359  1.9447  1.3904
 4199SOL     OW24055   0.691   2.340  17.083  0.3063  0.3209 -0.0196
 4199SOL    HW124056   0.779   2.304  17.096  0.1378  0.9853  3.0215
 4199SOL    HW224057   0.656   2.309  17.166  0.0679  0.1618 -0.1799
 4200SOL     OW24058   4.660   3.576   6.004 -0.1182 -0.0254  0.3494
 4200SOL    HW124059   4.607   3.637   5.953 -0.3349 -1.5716 -1.2633
 4200SOL    HW224060   4.638   3.587   6.096  1.0566  0.2665  0.5992
 4201SOL     OW24061   0.205   1.274   8.661 -0.0768  0.8591 -0.0649
 4201SOL    HW124062   0.131   1.334   8.650  1.1607  2.3912  0.0467
 4201SOL    HW224063   0.163   1.189   8.679  0.9948  0.5508  0.9641
 4202SOL     OW24064   4.202   3.413  14.025 -0.1388 -0.0121  0.5406
 4202SOL    HW124065   4.184   3.462  13.944 -0.4282 -0.2396  0.4642
 4202SOL    HW224066   4.277   3.467  14.050  1.0896 -0.6735 -1.6587
 4203SOL     OW24067   2.047   1.548   1.853  0.2598  0.2020 -0.0133
 4203SOL    HW124068   2.104   1.491   1.905 -0.0806  0.8653  1.0874
 4203SOL    HW224069   1.954   1.531   1.873  0.4534  0.5497  1.1938
 4204SOL     OW24070   2.785   4.190   9.768  0.2454  0.7687  0.9039
 4204SOL    HW124071   2.745   4.254   9.825  1.1059  0.1400  2.2118
 4204SOL    HW224072   2.875   4.219   9.783  1.0182 -1.4635  0.6926
 4205SOL     OW24073   1.003   3.928   7.639 -0.2190  0.4457 -0.0677
 4205SOL    HW124074   1.096   3.951   7.645 -0.4077  0.8469  1.3080
 4205SOL    HW224075   0.986   3.905   7.730 -0.8845 -3.0000 -1.0551
 4206SOL     OW24076   0.415   0.563  14.453 -0.3548  0.3566 -0.1136
 4206SOL    HW124077   0.479   0.503  14.414  0.4074  1.2384 -0.2144
 4206SOL    HW224078   0.441   0.652  14.429 -2.3611  0.9091 -0.2050
 4207SOL     OW24079   0.364   3.558   5.344 -0.3004  0.3488  0.0273
 4207SOL    HW124080   0.373   3.634   5.287 -1.6161 -0.1995 -0.9159
 4207SOL    HW224081   0.306   3.598   5.408 -0.0168 -0.1179  0.5798
 4208SOL     OW24082   1.747   0.147   7.438  0.8520 -0.4423 -0.3096
 4208SOL    HW124083   1.709   0.060   7.421 -1.7773  0.9936 -1.7655
 4208SOL    HW224084   1.759   0.181   7.350 -0.1325  0.5765 -0.0482
 4209SOL     OW24085   1.007   4.150   4.874 -0.1698 -0.4231 -0.2182
 4209SOL    HW124086   1.055   4.075   4.909  0.5248 -0.1343 -0.5578
 4209SOL    HW224087   0.957   4.178   4.950 -0.7485  2.5639 -1.7061
 4210SOL     OW24088   1.717   4.296  14.217 -0.2792  0.2036  0.1424
 4210SOL    HW124089   1.633   4.287  14.261  1.3671  0.4832  3.3091
 4210SOL    HW224090   1.778   4.334  14.280  0.3582 -1.2780  0.4047
 4211SOL     OW24091   1.784   4.542   2.241  0.1185 -0.1629 -0.2510
 4211SOL    HW124092   1.766   4.494   2.161  3.0472 -2.0154  0.2111
 4211SOL    HW224093   1.812   4.476   2.304 -0.7086 -0.5741 -0.3136
 4212SOL     OW24094   2.847   3.768   3.058  0.0378  0.1786  0.1558
 4212SOL    HW124095   2.905   3.765   3.134 -0.7244  0.5696  0.7526
 4212SOL    HW224096   2.787   3.696   3.073  0.9476 -0.3133  1.3859
 4213SOL     OW24097   0.595   3.829   6.511 -0.2223  0.4203  0.2163
 4213SOL    HW124098   0.661   3.760   6.503  1.1273  1.7310  0.0927
 4213SOL    HW224099   0.560   3.811   6.424  1.4102  2.3998 -0.8526
 4214SOL     OW24100   2.478   2.436   5.812 -0.5040 -0.4530 -0.7356
 4214SOL    HW124101   2.439   2.431   5.899  0.4872  0.5102 -0.2493
 4214SOL    HW224102   2.416   2.391   5.754 -1.1153 -1.3105  0.5892
 4215SOL     OW24103   1.733   2.898   1.851  0.2217  0.3065 -1.0284
 4215SOL    HW124104   1.655   2.908   1.798  2.1422  1.3378 -3.6315
 4215SOL    HW224105   1.707   2.831   1.915  1.8206  1.1835  0.5445
 4216SOL     OW24106   3.446   2.644   1.503  0.1391  0.0606 -0.5780
 4216SOL    HW124107   3.447   2.560   1.457  0.9387 -0.1707 -0.1293
 4216SOL    HW224108   3.368   2.682   1.463  0.9900  0.4380 -1.9169
 4217SOL     OW24109   1.642   1.182   5.858  0.5617  0.2466  0.4447
 4217SOL    HW124110   1.677   1.264   5.824  0.6427  0.5322  1.2220
 4217SOL    HW224111   1.552   1.214   5.870  0.1978 -0.2689 -0.8546
 4218SOL     OW24112   2.989   3.109   6.153 -0.2936  0.6554 -0.2056
 4218SOL    HW124113   2.972   3.128   6.060  0.4670 -0.2980 -0.5318
 4218SOL    HW224114   2.920   3.043   6.164  0.1930  0.7198  3.0167
 4219SOL     OW24115   0.871   3.838   7.222  0.1213  0.7243 -0.1264
 4219SOL    HW124116   0.862   3.875   7.310 -0.2121  1.7191 -0.5682
 4219SOL    HW224117   0.886   3.923   7.181  1.2830  0.6954  0.2388
 4220SOL     OW24118   3.091   1.216   6.051 -0.1447  0.2401  0.1355
 4220SOL    HW124119   3.044   1.161   5.989  1.5953 -1.0398 -0.0622
 4220SOL    HW224120   3.016   1.242   6.104 -0.9756 -1.0418 -0.4169
 4221SOL     OW24121   3.225   3.466   8.241  0.2298  0.4558 -0.4442
 4221SOL    HW124122   3.245   3.485   8.333 -1.3863 -0.4579  0.0969
 4221SOL    HW224123   3.162   3.395   8.246  0.0586  0.5939 -0.6894
 4222SOL     OW24124   4.158   1.492   5.849 -0.0888 -0.4614  0.0121
 4222SOL    HW124125   4.206   1.478   5.931  0.5961  1.5687 -0.0437
 4222SOL    HW224126   4.084   1.550   5.868  0.1292  0.0512 -0.7188
 4223SOL     OW24127   2.199   3.708   8.565 -0.5221 -0.4071 -0.2400
 4223SOL    HW124128   2.253   3.718   8.487 -2.5962  1.8749 -1.4177
 4223SOL    HW224129   2.213   3.794   8.606  0.2421  0.3818 -2.1464
 4224SOL     OW24130   1.269   2.969   5.174 -0.1422 -0.2720 -0.0063
 4224SOL    HW124131   1.259   2.874   5.170  0.6666 -0.4052  1.1530
 4224SOL    HW224132   1.327   2.979   5.099  0.4289  1.0510  0.6124
 4225SOL     OW24133   0.879   1.523  16.054  0.0158  0.5099  0.1727
 4225SOL    HW124134   0.809   1.588  16.047 -2.2965 -2.0298 -0.6067
 4225SOL    HW224135   0.917   1.535  15.967  1.9422 -0.1353  0.9316
 4226SOL     OW24136   1.724   3.266   5.195  0.1631 -0.3618  0.5809
 4226SOL    HW124137   1.769   3.184   5.217 -2.0802 -2.4188 -2.3915
 4226SOL    HW224138   1.764   3.273   5.108 -0.6333  0.0799  0.2555
 4227SOL     OW24139   0.133   2.107   5.374 -0.2355  0.4831  0.3109
 4227SOL    HW124140   0.217   2.139   5.341 -0.0525 -0.0310  0.2817
 4227SOL    HW224141   0.130   2.167   5.448  0.7516 -0.7144  1.3252
 4228SOL     OW24142   3.496   2.520   5.288 -0.1391  0.4432  0.1348
 4228SOL    HW124143   3.539   2.571   5.358 -1.1963 -0.6380  1.5757
 4228SOL    HW224144   3.413   2.519   5.335 -0.5674 -0.3736 -0.6488
 4229SOL     OW24145   2.122   0.943   5.578 -0.0401 -0.2868 -0.3238
 4229SOL    HW124146   2.069   0.869   5.606 -2.1770  0.6434 -1.8871
 4229SOL    HW224147   2.202   0.897   5.554 -0.3136  0.3154 -2.4227
 4230SOL     OW24148   0.112   4.640   2.160  0.5031  0.6839 -0.0345
 4230SOL    HW124149   0.118   4.546   2.148 -1.2752  0.9397 -2.8566
 4230SOL    HW224150   0.023   4.643   2.196  0.4175  1.7990 -0.3244
 4231SOL     OW24151   3.617   3.198   0.916  0.2023 -0.5054 -0.0424
 4231SOL    HW124152   3.667   3.236   0.844  1.2329 -0.2420  0.8084
 4231SOL    HW224153   3.568   3.127   0.874  2.5496 -0.6079 -2.5501
 4232SOL     OW24154   3.742   1.933   2.914 -0.3667 -0.0890 -0.4111
 4232SOL    HW124155   3.721   1.845   2.945 -2.3085  0.4291 -0.2585
 4232SOL    HW224156   3.693   1.981   2.981 -1.3376  1.6211 -2.3488
 4233SOL     OW24157   1.892   1.720  12.512  0.2450  0.0549 -0.0368
 4233SOL    HW124158   1.988   1.720  12.516  0.2081  0.3268  0.9237
 4233SOL    HW224159   1.884   1.625  12.504  1.4720 -0.0406 -0.1297
 4234SOL     OW24160   0.458   3.369   6.127 -0.2489  0.2191  0.6836
 4234SOL    HW124161   0.372   3.410   6.124  0.4712  1.7373  1.1941
 4234SOL    HW224162   0.436   3.276   6.121  4.6327 -0.8141 -1.6208
 4235SOL     OW24163   4.538   0.579  11.729 -0.0031 -0.4512  0.3059
 4235SOL    HW124164   4.499   0.628  11.656  1.8717  2.7611  1.5111
 4235SOL    HW224165   4.484   0.500  11.720  4.1293 -3.0967 -1.6103
 4236SOL     OW24166   1.166   4.379  11.931 -0.8634 -0.2540 -0.5616
 4236SOL    HW124167   1.104   4.395  12.002  0.7700 -0.4224  0.9090
 4236SOL    HW224168   1.247   4.400  11.977 -0.0777 -2.2182 -1.0618
 4237SOL     OW24169   4.090   1.532   4.260 -0.6644  0.2291  0.5858
 4237SOL    HW124170   4.161   1.569   4.313 -0.2877 -0.4416  0.5451
 4237SOL    HW224171   4.117   1.549   4.170  1.1993  0.6401  1.2347
 4238SOL     OW24172   2.506   0.933   3.222  0.5976  0.0231 -0.1961
 4238SOL    HW124173   2.452   0.876   3.167 -1.5750  3.8131 -2.0148
 4238SOL    HW224174   2.442   0.999   3.247 -1.6406 -1.2196 -2.6324
 4239SOL     OW24175   0.832   1.098   3.824 -0.1988  0.7397 -0.3459
 4239SOL    HW124176   0.872   1.175   3.784  0.6327 -0.7338 -2.3310
 4239SOL    HW224177   0.738   1.113   3.811  0.1803  2.1012 -1.5090
 4240SOL     OW24178   2.130   1.038   8.816 -0.3054  0.1290 -0.2310
 4240SOL    HW124179   2.141   0.971   8.883 -0.1535 -0.6124 -0.9855
 4240SOL    HW224180   2.124   1.121   8.863 -0.2427 -1.6067  2.8137
 4241SOL     OW24181   3.936   0.462   6.279  0.5541 -0.2076 -0.1061
 4241SOL    HW124182   3.926   0.411   6.360 -0.7692 -0.7907 -0.6322
 4241SOL    HW224183   3.997   0.528   6.311  0.3251 -0.6010  1.1393
 4242SOL     OW24184   1.242   4.318   8.045  0.3494  0.0299  0.3897
 4242SOL    HW124185   1.175   4.284   7.985  0.9318  0.1570 -0.3432
 4242SOL    HW224186   1.198   4.394   8.082 -0.1590 -0.7267  1.3394
 4243SOL     OW24187   2.702   4.358   7.069 -0.3036  0.7283  0.4107
 4243SOL    HW124188   2.677   4.439   7.113 -0.1685  1.5568 -1.0415
 4243SOL    HW224189   2.795   4.363   7.091 -0.5880 -1.8418  2.2319
 4244SOL     OW24190   4.469   4.493   3.875 -0.1175 -0.3597 -0.0384
 4244SOL    HW124191   4.545   4.490   3.934 -0.9536  1.0683  1.0959
 4244SOL    HW224192   4.510   4.491   3.788 -0.1866 -1.5753 -0.0460
 4245SOL     OW24193   1.439   3.687   9.826  0.0450 -0.4345  0.0636
 4245SOL    HW124194   1.356   3.661   9.786  0.3224  0.2485 -0.9515
 4245SOL    HW224195   1.462   3.772   9.788  0.9315 -1.1279 -0.9215
 4246SOL     OW24196   4.357   0.878   8.538  0.4229  0.7116 -0.1028
 4246SOL    HW124197   4.433   0.918   8.496 -1.0278  1.7839 -1.6738
 4246SOL    HW224198   4.416   0.813   8.578  0.5785  0.7525 -0.2666
 4247SOL     OW24199   1.388   2.312   3.084 -0.2583 -0.9724  0.1960
 4247SOL    HW124200   1.343   2.311   3.168 -0.9038 -1.1062 -0.1434
 4247SOL    HW224201   1.468   2.362   3.097 -1.1503  1.4964 -3.6973
 4248SOL     OW24202   2.503   2.677   5.661  0.2279 -0.7840 -0.8630
 4248SOL    HW124203   2.562   2.622   5.609  0.2406 -0.7542 -0.8797
 4248SOL    HW224204   2.468   2.608   5.717  2.0215 -0.6752  0.4120
 4249SOL     OW24205   0.041   0.982   6.151  0.2577  0.0880  0.5705
 4249SOL    HW124206   0.103   0.932   6.098  0.9839  1.8190 -0.2211
 4249SOL    HW224207   0.007   1.041   6.084 -0.5606  2.4074  2.9908
 4250SOL     OW24208   0.044   0.016   3.794 -0.5310 -0.0049 -0.2718
 4250SOL    HW124209   0.078   0.103   3.817  2.9453 -2.3511  3.4565
 4250SOL    HW224210   4.709   0.039   3.724  1.4641 -0.1903 -2.1030
 4251SOL     OW24211   0.822   1.602   4.581  0.2233  0.0538  0.5415
 4251SOL    HW124212   0.737   1.568   4.610 -0.0052  0.7843  0.7254
 4251SOL    HW224213   0.845   1.664   4.649 -0.4026 -0.5614  1.3204
 4252SOL     OW24214   0.640   2.407   5.997  0.4275  0.8121  1.1023
 4252SOL    HW124215   0.714   2.417   5.937  2.4055 -2.8718  2.9249
 4252SOL    HW224216   0.576   2.364   5.941 -0.0066  2.6177  0.2210
 4253SOL     OW24217   0.422   3.456   4.481 -0.2357  0.5382 -0.4325
 4253SOL    HW124218   0.379   3.472   4.565 -1.1385  2.5462 -1.2770
 4253SOL    HW224219   0.390   3.368   4.463 -1.3491  0.8289  0.1076
 4254SOL     OW24220   0.898   1.976   6.326 -0.5841  0.4284 -0.1115
 4254SOL    HW124221   0.824   2.014   6.373  0.1464 -1.8363  2.9033
 4254SOL    HW224222   0.929   1.910   6.387 -1.2344 -0.5374 -0.8283
 4255SOL     OW24223   1.165   0.871   7.987 -0.4040  0.2413 -0.2086
 4255SOL    HW124224   1.227   0.870   7.915  0.2545  0.0917  0.3682
 4255SOL    HW224225   1.222   0.870   8.064 -1.5707 -1.7807  0.6382
 4256SOL     OW24226   3.402   1.438   1.483 -0.1455  0.0244  0.0934
 4256SOL    HW124227   3.380   1.472   1.570 -0.2869 -1.3084  0.5856
 4256SOL    HW224228   3.414   1.344   1.496  1.2269  0.0937 -0.5858
 4257SOL     OW24229   3.591   0.648   3.064 -0.4172 -0.0399  0.0533
 4257SOL    HW124230   3.572   0.700   2.985 -0.4252  0.5985  0.4713
 4257SOL    HW224231   3.614   0.564   3.026 -0.7527  0.5304 -1.4263
 4258SOL     OW24232   2.990   0.096   5.325 -0.1467  0.2385 -0.2841
 4258SOL    HW124233   3.061   0.127   5.380  0.3343 -0.2693 -0.6180
 4258SOL    HW224234   2.993   0.168   5.262 -0.1339  0.5827  0.1113
 4259SOL     OW24235   4.406   0.307   6.919  0.3944  0.3420 -0.1601
 4259SOL    HW124236   4.389   0.401   6.926 -2.1378 -0.1476  0.2421
 4259SOL    HW224237   4.363   0.276   6.999  0.1434 -1.6633 -1.1016
 4260SOL     OW24238   2.486   3.721   1.113  0.1627 -0.2851  0.3198
 4260SOL    HW124239   2.549   3.794   1.108  1.1024 -1.2068 -1.2346
 4260SOL    HW224240   2.450   3.729   1.202  2.0140  2.0694  0.8872
 4261SOL     OW24241   0.803   2.609   8.671  0.0445 -0.4475 -0.2223
 4261SOL    HW124242   0.758   2.671   8.729  1.6848  0.0025  0.5446
 4261SOL    HW224243   0.759   2.624   8.587  0.0524 -2.2561 -0.5514
 4262SOL     OW24244   3.686   2.049   6.010 -0.1159 -0.2250 -0.6788
 4262SOL    HW124245   3.740   2.005   5.945 -1.4783 -1.6003 -0.8667
 4262SOL    HW224246   3.747   2.112   6.049  1.0739 -3.1815  2.2295
 4263SOL     OW24247   0.341   1.418   3.968  0.3987  0.5757 -0.1310
 4263SOL    HW124248   0.360   1.410   4.061  0.8264 -2.6528 -0.5012
 4263SOL    HW224249   0.300   1.337   3.938  2.0518 -0.3538  0.1619
 4264SOL     OW24250   2.225   2.149   9.437 -0.7001 -0.2261 -0.0603
 4264SOL    HW124251   2.253   2.234   9.472  0.9573 -0.0291 -1.8424
 4264SOL    HW224252   2.289   2.134   9.367 -2.2861 -0.4764 -1.4549
 4265SOL     OW24253   4.723   3.347   5.285 -0.6917  0.6610  0.2525
 4265SOL    HW124254   0.078   3.365   5.237  0.7233  0.1830  2.4507
 4265SOL    HW224255   4.668   3.425   5.271 -0.6359  1.1076  2.5412
 4266SOL     OW24256   0.488   4.719   4.188  0.2324 -0.1044  0.2209
 4266SOL    HW124257   0.452   4.633   4.211  0.9139 -0.2790  0.6476
 4266SOL    HW224258   0.532   4.699   4.105  1.4780 -1.4776  1.2102
 4267SOL     OW24259   0.918   1.316   0.916 -0.1570 -0.1482  0.1788
 4267SOL    HW124260   0.917   1.221   0.912 -3.8737 -0.1385  1.0079
 4267SOL    HW224261   0.832   1.339   0.951  0.1965  1.4290  0.0462
 4268SOL     OW24262   1.364   2.839  15.742 -0.3425  0.0200 -0.0709
 4268SOL    HW124263   1.430   2.775  15.767  1.3845  1.7806 -0.1016
 4268SOL    HW224264   1.312   2.851  15.821 -0.9000  1.3028 -0.6237
 4269SOL     OW24265   0.589   2.963   3.030 -0.1039  0.1562 -0.0803
 4269SOL    HW124266   0.618   3.000   2.947  2.0753 -1.8894 -0.2119
 4269SOL    HW224267   0.540   2.883   3.010  0.2702  0.0188 -0.4387
 4270SOL     OW24268   2.628   0.512  10.301  0.0594 -0.6489  0.1091
 4270SOL    HW124269   2.590   0.571  10.236 -0.2976 -1.2832 -0.2551
 4270SOL    HW224270   2.548   0.484  10.345  0.2992 -1.0774  0.2796
 4271SOL     OW24271   3.120   4.544  11.340 -0.3674  0.0247 -0.4294
 4271SOL    HW124272   3.158   4.488  11.272 -0.0675 -0.1437 -0.1221
 4271SOL    HW224273   3.191   4.590  11.384  0.4903 -1.6502 -0.0710
 4272SOL     OW24274   1.542   3.524   3.412 -0.5373  0.2354  0.3595
 4272SOL    HW124275   1.587   3.606   3.392 -1.7188  0.2994 -2.0659
 4272SOL    HW224276   1.515   3.487   3.328  0.0745 -1.3903  0.8751
 4273SOL     OW24277   3.688   2.707   1.384  0.0262  0.5255  0.0553
 4273SOL    HW124278   3.713   2.786   1.336 -0.5681  0.0684 -1.0067
 4273SOL    HW224279   3.612   2.732   1.437 -1.4920  0.6290 -2.1574
 4274SOL     OW24280   3.308   0.860   9.072 -0.3963 -0.2669 -0.1500
 4274SOL    HW124281   3.291   0.772   9.040 -0.0063 -0.2131 -0.5133
 4274SOL    HW224282   3.345   0.844   9.158 -1.9197  0.4007  0.6173
 4275SOL     OW24283   3.891   0.269   2.353 -0.3751 -0.6311 -0.5667
 4275SOL    HW124284   3.904   0.188   2.304  0.1357 -1.1035  0.3455
 4275SOL    HW224285   3.806   0.307   2.331 -0.0206  0.1236 -0.6344
 4276SOL     OW24286   2.841   3.437  14.267  0.4486  0.3011  0.7117
 4276SOL    HW124287   2.795   3.410  14.188 -2.8086 -1.0995  3.0929
 4276SOL    HW224288   2.868   3.526  14.246 -2.0351  0.8243 -0.2254
 4277SOL     OW24289   4.043   2.716   0.941 -0.6429 -0.1279  0.2952
 4277SOL    HW124290   4.015   2.628   0.968 -1.7513  0.3034  0.5499
 4277SOL    HW224291   4.095   2.699   0.863  0.5773  0.6574  0.9408
 4278SOL     OW24292   2.303   3.892   5.937  0.1077  0.0163 -0.0538
 4278SOL    HW124293   2.302   3.969   5.993 -0.0806  0.9314 -1.3180
 4278SOL    HW224294   2.383   3.858   5.978  0.3767 -0.2997 -0.8440
 4279SOL     OW24295   4.639   0.234  10.340  0.0034  0.2484  0.1204
 4279SOL    HW124296   4.621   0.140  10.332 -0.9712  0.5752 -1.6537
 4279SOL    HW224297   4.715   0.235  10.397  0.5355 -3.3924 -0.5716
 4280SOL     OW24298   4.379   1.031   9.997  0.2578  0.0619  0.8275
 4280SOL    HW124299   4.349   1.121   9.998  2.1536  0.7004  0.1943
 4280SOL    HW224300   4.419   1.021  10.083 -0.7545  0.1561  1.3109
 4281SOL     OW24301   3.294   1.534   1.717 -0.1962 -0.0699 -0.1227
 4281SOL    HW124302   3.249   1.617   1.703  0.4903 -0.0202 -1.9288
 4281SOL    HW224303   3.303   1.544   1.812 -1.1108 -0.2821 -0.0150
 4282SOL     OW24304   1.192   4.281   3.128  0.2314 -0.3189  0.4891
 4282SOL    HW124305   1.176   4.257   3.037 -1.2736  3.7648 -0.3641
 4282SOL    HW224306   1.264   4.226   3.158  1.3248 -0.1284 -1.8367
 4283SOL     OW24307   1.114   3.464   7.445 -0.1621  0.6736  0.1036
 4283SOL    HW124308   1.086   3.511   7.367  1.1566 -0.1302 -0.8498
 4283SOL    HW224309   1.199   3.503   7.465  0.8063 -1.1387 -0.4588
 4284SOL     OW24310   0.981   0.089   0.232 -0.2010 -0.2400  0.5407
 4284SOL    HW124311   0.957   0.180   0.215  2.7226  0.6420  1.0915
 4284SOL    HW224312   0.982   0.075   0.327  0.0857 -0.3581  0.5209
 4285SOL     OW24313   2.646   1.874   2.880  0.3375 -0.2082  0.1032
 4285SOL    HW124314   2.710   1.910   2.819  0.9700  0.0190  0.9143
 4285SOL    HW224315   2.703   1.862   2.955  1.3804 -2.0301 -0.9764
 4286SOL     OW24316   2.378   3.452   8.992 -0.3523 -0.2117  0.3826
 4286SOL    HW124317   2.454   3.495   8.955 -0.8435  0.9417  0.7185
 4286SOL    HW224318   2.372   3.504   9.073 -2.2096 -1.3812  1.0192
 4287SOL     OW24319   3.726   0.452   7.102 -0.0857  0.2761 -0.3004
 4287SOL    HW124320   3.657   0.390   7.124 -0.1040  0.6547  0.7176
 4287SOL    HW224321   3.701   0.517   7.168 -0.9995 -0.1803 -0.2027
 4288SOL     OW24322   2.439   4.533   5.727 -0.0407  0.3462  0.2931
 4288SOL    HW124323   2.430   4.446   5.688  0.2033  0.9314 -1.0591
 4288SOL    HW224324   2.458   4.589   5.653 -0.9282  0.1355 -0.1023
 4289SOL     OW24325   0.402   1.309   4.473 -0.5814 -0.2627  0.4308
 4289SOL    HW124326   0.494   1.336   4.475 -0.1025 -1.9108  0.6867
 4289SOL    HW224327   0.372   1.338   4.559  3.0916 -0.4944  1.7986
 4290SOL     OW24328   1.171   0.189   4.861 -0.2479  0.6281  0.6488
 4290SOL    HW124329   1.201   0.275   4.892 -0.8702  1.0902 -0.0317
 4290SOL    HW224330   1.101   0.215   4.802 -0.3454 -0.0313  0.4827
 4291SOL     OW24331   3.079   2.775  17.618 -0.2182  0.5013  0.6291
 4291SOL    HW124332   3.018   2.753  17.688  0.0888 -2.6102 -0.0733
 4291SOL    HW224333   3.036   2.852  17.580 -1.9157 -0.1798  1.1565
 4292SOL     OW24334   4.152   2.002   1.734  0.1000 -0.2560  0.6732
 4292SOL    HW124335   4.237   1.965   1.756  0.0750  0.8942  2.6823
 4292SOL    HW224336   4.169   2.088   1.773  0.5842  0.1659 -0.4637
 4293SOL     OW24337   3.056   4.103  16.964 -0.5917 -0.0798  0.6394
 4293SOL    HW124338   3.100   4.073  17.043  2.9999  2.3009 -0.4517
 4293SOL    HW224339   2.965   4.097  16.995 -0.5633  1.8742  1.1319
 4294SOL     OW24340   0.753   0.750   7.207 -0.0472 -0.4640  1.0939
 4294SOL    HW124341   0.693   0.703   7.265 -0.5218 -0.6471  0.4523
 4294SOL    HW224342   0.693   0.780   7.139  0.1226  1.6370  1.8940
 4295SOL     OW24343   3.535   2.643   2.955 -0.1322  0.3323  0.2121
 4295SOL    HW124344   3.458   2.623   3.008 -0.4039 -0.8457 -0.6195
 4295SOL    HW224345   3.556   2.732   2.984 -2.2957  0.4283  1.5043
 4296SOL     OW24346   1.527   3.017   4.183 -0.9237 -0.2954  0.0774
 4296SOL    HW124347   1.477   3.078   4.128  0.9463  1.3338  0.1949
 4296SOL    HW224348   1.615   3.016   4.146 -0.8838  0.1334  0.1583
 4297SOL     OW24349   0.559   3.374   6.390 -0.8093 -0.6641 -0.2213
 4297SOL    HW124350   0.563   3.315   6.315  0.2271 -0.6883 -0.1493
 4297SOL    HW224351   0.522   3.449   6.343  2.5450 -0.0837 -1.9506
 4298SOL     OW24352   0.512   1.925   2.469 -0.2427  0.6471  0.0437
 4298SOL    HW124353   0.542   1.900   2.556  3.7703 -3.0029 -2.3867
 4298SOL    HW224354   0.584   1.912   2.407 -0.0527 -0.5021  0.5037
 4299SOL     OW24355   0.394   4.399   1.277  0.2047  0.1802  0.0500
 4299SOL    HW124356   0.355   4.458   1.213 -0.9607  0.4195  0.9641
 4299SOL    HW224357   0.394   4.318   1.226  2.5570 -0.3298  0.8642
 4300SOL     OW24358   3.188   4.251  10.174  0.0830  0.4459  0.1456
 4300SOL    HW124359   3.198   4.261  10.268  2.8288 -0.1303 -0.0907
 4300SOL    HW224360   3.242   4.176  10.147 -0.2734  1.1313 -2.5215
 4301SOL     OW24361   1.403   1.210   4.080  0.2031  0.5877 -0.1802
 4301SOL    HW124362   1.472   1.174   4.136 -0.6175  0.6719  0.8747
 4301SOL    HW224363   1.340   1.239   4.146 -1.6286  0.3432 -1.8255
 4302SOL     OW24364   0.700   0.392   8.454  0.5044 -0.5761 -0.0080
 4302SOL    HW124365   0.687   0.307   8.411 -1.4484 -1.0285  1.5109
 4302SOL    HW224366   0.744   0.366   8.535  2.0326  1.3232 -0.2099
 4303SOL     OW24367   1.967   3.292   4.352 -0.6159 -0.1244  0.3843
 4303SOL    HW124368   2.030   3.236   4.306 -0.3945 -1.1892  1.9759
 4303SOL    HW224369   1.998   3.376   4.318  0.5952 -1.1469 -1.0727
 4304SOL     OW24370   1.539   3.505   6.007 -0.1387 -0.6546  0.2064
 4304SOL    HW124371   1.593   3.456   5.945  1.3406  3.5626 -1.8296
 4304SOL    HW224372   1.451   3.492   5.972  0.0416  0.1762 -0.5538
 4305SOL     OW24373   0.729   0.205   5.732 -0.3264 -0.8276 -0.0547
 4305SOL    HW124374   0.635   0.220   5.740 -0.0712 -0.0998  1.5874
 4305SOL    HW224375   0.769   0.282   5.771 -0.6308 -0.7472  0.0955
 4306SOL     OW24376   1.424   1.377  13.721  0.6748  0.3084  0.1435
 4306SOL    HW124377   1.353   1.427  13.680  1.2109  0.4232 -0.6407
 4306SOL    HW224378   1.420   1.419  13.807  0.8181  0.1198  0.2405
 4307SOL     OW24379   3.551   0.684   3.556  0.0705  0.3204  0.2470
 4307SOL    HW124380   3.567   0.754   3.494  0.0796  1.1968  1.2398
 4307SOL    HW224381   3.602   0.713   3.632  0.5443  1.4684 -0.5185
 4308SOL     OW24382   2.178   1.883   9.387 -0.4488  0.4800  0.9564
 4308SOL    HW124383   2.181   1.978   9.401 -1.3195  0.3305  2.1906
 4308SOL    HW224384   2.179   1.850   9.477  0.8300 -0.1792  0.6941
 4309SOL     OW24385   4.173   1.537   6.347  0.1574 -0.2742 -0.2564
 4309SOL    HW124386   4.181   1.473   6.417  0.0838  1.7511  1.5822
 4309SOL    HW224387   4.196   1.622   6.386 -0.3127 -1.0447  1.6794
 4310SOL     OW24388   1.412   3.725   7.751 -0.1182  0.4710 -0.1151
 4310SOL    HW124389   1.472   3.707   7.823 -0.8025  1.9914  0.8386
 4310SOL    HW224390   1.329   3.722   7.799 -1.0699 -1.6162 -1.8782
 4311SOL     OW24391   3.569   3.313  10.370  0.2434 -0.5357  0.0215
 4311SOL    HW124392   3.544   3.365  10.447  1.2293 -0.2744  0.1650
 4311SOL    HW224393   3.518   3.357  10.302 -0.3163 -1.7084 -0.3268
 4312SOL     OW24394   4.094   4.669   6.526 -0.0124  0.2081 -0.6343
 4312SOL    HW124395   4.089   4.577   6.552  0.8539  1.1498  2.9533
 4312SOL    HW224396   4.005   4.699   6.543  0.3714  1.6805 -1.2399
 4313SOL     OW24397   1.820   3.412   8.348 -0.5995 -0.1403  0.3324
 4313SOL    HW124398   1.793   3.461   8.426 -1.3296 -0.3198  0.1860
 4313SOL    HW224399   1.898   3.465   8.328  0.4061 -0.8717  2.2608
 4314SOL     OW24400   2.211   0.981   6.946 -0.5674 -0.0862 -0.1598
 4314SOL    HW124401   2.164   1.046   6.893  3.1936  4.0895  1.6539
 4314SOL    HW224402   2.222   0.899   6.897  1.0593 -0.1434  0.3088
 4315SOL     OW24403   0.717   0.635   8.336 -0.0458  0.1385  0.2459
 4315SOL    HW124404   0.709   0.545   8.367  0.4826 -0.5537 -1.6370
 4315SOL    HW224405   0.739   0.616   8.245  0.0664  0.2360  0.2522
 4316SOL     OW24406   4.462   4.323   1.934 -0.0666 -0.2172 -0.4318
 4316SOL    HW124407   4.477   4.272   2.014 -0.8582 -1.6729 -1.1944
 4316SOL    HW224408   4.551   4.338   1.902 -0.4257  2.0188 -0.3375
 4317SOL     OW24409   3.408   1.452   9.351 -0.0273 -0.2237  0.0750
 4317SOL    HW124410   3.421   1.374   9.404  0.2358  0.3187  0.8078
 4317SOL    HW224411   3.361   1.404   9.282  1.2541 -2.1876  0.5691
 4318SOL     OW24412   4.297   1.218  12.066 -0.3118 -0.3317  0.2130
 4318SOL    HW124413   4.232   1.246  12.002  0.2975  0.5738 -0.0120
 4318SOL    HW224414   4.333   1.141  12.022  0.9658  0.3843 -0.0290
 4319SOL     OW24415   4.706   3.900   3.068  0.1606 -0.4856 -0.3865
 4319SOL    HW124416   0.037   3.859   3.134 -1.4321  0.7447  1.7460
 4319SOL    HW224417   4.638   3.944   3.119  0.4067  0.4799 -0.8958
 4320SOL     OW24418   3.918   4.306  12.117  0.8911  0.0415  0.1298
 4320SOL    HW124419   3.903   4.401  12.124  0.7730  0.0505 -0.2381
 4320SOL    HW224420   4.013   4.305  12.123  0.7457  1.4166  2.5687
 4321SOL     OW24421   4.329   4.544  16.593  0.7018 -0.3038  0.5487
 4321SOL    HW124422   4.246   4.582  16.562  0.5480  0.4416  1.8555
 4321SOL    HW224423   4.386   4.620  16.581 -0.5504  0.5525  0.0241
 4322SOL     OW24424   1.341   2.815   0.399 -0.7074 -0.1040 -0.2349
 4322SOL    HW124425   1.411   2.795   0.337  1.3110  0.9587  1.7037
 4322SOL    HW224426   1.357   2.752   0.469 -3.1717 -0.4475  0.0022
 4323SOL     OW24427   1.711   1.175   4.780 -0.0789 -0.2302 -0.0241
 4323SOL    HW124428   1.797   1.198   4.746  0.6601 -2.4989  0.3359
 4323SOL    HW224429   1.661   1.135   4.708  3.3678 -1.0478 -1.9763
 4324SOL     OW24430   1.692   0.004  12.600  0.0322  0.5375 -0.2327
 4324SOL    HW124431   1.616   0.038  12.647 -0.4390 -1.3769  0.3763
 4324SOL    HW224432   1.718   4.675  12.674  0.0887  0.0261 -0.6331
 4325SOL     OW24433   1.878   2.309  13.290 -0.1028 -0.4557 -0.3825
 4325SOL    HW124434   1.970   2.333  13.301 -0.3190  0.6958 -1.0851
 4325SOL    HW224435   1.836   2.354  13.363  0.6888 -0.5871  0.1568
 4326SOL     OW24436   4.299   2.732   4.989  0.4361  0.5954 -1.0146
 4326SOL    HW124437   4.311   2.801   4.923  0.2479  1.1570 -0.4638
 4326SOL    HW224438   4.229   2.685   4.942  0.6709  0.1346 -0.9014
 4327SOL     OW24439   0.441   1.927   1.585 -0.4301  0.5999 -0.7990
 4327SOL    HW124440   0.414   1.840   1.554 -0.9983  0.1335  1.0132
 4327SOL    HW224441   0.536   1.913   1.590 -0.8075 -2.0080 -0.9691
 4328SOL     OW24442   0.566   1.142   6.388 -0.7686 -0.4664 -0.1029
 4328SOL    HW124443   0.611   1.059   6.404  3.1266  1.4782 -0.7285
 4328SOL    HW224444   0.573   1.186   6.472  0.1964  1.8044 -1.3547
 4329SOL     OW24445   0.171   1.647   8.930  0.2522 -0.4749 -0.1594
 4329SOL    HW124446   0.222   1.726   8.913 -0.0796 -0.0165  1.0013
 4329SOL    HW224447   0.240   1.582   8.916  0.6039  0.2517 -1.8179
 4330SOL     OW24448   2.692   0.702  15.827 -0.2253 -0.0446  0.4356
 4330SOL    HW124449   2.618   0.716  15.767  0.2746  3.7590  0.7141
 4330SOL    HW224450   2.654   0.743  15.905  0.9787  0.7202  0.6095
 4331SOL     OW24451   3.024   4.079  12.383  0.6064  0.2628 -0.1588
 4331SOL    HW124452   3.017   4.174  12.393  0.3424  0.4229 -1.9223
 4331SOL    HW224453   3.118   4.063  12.378  0.2498 -1.8994  0.1025
 4332SOL     OW24454   1.393   4.468   5.553 -0.5367  0.1182 -0.3900
 4332SOL    HW124455   1.425   4.448   5.465 -1.0318  0.0953 -0.5600
 4332SOL    HW224456   1.373   4.382   5.590  1.1981 -0.8177 -1.6065
 4333SOL     OW24457   4.063   3.006   5.314 -0.0276 -0.0612 -0.3194
 4333SOL    HW124458   4.001   2.976   5.248 -0.9427 -0.2503  0.6305
 4333SOL    HW224459   4.101   3.084   5.274 -0.6175 -1.0047 -2.6587
 4334SOL     OW24460   2.969   2.244   2.765 -0.6907 -0.4804 -0.2369
 4334SOL    HW124461   2.967   2.338   2.747  0.3188 -0.2048  1.1011
 4334SOL    HW224462   3.065   2.238   2.760 -0.6392  0.2285 -0.1441
 4335SOL     OW24463   0.529   3.522   9.668  0.7739  0.3660 -0.1321
 4335SOL    HW124464   0.480   3.513   9.750  1.8179  0.2234  0.4767
 4335SOL    HW224465   0.603   3.462   9.663  0.2780 -0.1627 -1.1896
 4336SOL     OW24466   2.930   1.062   6.492  0.1752 -0.2873 -0.2416
 4336SOL    HW124467   2.966   1.056   6.403  0.0304  0.2085 -0.3296
 4336SOL    HW224468   2.960   0.975   6.519 -1.7532 -0.9341 -0.1841
 4337SOL     OW24469   3.823   1.471  10.279  0.0987  0.2135  0.0687
 4337SOL    HW124470   3.785   1.555  10.306 -2.9632 -1.6889  1.7426
 4337SOL    HW224471   3.778   1.402  10.329 -0.5554  0.7198  0.1845
 4338SOL     OW24472   2.448   3.195   7.343  0.3916  0.0959  0.3512
 4338SOL    HW124473   2.403   3.212   7.426 -0.3278 -1.3846  0.2713
 4338SOL    HW224474   2.395   3.250   7.285 -1.6137 -0.6798  1.4407
 4339SOL     OW24475   0.596   4.178   6.490 -0.5415  0.0892 -0.9021
 4339SOL    HW124476   0.607   4.122   6.414  0.8289  0.5474 -1.0276
 4339SOL    HW224477   0.578   4.258   6.440 -1.5570 -0.3823 -1.2956
 4340SOL     OW24478   4.482   0.935   0.841 -0.8600 -0.7888  0.3446
 4340SOL    HW124479   4.398   0.969   0.810  0.2561  0.0045 -1.8154
 4340SOL    HW224480   4.498   0.862   0.782  0.5748 -1.0205  1.0312
 4341SOL     OW24481   3.715   1.622  16.124 -0.2692  0.5372 -0.3755
 4341SOL    HW124482   3.752   1.669  16.049  1.1101  0.9292  0.5591
 4341SOL    HW224483   3.640   1.574  16.088  0.4701 -2.9358  2.8223
 4342SOL     OW24484   3.711   0.581  15.035 -0.5648  0.7653 -0.0923
 4342SOL    HW124485   3.633   0.599  14.984 -0.2400  0.2331 -0.7755
 4342SOL    HW224486   3.738   0.491  15.016 -2.5416  0.5885 -1.9901
 4343SOL     OW24487   1.207   1.560   5.422  0.1065  0.4883  0.2425
 4343SOL    HW124488   1.302   1.550   5.427  0.3100  1.9252 -0.7028
 4343SOL    HW224489   1.188   1.616   5.346 -0.4261 -0.1704 -0.1109
 4344SOL     OW24490   0.225   3.381   6.644 -0.3116  0.0683  0.4354
 4344SOL    HW124491   0.168   3.453   6.671 -1.2778  0.3465 -2.3947
 4344SOL    HW224492   0.300   3.392   6.703  1.4214  0.1957 -1.7930
 4345SOL     OW24493   0.865   1.312   8.994 -0.1822  0.1573 -0.1901
 4345SOL    HW124494   0.955   1.285   9.013 -0.8983 -1.4613  0.9119
 4345SOL    HW224495   0.831   1.237   8.946  3.3323 -1.8820  0.4664
 4346SOL     OW24496   2.772   1.862   3.119 -0.3588 -0.4588  0.9273
 4346SOL    HW124497   2.716   1.873   3.196  1.1677  1.1983  1.8050
 4346SOL    HW224498   2.820   1.782   3.140  0.5215 -0.3529 -0.6955
 4347SOL     OW24499   1.700   3.810   6.335 -0.1126 -0.0896  0.3352
 4347SOL    HW124500   1.650   3.784   6.258  0.4072  1.3397 -0.4785
 4347SOL    HW224501   1.790   3.813   6.304 -1.2374 -0.3880 -2.8963
 4348SOL     OW24502   2.846   1.906   8.309  0.9412  0.2886  0.4384
 4348SOL    HW124503   2.890   1.844   8.250  1.4581  0.1729  0.9458
 4348SOL    HW224504   2.792   1.955   8.247  0.4356 -0.8615 -0.0356
 4349SOL     OW24505   3.252   2.028   9.449 -0.4644  0.4184  0.0314
 4349SOL    HW124506   3.270   2.000   9.359 -0.2270 -2.6503  1.0303
 4349SOL    HW224507   3.238   1.942   9.488  1.6620 -0.0383 -0.1918
 4350SOL     OW24508   0.006   1.068   5.044 -0.1763 -0.7442 -1.0498
 4350SOL    HW124509   4.644   1.072   5.080  0.0402 -1.8390 -0.4113
 4350SOL    HW224510   0.061   1.105   5.113 -1.2019 -2.1803  0.5107
 4351SOL     OW24511   3.975   4.226  10.864 -0.2395 -0.3182  0.0251
 4351SOL    HW124512   3.960   4.144  10.912 -1.4004 -0.9672 -1.4539
 4351SOL    HW224513   4.036   4.202  10.795  2.7833  1.2855  2.1351
 4352SOL     OW24514   0.555   0.400   2.562 -0.3859 -0.0045  0.1883
 4352SOL    HW124515   0.601   0.478   2.531 -0.7375  1.2977  2.9377
 4352SOL    HW224516   0.620   0.348   2.610  0.9686 -0.2586 -1.9222
 4353SOL     OW24517   3.806   1.179  14.180 -0.4699 -0.2497  0.4113
 4353SOL    HW124518   3.811   1.274  14.191  0.3656 -0.1540 -0.9335
 4353SOL    HW224519   3.896   1.162  14.153 -1.0357  2.1259 -3.0065
 4354SOL     OW24520   1.565   3.047   9.281  0.3894  0.0564 -0.2541
 4354SOL    HW124521   1.494   3.082   9.336  0.3786  1.0846 -0.9342
 4354SOL    HW224522   1.638   3.080   9.333 -0.3683  0.6599  0.4378
 4355SOL     OW24523   0.795   1.763   2.089  0.7537 -0.6144  0.9071
 4355SOL    HW124524   0.709   1.761   2.047  0.8690  2.8674  0.5339
 4355SOL    HW224525   0.767   1.707   2.162 -1.7463 -0.3201  0.1813
 4356SOL     OW24526   0.844   4.713   7.025  0.4639 -0.1033 -0.5258
 4356SOL    HW124527   0.905   4.672   7.086 -0.0713  0.9923  0.7459
 4356SOL    HW224528   0.801   4.630   7.003  0.4834 -0.4435  0.7295
 4357SOL     OW24529   3.238   3.854   6.341 -0.4047  0.3060 -0.3595
 4357SOL    HW124530   3.272   3.930   6.292 -1.6324  0.8188 -0.4208
 4357SOL    HW224531   3.205   3.897   6.420  0.5504 -3.5058  2.1025
 4358SOL     OW24532   0.058   0.801   4.367 -0.3639 -0.0778  0.1148
 4358SOL    HW124533   0.081   0.797   4.460  2.4358  0.3791 -0.5444
 4358SOL    HW224534   0.131   0.760   4.319  0.0585  0.8172 -0.0099
 4359SOL     OW24535   1.609   1.906   3.988  0.4355 -0.5701  0.0256
 4359SOL    HW124536   1.570   1.855   3.917 -1.8205 -1.4467  1.8965
 4359SOL    HW224537   1.541   1.971   4.002  1.1566  0.1669  0.0939
 4360SOL     OW24538   2.334   0.610  17.459  0.2044  0.5578 -0.2913
 4360SOL    HW124539   2.384   0.571  17.386 -0.3327 -0.7356  0.0341
 4360SOL    HW224540   2.395   0.677  17.489  0.7084 -1.0226  2.1945
 4361SOL     OW24541   2.716   2.301   8.624 -0.3887 -0.5512  0.5284
 4361SOL    HW124542   2.741   2.353   8.548 -0.9692 -0.7846  0.1786
 4361SOL    HW224543   2.623   2.296   8.605 -0.4603  3.0192 -0.1198
 4362SOL     OW24544   3.513   2.370   3.301 -0.2887  0.0296  0.0715
 4362SOL    HW124545   3.606   2.393   3.294 -0.3659  0.5871  0.8047
 4362SOL    HW224546   3.517   2.278   3.329  2.5526  0.0669 -0.1578
 4363SOL     OW24547   2.865   3.329   1.700  0.4053 -0.0637  0.1340
 4363SOL    HW124548   2.801   3.259   1.710  1.7152 -1.4396 -1.0197
 4363SOL    HW224549   2.943   3.285   1.665  0.2813  0.7592 -1.1849
 4364SOL     OW24550   2.827   3.177  12.235  0.4573  0.1216  0.2149
 4364SOL    HW124551   2.734   3.156  12.221  0.0915 -0.3462  3.3204
 4364SOL    HW224552   2.831   3.201  12.327 -1.7851  1.4868 -0.0537
 4365SOL     OW24553   2.429   4.318   8.484 -0.4567 -0.2377  0.6238
 4365SOL    HW124554   2.349   4.337   8.436  1.6086 -0.6798 -2.9687
 4365SOL    HW224555   2.445   4.396   8.538 -1.2058 -0.7102  1.5382
 4366SOL     OW24556   1.336   2.010  10.030 -0.4443 -0.5463 -0.0064
 4366SOL    HW124557   1.318   1.985   9.939 -0.3130  2.6527 -0.8836
 4366SOL    HW224558   1.407   2.070  10.009 -0.6257 -1.1315 -2.2860
 4367SOL     OW24559   3.393   2.093   3.298  0.0924  0.3727 -0.6536
 4367SOL    HW124560   3.353   2.120   3.380  0.2013  1.2665 -0.8953
 4367SOL    HW224561   3.317   2.089   3.241  0.5387 -5.0918 -0.8703
 4368SOL     OW24562   1.835   0.925  10.618 -0.1224  0.4142 -0.0772
 4368SOL    HW124563   1.801   0.935  10.529  1.6245 -0.1386 -0.8071
 4368SOL    HW224564   1.815   0.832  10.615 -1.6952  0.6956  1.8868
 4369SOL     OW24565   4.257   2.658  13.371  0.0190 -0.4031  0.3302
 4369SOL    HW124566   4.325   2.628  13.432 -0.5269 -1.9998  0.1420
 4369SOL    HW224567   4.233   2.746  13.400 -0.4003 -0.2379 -0.5361
 4370SOL     OW24568   2.247   1.052   3.185 -0.1938  0.1251 -0.1032
 4370SOL    HW124569   2.244   1.003   3.102 -0.1589 -0.7037  0.3851
 4370SOL    HW224570   2.297   1.126   3.152 -1.0736  0.5685 -0.4326
 4371SOL     OW24571   2.284   0.297   9.469 -0.6880  0.3268 -0.2167
 4371SOL    HW124572   2.352   0.278   9.534 -1.1807 -1.9521 -0.3836
 4371SOL    HW224573   2.202   0.294   9.518  0.1136 -0.7220  1.0483
 4372SOL     OW24574   4.679   3.537   5.574 -0.3113  0.6634  0.1151
 4372SOL    HW124575   4.646   3.525   5.662 -0.6528 -0.9904 -0.2368
 4372SOL    HW224576   4.647   3.452   5.544 -0.8667  1.7863 -2.4606
 4373SOL     OW24577   3.721   3.591   3.979  0.3624  0.4321 -0.2438
 4373SOL    HW124578   3.770   3.578   3.898 -0.7914 -0.6148 -0.7574
 4373SOL    HW224579   3.680   3.505   3.978  0.7186  0.2847 -1.4226
 4374SOL     OW24580   2.189   2.946   4.431 -0.5271 -0.4354  0.4248
 4374SOL    HW124581   2.266   2.964   4.485  1.0373  0.3725 -2.0718
 4374SOL    HW224582   2.115   2.990   4.474 -0.6123  0.3427 -0.5081
 4375SOL     OW24583   3.691   1.571   9.276 -0.3153 -0.5360 -0.1140
 4375SOL    HW124584   3.698   1.504   9.344 -1.6375 -0.8052 -0.2529
 4375SOL    HW224585   3.698   1.646   9.335  1.0596  0.1007 -1.0731
 4376SOL     OW24586   3.204   2.754   8.924  0.0380  0.0434 -0.1984
 4376SOL    HW124587   3.271   2.712   8.870 -1.8635 -4.9485  1.3576
 4376SOL    HW224588   3.229   2.719   9.009 -0.7139  2.2630  0.9127
 4377SOL     OW24589   0.544   3.278  14.187  0.0192  0.2648  0.0007
 4377SOL    HW124590   0.603   3.223  14.238 -0.8361 -0.9628 -0.3316
 4377SOL    HW224591   0.468   3.221  14.194 -1.5710  2.4380  0.5885
 4378SOL     OW24592   4.053   4.241  17.690  0.2429  0.2078  0.6516
 4378SOL    HW124593   3.980   4.287  17.648 -0.6892 -1.3293  0.5861
 4378SOL    HW224594   4.069   4.288   0.066  0.0836  0.9828  0.2314
 4379SOL     OW24595   2.416   3.585   1.946 -0.5418 -0.3776 -0.1195
 4379SOL    HW124596   2.396   3.570   1.854  0.8259 -0.2679 -0.4207
 4379SOL    HW224597   2.406   3.680   1.947 -2.3395 -0.5489 -1.2583
 4380SOL     OW24598   3.778   1.958  11.788  0.1663 -0.4812  0.2231
 4380SOL    HW124599   3.809   2.000  11.868  0.7702  1.1993 -0.8828
 4380SOL    HW224600   3.785   2.035  11.731 -1.3718 -0.2715  0.3336
 4381SOL     OW24601   0.928   2.519   7.158 -0.7717  0.0426  0.0868
 4381SOL    HW124602   0.936   2.577   7.082  1.5648  1.5106  1.4453
 4381SOL    HW224603   0.885   2.574   7.224 -0.7912 -0.6135  0.6221
 4382SOL     OW24604   4.610   1.116   3.870  0.1860  0.4077 -0.4667
 4382SOL    HW124605   4.614   1.071   3.954  0.3190 -0.8674 -1.1606
 4382SOL    HW224606   4.607   1.040   3.812 -0.1958 -0.2618  0.4382
 4383SOL     OW24607   0.099   2.906  11.461  0.1281  0.2174  0.0634
 4383SOL    HW124608   0.059   2.932  11.377  0.1186 -1.0509 -0.3236
 4383SOL    HW224609   0.158   2.980  11.477  0.9659 -0.9173  2.1083
 4384SOL     OW24610   2.425   4.372   1.633 -0.2062  0.0211 -0.3804
 4384SOL    HW124611   2.475   4.367   1.715  0.9305 -0.0326 -1.0708
 4384SOL    HW224612   2.489   4.423   1.582  2.1105 -0.8312  1.6435
 4385SOL     OW24613   2.518   4.378   3.738 -0.2516  0.4069  0.2143
 4385SOL    HW124614   2.561   4.430   3.670 -0.7930  0.9093  0.2612
 4385SOL    HW224615   2.589   4.316   3.750 -0.6136  0.2807  1.6220
 4386SOL     OW24616   2.143   1.250  13.071 -0.2180 -0.0145  0.4305
 4386SOL    HW124617   2.198   1.173  13.052 -0.1335  0.3165 -0.6966
 4386SOL    HW224618   2.129   1.283  12.982 -1.2572 -0.3252  0.4878
 4387SOL     OW24619   0.099   4.229   3.550  0.5191 -0.0427  0.2654
 4387SOL    HW124620   0.097   4.283   3.629 -0.5991 -1.9035  1.5077
 4387SOL    HW224621   0.191   4.248   3.531  0.4251 -1.2603 -1.3472
 4388SOL     OW24622   2.218   1.365   5.984 -0.2417 -0.1161  0.1870
 4388SOL    HW124623   2.245   1.438   5.927 -0.0834 -0.9617 -0.8165
 4388SOL    HW224624   2.248   1.287   5.939 -1.4057 -1.1609  1.2235
 4389SOL     OW24625   2.258   1.849   5.026 -0.4154 -0.5975 -0.2681
 4389SOL    HW124626   2.190   1.810   5.082 -0.0106  1.7101  1.8314
 4389SOL    HW224627   2.317   1.890   5.089 -1.0266  1.4030 -1.0082
 4390SOL     OW24628   2.475   3.864   0.655  0.6340 -0.2067  0.1433
 4390SOL    HW124629   2.565   3.870   0.623  0.7574  3.1158  1.1087
 4390SOL    HW224630   2.467   3.768   0.660  3.8517 -0.5423 -0.9221
 4391SOL     OW24631   3.029   2.722   1.215  0.5902  0.1396  0.0791
 4391SOL    HW124632   2.948   2.764   1.244 -0.4734 -1.9316  0.1524
 4391SOL    HW224633   3.051   2.782   1.144 -0.3158  0.7814  0.3436
 4392SOL     OW24634   0.373   1.679  10.178  0.0669  0.0864 -0.0917
 4392SOL    HW124635   0.464   1.660  10.156 -0.3323 -1.3617 -0.4580
 4392SOL    HW224636   0.337   1.598  10.144 -0.4695  0.5197 -0.5609
 4393SOL     OW24637   3.843   3.491   9.475  0.1269 -0.1834  0.2822
 4393SOL    HW124638   3.802   3.472   9.391  2.8368  0.4434 -1.1459
 4393SOL    HW224639   3.838   3.586   9.483 -1.8101 -0.2631  0.0438
 4394SOL     OW24640   0.440   1.778   4.930 -0.0661  0.0935  0.4437
 4394SOL    HW124641   0.499   1.851   4.948  1.1735 -0.6166 -0.7724
 4394SOL    HW224642   0.357   1.818   4.956 -1.4059 -0.2532 -3.3174
 4395SOL     OW24643   0.260   1.307   3.321  0.0727  0.1332 -0.0031
 4395SOL    HW124644   0.177   1.288   3.277 -0.9354  1.4626  1.3458
 4395SOL    HW224645   0.289   1.378   3.265 -1.1266  0.0139 -0.7694
 4396SOL     OW24646   1.187   4.179  14.628  0.0457  0.3876  0.0439
 4396SOL    HW124647   1.176   4.117  14.700 -1.1040 -0.1204 -0.5571
 4396SOL    HW224648   1.136   4.252  14.662 -0.1913  0.7865 -1.2068
 4397SOL     OW24649   3.354   1.968  11.010 -0.2889  0.1099  0.3588
 4397SOL    HW124650   3.435   2.011  10.986 -1.0141  1.1468 -0.2154
 4397SOL    HW224651   3.383   1.879  10.988 -0.1282  0.5371 -1.1186
 4398SOL     OW24652   1.470   1.517   2.934  0.4209  0.5802  0.5664
 4398SOL    HW124653   1.382   1.508   2.898  0.3899  0.5871  0.6390
 4398SOL    HW224654   1.460   1.599   2.983  1.0958  1.0169 -0.0314
 4399SOL     OW24655   1.573   1.714   8.904  0.4724 -0.4357 -0.1315
 4399SOL    HW124656   1.589   1.777   8.974  0.2570 -1.3070  0.6976
 4399SOL    HW224657   1.660   1.696   8.870  0.3757 -1.3337  0.1055
 4400SOL     OW24658   4.347   2.568   8.031  0.1366  1.0082 -0.1868
 4400SOL    HW124659   4.345   2.608   7.945  0.7833  1.9529  0.2399
 4400SOL    HW224660   4.406   2.623   8.082  0.6968  0.8256 -0.6525
 4401SOL     OW24661   1.958   3.050   1.203 -0.1098 -0.2532 -0.6037
 4401SOL    HW124662   1.900   3.084   1.134 -2.8421 -1.4571  1.1160
 4401SOL    HW224663   1.971   3.131   1.253  1.3440 -1.1991  0.5074
 4402SOL     OW24664   1.456   0.726   9.495 -0.3688  0.1712 -0.3034
 4402SOL    HW124665   1.531   0.758   9.545 -0.5135 -1.2587  0.8399
 4402SOL    HW224666   1.440   0.797   9.433  1.0692 -0.1439 -1.0204
 4403SOL     OW24667   2.054   0.326   9.651  0.4874  0.0731  0.2494
 4403SOL    HW124668   2.114   0.342   9.723  0.1086 -0.7674  0.7532
 4403SOL    HW224669   2.031   0.416   9.629  1.0049  0.8776  3.0528
 4404SOL     OW24670   2.428   3.603   0.689 -0.3653 -0.1602  0.4165
 4404SOL    HW124671   2.477   3.526   0.659 -2.0720 -0.8303 -0.6019
 4404SOL    HW224672   2.442   3.597   0.784 -0.8835  0.6029  0.5442
 4405SOL     OW24673   3.490   1.351   8.294  0.1277  0.4551  0.3689
 4405SOL    HW124674   3.560   1.416   8.287  0.5462 -0.1974 -1.4445
 4405SOL    HW224675   3.507   1.312   8.380 -2.4625 -1.2814  0.1091
 4406SOL     OW24676   3.080   3.866   8.259  0.3918  0.2226  0.1703
 4406SOL    HW124677   3.106   3.811   8.185 -0.5272  0.2537 -0.1759
 4406SOL    HW224678   3.156   3.919   8.284 -1.3243  4.0644 -2.7868
 4407SOL     OW24679   3.465   4.291   1.126 -0.4013  0.4210 -0.2122
 4407SOL    HW124680   3.432   4.379   1.142 -1.6269 -0.1686  0.4954
 4407SOL    HW224681   3.521   4.271   1.200  1.9983  0.1533 -2.0829
 4408SOL     OW24682   1.999   0.764   7.287  0.4727 -0.0192 -0.3256
 4408SOL    HW124683   1.950   0.770   7.368  1.1423  0.3674  0.0548
 4408SOL    HW224684   1.941   0.707   7.236  2.0167 -2.5849  0.7950
 4409SOL     OW24685   0.014   2.615   2.615 -0.1426 -0.0316 -0.2976
 4409SOL    HW124686   4.665   2.655   2.572  0.2397  0.5017 -0.4718
 4409SOL    HW224687   0.030   2.538   2.561  0.9650 -0.0934  0.1144
 4410SOL     OW24688   4.634   4.225  15.186  0.4747  0.4430  0.8213
 4410SOL    HW124689   4.598   4.298  15.136  0.2095 -0.3221 -0.1257
 4410SOL    HW224690   4.608   4.161  15.119 -1.2152 -1.2022  3.0516
 4411SOL     OW24691   3.403   1.449   0.859  0.7881  0.1658 -0.1560
 4411SOL    HW124692   3.406   1.487   0.771 -2.8278  0.9803  0.0526
 4411SOL    HW224693   3.342   1.376   0.853 -0.1434  0.8675  0.5240
 4412SOL     OW24694   1.183   3.325   7.776 -0.2584 -0.5795  0.5674
 4412SOL    HW124695   1.273   3.351   7.759 -0.4418 -0.4096 -0.1411
 4412SOL    HW224696   1.192   3.231   7.792 -0.2527 -0.1426  3.0405
 4413SOL     OW24697   0.485   1.154   2.907 -0.0874 -0.1155 -0.4630
 4413SOL    HW124698   0.400   1.123   2.938 -0.1887  0.4451 -0.1658
 4413SOL    HW224699   0.530   1.142   2.990 -0.8054  1.6839  0.1977
 4414SOL     OW24700   1.297   3.543   1.686  0.1311  0.3905  0.4128
 4414SOL    HW124701   1.296   3.482   1.612 -0.1111  0.4186  0.3919
 4414SOL    HW224702   1.253   3.623   1.655 -0.7382  0.2911  1.3695
 4415SOL     OW24703   4.547   0.237   6.477 -0.2644  0.2989 -0.0941
 4415SOL    HW124704   4.546   0.277   6.391 -0.2662 -1.1471 -0.7736
 4415SOL    HW224705   4.609   0.166   6.459 -0.2332  0.5900 -1.1426
 4416SOL     OW24706   3.099   4.651   0.105  0.1672 -0.2780 -0.8155
 4416SOL    HW124707   3.173   4.708   0.086 -0.7955  1.7589  1.5771
 4416SOL    HW224708   3.069   4.640   0.015  1.2445  2.1915 -1.4688
 4417SOL     OW24709   3.589   0.047   2.052  0.3481 -0.0476  0.3598
 4417SOL    HW124710   3.528   0.111   2.089 -2.1351 -1.5924 -1.0786
 4417SOL    HW224711   3.530   4.720   1.999  2.8714 -0.1464 -2.3545
 4418SOL     OW24712   3.530   4.072   3.406 -0.0731 -0.1719  0.0678
 4418SOL    HW124713   3.529   4.016   3.328  0.0662 -1.7421  1.2000
 4418SOL    HW224714   3.470   4.136   3.368  0.1424 -0.1379 -0.2139
 4419SOL     OW24715   4.516   4.715  16.485  0.5938  0.5039  0.2699
 4419SOL    HW124716   4.597   0.037  16.468  0.1132  0.7022 -1.5118
 4419SOL    HW224717   4.536   4.626  16.459  0.1042  1.0013 -1.8363
 4420SOL     OW24718   3.658   1.663   6.643 -0.5289  0.4701 -0.6702
 4420SOL    HW124719   3.636   1.589   6.699 -0.7206  0.6833 -0.4622
 4420SOL    HW224720   3.635   1.739   6.696  1.7511  0.5335  0.2318
 4421SOL     OW24721   3.277   2.841   3.465 -0.4016 -0.2455 -0.1721
 4421SOL    HW124722   3.283   2.754   3.426 -0.6586 -0.6402  0.6519
 4421SOL    HW224723   3.182   2.844   3.479 -0.1203  1.0707  1.5051
 4422SOL     OW24724   3.310   2.675   9.177 -0.7471 -0.2039 -0.2714
 4422SOL    HW124725   3.272   2.589   9.198 -2.4465  1.0084  1.5390
 4422SOL    HW224726   3.382   2.673   9.239 -0.4059  0.0348 -0.6591
 4423SOL     OW24727   0.895   2.149  16.824 -0.1855 -0.6833  0.4449
 4423SOL    HW124728   0.941   2.206  16.763  1.7601 -1.4071  1.2118
 4423SOL    HW224729   0.833   2.108  16.765  3.2110 -2.2466 -2.0426
 4424SOL     OW24730   0.222   0.020   8.827  0.2066  0.8101  0.7309
 4424SOL    HW124731   0.158   4.709   8.888 -1.5228  1.8135 -0.4780
 4424SOL    HW224732   0.183   0.106   8.811 -0.8979  0.4681  1.5817
 4425SOL     OW24733   4.416   3.269   7.443 -0.1638  0.5827  0.1475
 4425SOL    HW124734   4.427   3.363   7.430  0.6839  0.7219  1.9220
 4425SOL    HW224735   4.502   3.235   7.470 -0.6280  0.6561  1.6931
 4426SOL     OW24736   1.018   0.694   9.234  0.0664  0.1778  0.7695
 4426SOL    HW124737   1.106   0.696   9.198 -0.9827  1.3377 -1.6915
 4426SOL    HW224738   0.972   0.682   9.151 -2.0292 -2.4929  2.2757
 4427SOL     OW24739   3.414   4.688   5.441  0.3489 -0.4782 -0.1849
 4427SOL    HW124740   3.503   4.698   5.406 -0.5204  1.3256 -1.9048
 4427SOL    HW224741   3.360   4.688   5.362 -1.2276  1.8372  0.8746
 4428SOL     OW24742   4.548   1.308  14.912 -0.2986  0.5442 -0.4044
 4428SOL    HW124743   4.561   1.219  14.945  0.5927  1.6888  2.2730
 4428SOL    HW224744   4.552   1.284  14.819  1.4322  0.9866 -0.4466
 4429SOL     OW24745   0.878   3.831  12.420 -0.5507 -0.5489  1.0177
 4429SOL    HW124746   0.817   3.836  12.494 -2.5305  2.7659 -0.8686
 4429SOL    HW224747   0.837   3.875  12.345  0.6228  3.0357  2.4457
 4430SOL     OW24748   0.323   1.059   0.073  0.1076  0.6727 -0.6950
 4430SOL    HW124749   0.341   1.150   0.049 -1.5305  1.0731 -0.4025
 4430SOL    HW224750   0.227   1.057   0.070  0.0877  0.3232  0.2184
 4431SOL     OW24751   2.360   2.011   4.012  0.4859  0.3437 -0.2731
 4431SOL    HW124752   2.451   2.013   3.984  0.0655  1.3318 -1.5975
 4431SOL    HW224753   2.342   2.105   4.003  1.5369  0.5371 -0.2846
 4432SOL     OW24754   4.489   4.411   6.812  0.3034  0.6309 -0.4846
 4432SOL    HW124755   4.555   4.369   6.867 -1.0183 -0.5219  0.2040
 4432SOL    HW224756   4.432   4.338   6.786 -1.4065  0.8980  2.5506
 4433SOL     OW24757   1.768   2.079   3.135 -0.2101  0.3853 -0.3451
 4433SOL    HW124758   1.758   2.145   3.066 -1.2861  2.3549  1.6906
 4433SOL    HW224759   1.681   2.083   3.175 -0.4060  1.0179 -0.8367
 4434SOL     OW24760   3.491   1.734   2.429 -0.4170  0.0691  0.3383
 4434SOL    HW124761   3.445   1.656   2.399 -2.4346  1.4848 -0.2596
 4434SOL    HW224762   3.421   1.787   2.465 -2.2811 -0.4600 -2.5205
 4435SOL     OW24763   3.169   2.416  14.945  0.5625  0.8461  0.1167
 4435SOL    HW124764   3.153   2.335  14.993  0.4479  0.6192 -0.3062
 4435SOL    HW224765   3.080   2.448  14.928  1.2251  2.3107 -0.6291
 4436SOL     OW24766   1.770   3.677   5.288 -0.0325 -0.3327  0.0712
 4436SOL    HW124767   1.756   3.604   5.348  2.8078  0.5221  1.7714
 4436SOL    HW224768   1.865   3.690   5.292 -0.0849  0.3402 -0.8619
 4437SOL     OW24769   4.502   2.354  13.843  0.2174  0.0314  0.2981
 4437SOL    HW124770   4.429   2.340  13.782 -0.0435 -0.6856  0.7924
 4437SOL    HW224771   4.566   2.302  13.796 -0.3644 -0.9988  0.6601
 4438SOL     OW24772   2.546   4.439   1.878  0.3177 -0.0172  0.2576
 4438SOL    HW124773   2.591   4.377   1.936  1.4465  0.2351 -0.3412
 4438SOL    HW224774   2.607   4.506   1.846  0.1068  0.3302  0.5868
 4439SOL     OW24775   3.340   2.459   4.447 -0.0110  0.1400 -0.3567
 4439SOL    HW124776   3.321   2.371   4.477  2.2210  0.8433  3.0610
 4439SOL    HW224777   3.433   2.457   4.466 -0.2955 -1.7734  0.7771
 4440SOL     OW24778   1.865   2.657  12.681  0.2543 -0.3247 -0.2153
 4440SOL    HW124779   1.944   2.606  12.699  0.6608  0.2973 -0.2229
 4440SOL    HW224780   1.900   2.703  12.604  1.4481  3.1922  2.4501
 4441SOL     OW24781   1.603   2.905  15.555  0.1720  0.5632  0.6786
 4441SOL    HW124782   1.565   2.866  15.634  0.4822  1.7690  1.4163
 4441SOL    HW224783   1.615   2.996  15.581  0.1655  0.4605  1.0430
 4442SOL     OW24784   0.514   1.830   9.256  0.1420  0.4976 -0.1183
 4442SOL    HW124785   0.420   1.842   9.243  0.0908  1.5255  1.2014
 4442SOL    HW224786   0.552   1.901   9.204  0.9043 -1.1843 -1.8289
 4443SOL     OW24787   1.652   3.861  16.309 -0.2146 -0.1325 -0.2457
 4443SOL    HW124788   1.702   3.799  16.256  0.6561  1.3073 -1.1061
 4443SOL    HW224789   1.582   3.798  16.324  0.8078 -1.2164 -0.0742
 4444SOL     OW24790   4.404   3.286   4.367 -0.2111  0.1542 -0.2600
 4444SOL    HW124791   4.397   3.198   4.330  0.7940 -0.4634  1.0317
 4444SOL    HW224792   4.414   3.271   4.461 -2.4994  0.6136  0.0663
 4445SOL     OW24793   0.076   3.745   7.706 -0.2583 -0.1480 -0.2369
 4445SOL    HW124794   0.161   3.770   7.669 -1.5667  1.2393 -2.3300
 4445SOL    HW224795   0.060   3.824   7.758  1.0529 -0.9580  1.3912
 4446SOL     OW24796   0.194   1.855  16.029  0.4857 -0.3225 -0.2325
 4446SOL    HW124797   0.174   1.768  15.996  1.7633 -0.6620 -0.1177
 4446SOL    HW224798   0.110   1.900  16.026 -0.3058 -2.1261 -3.9342
 4447SOL     OW24799   0.518   2.613   2.538  0.4775 -0.3605 -0.0423
 4447SOL    HW124800   0.504   2.693   2.590 -1.6419 -1.6028  1.2894
 4447SOL    HW224801   0.606   2.596   2.571 -0.3202 -0.4646  2.0233
 4448SOL     OW24802   0.272   2.859   3.883  0.8078  0.2211  0.2084
 4448SOL    HW124803   0.213   2.923   3.922  0.1803  1.1101 -2.2096
 4448SOL    HW224804   0.300   2.913   3.809 -0.7863 -0.3967 -0.8375
 4449SOL     OW24805   3.993   3.504  15.907  0.2047  0.1535  0.0004
 4449SOL    HW124806   4.033   3.523  15.822  1.9788  0.7215  0.9561
 4449SOL    HW224807   3.907   3.541  15.884  0.6733  0.3625 -1.3967
 4450SOL     OW24808   4.378   3.087   2.892 -1.2015  0.2242 -0.1800
 4450SOL    HW124809   4.369   3.180   2.872 -1.3489  0.6211  1.7384
 4450SOL    HW224810   4.299   3.051   2.852 -0.3011 -1.0468 -0.8122
 4451SOL     OW24811   1.365   4.014   4.464 -0.4042 -0.4649  0.3378
 4451SOL    HW124812   1.432   3.972   4.519 -1.2374 -0.6132  1.2267
 4451SOL    HW224813   1.313   4.065   4.526  0.2604  1.5277 -0.7307
 4452SOL     OW24814   3.363   1.999  15.612 -0.4251  0.1625  0.2445
 4452SOL    HW124815   3.339   2.041  15.530  1.1431  2.2621  0.8696
 4452SOL    HW224816   3.399   2.070  15.665 -1.6979 -0.6372  2.1702
 4453SOL     OW24817   4.502   2.769   2.460 -0.0487 -0.7116  0.1665
 4453SOL    HW124818   4.439   2.804   2.523  0.8977 -1.6459  1.6490
 4453SOL    HW224819   4.531   2.847   2.414 -0.2192 -0.8112 -0.1101
 4454SOL     OW24820   1.808   2.816   0.915 -0.0899 -0.2551 -0.0364
 4454SOL    HW124821   1.766   2.840   0.832  1.6707  0.3392 -0.7562
 4454SOL    HW224822   1.888   2.867   0.904 -0.9909  1.1334 -0.0831
 4455SOL     OW24823   3.253   1.596   6.514 -1.8632  0.3031 -0.4841
 4455SOL    HW124824   3.256   1.670   6.574 -1.9019 -0.8363  0.9020
 4455SOL    HW224825   3.160   1.575   6.504 -2.0484  1.5750 -1.3751
 4456SOL     OW24826   0.603   3.247   6.661  0.0100  0.2851 -0.5698
 4456SOL    HW124827   0.587   3.306   6.586 -1.3450  0.0154 -0.5015
 4456SOL    HW224828   0.610   3.310   6.732  0.1855 -0.3162 -0.0633
 4457SOL     OW24829   2.622   3.862   9.089  0.2764  0.3875  0.1084
 4457SOL    HW124830   2.563   3.802   9.136 -1.4118  2.2313  0.3577
 4457SOL    HW224831   2.568   3.937   9.065 -0.6637 -0.0596  0.7743
 4458SOL     OW24832   3.622   2.875  10.507 -0.3390  0.7150  0.6939
 4458SOL    HW124833   3.587   2.946  10.559 -0.3688  1.0546  0.2113
 4458SOL    HW224834   3.689   2.925  10.459  0.0224 -1.0782 -0.7135
 4459SOL     OW24835   2.178   0.092   6.019 -0.4532 -0.4321  0.2715
 4459SOL    HW124836   2.217   0.073   5.933 -0.6480  1.2175 -0.1857
 4459SOL    HW224837   2.090   0.060   5.998 -1.1199  2.3047 -1.1820
 4460SOL     OW24838   3.430   4.114   2.341  0.0178 -0.3507 -0.8912
 4460SOL    HW124839   3.510   4.127   2.291  0.7289  3.1479  1.1967
 4460SOL    HW224840   3.426   4.020   2.361 -2.0087 -0.2156 -0.5986
 4461SOL     OW24841   3.207   2.387   1.103  0.1718 -0.4103 -0.3577
 4461SOL    HW124842   3.181   2.373   1.012 -2.8405 -1.2957  0.6327
 4461SOL    HW224843   3.127   2.366   1.152  0.2110  1.3521  0.4903
 4462SOL     OW24844   1.069   0.610  12.836 -0.0829 -0.0205  0.0105
 4462SOL    HW124845   1.115   0.625  12.919  2.3059  0.2028 -1.3495
 4462SOL    HW224846   0.992   0.561  12.865  1.0651 -0.5216  2.2722
 4463SOL     OW24847   1.793   3.444   6.680 -0.4799  0.0950 -0.0730
 4463SOL    HW124848   1.749   3.360   6.694  0.9505 -0.6786 -0.2670
 4463SOL    HW224849   1.773   3.472   6.590  1.3132 -0.4386 -0.6289
 4464SOL     OW24850   2.574   2.689   6.843 -0.3182  0.1589 -0.7272
 4464SOL    HW124851   2.558   2.648   6.758 -0.4341 -0.7245 -0.2878
 4464SOL    HW224852   2.515   2.764   6.844 -0.6374 -0.1282  2.2822
 4465SOL     OW24853   4.000   0.092   8.029  0.1881 -0.2577 -0.0149
 4465SOL    HW124854   4.072   0.137   7.985 -0.2631  0.4135 -0.0708
 4465SOL    HW224855   3.990   0.014   7.976 -0.3791 -1.1965  1.4798
 4466SOL     OW24856   3.047   4.340  15.816 -0.0536  0.1361 -0.0164
 4466SOL    HW124857   3.079   4.250  15.809  0.8237  0.5172 -0.8917
 4466SOL    HW224858   2.970   4.332  15.874  3.0135  2.9537  4.4097
 4467SOL     OW24859   3.587   3.957  17.535  0.2896 -0.0739 -0.6296
 4467SOL    HW124860   3.619   4.028  17.591  0.3119 -1.0972  0.6703
 4467SOL    HW224861   3.629   3.967  17.450  0.5715  0.9282 -0.3684
 4468SOL     OW24862   1.092   3.989   3.711 -0.5038  0.1416 -0.8512
 4468SOL    HW124863   1.117   3.976   3.620 -1.9181  0.6815 -1.3078
 4468SOL    HW224864   1.165   3.950   3.760  0.4527 -1.1172 -3.2914
 4469SOL     OW24865   2.323   1.102  14.800 -0.1253  0.2021  0.1470
 4469SOL    HW124866   2.231   1.127  14.813 -0.5947 -1.1857 -0.4917
 4469SOL    HW224867   2.333   1.091  14.706 -1.3121 -0.7586  0.1284
 4470SOL     OW24868   4.328   2.398  16.787  0.7050  0.3469  0.5942
 4470SOL    HW124869   4.336   2.304  16.807 -1.6435  0.0711  0.2174
 4470SOL    HW224870   4.233   2.390  16.785  1.0244 -4.0429  1.4905
 4471SOL     OW24871   0.018   3.911  13.092  0.2942 -0.1903  0.0899
 4471SOL    HW124872   4.657   3.905  13.132 -0.3240  0.5839 -1.1339
 4471SOL    HW224873   0.042   4.003  13.107  0.7800  0.2345 -3.4066
 4472SOL     OW24874   4.365   1.246   2.803 -0.0703  0.1719  0.0606
 4472SOL    HW124875   4.389   1.240   2.710 -0.4723 -0.2012 -0.0150
 4472SOL    HW224876   4.396   1.334   2.827  2.0360 -0.3864 -0.5830
 4473SOL     OW24877   2.950   1.356   7.041  0.0054 -0.5227 -0.2023
 4473SOL    HW124878   2.859   1.370   7.016 -0.5749 -1.8569  1.1503
 4473SOL    HW224879   2.997   1.357   6.958  1.0740  1.6358  0.4438
 4474SOL     OW24880   3.247   3.430  10.200  0.8271  0.7166 -0.0951
 4474SOL    HW124881   3.278   3.493  10.135  2.2273  0.2619  0.1246
 4474SOL    HW224882   3.192   3.365  10.156  3.5928 -1.3268 -0.5762
 4475SOL     OW24883   1.771   1.807   3.712 -0.1963 -0.0950 -0.0985
 4475SOL    HW124884   1.788   1.714   3.700  0.6919  0.1240 -0.4913
 4475SOL    HW224885   1.801   1.807   3.803  2.5085 -3.3667 -1.0186
 4476SOL     OW24886   0.041   1.830   6.351  0.1412  0.4163 -0.1086
 4476SOL    HW124887   4.713   1.849   6.428 -0.3868  0.6212 -0.5267
 4476SOL    HW224888   0.006   1.881   6.278 -0.5037 -0.4381 -0.3957
 4477SOL     OW24889   2.268   3.330   3.618  0.3322 -0.2720  0.0777
 4477SOL    HW124890   2.262   3.277   3.698 -4.2740 -0.4485 -0.3579
 4477SOL    HW224891   2.362   3.324   3.603  0.4973 -0.5331  1.1731
 4478SOL     OW24892   3.504   0.372   6.260  0.1615 -0.3440  0.0779
 4478SOL    HW124893   3.573   0.369   6.325 -0.5682 -1.2955  0.8119
 4478SOL    HW224894   3.544   0.315   6.195 -1.2330 -0.2291 -0.9060
 4479SOL     OW24895   2.550   0.552  10.757  0.6654  0.9103 -0.2471
 4479SOL    HW124896   2.482   0.596  10.707  0.4155 -0.6171 -1.2620
 4479SOL    HW224897   2.608   0.523  10.686  1.1258 -2.4823  1.4762
 4480SOL     OW24898   2.163   1.777  12.497  0.4116 -0.2662  0.4541
 4480SOL    HW124899   2.190   1.767  12.406 -0.6350 -0.5254  0.1675
 4480SOL    HW224900   2.131   1.867  12.493 -0.6411 -0.7091 -1.1971
 4481SOL     OW24901   2.174   0.105  15.074 -0.5888 -0.6167 -0.4836
 4481SOL    HW124902   2.201   0.161  15.147 -2.0407  0.0878 -0.4883
 4481SOL    HW224903   2.106   0.163  15.039 -1.1934  1.2793  3.7984
 4482SOL     OW24904   0.511   0.993  10.768  0.0458 -0.0074  0.0533
 4482SOL    HW124905   0.501   1.011  10.674  1.1031 -0.8797 -0.2273
 4482SOL    HW224906   0.538   1.080  10.800  0.9037 -0.3462  0.2600
 4483SOL     OW24907   4.687   1.160  12.767 -0.2747 -0.0247  0.3113
 4483SOL    HW124908   4.606   1.146  12.719  0.2394  1.2130 -0.9371
 4483SOL    HW224909   4.658   1.106  12.840  1.1438 -1.9399 -0.5441
 4484SOL     OW24910   0.945   3.666  12.117 -0.3190 -0.6364 -0.2867
 4484SOL    HW124911   0.999   3.745  12.123 -3.0410  1.2119 -0.2821
 4484SOL    HW224912   0.867   3.686  12.168 -0.5155 -2.7213  0.2351
 4485SOL     OW24913   2.765   0.464   8.563  0.4612 -0.5052 -0.4852
 4485SOL    HW124914   2.775   0.369   8.569  3.2533 -0.3891 -3.2075
 4485SOL    HW224915   2.691   0.469   8.623 -0.3938 -0.9733 -1.4930
 4486SOL     OW24916   1.046   1.855   2.271 -0.0034  0.3938  0.3108
 4486SOL    HW124917   1.019   1.833   2.360  0.9955 -4.2506 -0.5385
 4486SOL    HW224918   1.012   1.783   2.218 -0.3761  1.0456 -0.3400
 4487SOL     OW24919   4.515   1.144   1.060 -0.3568 -0.0911  0.4909
 4487SOL    HW124920   4.453   1.083   1.100  0.4272 -0.8859  0.5044
 4487SOL    HW224921   4.513   1.105   0.973 -1.9111  1.1463 -0.0199
 4488SOL     OW24922   1.270   4.593   3.754  0.2062 -0.0675 -0.2549
 4488SOL    HW124923   1.209   4.592   3.828  2.0775 -2.7184  1.2347
 4488SOL    HW224924   1.204   4.614   3.688 -0.0572  0.5491  0.2043
 4489SOL     OW24925   2.877   2.552   3.620 -0.4750 -0.1269 -0.6250
 4489SOL    HW124926   2.926   2.608   3.681 -2.5466 -0.5421  1.4399
 4489SOL    HW224927   2.825   2.509   3.688  0.3941 -0.7901 -0.3765
 4490SOL     OW24928   3.835   0.932  10.411 -0.2248  0.4373 -0.1362
 4490SOL    HW124929   3.826   0.848  10.366 -1.0586  0.3701  0.1629
 4490SOL    HW224930   3.931   0.935  10.401 -0.0176  0.5232  1.9243
 4491SOL     OW24931   1.341   4.117  12.734 -0.3260  0.3467  1.1302
 4491SOL    HW124932   1.371   4.179  12.668 -1.2872 -0.2133  0.1653
 4491SOL    HW224933   1.415   4.067  12.768  2.2194  1.1855 -3.2341
 4492SOL     OW24934   1.798   3.385   9.789 -0.0377  0.3771 -0.4239
 4492SOL    HW124935   1.716   3.380   9.740 -0.2988  0.1432  0.0373
 4492SOL    HW224936   1.872   3.384   9.729 -0.2189 -1.4212 -0.6001
 4493SOL     OW24937   3.959   2.933   9.313 -0.0470 -0.1754  0.1276
 4493SOL    HW124938   3.891   2.951   9.248  0.8957 -0.6411 -0.9745
 4493SOL    HW224939   3.968   2.838   9.319 -2.0207 -0.4330 -1.0827
 4494SOL     OW24940   2.976   4.554   7.692 -0.2749 -0.1261  0.4215
 4494SOL    HW124941   3.058   4.506   7.676 -0.4854 -0.5814  0.6937
 4494SOL    HW224942   2.951   4.498   7.766 -1.0423 -0.5778 -0.1848
 4495SOL     OW24943   0.451   4.699   0.468  0.2055 -0.2217 -0.0919
 4495SOL    HW124944   0.512   4.638   0.510 -0.2208  0.1299  1.0617
 4495SOL    HW224945   0.375   4.675   0.521  1.3850  1.0244  2.1608
 4496SOL     OW24946   1.334   0.918  16.707  0.0085 -0.1125  0.4442
 4496SOL    HW124947   1.355   0.958  16.623  0.8434 -0.9291  0.2651
 4496SOL    HW224948   1.238   0.922  16.701 -0.0060 -1.8400 -0.2743
 4497SOL     OW24949   4.114   0.062   8.590  0.0878  0.1158  0.0848
 4497SOL    HW124950   4.076   0.022   8.668 -0.9132  0.8239 -0.0470
 4497SOL    HW224951   4.141   0.148   8.624  0.6662  0.2157 -0.6128
 4498SOL     OW24952   0.457   3.669   8.211  0.3419  0.0665  0.2643
 4498SOL    HW124953   0.479   3.579   8.185 -0.8082 -0.1028 -0.1072
 4498SOL    HW224954   0.457   3.723   8.131 -0.6373  0.6483  0.6672
 4499SOL     OW24955   0.479   3.685   2.434 -0.0161 -0.0601  0.1808
 4499SOL    HW124956   0.387   3.661   2.436 -0.4050  1.1821 -2.5136
 4499SOL    HW224957   0.508   3.674   2.343  0.8565 -1.0754  0.5725
 4500SOL     OW24958   1.183   2.152   8.357  0.0220  0.0972  0.5749
 4500SOL    HW124959   1.090   2.128   8.359 -0.1867  1.0586  1.8156
 4500SOL    HW224960   1.175   2.246   8.339  3.4062  0.1505 -0.6753
 4501SOL     OW24961   1.184   0.167   9.249  0.3358 -0.4050  0.7356
 4501SOL    HW124962   1.244   0.229   9.208  0.5809 -0.5234  0.9202
 4501SOL    HW224963   1.232   0.095   9.208  0.0823 -0.6617  0.8893
 4502SOL     OW24964   3.862   3.423   1.207  0.7076 -0.1472  0.2352
 4502SOL    HW124965   3.809   3.343   1.215  0.7493 -0.0333  1.6995
 4502SOL    HW224966   3.946   3.396   1.243 -0.0251  0.2839  2.2974
 4503SOL     OW24967   2.946   4.566  14.550 -0.3092 -0.0147  0.0125
 4503SOL    HW124968   2.997   4.603  14.622  0.0874  1.4124 -0.9825
 4503SOL    HW224969   2.861   4.604  14.573 -1.6234 -2.4183 -0.8449
 4504SOL     OW24970   4.654   2.244   2.706 -0.3415  0.4656  0.6265
 4504SOL    HW124971   4.704   2.306   2.653 -0.2250  1.4614  1.9208
 4504SOL    HW224972   4.610   2.181   2.648  2.0846 -2.8336  2.3319
 4505SOL     OW24973   1.814   4.059   6.612  0.2345  0.6291  0.2409
 4505SOL    HW124974   1.879   4.094   6.673  0.5868 -0.6572  0.6108
 4505SOL    HW224975   1.828   3.969   6.642  2.2768  0.3111 -1.7270
 4506SOL     OW24976   2.169   4.165   7.474 -0.1576  0.0138  1.6209
 4506SOL    HW124977   2.209   4.138   7.556 -0.4780 -0.0384  1.7598
 4506SOL    HW224978   2.172   4.261   7.480 -2.6491  0.2740 -0.7654
 4507SOL     OW24979   3.584   2.824   3.882 -0.5333  0.0633  0.4402
 4507SOL    HW124980   3.573   2.729   3.871 -3.2186  0.6924 -2.3531
 4507SOL    HW224981   3.534   2.862   3.809  2.5993  1.8929 -0.7515
 4508SOL     OW24982   2.048   3.064   5.401  0.0028 -0.2667 -0.0598
 4508SOL    HW124983   2.089   2.979   5.416 -0.9210 -0.8122 -0.6259
 4508SOL    HW224984   2.117   3.092   5.343 -2.0877  1.6753 -1.6017
 4509SOL     OW24985   2.076   1.539  15.417 -0.2021  0.7367  0.5148
 4509SOL    HW124986   2.152   1.537  15.475  0.4429  3.7728 -0.2207
 4509SOL    HW224987   2.017   1.612  15.438 -1.6440 -0.3735  0.3350
 4510SOL     OW24988   4.643   0.729   9.332  0.0008 -0.8588 -0.3814
 4510SOL    HW124989   4.594   0.710   9.412  0.5135  1.7952  0.5849
 4510SOL    HW224990   0.001   0.755   9.370 -1.9790 -0.0020  3.3743
 4511SOL     OW24991   4.533   1.867   8.299 -0.4454  0.2924  0.3198
 4511SOL    HW124992   4.565   1.954   8.275 -0.6637  1.5296  4.5068
 4511SOL    HW224993   4.451   1.876   8.251  0.5838  1.0028 -1.3092
 4512SOL     OW24994   1.580   3.362   0.838  0.0180 -0.5337 -0.0849
 4512SOL    HW124995   1.648   3.406   0.888 -0.4600  2.4762 -2.0932
 4512SOL    HW224996   1.628   3.352   0.756 -1.5525  2.1996 -1.3544
 4513SOL     OW24997   4.192   4.143   0.389 -0.1385 -0.4148  0.2232
 4513SOL    HW124998   4.104   4.124   0.357  0.0088  0.0098 -0.4473
 4513SOL    HW224999   4.200   4.220   0.332  1.2120  0.5701  1.7752
 4514SOL     OW25000   4.314   3.950   4.547 -0.1560 -0.3973 -0.2794
 4514SOL    HW125001   4.226   3.913   4.550 -0.4587  0.1644 -2.2697
 4514SOL    HW225002   4.333   3.957   4.641  1.4387 -0.5826 -0.5896
 4515SOL     OW25003   4.267   0.648   4.769 -0.1017  0.2922 -0.1306
 4515SOL    HW125004   4.289   0.715   4.834  0.3429 -2.3906  2.4837
 4515SOL    HW225005   4.173   0.670   4.766 -0.0126  0.8028  0.7915
 4516SOL     OW25006   3.061   3.104   4.726  0.1662  0.0900  0.3540
 4516SOL    HW125007   3.072   3.021   4.680  1.2597  0.1808  0.4704
 4516SOL    HW225008   3.098   3.072   4.808 -1.0210  1.0881  1.2878
 4517SOL     OW25009   1.970   1.907  12.285  0.5901  0.6365  0.1173
 4517SOL    HW125010   1.898   1.845  12.286  1.6139 -0.6057 -1.8640
 4517SOL    HW225011   2.044   1.846  12.276 -1.4435 -1.3011 -3.1851
 4518SOL     OW25012   3.032   0.555   2.975 -0.1070  0.0469 -0.9321
 4518SOL    HW125013   3.031   0.610   3.053  1.5672  0.5623 -1.2842
 4518SOL    HW225014   3.101   0.602   2.928 -0.3443  0.9521 -0.3709
 4519SOL     OW25015   4.317   4.216   9.789  0.1611  0.0213 -0.2015
 4519SOL    HW125016   4.278   4.206   9.703  0.2151 -0.0289 -0.2202
 4519SOL    HW225017   4.379   4.144   9.803  1.8470  1.4622 -0.3587
 4520SOL     OW25018   4.278   2.241   7.447 -0.0067  0.4192  0.1672
 4520SOL    HW125019   4.364   2.238   7.404  0.6245  0.2765  1.4278
 4520SOL    HW225020   4.306   2.302   7.516  1.0600  2.9803 -2.5362
 4521SOL     OW25021   2.605   2.331  14.551  0.0358  0.0403  0.0666
 4521SOL    HW125022   2.645   2.349  14.465  0.9242  0.9380  0.6580
 4521SOL    HW225023   2.582   2.239  14.543 -0.7238  0.3126 -0.9480
 4522SOL     OW25024   2.112   1.958  14.170  0.1306  0.4533 -0.4379
 4522SOL    HW125025   2.067   1.963  14.254 -0.0171  1.1214 -0.5517
 4522SOL    HW225026   2.043   1.911  14.123 -0.2086  1.2474 -0.7374
 4523SOL     OW25027   3.849   2.699   9.717  0.4313 -0.2333  0.3822
 4523SOL    HW125028   3.886   2.672   9.801  1.5924  0.8542  0.2317
 4523SOL    HW225029   3.889   2.786   9.727  1.7266 -0.4773 -2.5781
 4524SOL     OW25030   1.249   2.962  13.880 -0.4409 -0.0530 -0.1447
 4524SOL    HW125031   1.166   2.988  13.841 -0.3487 -1.3616 -1.2047
 4524SOL    HW225032   1.280   2.904  13.810  0.7896  2.1291 -1.4126
 4525SOL     OW25033   1.129   2.378   7.038 -0.0784  0.1392 -0.2694
 4525SOL    HW125034   1.051   2.417   7.077  0.1598  1.8036 -1.4515
 4525SOL    HW225035   1.171   2.356   7.121  2.9232  2.3156 -1.2029
 4526SOL     OW25036   2.855   4.164   5.107 -0.4988  0.1479  0.0542
 4526SOL    HW125037   2.919   4.102   5.143 -2.2474 -1.5011  0.3226
 4526SOL    HW225038   2.887   4.171   5.017 -0.0176  1.9105  0.3662
 4527SOL     OW25039   2.907   2.168   1.662 -0.0029 -0.1709 -0.1581
 4527SOL    HW125040   2.977   2.107   1.639 -1.4763 -2.1396  0.5818
 4527SOL    HW225041   2.952   2.206   1.738 -2.5173  2.2432  0.1003
 4528SOL     OW25042   1.621   0.619  15.238  0.1106  0.0632  0.1545
 4528SOL    HW125043   1.532   0.593  15.258  0.2605  0.2571  1.0727
 4528SOL    HW225044   1.668   0.587  15.315  0.5208 -0.0750 -0.1535
 4529SOL     OW25045   0.083   1.122  16.853 -0.0323 -0.3404 -0.1282
 4529SOL    HW125046   0.053   1.147  16.766 -1.3330  0.2009  0.4827
 4529SOL    HW225047   0.134   1.198  16.881  2.8714 -2.4140  0.2368
 4530SOL     OW25048   3.174   4.313   9.315  0.2196  0.5645 -0.2699
 4530SOL    HW125049   3.127   4.387   9.275  1.5439  0.3682 -2.1691
 4530SOL    HW225050   3.184   4.260   9.236  1.7334  1.8785 -0.9459
 4531SOL     OW25051   1.701   4.670   5.069 -0.1435  0.3582  0.0441
 4531SOL    HW125052   1.775   4.610   5.078  0.1117  0.8490  1.3143
 4531SOL    HW225053   1.695   4.678   4.974 -1.9945  2.2847  0.3311
 4532SOL     OW25054   1.403   3.996   7.979  0.3525  0.1208 -0.3024
 4532SOL    HW125055   1.488   3.960   8.004  2.5327  3.7890 -2.4084
 4532SOL    HW225056   1.363   4.031   8.059  0.2154  0.7718 -0.6576
 4533SOL     OW25057   3.379   3.027  14.398 -0.3821 -0.0252 -0.3466
 4533SOL    HW125058   3.401   3.089  14.329 -0.3496  0.1208 -0.2059
 4533SOL    HW225059   3.357   3.084  14.472 -2.1499 -2.0636  0.7233
 4534SOL     OW25060   3.488   2.728   0.389 -0.6213 -0.2315 -0.0552
 4534SOL    HW125061   3.425   2.787   0.429  0.9679  2.0428 -0.8745
 4534SOL    HW225062   3.515   2.683   0.469 -1.0801 -0.8622 -0.2551
 4535SOL     OW25063   2.854   3.314   3.811  0.4949 -0.6992 -0.5106
 4535SOL    HW125064   2.872   3.398   3.768  0.7302 -0.4416  0.0914
 4535SOL    HW225065   2.912   3.250   3.770  0.8778 -0.6276 -0.0740
 4536SOL     OW25066   1.168   2.051   1.912 -0.9283  0.4314 -0.8281
 4536SOL    HW125067   1.247   2.032   1.862 -0.4550 -1.3137  0.5815
 4536SOL    HW225068   1.200   2.040   2.002  0.3948  1.3917 -1.1682
 4537SOL     OW25069   2.851   3.969   8.336 -0.0311 -0.0896 -0.3366
 4537SOL    HW125070   2.891   4.053   8.358 -1.3801  0.0881  1.3767
 4537SOL    HW225071   2.929   3.914   8.325 -1.4855 -2.1528 -0.3430
 4538SOL     OW25072   0.940   2.820   5.379 -0.5366 -0.1449 -0.0183
 4538SOL    HW125073   0.929   2.729   5.405  2.5716 -0.6226 -0.3270
 4538SOL    HW225074   0.877   2.813   5.308  0.6845 -1.6046 -0.9648
 4539SOL     OW25075   0.124   4.379   2.958 -0.6708 -0.6994 -0.0383
 4539SOL    HW125076   0.108   4.446   2.891 -1.3070 -1.4121 -0.5890
 4539SOL    HW225077   0.032   4.362   2.973 -0.3471 -2.3747  0.0168
 4540SOL     OW25078   3.787   1.020  12.420 -0.5295 -0.6655  0.1521
 4540SOL    HW125079   3.756   1.099  12.377 -0.0854 -1.6176 -1.8898
 4540SOL    HW225080   3.866   1.002  12.369  0.3992 -0.0604  1.3650
 4541SOL     OW25081   4.628   2.072   9.424 -0.3324 -0.1952  0.2098
 4541SOL    HW125082   4.676   2.153   9.405 -2.2428  1.0628  0.8482
 4541SOL    HW225083   4.686   2.042   9.494  0.1520 -1.9582 -0.9278
 4542SOL     OW25084   0.716   2.095  12.418 -0.1434 -0.0058 -0.0818
 4542SOL    HW125085   0.773   2.099  12.341 -2.1200  1.6287 -1.4355
 4542SOL    HW225086   0.691   2.187  12.422  0.5038  0.2380 -1.4330
 4543SOL     OW25087   0.410   2.730  13.902 -0.1607 -0.0639 -0.0034
 4543SOL    HW125088   0.471   2.800  13.879  0.3335 -1.2559 -2.3145
 4543SOL    HW225089   0.476   2.686  13.956 -1.0688  0.0835  1.2378
 4544SOL     OW25090   1.876   2.528   1.825  0.0648 -0.5338  0.2787
 4544SOL    HW125091   1.802   2.589   1.827  0.8059  0.3283  1.4742
 4544SOL    HW225092   1.903   2.530   1.733 -0.3292 -0.2781  0.1690
 4545SOL     OW25093   0.864   0.829   5.433  0.7316 -0.1325 -0.5745
 4545SOL    HW125094   0.928   0.760   5.450 -2.6034 -3.0045  0.2854
 4545SOL    HW225095   0.822   0.802   5.351 -2.3231  0.2869  0.8471
 4546SOL     OW25096   3.822   2.910   8.762  0.2958  0.9316 -0.0793
 4546SOL    HW125097   3.784   2.868   8.839  1.2977  0.0135 -0.0770
 4546SOL    HW225098   3.907   2.866   8.752  0.5546  1.1700  1.0423
 4547SOL     OW25099   4.467   2.809  16.650 -0.2609 -0.3986 -0.0273
 4547SOL    HW125100   4.462   2.828  16.557  1.1895 -1.1752 -0.2669
 4547SOL    HW225101   4.430   2.889  16.687  0.9617  0.4848 -0.7134
 4548SOL     OW25102   4.454   4.037   6.914  0.0979 -0.5741 -0.6286
 4548SOL    HW125103   4.362   4.013   6.921  0.2517 -0.5810  1.3658
 4548SOL    HW225104   4.458   4.122   6.959 -1.5737  0.0246 -1.6042
 4549SOL     OW25105   4.003   2.623   9.937  0.1843 -0.6530 -0.3649
 4549SOL    HW125106   4.096   2.610   9.917  0.7089  2.0943  0.2560
 4549SOL    HW225107   3.997   2.615  10.033  0.3577  0.5844 -0.2469
 4550SOL     OW25108   2.193   3.217   5.005  0.3235  0.4036  0.1517
 4550SOL    HW125109   2.236   3.175   4.930  0.1472 -1.8266  1.3161
 4550SOL    HW225110   2.109   3.239   4.964  0.1141  1.4706  1.1371
 4551SOL     OW25111   1.861   1.145   5.669 -0.3310  0.4370  0.0415
 4551SOL    HW125112   1.790   1.140   5.733  0.4266 -2.9173  0.6154
 4551SOL    HW225113   1.882   1.053   5.657 -0.1883  0.5733 -0.7970
 4552SOL     OW25114   2.184   4.648  13.521 -0.2179 -0.3138 -0.4236
 4552SOL    HW125115   2.102   4.618  13.561 -0.0807 -0.7041 -0.4400
 4552SOL    HW225116   2.221   4.570  13.481  2.4713  0.8542 -0.2237
 4553SOL     OW25117   1.730   3.165   6.886 -0.3595 -0.4711 -0.1267
 4553SOL    HW125118   1.815   3.196   6.919 -0.6598  0.2858 -0.0750
 4553SOL    HW225119   1.726   3.081   6.932 -1.4345 -0.5821 -0.4389
 4554SOL     OW25120   3.304   3.005  11.051 -0.2084 -0.2378  0.3838
 4554SOL    HW125121   3.350   3.070  11.104 -1.1913  1.0242 -0.2999
 4554SOL    HW225122   3.322   2.928  11.105  0.9706 -0.3777 -0.1866
 4555SOL     OW25123   4.334   4.678   2.102 -0.0429  0.4398  0.4425
 4555SOL    HW125124   4.312   0.016   2.169 -3.5677 -2.0342  1.6563
 4555SOL    HW225125   4.249   4.637   2.086  0.5753 -2.0151  3.4735
 4556SOL     OW25126   4.483   3.869   5.946  0.2537 -0.3245 -0.3772
 4556SOL    HW125127   4.574   3.898   5.937  0.2264 -0.5289 -1.4020
 4556SOL    HW225128   4.435   3.952   5.952  0.0004 -0.5036  0.0566
 4557SOL     OW25129   1.240   3.314  13.031 -0.5344 -0.3896  0.7605
 4557SOL    HW125130   1.160   3.348  13.072 -0.6668 -1.7626  1.6376
 4557SOL    HW225131   1.267   3.391  12.981  1.9725 -0.8512  1.3988
 4558SOL     OW25132   2.093   1.688   1.252 -0.2937 -0.4900 -0.1608
 4558SOL    HW125133   2.068   1.604   1.292 -0.6163  0.5837  1.8642
 4558SOL    HW225134   2.036   1.740   1.308  0.7845 -0.8582  1.2938
 4559SOL     OW25135   0.639   4.087   5.866 -0.4849  0.1103 -0.1316
 4559SOL    HW125136   0.615   4.145   5.938  1.3988  2.6190 -1.5465
 4559SOL    HW225137   0.732   4.071   5.885 -0.6650  0.5171  1.0887
 4560SOL     OW25138   0.554   0.869   3.836 -0.2804 -0.1123  0.8111
 4560SOL    HW125139   0.504   0.889   3.915  2.3836 -0.4067  2.5913
 4560SOL    HW225140   0.579   0.955   3.804  2.0261 -2.6703 -4.1915
 4561SOL     OW25141   3.806   3.808   4.867 -0.7667 -0.6592  0.0004
 4561SOL    HW125142   3.874   3.837   4.928 -0.6124 -2.3951  0.6500
 4561SOL    HW225143   3.827   3.715   4.870  5.0895  0.6917  0.4108
 4562SOL     OW25144   1.252   4.397   8.717 -0.1254  0.1838 -0.0371
 4562SOL    HW125145   1.199   4.430   8.790 -0.4443  1.2988 -0.7699
 4562SOL    HW225146   1.181   4.353   8.670  0.8547  0.0817 -1.4136
 4563SOL     OW25147   3.341   2.944  15.821 -0.1382 -0.0184  0.4906
 4563SOL    HW125148   3.379   2.966  15.906  0.7236  1.2940 -0.2360
 4563SOL    HW225149   3.247   2.939  15.841  0.5867 -1.7492  3.3813
 4564SOL     OW25150   4.615   3.910   2.101 -0.1235 -0.1977  0.7448
 4564SOL    HW125151   4.539   3.897   2.158 -0.3187  2.1058  0.9925
 4564SOL    HW225152   4.573   3.903   2.016 -0.4344  0.5276  0.8439
 4565SOL     OW25153   0.849   2.486  14.321  0.1283 -0.5590  0.0852
 4565SOL    HW125154   0.919   2.528  14.373 -0.4641  2.8084 -1.8093
 4565SOL    HW225155   0.780   2.550  14.340 -0.0359 -1.4418  2.4659
 4566SOL     OW25156   3.931   2.981   4.821 -0.5336  0.0245  0.0501
 4566SOL    HW125157   3.864   3.016   4.761  1.1302  1.4518 -0.9773
 4566SOL    HW225158   3.981   2.920   4.766 -2.4001 -2.7594  1.4622
 4567SOL     OW25159   3.466   3.533   3.208 -0.3470 -0.1907 -0.7556
 4567SOL    HW125160   3.416   3.532   3.291  0.1268 -1.4053 -0.4940
 4567SOL    HW225161   3.454   3.449   3.165  1.8108  0.5937 -2.8553
 4568SOL     OW25162   1.672   1.428  13.614 -0.0171 -0.2577 -0.2470
 4568SOL    HW125163   1.701   1.343  13.579  0.8625 -0.1905  0.3052
 4568SOL    HW225164   1.587   1.417  13.656  0.2328 -0.4346  0.2080
 4569SOL     OW25165   0.439   3.929  14.073 -0.5656  0.2152 -0.5493
 4569SOL    HW125166   0.384   3.962  14.002 -1.3209 -0.6135 -0.3382
 4569SOL    HW225167   0.385   3.939  14.151  0.3044 -0.9976  0.1931
 4570SOL     OW25168   4.344   4.239  13.560  0.2198  0.0752  0.2090
 4570SOL    HW125169   4.410   4.305  13.580  0.6334 -0.5953  1.0828
 4570SOL    HW225170   4.278   4.260  13.626  1.4688 -0.8711  1.7543
 4571SOL     OW25171   3.189   4.400  12.074  0.8427 -0.0851  0.0350
 4571SOL    HW125172   3.263   4.457  12.095  0.1357  1.3129 -1.2845
 4571SOL    HW225173   3.138   4.454  12.015 -1.7464 -0.5748  1.8207
 4572SOL     OW25174   1.053   2.692  13.260 -0.0868 -0.5032 -0.1987
 4572SOL    HW125175   1.069   2.738  13.343  1.5797  0.1979 -0.9250
 4572SOL    HW225176   1.022   2.766  13.208  0.0186  1.1631  2.0949
 4573SOL     OW25177   0.725   0.236   3.635  0.3217  0.0492  0.5397
 4573SOL    HW125178   0.806   0.198   3.602 -0.7058 -1.1714 -0.5854
 4573SOL    HW225179   0.662   0.176   3.595  0.0092  2.6932 -2.9582
 4574SOL     OW25180   4.214   4.562   9.351  0.3335 -0.2861 -0.4275
 4574SOL    HW125181   4.141   4.501   9.341 -0.3869  0.5734 -0.4367
 4574SOL    HW225182   4.189   4.629   9.287 -0.4217  0.4719  0.6612
 4575SOL     OW25183   3.232   0.040   3.140  0.6391  0.0943  0.1506
 4575SOL    HW125184   3.178   0.055   3.062 -0.0688  0.9712  0.8019
 4575SOL    HW225185   3.314   0.039   3.091  2.1667  1.3511  2.6919
 4576SOL     OW25186   3.518   0.349   5.877  0.4579  0.3293  0.3529
 4576SOL    HW125187   3.611   0.337   5.860 -0.2470 -1.4755 -2.2764
 4576SOL    HW225188   3.524   0.443   5.892  0.3500  0.7745 -2.4222
 4577SOL     OW25189   2.238   4.614   8.869 -0.2486 -0.1599  0.0474
 4577SOL    HW125190   2.169   4.573   8.922  0.5303 -1.0240  0.3862
 4577SOL    HW225191   2.186   4.687   8.835  1.4370  0.6336 -0.7826
 4578SOL     OW25192   0.492   2.068   4.853  0.2225  0.0474  0.0259
 4578SOL    HW125193   0.461   2.039   4.767  0.8082 -1.0636  0.1898
 4578SOL    HW225194   0.559   2.128   4.823 -0.9370  1.5511  0.4547
 4579SOL     OW25195   3.411   3.381   0.593  0.2938 -0.0956 -0.2108
 4579SOL    HW125196   3.456   3.439   0.531 -0.7187  2.2441  1.2244
 4579SOL    HW225197   3.460   3.419   0.666  1.3291 -0.9911 -0.4414
 4580SOL     OW25198   1.702   4.148   1.982  0.2234 -0.4332 -0.4619
 4580SOL    HW125199   1.656   4.215   2.033  2.0536  2.0653 -2.1379
 4580SOL    HW225200   1.750   4.201   1.919  0.3461  2.1560  1.8009
 4581SOL     OW25201   0.198   4.442  15.027  0.4690 -0.1148  0.1387
 4581SOL    HW125202   0.235   4.459  15.114 -1.0840  2.3079  0.3346
 4581SOL    HW225203   0.195   4.347  15.024  2.3302 -0.0836 -2.4485
 4582SOL     OW25204   1.430   3.677  16.238 -0.4325 -0.0588 -0.4105
 4582SOL    HW125205   1.515   3.634  16.254 -0.0134  0.3906 -1.4036
 4582SOL    HW225206   1.370   3.640  16.302 -0.0104 -0.1827 -0.0829
 4583SOL     OW25207   4.404   3.106   3.154  0.2702 -0.3160  0.5066
 4583SOL    HW125208   4.492   3.143   3.151 -0.3397  1.0967  0.1083
 4583SOL    HW225209   4.397   3.101   3.059 -1.7305 -0.0643  0.6371
 4584SOL     OW25210   4.232   1.670   1.653 -0.2264  0.5468 -0.0113
 4584SOL    HW125211   4.316   1.625   1.655 -0.2501  0.5299  0.5835
 4584SOL    HW225212   4.265   1.759   1.670  1.8411 -0.3451  0.6137
 4585SOL     OW25213   0.096   3.510  13.323 -0.2358  0.1609  0.7635
 4585SOL    HW125214   0.044   3.481  13.247 -1.2907  1.9157  0.8204
 4585SOL    HW225215   0.183   3.477  13.302 -0.5845 -1.6821  2.1553
 4586SOL     OW25216   0.665   2.683   4.063 -0.8154 -0.6141 -0.4452
 4586SOL    HW125217   0.759   2.703   4.066 -0.4365 -2.3661 -0.5474
 4586SOL    HW225218   0.671   2.595   4.026  0.2819 -1.0846  0.8472
 4587SOL     OW25219   3.830   0.042   2.208  0.0412 -0.0010  0.6494
 4587SOL    HW125220   3.866   0.039   2.120  0.7332  1.0448  0.8931
 4587SOL    HW225221   3.738   0.042   2.182  0.0739 -2.5722  0.5349
 4588SOL     OW25222   1.726   4.416  11.896 -0.2799 -0.0887 -0.0542
 4588SOL    HW125223   1.710   4.503  11.933 -0.4522 -1.0487  2.0818
 4588SOL    HW225224   1.743   4.373  11.980  1.5142 -1.6060 -1.1993
 4589SOL     OW25225   3.103   3.298   5.600 -1.0915  0.0057  0.4682
 4589SOL    HW125226   3.117   3.213   5.641 -0.7360 -1.0354 -1.8150
 4589SOL    HW225227   3.098   3.358   5.674 -2.0511 -0.1023  0.4971
 4590SOL     OW25228   0.950   3.177   7.398  0.3741 -0.3934 -1.2196
 4590SOL    HW125229   0.882   3.183   7.465 -0.2486  1.9164 -2.0508
 4590SOL    HW225230   0.998   3.260   7.405  1.1830 -1.0765  1.3982
 4591SOL     OW25231   0.787   3.523  15.919 -0.0619 -0.0863  0.1725
 4591SOL    HW125232   0.716   3.586  15.906 -0.7049 -0.4400  2.0305
 4591SOL    HW225233   0.743   3.497  16.000 -0.1333 -0.4996  0.0033
 4592SOL     OW25234   3.502   0.863   6.769  0.4731 -0.1750 -0.9124
 4592SOL    HW125235   3.515   0.769   6.785  0.4940  0.1999  1.2541
 4592SOL    HW225236   3.556   0.906   6.835 -0.1132  1.2172 -1.3490
 4593SOL     OW25237   4.436   2.125  17.387 -0.0548 -0.1093  1.2475
 4593SOL    HW125238   4.363   2.186  17.381 -1.2303 -1.8857 -2.2148
 4593SOL    HW225239   4.394   2.060  17.444  1.4332 -0.6229  1.7693
 4594SOL     OW25240   3.124   0.597  10.258  0.3127  0.2482  0.0447
 4594SOL    HW125241   3.062   0.527  10.278  0.1711  0.2311 -0.4481
 4594SOL    HW225242   3.087   0.647  10.185  0.0513  2.3194  1.5975
 4595SOL     OW25243   0.458   1.323  15.789 -0.1090  0.5668 -0.1451
 4595SOL    HW125244   0.543   1.363  15.771 -0.3555  0.2143 -2.0861
 4595SOL    HW225245   0.415   1.378  15.854 -0.8653 -1.2216  0.8675
 4596SOL     OW25246   0.448   0.195   2.049 -0.3424 -0.0313 -0.3114
 4596SOL    HW125247   0.485   0.149   2.124  1.3588  2.0301  0.0957
 4596SOL    HW225248   0.518   0.185   1.984 -1.4066 -1.7155 -1.2220
 4597SOL     OW25249   3.833   2.736   4.127  0.2341  0.2433 -0.3008
 4597SOL    HW125250   3.833   2.682   4.207  1.9341  1.8640  0.8141
 4597SOL    HW225251   3.764   2.797   4.151  0.3653  0.4191 -0.3655
 4598SOL     OW25252   2.801   3.537   7.157  0.0406 -0.0501  0.1293
 4598SOL    HW125253   2.751   3.553   7.237 -1.7323 -2.4648 -0.4836
 4598SOL    HW225254   2.867   3.606   7.154 -0.4115  0.3908  0.4699
 4599SOL     OW25255   2.875   2.574   4.955 -0.2073 -0.3256  0.2011
 4599SOL    HW125256   2.829   2.614   4.881 -0.1627  0.1715  0.4453
 4599SOL    HW225257   2.878   2.653   5.008  0.7514 -1.3740  1.7222
 4600SOL     OW25258   3.102   0.889  14.980 -0.0133  0.4003  0.3814
 4600SOL    HW125259   3.191   0.897  14.946 -0.6059  2.2926 -0.7341
 4600SOL    HW225260   3.080   0.821  14.916  2.6787 -0.3245  0.2242
 4601SOL     OW25261   4.074   4.566   6.993  0.5687 -0.8615 -0.4382
 4601SOL    HW125262   4.125   4.613   7.059 -0.0309  0.0356 -0.6179
 4601SOL    HW225263   4.088   4.626   6.920  0.5790  0.0784  0.3393
 4602SOL     OW25264   3.765   3.074   5.859 -0.5998  0.3057  0.3154
 4602SOL    HW125265   3.802   3.007   5.916 -1.3995 -0.6087 -0.2485
 4602SOL    HW225266   3.702   3.113   5.919  1.1429  1.0944  1.6523
 4603SOL     OW25267   4.525   1.442   4.259 -0.1211 -0.0672 -0.2028
 4603SOL    HW125268   4.478   1.525   4.266  0.5970  0.3932 -0.7646
 4603SOL    HW225269   4.608   1.460   4.215 -0.5881  1.6455 -0.4008
 4604SOL     OW25270   2.667   2.671  15.972 -1.0843 -0.4471  0.0589
 4604SOL    HW125271   2.642   2.759  15.944 -1.8468 -1.4522 -2.3657
 4604SOL    HW225272   2.759   2.677  15.949 -1.0696 -4.3325 -0.8078
 4605SOL     OW25273   1.312   1.752   8.478 -0.0189  0.1147  0.1881
 4605SOL    HW125274   1.341   1.731   8.567  0.4097  0.7188  0.1918
 4605SOL    HW225275   1.348   1.840   8.478 -1.9809  0.8934 -0.4553
 4606SOL     OW25276   2.148   4.665   9.421  0.2250  0.2939 -0.1102
 4606SOL    HW125277   2.202   4.700   9.351 -0.3628  1.0149 -0.2058
 4606SOL    HW225278   2.074   0.000   9.425 -0.6950 -0.6763 -2.2408
 4607SOL     OW25279   4.131   3.756   4.261 -0.1927 -0.3787 -0.2975
 4607SOL    HW125280   4.130   3.742   4.356 -0.0342  2.1604  0.1003
 4607SOL    HW225281   4.161   3.673   4.224 -0.5467 -0.5011 -0.3065
 4608SOL     OW25282   3.875   2.888   6.041 -0.2891  0.9256 -0.2429
 4608SOL    HW125283   3.965   2.868   6.066 -1.4690  0.5702  3.7103
 4608SOL    HW225284   3.823   2.815   6.075 -0.3397  0.8266 -0.5329
 4609SOL     OW25285   3.843   3.243  15.748 -0.0345  0.0568  0.7458
 4609SOL    HW125286   3.749   3.249  15.732  0.0198 -0.2258  0.2960
 4609SOL    HW225287   3.853   3.328  15.790 -2.2277  1.3901 -1.4513
 4610SOL     OW25288   1.426   1.226   9.016 -0.0868  0.0512 -0.0256
 4610SOL    HW125289   1.503   1.247   8.962 -0.4196 -0.4933 -0.7119
 4610SOL    HW225290   1.474   1.244   9.097 -0.0780 -0.7699  0.1524
 4611SOL     OW25291   2.687   2.846   1.825 -0.1680  0.4987  0.0975
 4611SOL    HW125292   2.731   2.801   1.896  0.4186  1.1345  0.1396
 4611SOL    HW225293   2.600   2.839   1.863  0.3499  0.7955  1.3241
 4612SOL     OW25294   1.760   3.268  10.993 -0.0913  0.1362 -0.0664
 4612SOL    HW125295   1.739   3.328  10.922 -0.4781  0.5884  0.4274
 4612SOL    HW225296   1.716   3.186  10.970  0.9556 -0.4515  0.0291
 4613SOL     OW25297   1.783   3.736   3.518  0.0472  1.0399  0.0116
 4613SOL    HW125298   1.858   3.795   3.528 -0.3650  1.2537  1.8664
 4613SOL    HW225299   1.731   3.778   3.587  0.1941  3.1544 -1.1633
 4614SOL     OW25300   2.494   1.779   1.968 -0.2648  0.0819 -0.2297
 4614SOL    HW125301   2.414   1.827   1.946  0.1512  0.2916 -1.3087
 4614SOL    HW225302   2.521   1.730   1.891 -0.6833  1.2623 -1.1367
 4615SOL     OW25303   1.409   1.886   7.332 -0.3769  0.9359  0.1033
 4615SOL    HW125304   1.381   1.976   7.349 -0.8932  1.1710 -2.1330
 4615SOL    HW225305   1.427   1.848   7.419  0.1606 -0.4008 -0.5828
 4616SOL     OW25306   0.695   1.455   3.638  0.7205 -0.2484 -0.0943
 4616SOL    HW125307   0.690   1.539   3.592 -1.8143 -1.0537 -1.2764
 4616SOL    HW225308   0.615   1.409   3.612  1.8258 -1.5003 -1.2154
 4617SOL     OW25309   3.853   1.440  14.229 -0.0548 -0.4811  0.1736
 4617SOL    HW125310   3.851   1.530  14.196  1.0571 -0.9380 -1.1198
 4617SOL    HW225311   3.927   1.446  14.288  0.6374 -1.3858 -0.6055
 4618SOL     OW25312   0.314   3.863   2.962 -0.3269  0.4126 -0.5463
 4618SOL    HW125313   0.243   3.862   3.027  0.2809 -0.9637  0.1090
 4618SOL    HW225314   0.386   3.895   3.017  0.2505  0.2119 -1.1885
 4619SOL     OW25315   0.028   1.463   3.309 -0.2904  0.5303 -0.3034
 4619SOL    HW125316   4.686   1.526   3.333  2.0194  2.5436  0.9747
 4619SOL    HW225317   0.083   1.464   3.387 -2.2562  2.7346  1.0584
 4620SOL     OW25318   1.895   1.589   3.690 -0.2778  0.3068 -0.3027
 4620SOL    HW125319   1.877   1.507   3.644  0.4445 -0.4858  0.8412
 4620SOL    HW225320   1.918   1.553   3.776 -0.9209 -0.0543 -0.2876
 4621SOL     OW25321   1.807   3.309   7.646  0.5571 -0.2590  0.1084
 4621SOL    HW125322   1.765   3.224   7.632 -0.0493 -0.6449  4.2359
 4621SOL    HW225323   1.851   3.330   7.564  1.3390  1.3494  0.9348
 4622SOL     OW25324   1.338   4.690   7.538 -0.6757  0.5284  0.0023
 4622SOL    HW125325   1.329   0.060   7.543  1.1956  0.7114 -0.0438
 4622SOL    HW225326   1.270   4.672   7.603 -1.6591  0.0309 -1.1720
 4623SOL     OW25327   0.521   2.060  10.707  0.4531 -0.4809 -0.0238
 4623SOL    HW125328   0.471   2.088  10.783 -0.4634 -1.0158 -0.4327
 4623SOL    HW225329   0.531   2.142  10.659 -2.0450  0.5152  1.1921
 4624SOL     OW25330   0.212   1.693   0.225  0.0173 -0.1750  0.5799
 4624SOL    HW125331   0.174   1.770   0.268 -0.2761  0.3664 -0.6327
 4624SOL    HW225332   0.305   1.711   0.236 -0.0048 -0.3142  0.9845
 4625SOL     OW25333   1.713   1.282   3.852 -0.5916  0.2619 -0.0227
 4625SOL    HW125334   1.732   1.348   3.918  1.2917 -0.9751  0.6761
 4625SOL    HW225335   1.648   1.332   3.802 -0.6457  1.3066  1.0905
 4626SOL     OW25336   2.858   1.617   6.303 -0.1554 -0.2858  0.1904
 4626SOL    HW125337   2.860   1.637   6.210  2.2172 -1.1126  0.0546
 4626SOL    HW225338   2.847   1.522   6.296 -1.1586 -0.2694  1.5376
 4627SOL     OW25339   2.630   0.822   2.400 -0.1851  0.3182 -0.0601
 4627SOL    HW125340   2.642   0.899   2.343  2.3799 -0.7849 -1.0084
 4627SOL    HW225341   2.546   0.792   2.366 -0.6368  1.5366 -0.0455
 4628SOL     OW25342   1.946   0.135   9.461 -0.0048 -0.3503 -0.2804
 4628SOL    HW125343   1.972   0.178   9.543 -2.1873  2.9019 -1.3097
 4628SOL    HW225344   1.852   0.125   9.476  0.1303  0.4252  1.1031
 4629SOL     OW25345   2.537   0.855   6.412 -0.5723 -0.0119 -0.2298
 4629SOL    HW125346   2.473   0.804   6.363 -0.5441 -0.5676  0.3287
 4629SOL    HW225347   2.491   0.884   6.490 -1.1687  2.8324 -1.6268
 4630SOL     OW25348   4.156   2.486   6.609  0.3728 -0.3686 -0.1914
 4630SOL    HW125349   4.182   2.576   6.590  0.4479 -0.2576  0.4379
 4630SOL    HW225350   4.181   2.486   6.702 -0.0795 -2.3626 -0.0517
 4631SOL     OW25351   1.811   2.216   5.151 -0.3263 -0.1144  0.0475
 4631SOL    HW125352   1.778   2.130   5.178  0.9434 -0.1648  1.4693
 4631SOL    HW225353   1.887   2.184   5.104 -0.4944  1.0152 -0.9736
 4632SOL     OW25354   3.841   1.057   7.650 -0.5637 -0.4259 -0.8947
 4632SOL    HW125355   3.824   1.149   7.627 -1.5143 -0.5124 -0.5535
 4632SOL    HW225356   3.904   1.061   7.722  0.0521  3.8420 -1.6540
 4633SOL     OW25357   1.390   1.245   5.846  0.0705  0.4263 -0.2201
 4633SOL    HW125358   1.359   1.330   5.814 -0.0342  0.8769  1.0851
 4633SOL    HW225359   1.320   1.206   5.897 -1.2045  3.1133  0.0997
 4634SOL     OW25360   0.240   0.262   0.200 -0.0682  0.6190 -0.1574
 4634SOL    HW125361   0.208   0.339   0.247  1.1342  1.0906 -0.1300
 4634SOL    HW225362   0.254   0.282   0.107  0.9358  0.3513 -0.0535
 4635SOL     OW25363   4.201   4.685  13.888 -0.2099 -0.0675 -0.2410
 4635SOL    HW125364   4.262   0.027  13.916  0.7351 -0.3535 -1.6118
 4635SOL    HW225365   4.219   4.617  13.953 -1.0888  0.2331  0.3175
 4636SOL     OW25366   4.681   3.776   5.316  0.7046  0.2151  0.1417
 4636SOL    HW125367   4.643   3.695   5.283  1.7595 -0.0855 -0.3608
 4636SOL    HW225368   4.604   3.832   5.321  2.0244  2.0918 -0.7379
 4637SOL     OW25369   0.237   0.452   4.815 -0.4730  0.2464 -0.2256
 4637SOL    HW125370   0.147   0.471   4.842 -0.4457 -1.4539  1.0132
 4637SOL    HW225371   0.278   0.537   4.830 -0.3364 -0.0802  1.2877
 4638SOL     OW25372   3.234   3.253   1.825  0.0327 -0.6393 -0.6633
 4638SOL    HW125373   3.231   3.349   1.824 -0.3171 -0.6748 -2.3685
 4638SOL    HW225374   3.226   3.227   1.917  0.1328 -0.6494 -0.6568
 4639SOL     OW25375   0.665   3.844   9.334  0.5714 -0.1471 -0.4573
 4639SOL    HW125376   0.745   3.804   9.298 -0.4612 -2.7296  0.1015
 4639SOL    HW225377   0.655   3.785   9.409 -1.2073  0.2931 -0.3612
 4640SOL     OW25378   1.926   0.373   3.638 -0.2072 -0.3892 -0.2369
 4640SOL    HW125379   1.929   0.308   3.709 -1.3778 -0.9214 -0.6785
 4640SOL    HW225380   1.900   0.316   3.566 -1.1187 -0.4022  0.1052
 4641SOL     OW25381   3.448   2.991   8.581 -0.7564  0.7411 -0.1639
 4641SOL    HW125382   3.446   2.990   8.676  2.2762  2.1146 -0.0791
 4641SOL    HW225383   3.536   3.022   8.557 -0.2362 -1.2849 -0.8615
 4642SOL     OW25384   3.183   2.173   7.671  0.4588  0.0443 -0.1734
 4642SOL    HW125385   3.255   2.117   7.699  2.4100  1.8987 -1.4547
 4642SOL    HW225386   3.119   2.136   7.731 -0.5649  0.1355 -1.2154
 4643SOL     OW25387   3.021   1.762   5.615  0.0885 -0.0946  0.5569
 4643SOL    HW125388   2.947   1.707   5.641  0.5876 -0.1568  1.8331
 4643SOL    HW225389   3.092   1.729   5.670 -0.1248 -1.0194  0.2842
 4644SOL     OW25390   4.555   3.920   7.993 -0.0320 -0.6576  0.2445
 4644SOL    HW125391   4.523   4.007   8.015  0.1255 -0.5628  0.1019
 4644SOL    HW225392   4.483   3.884   7.942 -0.2443 -3.3416  2.4336
 4645SOL     OW25393   3.048   0.930   5.109  0.0619 -1.0905  0.3579
 4645SOL    HW125394   3.011   0.951   5.023 -1.7570  1.5157  1.7861
 4645SOL    HW225395   3.140   0.944   5.089 -0.0322  0.6520  1.1698
 4646SOL     OW25396   2.440   3.323   2.306 -0.7429 -0.6516 -0.1757
 4646SOL    HW125397   2.479   3.371   2.233 -1.7853 -0.6863 -0.7550
 4646SOL    HW225398   2.360   3.372   2.327 -0.4538 -0.8914  1.5353
 4647SOL     OW25399   3.491   2.344   1.384  0.3555 -0.4667  1.0767
 4647SOL    HW125400   3.453   2.278   1.326  1.3761 -1.5046  1.6011
 4647SOL    HW225401   3.481   2.417   1.323  0.2301 -0.9982  0.4561
 4648SOL     OW25402   3.131   2.834   8.530  0.4218 -0.2074 -0.3323
 4648SOL    HW125403   3.205   2.790   8.572  0.3187 -0.3847 -0.3391
 4648SOL    HW225404   3.082   2.875   8.601 -0.5004 -0.4614 -0.8300
 4649SOL     OW25405   4.722   2.754   1.351  0.3430 -0.4954  0.3057
 4649SOL    HW125406   4.724   2.847   1.326  0.4405 -1.0405 -1.7127
 4649SOL    HW225407   0.031   2.770   1.439  1.1655  2.4857 -0.5342
 4650SOL     OW25408   2.188   4.694   2.937  0.2722 -0.3558 -0.1710
 4650SOL    HW125409   2.150   0.002   3.018 -0.3303 -2.8936  0.6280
 4650SOL    HW225410   2.178   0.035   2.869  0.1865 -0.4122 -0.2142
 4651SOL     OW25411   1.488   0.710  17.513 -0.2225  0.4322  0.1051
 4651SOL    HW125412   1.459   0.711  17.604  1.8744  3.1089  0.7408
 4651SOL    HW225413   1.525   0.798  17.512  1.9980 -0.5190  0.0621
 4652SOL     OW25414   4.160   0.232   5.694 -0.2080 -0.3404  0.4423
 4652SOL    HW125415   4.206   0.309   5.661  0.6154 -2.5420 -3.5827
 4652SOL    HW225416   4.088   0.224   5.632 -0.5533  1.8540  0.5784
 4653SOL     OW25417   2.516   1.096  10.007  0.1162  0.2206  0.1905
 4653SOL    HW125418   2.509   1.002  10.019 -1.5273  0.6658  2.5138
 4653SOL    HW225419   2.607   1.104  10.036  0.4829  0.5031 -1.0197
 4654SOL     OW25420   3.332   2.603  15.756 -0.8018  0.3354 -0.5138
 4654SOL    HW125421   3.315   2.624  15.848  0.4818 -0.4090 -0.1008
 4654SOL    HW225422   3.264   2.538  15.739  1.4176 -2.2542  0.5470
 4655SOL     OW25423   2.484   0.991   1.757  0.0273 -0.5437  0.0198
 4655SOL    HW125424   2.461   1.034   1.839  2.0787  0.7352 -0.0779
 4655SOL    HW225425   2.542   1.057   1.721 -1.5090  0.3309 -0.8103
 4656SOL     OW25426   2.438   3.036   6.614  0.4754  0.8268  0.7872
 4656SOL    HW125427   2.523   3.065   6.579 -1.4829  1.0486 -3.7341
 4656SOL    HW225428   2.422   2.953   6.570 -0.7415  1.6145 -0.2406
 4657SOL     OW25429   0.364   2.367   4.143 -0.2314 -0.0907 -0.4353
 4657SOL    HW125430   0.413   2.292   4.107  0.3658  0.3582 -0.5554
 4657SOL    HW225431   0.272   2.342   4.152 -1.1565  3.1023 -0.9816
 4658SOL     OW25432   3.187   4.398   2.369 -0.7101  0.3550 -0.5545
 4658SOL    HW125433   3.161   4.480   2.326 -0.9487 -0.7617 -2.5105
 4658SOL    HW225434   3.196   4.434   2.458 -2.3509 -0.8280  0.0901
 4659SOL     OW25435   0.567   3.121   3.551 -0.5852 -0.5076  0.3770
 4659SOL    HW125436   0.639   3.134   3.489  0.2267 -1.9568  1.0197
 4659SOL    HW225437   0.607   3.055   3.607  0.9328 -1.2801 -1.6182
 4660SOL     OW25438   0.431   1.431   2.134 -0.0392  0.1018  0.2632
 4660SOL    HW125439   0.338   1.455   2.130 -0.0406 -0.0344 -0.4664
 4660SOL    HW225440   0.454   1.426   2.041  1.3854 -2.6102  0.7727
 4661SOL     OW25441   3.385   0.260  13.102  0.4906 -0.5344 -0.1152
 4661SOL    HW125442   3.292   0.272  13.084  0.5674  0.1402 -0.0829
 4661SOL    HW225443   3.385   0.220  13.189 -1.5541  0.2930  0.2680
 4662SOL     OW25444   0.230   4.532   4.884  0.0910 -0.4050 -0.4583
 4662SOL    HW125445   0.221   4.444   4.920 -1.3764  0.2358  0.7498
 4662SOL    HW225446   0.325   4.529   4.875  0.2356 -1.4331  1.3197
 4663SOL     OW25447   2.823   3.594   6.637  0.1468  0.9801 -0.0524
 4663SOL    HW125448   2.899   3.564   6.588  1.6480 -0.7289  3.3267
 4663SOL    HW225449   2.846   3.680   6.672 -0.1933  0.6938  0.8686
 4664SOL     OW25450   1.251   4.722   9.822 -0.4468  0.1064 -0.0294
 4664SOL    HW125451   1.272   0.048   9.899 -1.4676 -0.6705  0.7806
 4664SOL    HW225452   1.317   0.036   9.765 -2.6675  1.7152 -1.4826
 4665SOL     OW25453   2.168   1.762   8.479 -0.2582  0.0350  0.0800
 4665SOL    HW125454   2.196   1.854   8.477  1.5670 -0.6005 -1.9829
 4665SOL    HW225455   2.248   1.714   8.462  0.3532  1.0319  0.1574
 4666SOL     OW25456   2.571   2.060  13.758  0.2886 -0.4409 -0.3562
 4666SOL    HW125457   2.632   2.007  13.809 -0.5613 -0.7247  0.3689
 4666SOL    HW225458   2.619   2.142  13.756 -2.7861  1.3679  0.1693
 4667SOL     OW25459   3.133   2.257  12.751  0.5249 -0.7070 -0.5844
 4667SOL    HW125460   3.056   2.210  12.720 -1.4027  1.3687  1.0654
 4667SOL    HW225461   3.154   2.208  12.831  1.0021 -1.5040 -1.2047
 4668SOL     OW25462   4.614   2.384   3.527  0.5932 -0.3970  0.1845
 4668SOL    HW125463   4.670   2.460   3.513 -0.7529  0.5227 -0.0913
 4668SOL    HW225464   4.625   2.341   3.442 -1.1960  1.6227 -1.0560
 4669SOL     OW25465   3.377   3.893  14.102  0.2654 -0.0683  0.2521
 4669SOL    HW125466   3.456   3.898  14.155  0.5923 -0.4884 -0.2012
 4669SOL    HW225467   3.343   3.814  14.144  2.0752 -0.2716  1.3156
 4670SOL     OW25468   3.561   3.488   3.656 -0.1243 -0.4638  0.0518
 4670SOL    HW125469   3.532   3.406   3.615 -0.1575 -1.6034  2.3708
 4670SOL    HW225470   3.634   3.518   3.602 -0.8071  1.0943 -0.0066
 4671SOL     OW25471   3.585   2.500  12.734  0.8164  0.1897 -0.1672
 4671SOL    HW125472   3.523   2.518  12.806 -0.0938  1.6650 -1.3215
 4671SOL    HW225473   3.581   2.405  12.741 -0.2663  0.1601 -1.1628
 4672SOL     OW25474   0.375   4.560  10.662  0.3047 -0.3470 -0.4938
 4672SOL    HW125475   0.465   4.549  10.630  1.5574  0.6415  2.6599
 4672SOL    HW225476   0.339   4.497  10.600 -1.0621 -0.0961  0.0600
 4673SOL     OW25477   1.958   1.230  11.455 -0.7922 -0.1937  0.3533
 4673SOL    HW125478   1.919   1.284  11.523  0.3257 -0.1431  0.9521
 4673SOL    HW225479   1.917   1.144  11.462 -2.7277  0.7048  0.2049
 4674SOL     OW25480   1.767   2.323   4.314  0.0455  0.1792 -0.2180
 4674SOL    HW125481   1.691   2.298   4.262 -0.7760  0.8404  0.6665
 4674SOL    HW225482   1.736   2.313   4.404  0.0242 -1.2340 -0.3768
 4675SOL     OW25483   1.874   1.721   9.622 -0.1668  0.0912  0.3509
 4675SOL    HW125484   1.917   1.643   9.586  0.6450  1.1100 -0.8750
 4675SOL    HW225485   1.907   1.715   9.712 -1.7052  0.0664  0.9182
 4676SOL     OW25486   0.462   3.816   6.981 -0.1277 -0.3058 -0.4202
 4676SOL    HW125487   0.473   3.820   6.886 -2.0621 -1.1074 -0.6878
 4676SOL    HW225488   0.367   3.811   6.977 -0.2823  1.5870  1.2472
 4677SOL     OW25489   1.231   4.175   4.650  0.0907 -0.0495 -0.3547
 4677SOL    HW125490   1.191   4.226   4.721  1.4849 -0.6737  0.8762
 4677SOL    HW225491   1.159   4.159   4.589 -0.0801 -0.3943 -0.0677
 4678SOL     OW25492   3.951   1.672   7.443  0.4631 -0.0053 -0.0953
 4678SOL    HW125493   4.007   1.594   7.449  0.6006  0.1490  0.7045
 4678SOL    HW225494   3.878   1.630   7.397  0.0596 -0.0379  0.5799
 4679SOL     OW25495   2.546   1.004   7.561  0.2128 -0.1817 -0.0873
 4679SOL    HW125496   2.489   1.075   7.593  0.4573 -0.8231  1.7260
 4679SOL    HW225497   2.469   0.954   7.535 -0.0617  1.4092 -2.3662
 4680SOL     OW25498   0.171   2.546   2.213 -0.8960 -0.0174 -0.2526
 4680SOL    HW125499   0.153   2.628   2.258  2.0515  0.5313 -0.1087
 4680SOL    HW225500   0.086   2.516   2.180 -1.2162  0.5669  0.0454
 4681SOL     OW25501   1.737   3.640  12.948 -0.2301  0.1575  0.0065
 4681SOL    HW125502   1.662   3.585  12.967  1.3605 -1.5535  1.3497
 4681SOL    HW225503   1.730   3.712  13.010 -1.6463  0.1266 -0.1321
 4682SOL     OW25504   2.467   1.555   3.826  0.0587  0.4210  0.0956
 4682SOL    HW125505   2.404   1.541   3.756  0.1295  0.8303 -0.0519
 4682SOL    HW225506   2.515   1.473   3.814 -1.3267  0.0207 -2.6800
 4683SOL     OW25507   2.820   4.480   8.543  0.0932 -0.5924 -0.4423
 4683SOL    HW125508   2.730   4.512   8.540  0.1948 -0.3992 -1.5356
 4683SOL    HW225509   2.856   4.563   8.512 -1.2341 -0.5254 -1.8101
 4684SOL     OW25510   4.304   1.054  16.145 -0.4770 -0.0317  0.3822
 4684SOL    HW125511   4.366   0.982  16.145  0.9180  1.1651  0.6410
 4684SOL    HW225512   4.326   1.101  16.065 -1.9461  2.1664  1.2593
 4685SOL     OW25513   0.380   2.024   6.233  0.0701 -0.5052 -0.3010
 4685SOL    HW125514   0.295   2.049   6.268 -0.3385 -0.3904 -1.3667
 4685SOL    HW225515   0.408   2.115   6.222  1.6457 -0.8204  1.1416
 4686SOL     OW25516   2.261   2.994   3.832 -0.0948  0.6634 -0.1844
 4686SOL    HW125517   2.201   2.979   3.759  1.8013  2.1807 -2.0924
 4686SOL    HW225518   2.247   3.085   3.859  1.8941  0.5390  1.2122
 4687SOL     OW25519   4.405   3.724   3.355 -0.5339  0.1135 -0.0941
 4687SOL    HW125520   4.393   3.716   3.260 -1.5215  1.4145 -0.0885
 4687SOL    HW225521   4.316   3.712   3.388 -1.0901  0.9326 -1.2865
 4688SOL     OW25522   4.626   3.279   4.883 -0.0831 -1.0548 -0.0258
 4688SOL    HW125523   4.719   3.301   4.892 -0.6117  0.5913  1.2955
 4688SOL    HW225524   4.626   3.202   4.941 -0.0605 -1.7489 -0.9436
 4689SOL     OW25525   0.454   3.481  14.392  0.0590 -0.6650  0.9382
 4689SOL    HW125526   0.509   3.444  14.322 -0.4420  0.6525 -0.1573
 4689SOL    HW225527   0.518   3.468  14.462  3.0176  0.5512 -1.4887
 4690SOL     OW25528   1.878   2.875   3.820 -0.0275  0.1529  0.3325
 4690SOL    HW125529   1.888   2.904   3.911  0.4004  1.4469 -0.1275
 4690SOL    HW225530   1.913   2.786   3.823  1.7881  0.8259 -1.4093
 4691SOL     OW25531   4.440   0.648   3.612 -0.8019 -0.2555  0.7182
 4691SOL    HW125532   4.435   0.643   3.517  1.6713 -2.6290  0.7382
 4691SOL    HW225533   4.352   0.682   3.633 -1.6477  0.7937 -4.5731
 4692SOL     OW25534   3.708   4.152  17.670 -0.4322  0.0142  0.1634
 4692SOL    HW125535   3.724   4.241  17.639  2.8154 -1.3515 -2.1209
 4692SOL    HW225536   3.662   4.165   0.048 -0.8656  0.1339 -0.0924
 4693SOL     OW25537   4.339   0.191  16.597 -0.0327 -0.4513  0.2197
 4693SOL    HW125538   4.380   0.121  16.546 -1.9460 -1.0987 -0.4059
 4693SOL    HW225539   4.422   0.229  16.627 -0.1943 -1.4041  1.9042
 4694SOL     OW25540   3.339   4.006   5.722  0.4597 -0.7077  0.2093
 4694SOL    HW125541   3.353   3.987   5.815  1.5482 -0.7431  0.0399
 4694SOL    HW225542   3.408   4.072   5.712  0.5106 -1.0384 -1.6597
 4695SOL     OW25543   0.850   3.188   2.637  0.0205 -0.2232 -0.0653
 4695SOL    HW125544   0.801   3.120   2.684 -0.8907 -0.0457 -0.7553
 4695SOL    HW225545   0.936   3.175   2.678  0.2148 -3.6704 -1.5540
 4696SOL     OW25546   3.701   4.178   8.607 -0.4699  0.6540  0.3977
 4696SOL    HW125547   3.663   4.116   8.544  1.9040  0.0553 -0.4413
 4696SOL    HW225548   3.778   4.211   8.561 -1.1025 -0.6457 -1.6145
 4697SOL     OW25549   2.278   3.168   4.730 -0.3375  0.1703  0.1154
 4697SOL    HW125550   2.348   3.184   4.666  2.0938 -1.4773  2.3447
 4697SOL    HW225551   2.221   3.243   4.717 -0.5397  0.0281  0.1919
 4698SOL     OW25552   4.276   1.793   5.942 -0.1469 -0.1171 -0.0671
 4698SOL    HW125553   4.324   1.760   5.866  1.9836 -0.1961  1.3031
 4698SOL    HW225554   4.344   1.767   6.004  0.4508 -0.1057 -0.7215
 4699SOL     OW25555   1.479   1.126  11.197  0.4441 -0.4711 -0.3506
 4699SOL    HW125556   1.462   1.115  11.291 -0.1830 -1.6894 -0.5996
 4699SOL    HW225557   1.522   1.042  11.179 -0.4480 -0.6266 -1.7001
 4700SOL     OW25558   0.030   1.000   0.041 -0.5673 -0.6862 -0.0691
 4700SOL    HW125559   0.043   1.056  17.670  1.7962 -1.0235  0.0809
 4700SOL    HW225560   4.682   0.964  17.697 -0.9187  1.2172 -0.9025
 4701SOL     OW25561   2.991   3.350   2.656 -0.2494 -0.1010  0.7775
 4701SOL    HW125562   2.999   3.424   2.716 -1.6477  0.6576  0.0407
 4701SOL    HW225563   2.909   3.305   2.677 -0.8889  0.1303 -1.2451
 4702SOL     OW25564   3.954   4.097  12.998  0.2618  0.3260  0.2365
 4702SOL    HW125565   3.913   4.173  12.957  1.0834  0.2089 -0.7953
 4702SOL    HW225566   3.950   4.120  13.091  1.4419 -1.1713  0.6579
 4703SOL     OW25567   3.845   0.036  10.621 -0.2303 -0.2307 -0.2057
 4703SOL    HW125568   3.890   4.681  10.644 -0.1925 -0.1992 -0.1666
 4703SOL    HW225569   3.755   0.006  10.610 -0.3068 -0.0807  0.0019
 4704SOL     OW25570   3.659   1.677   0.628 -0.0083 -0.3097 -0.3606
 4704SOL    HW125571   3.712   1.601   0.651  0.8574  0.3222 -0.2608
 4704SOL    HW225572   3.581   1.622   0.618  0.3672 -0.9665  0.3242
 4705SOL     OW25573   2.019   4.058   2.399 -0.4204  0.6081 -0.7574
 4705SOL    HW125574   1.989   4.124   2.336  2.4492  1.4928 -1.1770
 4705SOL    HW225575   2.078   4.123   2.437  1.3777 -2.6432  1.9832
 4706SOL     OW25576   2.904   1.322   7.506  0.0250 -0.2985 -0.1754
 4706SOL    HW125577   2.941   1.407   7.480 -1.1284  0.2862  0.0877
 4706SOL    HW225578   2.922   1.286   7.420 -2.4250 -1.0362 -0.3816
 4707SOL     OW25579   4.360   4.423   0.435  0.0800  0.6845 -0.3097
 4707SOL    HW125580   4.316   4.420   0.520 -1.7941  1.5609 -1.2495
 4707SOL    HW225581   4.307   4.482   0.381 -1.8707  0.2358  1.1176
 4708SOL     OW25582   0.454   0.112  15.981 -0.6305  0.1616  0.1783
 4708SOL    HW125583   0.471   0.206  15.974 -1.0307  0.2588  0.5473
 4708SOL    HW225584   0.363   0.105  15.955  0.0097 -2.0660 -1.4259
 4709SOL     OW25585   1.509   3.834  14.861 -0.1137 -0.5903 -0.2835
 4709SOL    HW125586   1.582   3.823  14.922  1.8558  2.3228 -2.1439
 4709SOL    HW225587   1.542   3.802  14.777  1.1782  1.6700 -0.6089
 4710SOL     OW25588   0.544   4.102   3.949 -0.1799 -0.3602  0.5140
 4710SOL    HW125589   0.557   4.196   3.955  1.4649 -0.4174 -1.8460
 4710SOL    HW225590   0.590   4.078   3.868 -0.7471  0.3735 -0.0125
 4711SOL     OW25591   1.548   3.145   6.108 -0.4173  0.0060  0.5284
 4711SOL    HW125592   1.487   3.072   6.102 -0.6575  0.3785 -1.5503
 4711SOL    HW225593   1.572   3.148   6.015 -2.5979 -0.0365 -0.0313
 4712SOL     OW25594   3.594   3.341   6.315  0.3203 -0.0462 -0.0108
 4712SOL    HW125595   3.615   3.250   6.295 -1.8243 -0.1919 -1.5749
 4712SOL    HW225596   3.587   3.339   6.410  0.1409  2.9552  0.0516
 4713SOL     OW25597   3.099   0.701   3.230 -0.4143 -0.0214  0.6245
 4713SOL    HW125598   3.164   0.648   3.276 -0.6144  0.0752  1.0253
 4713SOL    HW225599   3.057   0.738   3.308  3.4951 -1.9802  3.6304
 4714SOL     OW25600   2.799   0.805  14.461 -0.2332 -0.0088  0.2491
 4714SOL    HW125601   2.764   0.890  14.488 -1.8653 -0.2894 -0.9642
 4714SOL    HW225602   2.836   0.821  14.374 -0.6561 -0.2318  0.0294
 4715SOL     OW25603   1.000   3.267   8.467  0.4799 -0.4847  0.8211
 4715SOL    HW125604   0.999   3.299   8.376 -0.2196 -0.4696  0.8388
 4715SOL    HW225605   0.912   3.243   8.495  0.2612  0.3731  0.8694
 4716SOL     OW25606   2.522   2.679   2.197 -0.0815 -0.0811 -0.0260
 4716SOL    HW125607   2.513   2.597   2.246  0.7149 -0.4714 -0.5449
 4716SOL    HW225608   2.528   2.740   2.271 -2.5992 -1.4976  1.3350
 4717SOL     OW25609   1.177   1.898   5.740 -0.1114  0.1670 -0.6650
 4717SOL    HW125610   1.155   1.885   5.832  0.3763  1.8273 -0.3169
 4717SOL    HW225611   1.110   1.839   5.706 -0.2829 -0.7200  1.2073
 4718SOL     OW25612   3.491   3.230   3.621 -0.3991  0.3610 -0.3744
 4718SOL    HW125613   3.455   3.160   3.566  0.1327 -0.8900  0.8611
 4718SOL    HW225614   3.416   3.260   3.673  0.0048 -2.3342  1.7464
 4719SOL     OW25615   0.125   1.202   2.845  0.2183  0.3886 -0.0256
 4719SOL    HW125616   0.094   1.229   2.931  2.8395 -0.5737  1.2010
 4719SOL    HW225617   0.138   1.286   2.801  1.3697 -0.8156 -2.0050
 4720SOL     OW25618   4.012   4.321   8.900 -0.6461 -0.3965  0.2278
 4720SOL    HW125619   3.944   4.257   8.922 -1.0083  0.1034  0.5389
 4720SOL    HW225620   4.093   4.281   8.932 -2.0115 -1.4300  2.4636
 4721SOL     OW25621   4.315   0.178   3.419 -0.0308 -0.4724 -0.4176
 4721SOL    HW125622   4.275   0.093   3.399 -0.5618 -0.6425  1.3741
 4721SOL    HW225623   4.403   0.169   3.382 -0.8810  2.1637 -3.0705
 4722SOL     OW25624   0.164   4.643  12.758 -0.5512  0.6400  0.2057
 4722SOL    HW125625   0.225   4.638  12.684 -0.0657 -0.9555  0.7178
 4722SOL    HW225626   0.119   4.722  12.728  1.3154  1.9759  0.9972
 4723SOL     OW25627   2.938   0.170  14.981 -0.1533  0.1894  0.3009
 4723SOL    HW125628   3.019   0.215  14.960 -0.3869  0.4061 -0.1391
 4723SOL    HW225629   2.893   0.214  15.054 -0.7967  0.5982 -0.3451
 4724SOL     OW25630   3.359   2.111   8.944 -0.1327 -0.0786 -0.4361
 4724SOL    HW125631   3.266   2.125   8.927 -0.5198 -1.2612  0.7240
 4724SOL    HW225632   3.378   2.078   8.856  1.3112  0.3955 -0.3127
 4725SOL     OW25633   3.712   3.761   8.913 -0.5024  0.0846  0.0885
 4725SOL    HW125634   3.716   3.807   8.997 -0.1677 -0.7348  0.5129
 4725SOL    HW225635   3.687   3.671   8.932  1.8773 -0.4772  0.5018
 4726SOL     OW25636   4.496   1.460   7.031 -0.5466  0.4939 -0.1865
 4726SOL    HW125637   4.510   1.371   6.998  3.2160  0.9033  0.2867
 4726SOL    HW225638   4.490   1.441   7.125  1.1616 -0.2407 -0.2189
 4727SOL     OW25639   1.874   3.818   9.575 -0.4889  0.5847 -0.2619
 4727SOL    HW125640   1.900   3.909   9.584 -0.8317  0.8487 -1.9573
 4727SOL    HW225641   1.815   3.825   9.500 -0.1034 -1.0386 -0.7246
 4728SOL     OW25642   1.467   3.266   6.474 -0.1898  0.3304 -0.2640
 4728SOL    HW125643   1.552   3.286   6.435  1.9608  0.0823  4.3235
 4728SOL    HW225644   1.485   3.236   6.563  0.1688  0.6541 -0.2294
 4729SOL     OW25645   0.584   1.988   0.224  0.1300  0.1355  0.2490
 4729SOL    HW125646   0.669   1.980   0.181  0.0786  0.7272  0.0309
 4729SOL    HW225647   0.583   2.081   0.246  0.5092  0.5419 -1.4798
 4730SOL     OW25648   1.983   0.592  15.765  0.1286  0.2036 -0.0074
 4730SOL    HW125649   2.059   0.650  15.772  0.1177  0.3437 -1.0582
 4730SOL    HW225650   1.934   0.644  15.828  0.5398  0.4364  0.1156
 4731SOL     OW25651   3.720   0.473   5.478 -0.2907 -0.3307  0.1542
 4731SOL    HW125652   3.705   0.566   5.495 -0.8983 -0.1432 -1.3994
 4731SOL    HW225653   3.782   0.470   5.406  1.1272  0.3042  1.3656
 4732SOL     OW25654   3.325   1.783   6.223  0.3889  0.3044 -0.4202
 4732SOL    HW125655   3.333   1.765   6.129  1.1263 -0.9662 -0.1113
 4732SOL    HW225656   3.358   1.704   6.265  1.2080  1.2890  0.7867
 4733SOL     OW25657   4.659   2.293  13.550  0.4910 -0.2287 -0.3657
 4733SOL    HW125658   4.571   2.255  13.545  0.4412 -0.3478  1.4823
 4733SOL    HW225659   4.690   2.243  13.626 -1.0312 -0.2920  0.2174
 4734SOL     OW25660   3.398   0.500   8.774  0.1422  0.6812 -0.0975
 4734SOL    HW125661   3.365   0.470   8.859 -1.6659  0.6896 -0.7954
 4734SOL    HW225662   3.468   0.565   8.782  0.4524  0.2271  0.8722
 4735SOL     OW25663   3.384   1.818   7.924  0.4898  0.1920  0.6776
 4735SOL    HW125664   3.323   1.779   7.986  1.2574 -0.1948  1.1936
 4735SOL    HW225665   3.463   1.809   7.977  1.2402  0.3518 -0.4034
 4736SOL     OW25666   1.064   3.908   7.935  0.1749 -0.3913 -0.0588
 4736SOL    HW125667   1.000   3.933   8.001  0.1168 -0.8265  0.0536
 4736SOL    HW225668   1.144   3.946   7.971  0.4506  0.5716 -1.6928
 4737SOL     OW25669   0.770   2.413   8.924 -0.7925  0.1525  0.3967
 4737SOL    HW125670   0.829   2.399   8.998  2.2067 -1.2925 -2.2009
 4737SOL    HW225671   0.738   2.501   8.943  3.3629  1.7181  0.2574
 4738SOL     OW25672   0.171   2.811  14.051 -0.1447  0.2007  0.3579
 4738SOL    HW125673   0.177   2.906  14.055  0.4098  0.1486  0.7175
 4738SOL    HW225674   0.255   2.782  14.015 -1.1832 -0.4407 -1.5242
 4739SOL     OW25675   2.652   3.557   3.114 -0.2176  0.8231 -0.1229
 4739SOL    HW125676   2.591   3.591   3.179  1.6167 -0.3542  2.2093
 4739SOL    HW225677   2.596   3.535   3.040  0.2229  1.4056 -0.6278
 4740SOL     OW25678   3.576   3.301   7.762 -0.4115 -0.0282 -0.0751
 4740SOL    HW125679   3.665   3.306   7.796 -0.4731 -1.2981  0.2960
 4740SOL    HW225680   3.598   3.303   7.669  0.6897 -2.5544  0.1103
 4741SOL     OW25681   3.952   4.029   6.291 -0.3796  0.9526  0.5296
 4741SOL    HW125682   3.925   4.033   6.199  2.6928  0.0657 -0.4202
 4741SOL    HW225683   3.995   3.947   6.314 -0.2408  0.4245 -1.5474
 4742SOL     OW25684   2.128   0.566   4.209 -0.0610  0.0841  0.2999
 4742SOL    HW125685   2.224   0.566   4.203 -0.0702 -1.7482  0.1058
 4742SOL    HW225686   2.108   0.552   4.117  0.2927  1.3944  0.0225
 4743SOL     OW25687   1.567   1.060   3.806 -0.2345 -0.1164  0.1438
 4743SOL    HW125688   1.497   1.037   3.867 -0.2623 -1.9734 -0.5718
 4743SOL    HW225689   1.607   1.138   3.843 -0.3095  0.2451 -0.5350
 4744SOL     OW25690   4.174   1.721   7.060 -0.1525 -0.0187 -0.1379
 4744SOL    HW125691   4.151   1.761   6.977  0.1708 -0.9020 -0.6491
 4744SOL    HW225692   4.143   1.788   7.122  1.2599 -1.6089  2.3173
 4745SOL     OW25693   4.626   3.818   3.794  0.2072 -0.8716 -0.2767
 4745SOL    HW125694   4.588   3.778   3.873 -0.3999 -0.2657 -0.2660
 4745SOL    HW225695   4.561   3.790   3.730 -0.7456 -1.1792  0.8222
 4746SOL     OW25696   1.981   1.944   9.061  0.1889 -0.1942 -0.0935
 4746SOL    HW125697   1.953   1.928   9.151 -1.8416  0.4048 -0.6155
 4746SOL    HW225698   2.054   1.883   9.050  0.7869  0.5644 -0.3456
 4747SOL     OW25699   0.202   1.100   4.190  0.0523 -0.2867 -0.0828
 4747SOL    HW125700   0.263   1.026   4.189  0.1370 -0.2348  1.0279
 4747SOL    HW225701   0.192   1.112   4.095  1.2338  0.0259 -0.1707
 4748SOL     OW25702   1.002   3.381   2.283  0.0540 -0.0364  0.1095
 4748SOL    HW125703   0.955   3.378   2.200 -0.8497 -1.7235  0.6818
 4748SOL    HW225704   0.934   3.392   2.349  0.2516  0.3161  0.2536
 4749SOL     OW25705   2.753   2.614   6.286  0.2720  0.3604 -0.4532
 4749SOL    HW125706   2.689   2.564   6.236  0.2122  0.2811 -0.2959
 4749SOL    HW225707   2.791   2.543   6.338 -0.7493 -0.3161 -0.6275
 4750SOL     OW25708   0.376   2.869   2.852  0.1056 -0.0206  0.6000
 4750SOL    HW125709   0.332   2.925   2.915  0.2530  0.0803  0.6147
 4750SOL    HW225710   0.314   2.797   2.841 -0.4016  0.7299 -1.5008
 4751SOL     OW25711   4.582   3.995  11.613 -0.2442  0.1199 -0.2650
 4751SOL    HW125712   4.609   3.995  11.522 -1.9092  2.4598 -0.7636
 4751SOL    HW225713   4.488   4.009  11.603  0.3887  2.8791 -2.1192
 4752SOL     OW25714   3.784   3.447   7.227  0.4820 -0.5311  0.2090
 4752SOL    HW125715   3.746   3.362   7.203  0.9366 -0.1538 -1.8773
 4752SOL    HW225716   3.791   3.443   7.322 -0.7621  1.4042  0.3910
 4753SOL     OW25717   3.361   0.505   3.631  0.1733  0.3748 -0.3500
 4753SOL    HW125718   3.349   0.505   3.536  1.7354  0.7180 -0.5507
 4753SOL    HW225719   3.419   0.581   3.620 -0.2198  0.9348  1.5565
 4754SOL     OW25720   3.450   0.718  15.258  0.6152  0.0268  0.2877
 4754SOL    HW125721   3.360   0.705  15.227  0.7711  0.9198 -0.5358
 4754SOL    HW225722   3.474   0.797  15.209 -0.1081  1.2053  1.8239
 4755SOL     OW25723   3.603   3.960   0.744 -0.4549  0.3261 -0.0999
 4755SOL    HW125724   3.604   3.960   0.648 -0.1602 -0.1234 -0.0949
 4755SOL    HW225725   3.538   3.890   0.753  0.4981 -0.2689  2.0220
 4756SOL     OW25726   2.567   3.459   4.183 -0.1153 -0.7447 -0.4389
 4756SOL    HW125727   2.584   3.488   4.272  1.8530 -1.7297 -0.4932
 4756SOL    HW225728   2.623   3.520   4.134 -1.1146 -0.4874 -1.2740
 4757SOL     OW25729   4.680   0.548  10.569  0.0015 -0.8628 -0.0343
 4757SOL    HW125730   4.660   0.563  10.477  0.6340 -0.6466 -0.1370
 4757SOL    HW225731   0.045   0.520  10.562  0.2955 -0.5941  2.4863
 4758SOL     OW25732   2.177   0.095   6.538  0.4473 -0.1642  0.2883
 4758SOL    HW125733   2.194   0.001   6.534  0.5531 -0.1084 -0.5228
 4758SOL    HW225734   2.138   0.101   6.450 -2.2956 -1.8105  1.3670
 4759SOL     OW25735   2.697   1.668  11.206  0.3050 -0.2146 -0.4046
 4759SOL    HW125736   2.665   1.700  11.291 -1.1585 -1.4619 -0.5041
 4759SOL    HW225737   2.695   1.755  11.166 -0.1893 -0.2349 -0.4179
 4760SOL     OW25738   1.245   2.225   6.859 -0.5286 -0.0809  0.2544
 4760SOL    HW125739   1.198   2.284   6.916  1.3954  0.3798  1.3641
 4760SOL    HW225740   1.201   2.144   6.886 -1.8976  1.0237  1.3013
 4761SOL     OW25741   2.344   1.098   4.982  0.4386 -0.1723  0.4493
 4761SOL    HW125742   2.340   1.003   4.971 -2.3313 -0.4205  3.4928
 4761SOL    HW225743   2.253   1.113   4.954  0.6238 -0.0545 -0.0800
 4762SOL     OW25744   0.788   2.971   6.234  0.1804 -0.0422  0.4831
 4762SOL    HW125745   0.755   3.051   6.192  0.3170  0.3660  1.1702
 4762SOL    HW225746   0.882   2.986   6.220 -0.1377  2.2751  0.7900
 4763SOL     OW25747   2.912   4.184  12.116  0.3131  0.0692  0.4268
 4763SOL    HW125748   2.973   4.197  12.189 -0.8739  2.3604  1.0084
 4763SOL    HW225749   2.838   4.168  12.174  0.2643 -2.4925 -0.3669
 4764SOL     OW25750   1.518   0.765   6.114  0.8675  0.6177 -0.4673
 4764SOL    HW125751   1.594   0.706   6.116  0.1257 -0.3436 -0.7895
 4764SOL    HW225752   1.529   0.816   6.033 -2.9565  0.8978 -0.8135
 4765SOL     OW25753   4.335   1.228   0.313  0.2572  0.1139 -0.0765
 4765SOL    HW125754   4.318   1.177   0.234  0.3818  0.0837 -0.0842
 4765SOL    HW225755   4.351   1.155   0.373 -1.2565 -0.7061 -0.6919
 4766SOL     OW25756   3.924   1.783  10.604  0.5038  0.0010 -0.5086
 4766SOL    HW125757   3.917   1.867  10.648 -0.3101  0.0191 -0.6729
 4766SOL    HW225758   3.912   1.718  10.673  0.1461 -0.1014 -0.6667
 4767SOL     OW25759   2.018   2.433   0.174  0.5133 -0.5337 -0.4674
 4767SOL    HW125760   2.003   2.501   0.108  0.3291  1.3449  1.4968
 4767SOL    HW225761   2.033   2.365   0.109 -2.6767  0.0287 -1.7637
 4768SOL     OW25762   4.082   1.072   3.233 -0.5883  0.2318 -0.2029
 4768SOL    HW125763   4.112   1.056   3.143 -0.2712  1.2157 -0.2700
 4768SOL    HW225764   4.030   0.994   3.253 -1.1219  0.7424  0.4123
 4769SOL     OW25765   0.095   1.777   1.626  0.4892  0.3507 -0.4534
 4769SOL    HW125766   0.112   1.815   1.712  2.6850 -1.3334 -0.1542
 4769SOL    HW225767   0.089   1.854   1.569 -1.6666  0.2358 -0.4007
 4770SOL     OW25768   1.819   0.418   7.910 -0.5655  0.0878  0.0952
 4770SOL    HW125769   1.819   0.366   7.830  1.0798  0.3380 -0.0676
 4770SOL    HW225770   1.769   0.492   7.876 -0.6624  0.7281  1.6377
 4771SOL     OW25771   1.695   3.625   4.141  0.5836  0.2272 -0.6676
 4771SOL    HW125772   1.690   3.530   4.151 -0.7411  0.2937 -0.6316
 4771SOL    HW225773   1.709   3.650   4.233 -1.2049 -0.8240 -0.1157
 4772SOL     OW25774   2.684   0.188   1.868  0.2038 -0.5161 -0.7314
 4772SOL    HW125775   2.682   0.262   1.807 -2.1053 -0.7434 -0.9604
 4772SOL    HW225776   2.712   0.231   1.949 -1.6399  4.1206 -2.5651
 4773SOL     OW25777   3.576   1.248   3.736 -0.0448  0.2532  0.1244
 4773SOL    HW125778   3.652   1.211   3.781  0.0770  0.9710  0.5101
 4773SOL    HW225779   3.597   1.218   3.648 -1.8901 -2.3409  0.5855
 4774SOL     OW25780   2.284   4.074  15.310  0.0299  0.6173 -0.3960
 4774SOL    HW125781   2.374   4.067  15.281  0.5342 -0.3906  1.4072
 4774SOL    HW225782   2.280   4.169  15.316 -1.7239  0.5637 -0.4906
 4775SOL     OW25783   2.534   4.387  10.809  0.3474 -0.7582  0.0034
 4775SOL    HW125784   2.450   4.355  10.841 -0.0374 -0.6312 -0.8786
 4775SOL    HW225785   2.572   4.429  10.886 -0.5480  0.2194 -0.0848
 4776SOL     OW25786   3.487   3.619  16.009 -0.3365 -0.6472 -0.0307
 4776SOL    HW125787   3.396   3.641  16.026 -0.7539 -1.3077 -1.4608
 4776SOL    HW225788   3.533   3.703  16.011  0.1887 -0.9488  0.7544
 4777SOL     OW25789   1.621   4.409   9.161  0.2514 -0.9092 -0.3470
 4777SOL    HW125790   1.554   4.405   9.230  0.0924  0.4663 -0.4294
 4777SOL    HW225791   1.646   4.500   9.176 -1.1781 -0.6944  0.7407
 4778SOL     OW25792   1.348   2.944  14.134 -0.3295  0.7187  0.7947
 4778SOL    HW125793   1.304   2.952  14.049 -1.6183 -0.6744  1.3390
 4778SOL    HW225794   1.364   3.039  14.140 -2.4567  1.0958  0.4516
 4779SOL     OW25795   3.969   1.044   4.216 -0.1000 -0.3143  0.1081
 4779SOL    HW125796   3.955   1.136   4.238 -1.1304 -0.4151 -0.1255
 4779SOL    HW225797   4.055   1.054   4.175 -0.9128  2.6545 -0.8357
 4780SOL     OW25798   1.927   3.507   2.659 -0.5396 -0.6378 -0.3278
 4780SOL    HW125799   1.889   3.423   2.686 -0.3752 -0.5348  0.2117
 4780SOL    HW225800   1.978   3.534   2.735 -0.7760  1.7895 -1.0452
 4781SOL     OW25801   0.885   4.464   0.850 -0.6790 -0.2429  0.3649
 4781SOL    HW125802   0.941   4.518   0.794  0.6149 -1.0818  0.8481
 4781SOL    HW225803   0.857   4.395   0.791  0.5788  0.9001 -1.5580
 4782SOL     OW25804   0.543   1.610   1.315 -0.0897 -0.1490 -0.5316
 4782SOL    HW125805   0.555   1.523   1.355 -0.8197 -0.5331 -1.1582
 4782SOL    HW225806   0.475   1.653   1.367  1.7558  0.3251  1.5314
 4783SOL     OW25807   2.266   4.224   6.961 -0.3510 -0.0020 -0.0603
 4783SOL    HW125808   2.218   4.281   7.020 -0.0240  0.3318 -0.1192
 4783SOL    HW225809   2.287   4.278   6.885 -1.6445  1.9260  0.9686
 4784SOL     OW25810   1.061   0.184   3.632  0.5658  0.7026  0.5202
 4784SOL    HW125811   1.023   0.161   3.547  0.2014  0.5503  0.7229
 4784SOL    HW225812   1.023   0.123   3.695  1.5105  0.7708  1.1453
 4785SOL     OW25813   4.454   1.420  11.343  0.2984  0.1010 -0.5247
 4785SOL    HW125814   4.525   1.462  11.390  0.0111 -0.4987  0.4392
 4785SOL    HW225815   4.414   1.378  11.419  0.6698 -0.9300 -0.8927
 4786SOL     OW25816   2.444   2.095  14.234 -0.0127  0.4553 -0.5850
 4786SOL    HW125817   2.518   2.109  14.176 -1.4059 -0.0820 -2.4749
 4786SOL    HW225818   2.460   2.161  14.302 -0.2449  0.8524 -0.9119
 4787SOL     OW25819   4.360   0.981   6.928 -0.1496  0.5534  0.0468
 4787SOL    HW125820   4.322   1.068   6.937 -0.0050  0.9223 -2.9649
 4787SOL    HW225821   4.420   1.001   6.856  2.5859 -4.7783  0.8297
 4788SOL     OW25822   2.518   2.756   2.965  0.3747  0.4098  0.1239
 4788SOL    HW125823   2.463   2.789   3.035 -1.7268 -1.6159 -0.5458
 4788SOL    HW225824   2.605   2.771   3.002  0.0864  1.7358  0.2391
 4789SOL     OW25825   1.683   3.751  12.044 -0.4400  0.2728  0.4804
 4789SOL    HW125826   1.687   3.779  11.953  1.2938 -0.2410  0.3862
 4789SOL    HW225827   1.771   3.715  12.055 -0.5737 -0.8999 -2.2788
 4790SOL     OW25828   4.156   1.538   3.949 -0.1569  0.5785  0.5643
 4790SOL    HW125829   4.104   1.576   3.878 -0.7964 -1.0958  0.1502
 4790SOL    HW225830   4.200   1.473   3.895 -1.1759 -0.2974  0.7996
 4791SOL     OW25831   0.927   3.509   8.879  0.2117  0.0128  0.4432
 4791SOL    HW125832   0.974   3.455   8.815  2.2422 -1.0411  2.8233
 4791SOL    HW225833   0.835   3.492   8.857  0.5397 -1.6635  0.4107
 4792SOL     OW25834   2.394   2.898   6.851 -0.6702 -0.1088  0.1570
 4792SOL    HW125835   2.406   2.956   6.775  0.5853 -0.0227  0.4194
 4792SOL    HW225836   2.399   2.962   6.923 -2.1274  1.2405 -0.9473
 4793SOL     OW25837   2.836   0.613  15.546 -0.4863  0.6373  0.0681
 4793SOL    HW125838   2.797   0.560  15.616  0.6216 -2.6310 -1.7849
 4793SOL    HW225839   2.887   0.680  15.593 -0.7038  0.6786  0.2464
 4794SOL     OW25840   0.623   0.211   6.008 -0.1197  0.2356 -1.0396
 4794SOL    HW125841   0.601   0.294   6.051  1.2068 -0.3096  0.7177
 4794SOL    HW225842   0.563   0.203   5.934 -2.5535  1.3942  0.8427
 4795SOL     OW25843   3.928   4.270   1.062 -0.6884  0.1051 -0.3689
 4795SOL    HW125844   3.883   4.317   0.991 -0.0744  0.4209 -0.5466
 4795SOL    HW225845   3.870   4.293   1.135 -2.1061 -1.4431 -0.9908
 4796SOL     OW25846   4.052   2.677   9.373  0.7282  0.8297  0.0565
 4796SOL    HW125847   4.110   2.688   9.449  0.7179 -4.1047  0.7834
 4796SOL    HW225848   4.082   2.594   9.336 -0.2592 -0.0491  1.2335
 4797SOL     OW25849   3.426   1.871   2.148  0.1377  0.4568 -0.0338
 4797SOL    HW125850   3.474   1.802   2.102 -1.0492  2.5469 -4.4264
 4797SOL    HW225851   3.484   1.947   2.145  0.3836  0.2101 -1.6587
 4798SOL     OW25852   3.443   3.686   6.219  0.4251  0.2181 -0.3189
 4798SOL    HW125853   3.519   3.732   6.184  1.8661 -2.1968 -0.3526
 4798SOL    HW225854   3.387   3.751   6.260  0.2590  0.3294 -0.7183
 4799SOL     OW25855   1.059   1.620   3.544  0.2962 -1.0626  0.4027
 4799SOL    HW125856   1.031   1.649   3.458  0.0536 -1.3373  0.3872
 4799SOL    HW225857   1.043   1.526   3.533 -0.7857 -1.1058  2.3105
 4800SOL     OW25858   0.681   0.059   0.842  0.0061 -0.5294 -0.0122
 4800SOL    HW125859   0.653   0.121   0.774 -0.0902 -1.0826 -0.4710
 4800SOL    HW225860   0.775   0.074   0.832 -0.0249 -0.3879 -0.0944
 4801SOL     OW25861   1.406   2.880   4.716  0.5587  0.0166  0.7404
 4801SOL    HW125862   1.460   2.910   4.642 -0.4237  0.9796  0.4113
 4801SOL    HW225863   1.413   2.785   4.706 -0.9001 -0.0638  0.4786
 4802SOL     OW25864   0.325   3.395   4.748 -0.0137  0.1262  0.9652
 4802SOL    HW125865   0.409   3.418   4.789  1.8861 -0.9009 -2.3306
 4802SOL    HW225866   0.267   3.374   4.821 -0.5547  0.8845  0.7487
 4803SOL     OW25867   2.483   0.284   3.634  0.0606  0.2698  0.4239
 4803SOL    HW125868   2.578   0.276   3.647 -0.0028 -1.6049 -0.1563
 4803SOL    HW225869   2.455   0.344   3.702 -2.0178 -1.5055  1.1495
 4804SOL     OW25870   2.186   2.573   6.942  0.1018  0.4523 -0.4488
 4804SOL    HW125871   2.134   2.496   6.966  0.5991  0.0706 -0.6046
 4804SOL    HW225872   2.271   2.533   6.926  1.0375  2.1395  0.2273
 4805SOL     OW25873   4.636   1.623   8.376  0.3008  0.0163  0.2548
 4805SOL    HW125874   4.708   1.612   8.313  2.5276 -1.1324  3.0090
 4805SOL    HW225875   4.589   1.700   8.343  1.3920 -1.0001 -3.7240
 4806SOL     OW25876   3.756   2.276   2.948 -0.1091 -0.0479 -0.4438
 4806SOL    HW125877   3.815   2.211   2.909 -0.6282 -0.2136 -0.9407
 4806SOL    HW225878   3.792   2.358   2.914  1.8738  0.5086  2.9412
 4807SOL     OW25879   2.313   0.050   8.039  0.4295 -0.3872 -0.4536
 4807SOL    HW125880   2.350   0.058   8.127  1.4840 -0.4700 -0.8919
 4807SOL    HW225881   2.295   4.682   8.046 -1.4248  0.0508  0.8269
 4808SOL     OW25882   3.343   2.620   7.243 -0.1126 -0.0804  0.6138
 4808SOL    HW125883   3.292   2.556   7.195  0.8221 -0.6438  0.3654
 4808SOL    HW225884   3.282   2.655   7.308  1.0978  0.1577  1.6303
 4809SOL     OW25885   3.332   3.676   6.539  0.4862 -0.1324  0.3870
 4809SOL    HW125886   3.317   3.589   6.504  1.0991 -0.1900  0.2682
 4809SOL    HW225887   3.279   3.726   6.476 -1.2426 -0.8257  1.3075
 4810SOL     OW25888   1.506   2.737   2.324  0.0382 -0.1680  0.5436
 4810SOL    HW125889   1.464   2.790   2.256 -2.7117  0.8223  2.9741
 4810SOL    HW225890   1.543   2.661   2.280 -2.5076  0.8557 -3.2978
 4811SOL     OW25891   0.910   0.548  15.672 -0.1124  0.2767  0.1581
 4811SOL    HW125892   0.942   0.627  15.715  1.0390  1.1699 -2.3131
 4811SOL    HW225893   0.957   0.567  15.590  0.3420  0.0388  0.3598
 4812SOL     OW25894   2.549   0.108   7.389 -0.5320 -0.3842  0.0116
 4812SOL    HW125895   2.457   0.102   7.361  0.1063  0.5434 -2.2756
 4812SOL    HW225896   2.546   0.045   7.461 -3.8912 -1.2763 -0.8762
 4813SOL     OW25897   1.961   4.092   5.084  0.0512  0.0091  0.6019
 4813SOL    HW125898   2.032   4.030   5.069 -0.0784 -0.3206  1.3545
 4813SOL    HW225899   1.883   4.037   5.084  0.7450 -0.9761  0.3111
 4814SOL     OW25900   4.666   0.233   7.709 -0.2551 -0.4330  0.1014
 4814SOL    HW125901   0.011   0.169   7.713  0.3974  0.3177  0.5532
 4814SOL    HW225902   4.714   0.312   7.684  0.2255 -0.7581  0.0118
 4815SOL     OW25903   4.580   0.475   5.924 -0.2308  0.0059 -0.2745
 4815SOL    HW125904   4.640   0.437   5.859  2.9098  1.1659  1.9450
 4815SOL    HW225905   4.531   0.393   5.935 -0.7206  0.0820 -1.8936
 4816SOL     OW25906   0.333   3.494  13.765  0.9110 -0.1732  0.4230
 4816SOL    HW125907   0.258   3.492  13.705 -0.0996  2.8690  1.5607
 4816SOL    HW225908   0.281   3.482  13.845  0.9379 -1.1278  0.2947
 4817SOL     OW25909   2.810   4.572   6.612 -0.4119 -0.2227 -0.0556
 4817SOL    HW125910   2.831   4.511   6.682  0.0970 -0.3833 -0.3453
 4817SOL    HW225911   2.895   4.586   6.569 -0.3311 -1.5939 -0.3228
 4818SOL     OW25912   2.874   3.018  10.653 -0.4962  0.1165 -0.4186
 4818SOL    HW125913   2.960   2.977  10.654 -0.3438  0.5172  1.2459
 4818SOL    HW225914   2.810   2.947  10.647  0.2340 -0.5877  0.2477
 4819SOL     OW25915   1.139   1.831   8.217  0.3877  0.5645  0.1657
 4819SOL    HW125916   1.135   1.773   8.292 -1.8790  0.7707  0.2018
 4819SOL    HW225917   1.171   1.907   8.266 -0.6694  0.9384  0.2803
 4820SOL     OW25918   0.884   0.876   9.021  1.0998  0.3240  0.0955
 4820SOL    HW125919   0.878   0.884   8.926 -0.5712 -0.8515  0.1143
 4820SOL    HW225920   0.979   0.878   9.033  1.4491 -1.3657 -2.2554
 4821SOL     OW25921   1.385   2.887   3.261 -0.3851 -0.1529 -0.4512
 4821SOL    HW125922   1.342   2.918   3.341 -1.1593 -2.0228 -0.1643
 4821SOL    HW225923   1.404   2.965   3.209 -1.5295  0.7413  0.4861
 4822SOL     OW25924   1.183   4.718   7.036 -0.1552  0.7632  0.1582
 4822SOL    HW125925   1.186   0.020   7.128 -3.1471 -1.0691  0.7936
 4822SOL    HW225926   1.125   4.643   7.048  1.7742 -0.8690 -0.6447
 4823SOL     OW25927   4.570   2.389   8.885  0.3847  0.4894  0.0256
 4823SOL    HW125928   4.584   2.375   8.979 -0.4276 -2.9554 -0.3785
 4823SOL    HW225929   4.529   2.309   8.854 -0.9453  1.8922 -1.8618
 4824SOL     OW25930   2.289   0.422  13.990 -0.5082 -0.0033  0.1571
 4824SOL    HW125931   2.255   0.408  14.079 -0.0367  0.2399  0.3745
 4824SOL    HW225932   2.332   0.341  13.965 -3.0905 -1.4056  0.3013
 4825SOL     OW25933   3.669   2.522   1.145 -0.1943  0.6474 -0.6244
 4825SOL    HW125934   3.576   2.527   1.167  0.0717  0.9553  0.4304
 4825SOL    HW225935   3.705   2.562   1.225 -0.5599 -0.2978  0.0098
 4826SOL     OW25936   0.040   4.003  15.397 -0.3900  0.2113  0.2655
 4826SOL    HW125937   0.010   3.925  15.350 -0.7442  0.6680 -0.2682
 4826SOL    HW225938   0.016   3.984  15.487  0.2813 -0.1504  0.3721
 4827SOL     OW25939   4.175   2.909  13.404 -0.2770 -0.5087 -0.1602
 4827SOL    HW125940   4.222   2.989  13.428 -1.2314  0.1714 -0.5742
 4827SOL    HW225941   4.124   2.907  13.486 -0.5943  0.7558 -0.3330
 4828SOL     OW25942   3.941   3.502  12.517 -0.2259  0.0153 -0.0562
 4828SOL    HW125943   3.853   3.507  12.480 -0.2289 -0.0303 -0.0546
 4828SOL    HW225944   3.948   3.593  12.547 -1.2991  0.3756 -0.9067
 4829SOL     OW25945   1.197   1.884   4.683 -0.2915 -0.0843 -0.5148
 4829SOL    HW125946   1.127   1.937   4.644  0.7443  1.9752  0.3905
 4829SOL    HW225947   1.140   1.823   4.728 -0.6772 -1.2631 -2.5651
 4830SOL     OW25948   0.130   2.639   4.016 -0.5733 -0.8098 -0.2203
 4830SOL    HW125949   0.140   2.716   3.960  0.0983 -0.2418  0.6797
 4830SOL    HW225950   0.211   2.636   4.067  0.3842  0.5709 -1.6685
 4831SOL     OW25951   4.029   1.390   2.488  0.0211  0.4183  0.2666
 4831SOL    HW125952   4.039   1.435   2.404 -2.0290 -1.0844 -0.7949
 4831SOL    HW225953   4.114   1.411   2.527  0.2938 -3.0749  1.6002
 4832SOL     OW25954   0.278   4.625  10.995 -0.1306  0.2103 -0.3460
 4832SOL    HW125955   0.274   4.579  11.079  1.4452  0.5316 -0.1031
 4832SOL    HW225956   0.220   4.569  10.944  0.4511  0.0736 -0.8563
 4833SOL     OW25957   0.787   1.999   8.845 -0.3425 -0.1851 -0.1830
 4833SOL    HW125958   0.802   2.073   8.785 -1.4771  1.4941  1.5967
 4833SOL    HW225959   0.865   2.009   8.900  0.2473 -1.2548 -0.8095
 4834SOL     OW25960   0.512   3.711   3.571 -0.0364 -0.0446 -0.3607
 4834SOL    HW125961   0.581   3.670   3.623 -0.3218  1.5571  1.2776
 4834SOL    HW225962   0.460   3.636   3.544 -1.4345  1.5871 -2.1651
 4835SOL     OW25963   1.360   3.737   1.120 -0.1288  0.0107 -0.5624
 4835SOL    HW125964   1.440   3.784   1.100 -0.1989  0.4400  0.1463
 4835SOL    HW225965   1.374   3.654   1.075 -2.4627 -0.4312 -0.4754
 4836SOL     OW25966   2.563   0.961  15.757  0.1983  0.4478 -0.4559
 4836SOL    HW125967   2.521   1.012  15.827 -1.2008 -1.1687 -0.1284
 4836SOL    HW225968   2.487   0.928  15.710  0.2067 -0.3992  0.1394
 4837SOL     OW25969   1.664   1.005   8.790  0.2305 -0.3316 -0.2664
 4837SOL    HW125970   1.671   0.972   8.880  0.1302  0.6326  0.1002
 4837SOL    HW225971   1.653   1.098   8.811 -1.0463 -0.1059 -1.9808
 4838SOL     OW25972   2.706   2.652  14.600  0.1370 -0.0391  0.1573
 4838SOL    HW125973   2.626   2.667  14.549 -1.1271 -0.8733  1.8762
 4838SOL    HW225974   2.675   2.589  14.665  1.7228 -1.2629 -0.2738
 4839SOL     OW25975   2.327   0.021   2.581 -0.0503  0.4633 -0.1020
 4839SOL    HW125976   2.321   0.043   2.488 -1.3146  0.9803  0.1109
 4839SOL    HW225977   2.258   0.077   2.615  0.8343  1.4466  0.0675
 4840SOL     OW25978   2.993   2.581   8.573 -0.2060  0.1710 -0.2782
 4840SOL    HW125979   2.976   2.665   8.531 -1.0263  0.0030 -0.2872
 4840SOL    HW225980   2.947   2.521   8.514 -1.8749  0.1913  0.9847
 4841SOL     OW25981   3.399   2.768   0.121  0.0162  0.2788  0.1431
 4841SOL    HW125982   3.359   2.681   0.129 -0.9480  0.7451  0.4645
 4841SOL    HW225983   3.383   2.796   0.211 -2.5939 -1.7640  0.3370
 4842SOL     OW25984   4.035   1.239   9.468  0.6607  0.0217  0.7890
 4842SOL    HW125985   4.106   1.251   9.404 -1.2960 -1.5432 -1.7071
 4842SOL    HW225986   4.087   1.170   9.508  1.2434 -0.4211 -0.7373
 4843SOL     OW25987   0.963   4.474   1.133  0.0342 -0.0800  0.5303
 4843SOL    HW125988   0.937   4.513   1.049 -0.5483 -0.1823  0.6614
 4843SOL    HW225989   0.942   4.382   1.120 -0.6650  0.4837 -2.4377
 4844SOL     OW25990   4.068   1.279   5.746 -0.5538  0.0141  0.7126
 4844SOL    HW125991   4.108   1.269   5.660 -1.6905  2.0432 -0.0420
 4844SOL    HW225992   4.098   1.366   5.773  0.7370  0.1994 -1.3363
 4845SOL     OW25993   2.822   3.875   5.394  0.2231  0.2923  0.4173
 4845SOL    HW125994   2.891   3.865   5.329 -0.4541  3.9345 -0.8902
 4845SOL    HW225995   2.852   3.816   5.463  3.3368 -0.6765 -1.8425
 4846SOL     OW25996   1.565   0.902   5.883 -0.1445 -0.5351 -0.2460
 4846SOL    HW125997   1.575   0.972   5.818  0.6793 -0.3140  0.1217
 4846SOL    HW225998   1.612   0.837   5.831  1.9753  1.0178 -0.2309
 4847SOL     OW25999   0.762   0.744   5.183 -0.4850 -0.4769  0.2206
 4847SOL    HW126000   0.776   0.663   5.134 -1.5645 -1.7407  1.9960
 4847SOL    HW226001   0.682   0.760   5.133 -0.7205  0.3848  0.8681
 4848SOL     OW26002   1.210   2.236   5.064  0.2242 -0.2702 -0.1474
 4848SOL    HW126003   1.267   2.266   4.992 -1.1654  0.7652 -0.8138
 4848SOL    HW226004   1.158   2.174   5.013 -1.2936 -0.4981  1.6716
 4849SOL     OW26005   3.554   4.475   2.762  0.3951  0.2433  0.2292
 4849SOL    HW126006   3.602   4.412   2.817  0.5610 -0.2843 -0.5217
 4849SOL    HW226007   3.547   4.412   2.690  0.3730 -1.0833  1.3873
 4850SOL     OW26008   1.174   1.834  14.391  0.4072 -0.3279 -0.4727
 4850SOL    HW126009   1.155   1.921  14.427  2.2863 -0.3247  0.5220
 4850SOL    HW226010   1.240   1.793  14.447 -0.7086 -2.7987 -0.9874
 4851SOL     OW26011   2.829   4.565  13.978 -0.3307  0.5831 -0.1139
 4851SOL    HW126012   2.734   4.563  13.977 -0.3415  1.2478 -0.9305
 4851SOL    HW226013   2.850   4.564  14.071  0.2475  3.1784 -0.2185
 4852SOL     OW26014   1.280   0.724   9.146  0.3671 -0.0176  0.0565
 4852SOL    HW126015   1.278   0.719   9.050 -0.7630 -2.1173  0.1949
 4852SOL    HW226016   1.366   0.683   9.158 -0.3466 -2.0503 -1.7621
 4853SOL     OW26017   4.719   0.462   8.012 -0.3855  0.3356  0.4871
 4853SOL    HW126018   0.006   0.443   7.919 -0.7911 -1.8816  0.8762
 4853SOL    HW226019   4.687   0.553   8.010 -1.0599  0.1895  5.1529
 4854SOL     OW26020   3.458   2.057   1.719  0.3491 -0.3134  0.0607
 4854SOL    HW126021   3.410   1.978   1.744  1.3595 -0.7536  0.5947
 4854SOL    HW226022   3.509   2.070   1.799  0.5645 -0.3039 -0.0780
 4855SOL     OW26023   1.737   4.259  10.637 -0.6227  0.2841 -0.4697
 4855SOL    HW126024   1.812   4.205  10.662 -1.3977 -0.5046  0.1562
 4855SOL    HW226025   1.774   4.346  10.628 -1.4233  0.5346 -1.3425
 4856SOL     OW26026   0.015   3.046  11.247 -0.2818 -0.2584 -0.3161
 4856SOL    HW126027   0.010   3.036  11.152  2.3102 -1.4644 -0.3113
 4856SOL    HW226028   0.029   3.140  11.257  0.4959 -0.4115 -0.0076
 4857SOL     OW26029   3.302   1.805   2.967 -0.1149  0.0163 -0.0154
 4857SOL    HW126030   3.232   1.866   2.988 -1.2128 -1.7644  1.4598
 4857SOL    HW226031   3.299   1.824   2.874  0.1790  1.8332  0.3303
 4858SOL     OW26032   1.530   0.248  14.816 -0.4628 -0.0977 -0.4463
 4858SOL    HW126033   1.462   0.203  14.766  0.1982 -0.0303 -1.3961
 4858SOL    HW226034   1.517   0.335  14.779 -0.4618 -0.6156 -1.6669
 4859SOL     OW26035   0.447   2.310   1.082 -0.0480  0.1294  0.2511
 4859SOL    HW126036   0.400   2.236   1.119  1.4493 -0.9460  0.0084
 4859SOL    HW226037   0.378   2.364   1.045 -0.4638 -0.8604 -0.4002
 4860SOL     OW26038   3.941   1.844   1.000 -0.2564 -0.4822 -0.5344
 4860SOL    HW126039   3.947   1.939   1.012 -0.3052 -0.5058 -0.3305
 4860SOL    HW226040   3.991   1.842   0.919  0.9172  2.5933  0.0850
 4861SOL     OW26041   2.090   2.408   4.461  0.5136  0.0998 -0.0174
 4861SOL    HW126042   2.132   2.494   4.461 -0.6782  0.6913  0.7046
 4861SOL    HW226043   2.132   2.357   4.392 -2.4757 -0.5458 -1.3593
 4862SOL     OW26044   2.829   2.665   2.488  0.1750 -0.1021 -0.0471
 4862SOL    HW126045   2.843   2.726   2.415  1.0132 -2.0692 -1.5440
 4862SOL    HW226046   2.762   2.720   2.528  0.1950 -0.9925  1.1828
 4863SOL     OW26047   1.501   4.461   6.816  0.6777 -0.0315  0.0774
 4863SOL    HW126048   1.510   4.435   6.724  1.2396 -0.9175  0.3802
 4863SOL    HW226049   1.414   4.500   6.807  1.6486  2.3407  1.1547
 4864SOL     OW26050   0.894   0.273   2.907  0.2272 -0.0578 -0.9968
 4864SOL    HW126051   0.959   0.251   2.840 -2.4266 -0.7226 -3.3365
 4864SOL    HW226052   0.840   0.195   2.902  0.1955 -0.0044 -1.4353
 4865SOL     OW26053   3.111   4.004   6.547 -0.3660 -0.0937  0.6109
 4865SOL    HW126054   3.021   4.001   6.514 -0.1400 -1.8186  0.1538
 4865SOL    HW226055   3.127   4.094   6.520  0.1166 -1.1409 -2.6580
 4866SOL     OW26056   0.694   3.681   7.048  0.3002  0.1048 -0.5301
 4866SOL    HW126057   0.622   3.744   7.035 -0.9915 -1.1319  0.6025
 4866SOL    HW226058   0.743   3.729   7.115  0.2024  1.4297 -1.4164
 4867SOL     OW26059   3.647   2.444  15.017  0.1565  0.9388  0.0861
 4867SOL    HW126060   3.694   2.364  14.997  0.0662  0.0816  3.2947
 4867SOL    HW226061   3.578   2.439  14.951 -0.6041 -1.0945  1.0345
 4868SOL     OW26062   0.888   1.385   6.440 -0.3381 -0.3399 -0.3514
 4868SOL    HW126063   0.898   1.334   6.360  0.4929 -1.5997  0.5594
 4868SOL    HW226064   0.975   1.422   6.459 -0.1794 -1.7206  1.5900
 4869SOL     OW26065   4.583   0.710  16.996  0.7475 -0.5045  0.0977
 4869SOL    HW126066   4.630   0.773  17.051 -1.5121  0.2213  1.1972
 4869SOL    HW226067   4.553   0.762  16.921  1.8655  0.3722  0.2526
 4870SOL     OW26068   2.937   2.135  11.598  0.3143  0.1299  0.1738
 4870SOL    HW126069   2.846   2.131  11.568 -0.5957 -0.9918  3.1220
 4870SOL    HW226070   2.933   2.199  11.669  2.6345 -0.3746  0.7551
 4871SOL     OW26071   3.699   3.660   0.086 -0.0365 -0.8412 -0.0178
 4871SOL    HW126072   3.761   3.617   0.027  1.6534 -0.1896  1.2728
 4871SOL    HW226073   3.754   3.692   0.157  1.8632 -1.4596 -1.2144
 4872SOL     OW26074   0.509   2.259   8.894 -0.2196 -0.1090 -0.2062
 4872SOL    HW126075   0.601   2.269   8.871 -0.0456 -2.8345 -0.6859
 4872SOL    HW226076   0.482   2.350   8.901  0.9108  0.2007  0.0481
 4873SOL     OW26077   1.357   3.562   4.235 -0.0174 -0.2702  0.0487
 4873SOL    HW126078   1.314   3.648   4.232 -2.4124 -1.5039 -1.7342
 4873SOL    HW226079   1.425   3.579   4.299 -0.6650  3.1453 -0.1794
 4874SOL     OW26080   1.567   2.610   5.379 -0.4846 -0.2254 -0.0603
 4874SOL    HW126081   1.582   2.525   5.336  1.3864  0.2600 -0.3838
 4874SOL    HW226082   1.624   2.600   5.455 -0.4944  1.9563  0.2306
 4875SOL     OW26083   2.973   0.601  15.903  0.5887 -0.1309  0.5952
 4875SOL    HW126084   2.924   0.678  15.874 -0.5182 -1.3802 -0.8568
 4875SOL    HW226085   2.932   0.532  15.852  1.4686  1.2182 -1.9260
 4876SOL     OW26086   0.603   0.354   2.890  0.1903  0.3364  0.1385
 4876SOL    HW126087   0.587   0.319   2.977  2.4903  0.6087  0.6646
 4876SOL    HW226088   0.697   0.339   2.883  0.0379  0.3957 -2.0447
 4877SOL     OW26089   2.435   0.972   8.827  0.5954  0.4930  0.4222
 4877SOL    HW126090   2.519   0.946   8.865 -0.1053  0.2245  1.7540
 4877SOL    HW226091   2.371   0.989   8.896  1.7691 -0.7753  1.8206
 4878SOL     OW26092   1.418   1.061   9.987  0.4816  0.3063  0.5068
 4878SOL    HW126093   1.346   1.016  10.031 -0.4213  0.4767 -0.8055
 4878SOL    HW226094   1.455   1.124  10.050  0.5150 -0.3389  1.1361
 4879SOL     OW26095   1.260   1.503  14.431 -0.0070  0.1826 -0.3255
 4879SOL    HW126096   1.315   1.433  14.466 -1.5827  0.5661  2.9276
 4879SOL    HW226097   1.176   1.477  14.468 -0.3810 -1.0181 -2.0495
 4880SOL     OW26098   4.476   2.633   8.988  0.2421 -0.0982 -0.2704
 4880SOL    HW126099   4.510   2.629   9.077 -2.2361 -1.0943  0.6290
 4880SOL    HW226100   4.492   2.543   8.960 -1.7129 -0.5958  0.1927
 4881SOL     OW26101   1.874   3.296  13.639 -0.0597  0.0450 -0.2826
 4881SOL    HW126102   1.882   3.339  13.554 -0.9404  0.1342 -0.3285
 4881SOL    HW226103   1.943   3.232  13.623 -1.4827 -1.8318  1.0694
 4882SOL     OW26104   1.392   2.005   6.750 -0.1674  0.3012  0.3239
 4882SOL    HW126105   1.426   1.967   6.832  4.2137  1.8430 -0.7875
 4882SOL    HW226106   1.346   2.077   6.793  1.1750 -0.2216  2.6665
 4883SOL     OW26107   1.462   4.121  14.631  0.4989 -0.3348 -0.1098
 4883SOL    HW126108   1.431   4.031  14.639  1.7010 -0.8290 -0.9728
 4883SOL    HW226109   1.377   4.165  14.623  0.9277  0.6175  0.5636
 4884SOL     OW26110   4.629   4.559  14.811  0.0009 -0.2729 -0.1404
 4884SOL    HW126111   4.546   4.597  14.782  1.4340  2.3848 -0.7299
 4884SOL    HW226112   4.671   4.514  14.738 -0.3247  0.1022 -0.5656
 4885SOL     OW26113   2.971   1.503   3.631 -0.2304 -0.2430  0.3343
 4885SOL    HW126114   3.008   1.471   3.713  1.6831 -0.7641 -0.7242
 4885SOL    HW226115   3.038   1.517   3.564  1.5884 -2.3602  1.7226
 4886SOL     OW26116   4.506   0.094   7.861 -0.0076  0.0521  0.2734
 4886SOL    HW126117   4.546   0.160   7.804 -0.5030  1.8838  2.0046
 4886SOL    HW226118   4.576   0.065   7.919  0.3116 -0.1428 -0.2118
 4887SOL     OW26119   3.083   2.105   0.143 -0.1684 -0.1989  0.1682
 4887SOL    HW126120   3.079   2.125   0.049 -1.3682  0.0187  0.2629
 4887SOL    HW226121   3.025   2.173   0.175 -2.2747 -1.8255 -0.1315
 4888SOL     OW26122   1.749   0.706   8.674 -0.2888 -0.2444 -0.2211
 4888SOL    HW126123   1.735   0.751   8.590 -0.4917 -1.5638 -0.8973
 4888SOL    HW226124   1.698   0.756   8.737 -0.9132 -0.9716 -0.1511
 4889SOL     OW26125   2.065   4.550  11.642  0.1749  0.7659  1.0186
 4889SOL    HW126126   2.112   4.598  11.573  0.4577  2.0310  2.1047
 4889SOL    HW226127   2.122   4.562  11.717  0.4639 -2.0821  1.2537
 4890SOL     OW26128   4.679   1.860  14.934  0.2791  0.2261  0.0581
 4890SOL    HW126129   4.613   1.919  14.970 -0.2221 -0.2334 -0.0972
 4890SOL    HW226130   4.693   1.902  14.849  2.3732 -1.5317 -0.4669
 4891SOL     OW26131   2.679   2.879   3.550 -0.5511  0.1031 -0.5468
 4891SOL    HW126132   2.667   2.851   3.640 -1.5823 -0.0434 -0.7344
 4891SOL    HW226133   2.640   2.966   3.556 -2.0579 -0.5986 -0.0050
 4892SOL     OW26134   3.459   4.577   1.225  0.2969 -0.1077  0.0870
 4892SOL    HW126135   3.520   4.571   1.298 -0.9031  2.1636  1.2612
 4892SOL    HW226136   3.371   4.563   1.262  1.2713 -0.9276  2.0883
 4893SOL     OW26137   3.314   3.987   5.983  0.3499  0.3874 -0.3997
 4893SOL    HW126138   3.388   4.048   5.986  2.0828 -1.6346 -1.5826
 4893SOL    HW226139   3.338   3.937   6.062 -2.7235 -0.3466  0.0671
 4894SOL     OW26140   3.622   0.567   7.619  0.5171  0.6255 -0.2252
 4894SOL    HW126141   3.643   0.489   7.670 -1.0137 -0.0248 -0.5749
 4894SOL    HW226142   3.605   0.637   7.682 -0.1760  0.4548 -0.2174
 4895SOL     OW26143   0.884   3.363   4.632  0.3472  0.4995 -0.7687
 4895SOL    HW126144   0.972   3.359   4.668 -0.0031 -2.9001 -0.3222
 4895SOL    HW226145   0.852   3.273   4.627  1.0157  0.2298 -0.1134
 4896SOL     OW26146   1.494   4.116   5.550 -0.2284  0.0116  0.6339
 4896SOL    HW126147   1.516   4.028   5.519 -0.6018  0.6844 -1.5566
 4896SOL    HW226148   1.400   4.099   5.563 -0.1994 -0.5956  0.0081
 4897SOL     OW26149   0.746   2.834   2.441 -0.3937 -0.3114  0.2348
 4897SOL    HW126150   0.661   2.826   2.485  1.1305  0.6170  3.3201
 4897SOL    HW226151   0.803   2.815   2.515 -0.1021  1.0640  0.3602
 4898SOL     OW26152   0.945   1.566   8.145 -0.2947  0.0679 -0.5250
 4898SOL    HW126153   0.884   1.492   8.144  1.9760 -1.7793 -2.0535
 4898SOL    HW226154   0.890   1.639   8.176 -0.8783 -0.4153 -0.4309
 4899SOL     OW26155   4.322   0.573   7.265 -0.2947 -0.2482 -0.3325
 4899SOL    HW126156   4.288   0.601   7.180  0.0100 -1.1195 -0.7456
 4899SOL    HW226157   4.242   0.558   7.316 -2.2214  0.0254 -3.2748
 4900SOL     OW26158   0.256   4.164  16.689  0.4672 -0.4708  0.7252
 4900SOL    HW126159   0.198   4.118  16.629  1.3485  0.6998 -1.0361
 4900SOL    HW226160   0.211   4.247  16.702 -1.4775 -1.6021  1.1803
 4901SOL     OW26161   1.727   0.594   2.903  0.3743  0.4155  0.5279
 4901SOL    HW126162   1.711   0.607   2.997  0.2287 -0.7141  0.6634
 4901SOL    HW226163   1.818   0.565   2.901  0.0218 -0.6914  0.3764
 4902SOL     OW26164   3.839   1.082   2.278  0.3103 -0.5771 -0.1838
 4902SOL    HW126165   3.919   1.101   2.326  0.8304 -2.2146 -0.4242
 4902SOL    HW226166   3.864   1.006   2.225  2.2688  0.6771 -1.0206
 4903SOL     OW26167   3.631   2.141   1.017 -0.0343 -0.4981  0.5093
 4903SOL    HW126168   3.637   2.142   1.113 -1.5998 -0.6085  0.6151
 4903SOL    HW226169   3.539   2.136   0.991 -0.0553  2.0297  0.0847
 4904SOL     OW26170   1.448   4.370  10.784  0.2757 -0.2199 -0.5137
 4904SOL    HW126171   1.530   4.361  10.833  0.6272  0.4672 -0.9746
 4904SOL    HW226172   1.395   4.302  10.826  0.1948  0.7865  1.0193
 4905SOL     OW26173   4.084   2.078   1.359 -0.0802 -0.1337 -0.7235
 4905SOL    HW126174   4.127   2.052   1.278 -0.2742  0.5402 -1.0400
 4905SOL    HW226175   4.078   1.995   1.407 -3.7385  1.3245  1.2889
 4906SOL     OW26176   4.105   3.874   7.718  0.4090  0.3578 -0.0215
 4906SOL    HW126177   4.145   3.953   7.683  1.2431 -0.1892 -0.2980
 4906SOL    HW226178   4.133   3.815   7.648 -0.3823  1.1836 -1.0414
 4907SOL     OW26179   2.763   0.510   6.524  0.3732 -0.0532  0.7119
 4907SOL    HW126180   2.672   0.496   6.550  0.4576 -0.6440  0.6833
 4907SOL    HW226181   2.745   0.596   6.486  1.2325  0.2013  0.8904
 4908SOL     OW26182   0.054   3.344   4.108  0.4619  0.3483 -0.0834
 4908SOL    HW126183   0.029   3.363   4.198  1.3206  2.0768 -0.2133
 4908SOL    HW226184   4.703   3.298   4.075  1.5873  0.0755 -2.3725
 4909SOL     OW26185   0.328   0.701   4.894  0.5013  0.4417 -0.6160
 4909SOL    HW126186   0.412   0.720   4.934 -0.0138  0.8079  0.3015
 4909SOL    HW226187   0.325   0.779   4.838 -1.1551 -1.2473 -2.9438
 4910SOL     OW26188   2.300   1.933  14.426 -0.4592 -0.2151  0.0422
 4910SOL    HW126189   2.231   1.998  14.436 -0.8419 -0.7254  0.7439
 4910SOL    HW226190   2.351   1.980  14.360  0.0247 -1.3262 -0.3890
 4911SOL     OW26191   0.649   3.198  11.942 -0.0075  0.0398 -0.7343
 4911SOL    HW126192   0.651   3.199  12.038 -0.8826 -2.7413 -0.6845
 4911SOL    HW226193   0.587   3.267  11.915 -0.2693 -0.2757 -0.9466
 4912SOL     OW26194   0.433   1.134   3.209  0.0717 -0.3687 -0.3375
 4912SOL    HW126195   0.377   1.204   3.241  0.2115  0.0094 -0.9123
 4912SOL    HW226196   0.511   1.133   3.264 -0.6247  0.8195  0.6811
 4913SOL     OW26197   0.214   3.740  13.165 -0.0575  0.0176 -0.2334
 4913SOL    HW126198   0.148   3.809  13.158 -0.2221 -0.0604  0.5681
 4913SOL    HW226199   0.159   3.666  13.188 -0.3881  0.8433  1.5972
 4914SOL     OW26200   4.308   0.692   8.959  0.1151  0.1561  0.0704
 4914SOL    HW126201   4.341   0.782   8.964 -1.5688  0.8269 -0.6739
 4914SOL    HW226202   4.323   0.667   9.050  0.4897  1.2353  0.3061
 4915SOL     OW26203   0.391   3.494   3.452 -0.0821 -0.1321 -0.1776
 4915SOL    HW126204   0.311   3.480   3.502  0.1738 -0.7758  0.0521
 4915SOL    HW226205   0.367   3.463   3.365 -1.8411 -0.4993  0.4488
 4916SOL     OW26206   4.232   0.944  11.837  0.4859  0.0595  0.1244
 4916SOL    HW126207   4.258   1.006  11.769 -2.3717  1.9863  0.7945
 4916SOL    HW226208   4.221   0.866  11.782  0.8232  1.1087 -1.4542
 4917SOL     OW26209   3.531   3.664  12.472 -0.0307 -0.0039 -0.2030
 4917SOL    HW126210   3.448   3.712  12.473  2.0017  3.4239  1.7400
 4917SOL    HW226211   3.530   3.622  12.386 -1.1310  1.5466 -0.9502
 4918SOL     OW26212   2.078   0.851   2.509  0.5054  0.6295  0.0692
 4918SOL    HW126213   2.113   0.940   2.509 -0.7349  1.1306  1.0606
 4918SOL    HW226214   2.070   0.847   2.605 -1.1419 -0.1424 -0.1123
 4919SOL     OW26215   4.107   1.726   1.163  0.2593 -0.3331  0.3469
 4919SOL    HW126216   4.183   1.784   1.155 -0.4637  0.6213  0.4448
 4919SOL    HW226217   4.044   1.779   1.114  1.8257  1.6805  0.5407
 4920SOL     OW26218   0.834   1.690   4.095 -0.4359 -0.3317  0.4277
 4920SOL    HW126219   0.830   1.781   4.127  0.7587  0.2700 -1.1332
 4920SOL    HW226220   0.774   1.695   4.020 -0.5235 -0.7966  0.4714
 4921SOL     OW26221   1.564   1.641   7.242  0.2913  0.0755  0.7188
 4921SOL    HW126222   1.614   1.630   7.323 -0.0246 -0.0214  0.8988
 4921SOL    HW226223   1.535   1.729   7.267  0.1803 -0.3238  1.9880
 4922SOL     OW26224   4.410   1.005  14.255 -0.5523 -0.3463 -0.1329
 4922SOL    HW126225   4.358   0.990  14.176  0.3423 -0.3661 -0.7198
 4922SOL    HW226226   4.395   1.098  14.271 -1.3984 -0.7362  1.3557
 4923SOL     OW26227   2.622   3.516  14.642  0.0716 -0.1079  0.0416
 4923SOL    HW126228   2.642   3.476  14.727 -1.6924  0.6552  0.7940
 4923SOL    HW226229   2.530   3.496  14.628 -0.3110  1.3238  0.5438
 4924SOL     OW26230   0.821   4.674   8.105  0.0136 -0.7178 -0.2594
 4924SOL    HW126231   0.899   0.002   8.090  0.9862 -2.0209  0.1000
 4924SOL    HW226232   0.847   4.635   8.188  0.5251  0.0275 -0.0695
 4925SOL     OW26233   1.932   1.321   3.555 -0.2029  0.5712  0.6197
 4925SOL    HW126234   2.004   1.366   3.512 -0.0892 -2.6480 -2.5360
 4925SOL    HW226235   1.950   1.232   3.523 -0.2986  0.2347  1.5089
 4926SOL     OW26236   1.756   3.775  14.961  0.2329  0.0393  0.2964
 4926SOL    HW126237   1.821   3.775  15.032  0.7672  0.1262 -0.1922
 4926SOL    HW226238   1.739   3.681  14.959  0.8683 -0.1152  2.1734
 4927SOL     OW26239   0.933   0.391   9.287  0.5156 -1.3684  1.0180
 4927SOL    HW126240   0.966   0.348   9.208  1.6166  1.7419 -0.2035
 4927SOL    HW226241   0.839   0.377   9.271  0.2761 -0.0218  1.2532
 4928SOL     OW26242   3.751   2.141   8.471  0.3884  0.4957  0.1654
 4928SOL    HW126243   3.845   2.151   8.455 -0.1791  3.0003 -1.6896
 4928SOL    HW226244   3.725   2.227   8.436  0.1350 -0.2655 -1.5410
 4929SOL     OW26245   3.754   1.858   9.411 -0.0250 -0.3652  0.2329
 4929SOL    HW126246   3.739   1.953   9.415 -0.3212 -0.4036  0.0356
 4929SOL    HW226247   3.706   1.824   9.486  0.1165  0.3742  0.6624
 4930SOL     OW26248   0.800   2.777  10.764  0.1570  0.0462 -0.3822
 4930SOL    HW126249   0.878   2.829  10.745 -0.9052  1.1076 -1.8289
 4930SOL    HW226250   0.833   2.708  10.822 -3.1849 -0.6421  0.7388
 4931SOL     OW26251   0.141   3.492  17.246  0.6412 -0.0343  0.1879
 4931SOL    HW126252   0.169   3.576  17.209 -1.6132  0.3057 -0.7145
 4931SOL    HW226253   0.222   3.447  17.268  1.0942  0.2825 -0.8180
 4932SOL     OW26254   2.789   4.245   5.676  0.2868 -0.3416 -0.0948
 4932SOL    HW126255   2.869   4.295   5.662 -0.0938  0.7899  1.8470
 4932SOL    HW226256   2.748   4.254   5.590 -0.5572  0.4119  0.3932
 4933SOL     OW26257   2.667   0.155   7.813 -0.1961  0.4378 -0.2261
 4933SOL    HW126258   2.589   0.191   7.856 -1.4077 -1.9984 -0.4241
 4933SOL    HW226259   2.701   0.234   7.771 -0.4855 -0.4575 -2.1330
 4934SOL     OW26260   2.748   2.957   5.782 -0.4604 -0.5007  0.1190
 4934SOL    HW126261   2.742   3.052   5.772 -0.4785 -0.2399  2.7762
 4934SOL    HW226262   2.659   2.923   5.777 -0.5047 -0.3977  0.2248
 4935SOL     OW26263   4.684   3.444   6.842  0.0361  0.2943 -0.5211
 4935SOL    HW126264   0.026   3.505   6.814 -0.7570  1.4668  0.0841
 4935SOL    HW226265   4.677   3.467   6.934 -1.7441  0.3274 -0.6524
 4936SOL     OW26266   4.632   1.937   3.400  0.1612  0.3604 -0.2131
 4936SOL    HW126267   4.680   1.989   3.464 -1.1177 -0.4618  1.3956
 4936SOL    HW226268   4.549   1.983   3.393 -0.3715 -0.4698  0.5716
 4937SOL     OW26269   0.929   3.947  16.819 -0.4552 -0.1949  0.4426
 4937SOL    HW126270   0.948   3.952  16.725 -0.0736 -2.6201  0.3943
 4937SOL    HW226271   0.842   3.908  16.809 -0.9881  0.5051  2.3746
 4938SOL     OW26272   4.712   3.996   2.818  0.0928  0.2238 -0.9451
 4938SOL    HW126273   4.690   3.966   2.906 -0.3807 -2.3558 -1.9220
 4938SOL    HW226274   0.055   4.062   2.820  1.6839 -1.5288  1.4874
 4939SOL     OW26275   4.392   1.406   1.125  0.0072  0.0737 -0.0356
 4939SOL    HW126276   4.311   1.401   1.075  0.0550 -0.9201 -0.0109
 4939SOL    HW226277   4.440   1.326   1.104  0.4154 -0.3314  2.5058
 4940SOL     OW26278   4.361   4.478   7.814  0.2577 -0.2600  0.1745
 4940SOL    HW126279   4.276   4.442   7.841  0.4025  0.0049  0.9935
 4940SOL    HW226280   4.429   4.442   7.869  1.8549 -0.6708 -2.0888
 4941SOL     OW26281   2.714   4.351   4.108 -0.2729 -0.2064 -0.4203
 4941SOL    HW126282   2.777   4.340   4.036 -0.8560 -2.1503 -0.6367
 4941SOL    HW226283   2.693   4.444   4.109  0.5315 -0.0343  0.8150
 4942SOL     OW26284   3.770   4.292   6.733 -0.4413  0.1747  0.3935
 4942SOL    HW126285   3.740   4.212   6.775  0.5044  0.8982  2.4394
 4942SOL    HW226286   3.829   4.329   6.798  2.9315 -1.5818 -1.6545
 4943SOL     OW26287   3.544   4.315   8.797  0.4608 -0.6778 -0.6179
 4943SOL    HW126288   3.563   4.272   8.714 -1.9973 -1.3502 -0.8531
 4943SOL    HW226289   3.510   4.242   8.849  0.5222 -0.9266 -0.9295
 4944SOL     OW26290   0.334   2.527   7.275 -0.7472  0.4311  0.1678
 4944SOL    HW126291   0.394   2.557   7.343 -0.2096 -0.6248  0.1491
 4944SOL    HW226292   0.311   2.440   7.306 -3.0914  1.0386  0.1513
 4945SOL     OW26293   1.235   0.456  11.034 -0.5106 -0.0449 -0.0100
 4945SOL    HW126294   1.162   0.514  11.054  0.8481  1.9451 -0.8536
 4945SOL    HW226295   1.306   0.515  11.009 -1.0831  0.7183  0.1967
 4946SOL     OW26296   4.380   3.372   7.174  0.0035 -0.0862  0.0957
 4946SOL    HW126297   4.408   3.358   7.083  1.6525 -1.2230  0.7808
 4946SOL    HW226298   4.435   3.450   7.188 -2.2368  1.5098 -0.0198
 4947SOL     OW26299   2.678   3.613   7.385  0.1770 -0.1511 -0.4355
 4947SOL    HW126300   2.601   3.631   7.440 -0.0201  3.2246 -1.8214
 4947SOL    HW226301   2.744   3.663   7.434  1.0512 -0.9882 -0.7675
 4948SOL     OW26302   0.778   2.201  16.439  0.4246 -0.2296 -0.2492
 4948SOL    HW126303   0.803   2.273  16.381  0.3851 -1.0731 -1.3130
 4948SOL    HW226304   0.861   2.154  16.447  0.0236 -0.7411  0.8305
 4949SOL     OW26305   4.162   3.421   8.449 -0.3439 -0.2818  0.2026
 4949SOL    HW126306   4.119   3.342   8.483  1.2015 -0.8528  0.8519
 4949SOL    HW226307   4.189   3.463   8.531 -3.6784  0.5251  0.9131
 4950SOL     OW26308   1.041   1.187  12.508  1.1772 -0.9939 -0.3513
 4950SOL    HW126309   1.070   1.218  12.422 -1.9078  1.7979 -0.3857
 4950SOL    HW226310   0.978   1.120  12.483 -0.3342 -0.4093  1.9500
 4951SOL     OW26311   4.137   1.936   8.597 -0.0089 -0.1289  0.4619
 4951SOL    HW126312   4.164   1.977   8.679 -0.7732  1.6202 -0.1402
 4951SOL    HW226313   4.196   1.985   8.539 -1.0067  0.5486  0.0187
 4952SOL     OW26314   0.010   3.975   7.817  0.1673 -0.4487 -0.2513
 4952SOL    HW126315   0.017   4.070   7.833 -0.6889 -0.4797  0.3129
 4952SOL    HW226316   4.702   3.942   7.900 -0.8434  0.5317 -0.2733
 4953SOL     OW26317   1.993   3.786   7.839  0.8477  0.0405 -0.2948
 4953SOL    HW126318   2.064   3.824   7.788  0.2256  0.9917 -0.4473
 4953SOL    HW226319   2.036   3.785   7.925 -0.4882 -0.6229  0.3718
 4954SOL     OW26320   3.387   3.216   8.759 -0.4739 -0.3356 -0.1375
 4954SOL    HW126321   3.344   3.272   8.694 -0.2166  2.2009  1.9144
 4954SOL    HW226322   3.310   3.170   8.793  0.0439 -1.8190 -0.9596
 4955SOL     OW26323   0.143   0.624   9.930 -0.1446  0.4623  0.0748
 4955SOL    HW126324   0.174   0.660  10.013  0.3412 -1.5413  0.7527
 4955SOL    HW226325   0.195   0.544   9.924  2.8714  2.5111 -0.6878
 4956SOL     OW26326   2.431   3.882  15.455  0.3883  0.5660 -0.5782
 4956SOL    HW126327   2.349   3.931  15.459 -0.1560 -0.2110 -2.5480
 4956SOL    HW226328   2.477   3.908  15.375  1.2132 -0.3735 -0.4069
 4957SOL     OW26329   1.908   2.144   1.742 -0.1705 -0.6654 -0.3514
 4957SOL    HW126330   1.833   2.201   1.727 -0.4589 -1.1556 -0.7798
 4957SOL    HW226331   1.878   2.099   1.821 -1.8381 -0.1121 -0.6696
 4958SOL     OW26332   1.614   3.183   1.138  0.0263 -0.4670  0.4363
 4958SOL    HW126333   1.611   3.101   1.187  0.5324  0.6096  2.2533
 4958SOL    HW226334   1.571   3.158   1.056 -0.3885  0.2948  0.4211
 4959SOL     OW26335   0.789   0.425  17.268  0.3522 -0.1677  0.0087
 4959SOL    HW126336   0.856   0.475  17.314  0.2423  0.5075 -0.5535
 4959SOL    HW226337   0.719   0.489  17.257 -0.8637 -1.7252 -1.4185
 4960SOL     OW26338   0.731   0.981   2.331 -0.3471 -0.1797 -0.3847
 4960SOL    HW126339   0.768   0.900   2.365  1.4826  0.4404 -0.9072
 4960SOL    HW226340   0.704   0.956   2.242  1.1559  0.8665 -1.1335
 4961SOL     OW26341   2.831   3.435  10.612  0.3730 -0.5257 -0.0511
 4961SOL    HW126342   2.798   3.524  10.618  1.9777 -0.0387  1.5510
 4961SOL    HW226343   2.924   3.450  10.630 -0.1116  3.5944 -1.0372
 4962SOL     OW26344   3.317   0.912   5.327 -0.0828 -0.0088  0.0084
 4962SOL    HW126345   3.290   0.907   5.236  0.6960 -0.2029 -0.2116
 4962SOL    HW226346   3.325   1.005   5.349 -0.0664  0.2268 -1.0032
 4963SOL     OW26347   2.016   2.814   7.208 -0.5834  0.3933 -0.3586
 4963SOL    HW126348   2.095   2.766   7.233 -0.8887 -0.5165 -1.1194
 4963SOL    HW226349   1.995   2.865   7.286  0.5703 -1.4736  1.1944
 4964SOL     OW26350   3.664   3.071   6.259 -0.1974 -0.0890 -0.4808
 4964SOL    HW126351   3.749   3.041   6.291  0.0280  2.3904  1.2556
 4964SOL    HW226352   3.608   2.994   6.252 -0.9698  0.2729  1.6843
 4965SOL     OW26353   2.231   1.229   1.415  0.1735  0.1284  0.4805
 4965SOL    HW126354   2.159   1.270   1.464 -0.0237  1.4690 -0.9492
 4965SOL    HW226355   2.289   1.304   1.403 -0.2580  0.6116  1.3434
 4966SOL     OW26356   3.660   4.508   1.039 -0.4763  0.2730  0.0558
 4966SOL    HW126357   3.656   4.428   0.987  0.9235  0.9601 -1.1304
 4966SOL    HW226358   3.682   4.462   1.120 -1.7087 -0.0054  0.2250
 4967SOL     OW26359   1.325   2.261   6.030  0.2436  0.8158 -0.0296
 4967SOL    HW126360   1.283   2.291   6.110  1.3697  0.8534  0.5499
 4967SOL    HW226361   1.313   2.167   6.044  0.9520  0.8742  0.9945
 4968SOL     OW26362   0.472   0.320   4.788 -0.1559  0.2311  0.3564
 4968SOL    HW126363   0.400   0.383   4.791 -1.0057 -0.8825  3.8742
 4968SOL    HW226364   0.436   0.248   4.840  0.1222 -0.2914 -0.1703
 4969SOL     OW26365   0.805   3.235   9.331  0.2069  0.5946 -0.0635
 4969SOL    HW126366   0.795   3.311   9.390 -0.2056  2.2111 -2.2305
 4969SOL    HW226367   0.813   3.275   9.245 -0.5562  2.0618  0.5448
 4970SOL     OW26368   0.733   2.877   7.695  0.1952  0.0143 -0.2740
 4970SOL    HW126369   0.815   2.861   7.742 -0.1999 -0.6520  0.1960
 4970SOL    HW226370   0.757   2.941   7.628 -0.5734 -1.0593 -1.5848
 4971SOL     OW26371   3.060   1.404  11.370 -0.0356 -0.1304  0.0104
 4971SOL    HW126372   3.109   1.454  11.304 -0.5078  1.9896  1.2441
 4971SOL    HW226373   3.090   1.316  11.347  0.3755 -0.3398  1.3572
 4972SOL     OW26374   2.493   1.127  11.824 -0.1386 -0.2873  0.1435
 4972SOL    HW126375   2.552   1.192  11.786  0.0656 -0.9487 -0.6608
 4972SOL    HW226376   2.534   1.043  11.807  0.2856 -0.1559  0.5023
 4973SOL     OW26377   2.372   0.914   6.665  0.2775  0.2750 -0.0070
 4973SOL    HW126378   2.381   1.007   6.687  0.8692  1.1539 -3.8989
 4973SOL    HW226379   2.299   0.926   6.604  0.8954  4.0084 -0.0261
 4974SOL     OW26380   2.997   3.681   3.282  0.2700  0.0560  0.1890
 4974SOL    HW126381   3.059   3.615   3.251  0.2517 -0.2380  0.7681
 4974SOL    HW226382   2.993   3.663   3.376  1.6987 -1.8455 -0.1254
 4975SOL     OW26383   2.042   0.341  14.737 -0.3819  0.5734 -0.0509
 4975SOL    HW126384   2.023   0.391  14.657  0.6040  0.1256 -0.5734
 4975SOL    HW226385   1.950   0.328  14.758 -0.9280  1.7773 -1.6895
 4976SOL     OW26386   1.004   0.446   7.189  0.2265 -0.2338 -0.8616
 4976SOL    HW126387   1.001   0.481   7.278 -0.6556 -0.6115 -0.7455
 4976SOL    HW226388   0.954   0.516   7.148 -0.9826  0.9280  2.6135
 4977SOL     OW26389   2.795   0.779   7.855  0.5739  0.0749 -0.0640
 4977SOL    HW126390   2.771   0.783   7.762 -0.5021 -0.7257  0.1702
 4977SOL    HW226391   2.742   0.854   7.884  0.6316  0.0763  0.0355
 4978SOL     OW26392   1.487   3.398   2.732  0.2827  0.9179  0.0987
 4978SOL    HW126393   1.476   3.429   2.642  2.2045 -1.3752 -0.9484
 4978SOL    HW226394   1.424   3.327   2.734  1.0794  0.1920 -0.2338
 4979SOL     OW26395   3.039   2.958   7.305  0.7103 -0.2454 -0.0404
 4979SOL    HW126396   2.952   2.948   7.264  0.6715 -1.2943  0.2955
 4979SOL    HW226397   3.060   3.043   7.266  1.0981  0.1035  0.9479
 4980SOL     OW26398   1.789   1.118  12.190 -0.4569 -0.0989  0.1392
 4980SOL    HW126399   1.752   1.146  12.274 -0.9577  1.6495 -0.6833
 4980SOL    HW226400   1.877   1.085  12.210 -0.6240 -1.0397 -0.6354
 4981SOL     OW26401   4.281   2.435   5.930 -0.3341  0.7331 -0.1552
 4981SOL    HW126402   4.221   2.376   5.886  0.4648 -0.0493 -0.2078
 4981SOL    HW226403   4.316   2.383   6.003 -0.6014 -1.8355 -1.8459
 4982SOL     OW26404   3.115   4.473   4.978 -0.2721 -1.0132 -0.3446
 4982SOL    HW126405   3.204   4.451   5.006 -0.2837 -0.5342  0.0598
 4982SOL    HW226406   3.064   4.473   5.059 -0.4385  1.6480 -0.4420
 4983SOL     OW26407   0.185   2.187  15.916  0.3403 -0.0061  0.2358
 4983SOL    HW126408   0.232   2.128  15.974  1.3208 -0.5724 -1.1325
 4983SOL    HW226409   0.116   2.126  15.891  1.2756 -1.0243  0.1579
 4984SOL     OW26410   0.199   0.183   7.718 -0.1170 -0.4476  0.0836
 4984SOL    HW126411   0.273   0.237   7.691 -0.2956  0.2848  1.0501
 4984SOL    HW226412   0.238   0.138   7.793  1.7486 -0.4873 -0.9245
 4985SOL     OW26413   2.848   2.459  10.067 -0.5872  0.1830 -0.9817
 4985SOL    HW126414   2.927   2.494  10.109 -0.6253  0.6372 -1.2852
 4985SOL    HW226415   2.791   2.534  10.054  0.6006  1.4068  0.8813
 4986SOL     OW26416   1.207   3.909  11.817 -0.2127 -0.0068  0.1466
 4986SOL    HW126417   1.261   3.987  11.807 -1.5171  0.9787  0.7828
 4986SOL    HW226418   1.217   3.893  11.723 -1.1802 -0.6033  0.1442
 4987SOL     OW26419   2.895   4.498  14.234  0.3911  0.1359 -0.1354
 4987SOL    HW126420   2.886   4.566  14.300 -0.3001 -0.2182  0.1339
 4987SOL    HW226421   2.990   4.487  14.229  0.7653  2.4692  2.2464
 4988SOL     OW26422   1.195   1.489   2.934 -0.4656  0.3350 -0.2710
 4988SOL    HW126423   1.199   1.410   2.988  0.3373  0.1613 -0.5850
 4988SOL    HW226424   1.105   1.497   2.901  0.2666 -2.7911 -3.0105
 4989SOL     OW26425   1.739   0.751   4.566 -0.2752  0.1463  0.5015
 4989SOL    HW126426   1.765   0.659   4.568  1.5994  0.6625 -0.0841
 4989SOL    HW226427   1.790   0.776   4.489  1.1528  0.4708  1.5652
 4990SOL     OW26428   3.135   0.147   2.685  0.1815 -0.2165 -0.9415
 4990SOL    HW126429   3.141   0.186   2.772 -1.1896  0.9131 -1.3453
 4990SOL    HW226430   3.131   0.222   2.626 -0.5059 -0.6511 -1.4625
 4991SOL     OW26431   0.486   0.854  12.897 -0.2586 -0.0511 -0.1503
 4991SOL    HW126432   0.439   0.771  12.892  2.0929 -1.3684 -0.3892
 4991SOL    HW226433   0.429   0.892  12.964 -0.1122 -0.8479  0.4218
 4992SOL     OW26434   1.499   3.856   9.477 -0.0490  0.4790  0.5129
 4992SOL    HW126435   1.489   3.909   9.556 -0.2883 -0.2321  0.9652
 4992SOL    HW226436   1.442   3.906   9.418 -0.7930 -0.3101  0.5586
 4993SOL     OW26437   0.954   1.709   1.467  0.4290  0.3051 -0.0860
 4993SOL    HW126438   0.950   1.630   1.521 -0.9590  0.3279 -0.1423
 4993SOL    HW226439   0.975   1.768   1.539 -1.0862  0.5972  0.1096
 4994SOL     OW26440   1.717   2.672  10.459 -0.1893  0.1035 -0.4950
 4994SOL    HW126441   1.779   2.742  10.482 -0.1006 -0.9535  2.5501
 4994SOL    HW226442   1.634   2.714  10.484 -0.3330  0.4153 -1.4919
 4995SOL     OW26443   2.527   0.688   9.760  0.0380 -0.5372  0.0864
 4995SOL    HW126444   2.578   0.673   9.839 -1.2322  2.9334  1.5339
 4995SOL    HW226445   2.610   0.692   9.713 -0.4927 -0.5130 -0.8448
 4996SOL     OW26446   1.147   1.148   5.579  0.0307  0.3094  0.0486
 4996SOL    HW126447   1.084   1.164   5.509 -1.2642 -1.1513  0.8686
 4996SOL    HW226448   1.206   1.223   5.584  0.8628 -0.5024  2.5520
 4997SOL     OW26449   0.368   3.847   6.698 -0.1341 -0.9518 -0.2485
 4997SOL    HW126450   0.293   3.850   6.639  0.4029 -2.9082 -1.0238
 4997SOL    HW226451   0.445   3.827   6.645  0.1390 -1.3167  0.2810
 4998SOL     OW26452   4.315   3.305   7.787  0.4497  0.2658 -0.3599
 4998SOL    HW126453   4.339   3.381   7.839  1.9000 -0.5990  0.2330
 4998SOL    HW226454   4.366   3.228   7.815  0.2608  0.1166 -0.4248
 4999SOL     OW26455   2.008   2.904   6.929 -0.1867 -0.3957  0.6288
 4999SOL    HW126456   2.064   2.849   6.875 -0.4462 -1.0411  1.0188
 4999SOL    HW226457   2.024   2.868   7.017  1.7329 -0.4495  0.2554
 5000SOL     OW26458   2.696   2.264   5.757  0.7748  0.3710 -0.1298
 5000SOL    HW126459   2.744   2.319   5.818 -2.5777  2.6526  0.4646
 5000SOL    HW226460   2.609   2.303   5.762  0.6886 -0.1089  1.8479
 5001SOL     OW26461   4.026   1.954   6.556  0.2314  0.1241  0.4311
 5001SOL    HW126462   3.965   2.027   6.557  0.1202  0.0335  0.1968
 5001SOL    HW226463   3.979   1.901   6.491 -1.1704  0.4371  1.2002
 5002SOL     OW26464   4.216   1.148   4.084 -0.0029  0.8230  0.0422
 5002SOL    HW126465   4.261   1.086   4.026 -1.8877  1.3007 -1.9285
 5002SOL    HW226466   4.290   1.153   4.144  0.7801 -0.0430 -0.8578
 5003SOL     OW26467   2.040   2.293   0.416  0.7722 -0.4565  0.1677
 5003SOL    HW126468   2.021   2.354   0.344 -0.2854 -0.3145  0.5678
 5003SOL    HW226469   2.001   2.341   0.489  1.8196 -0.2551  0.5962
 5004SOL     OW26470   4.671   4.271   4.954 -0.6052 -0.5732 -0.5329
 5004SOL    HW126471   4.626   4.243   5.034 -0.3587  2.2159  0.6001
 5004SOL    HW226472   0.006   4.199   4.939  0.7513  0.2866  0.8180
 5005SOL     OW26473   2.536   0.263   5.969  0.7107  0.0610 -0.1949
 5005SOL    HW126474   2.453   0.252   5.922  2.3694 -1.7116 -2.7065
 5005SOL    HW226475   2.519   0.235   6.058  0.6766  0.0956 -0.1904
 5006SOL     OW26476   2.942   2.733   0.165  0.6030 -0.5947 -0.2430
 5006SOL    HW126477   2.986   2.660   0.208 -0.9253 -0.9130  0.7697
 5006SOL    HW226478   2.873   2.749   0.229  0.9569 -0.8577  0.2057
 5007SOL     OW26479   4.312   1.442   6.057 -0.1648 -0.1575  0.3207
 5007SOL    HW126480   4.328   1.351   6.032 -0.4689 -0.5173  1.4290
 5007SOL    HW226481   4.280   1.429   6.146 -0.2019  0.0219  0.3334
 5008SOL     OW26482   3.142   3.979   2.393  0.0420  0.1557 -0.0285
 5008SOL    HW126483   3.071   3.928   2.431  0.4724  1.5245  2.6032
 5008SOL    HW226484   3.216   3.935   2.436  0.6899  1.6861  0.4185
 5009SOL     OW26485   3.528   2.663  17.444 -0.2203  0.3867  0.0648
 5009SOL    HW126486   3.479   2.708  17.513 -0.5577  3.4483 -2.2017
 5009SOL    HW226487   3.606   2.716  17.429  0.4131 -0.5389  0.1091
 5010SOL     OW26488   4.552   2.258   1.699  0.1705 -0.4791  0.1691
 5010SOL    HW126489   4.618   2.190   1.717  1.9472  1.0566 -0.5317
 5010SOL    HW226490   4.550   2.251   1.603  1.9800 -1.3753  0.1938
 5011SOL     OW26491   0.263   0.969   5.357  0.1342 -0.0395 -0.1108
 5011SOL    HW126492   0.214   0.890   5.335 -2.1646  1.1817  0.5992
 5011SOL    HW226493   0.238   0.990   5.447  1.3674  2.4161 -0.3428
 5012SOL     OW26494   2.358   1.763   1.213 -0.1221  0.3547 -0.3188
 5012SOL    HW126495   2.357   1.856   1.188 -2.0500  0.3515 -0.2217
 5012SOL    HW226496   2.265   1.743   1.224  0.5001 -2.2248  0.1169
 5013SOL     OW26497   3.027   1.889  11.458 -0.4401  0.0996 -0.3033
 5013SOL    HW126498   2.995   1.961  11.511 -0.6373 -0.6323  0.5809
 5013SOL    HW226499   3.084   1.936  11.398  1.8246 -2.6856 -0.3382
 5014SOL     OW26500   2.482   2.831  10.404  0.3345 -0.2625  0.9007
 5014SOL    HW126501   2.568   2.795  10.380 -0.3120 -0.5897 -0.9205
 5014SOL    HW226502   2.512   2.905  10.457 -1.3071  0.5529  0.6736
 5015SOL     OW26503   2.067   4.021  15.479  0.9276 -0.6157  0.1665
 5015SOL    HW126504   2.093   4.101  15.524  0.4196  0.2810 -1.1657
 5015SOL    HW226505   2.140   4.008  15.419  1.1478 -0.5011  0.4086
 5016SOL     OW26506   1.501   0.294  15.360 -0.4116  0.6539 -0.0111
 5016SOL    HW126507   1.570   0.236  15.329 -0.2130  1.2099 -0.6275
 5016SOL    HW226508   1.549   0.351  15.420 -1.8706 -0.9848  2.6923
 5017SOL     OW26509   4.272   0.385   1.963  0.2902 -0.2969 -0.1975
 5017SOL    HW126510   4.200   0.344   1.915 -0.1480  0.2126  0.0250
 5017SOL    HW226511   4.242   0.364   2.052  0.6678 -3.5753 -0.8193
 5018SOL     OW26512   3.798   3.405   3.007 -0.2624 -0.3681 -0.0996
 5018SOL    HW126513   3.777   3.483   2.954  2.3319 -0.0450 -0.6554
 5018SOL    HW226514   3.813   3.336   2.942 -0.9784 -0.0146 -0.6487
 5019SOL     OW26515   1.747   2.652   6.835  0.2558 -0.4744 -0.2180
 5019SOL    HW126516   1.748   2.597   6.757  0.2918  1.4317 -1.5744
 5019SOL    HW226517   1.671   2.610   6.876 -0.6588 -0.0032 -1.4102
 5020SOL     OW26518   0.481   4.575   8.489  0.0930 -0.1584 -0.0802
 5020SOL    HW126519   0.391   4.596   8.463  0.0874  1.1734  1.0395
 5020SOL    HW226520   0.503   4.528   8.409 -1.4874 -1.7596  0.4219
 5021SOL     OW26521   3.700   2.597   6.143 -0.6956  0.1555  0.2293
 5021SOL    HW126522   3.793   2.575   6.137 -0.6589  0.2467  0.4472
 5021SOL    HW226523   3.664   2.518   6.185  0.0110 -0.2063  0.1535
 5022SOL     OW26524   4.090   3.553  14.749 -0.0204 -0.6955  0.2087
 5022SOL    HW126525   4.085   3.512  14.663  0.6460  3.1425 -1.6467
 5022SOL    HW226526   3.999   3.553  14.779 -0.2608 -1.7703 -0.5322
 5023SOL     OW26527   0.804   4.547   6.284  0.3697  0.3487 -0.2944
 5023SOL    HW126528   0.750   4.497   6.345  0.5446 -0.4897 -0.8269
 5023SOL    HW226529   0.786   4.485   6.213 -1.5472 -1.1313  1.4753
 5024SOL     OW26530   3.853   1.225   0.830 -0.3965 -0.1027  0.1125
 5024SOL    HW126531   3.848   1.286   0.756  0.3512 -1.4638 -1.0702
 5024SOL    HW226532   3.818   1.286   0.894  0.9774  0.6090  0.1894
 5025SOL     OW26533   1.749   1.460   3.244 -0.1228 -0.1124  0.1872
 5025SOL    HW126534   1.727   1.367   3.241 -0.4198 -0.0707  1.2056
 5025SOL    HW226535   1.777   1.482   3.155  0.0048 -1.8776 -0.2115
 5026SOL     OW26536   3.552   1.116   7.798 -0.0277 -0.0839  0.1287
 5026SOL    HW126537   3.464   1.142   7.825  0.6200  1.0988  1.1012
 5026SOL    HW226538   3.576   1.071   7.879 -0.2425 -0.5501 -0.0682
 5027SOL     OW26539   1.560   3.926   1.998 -0.8432  0.5072 -0.7126
 5027SOL    HW126540   1.623   3.993   1.973 -1.7523  0.6344 -2.6858
 5027SOL    HW226541   1.539   3.906   1.907 -1.7376  2.8046 -1.0199
 5028SOL     OW26542   2.910   0.753  16.144  0.0397 -0.2867  0.3795
 5028SOL    HW126543   2.865   0.680  16.186 -1.6721 -0.3931 -1.6758
 5028SOL    HW226544   2.945   0.711  16.065  1.7973 -1.3280  1.6911
 5029SOL     OW26545   3.166   0.635  10.516  0.5847 -0.4389  0.0462
 5029SOL    HW126546   3.157   0.694  10.442 -1.0666 -2.7874 -1.6078
 5029SOL    HW226547   3.123   0.551  10.499  2.0378 -1.0134 -0.8327
 5030SOL     OW26548   0.212   3.823   6.282  0.1660  0.0101  0.1837
 5030SOL    HW126549   0.189   3.874   6.204  0.9427  1.4663  0.9184
 5030SOL    HW226550   0.181   3.875   6.356  0.7086 -0.3918  0.6927
 5031SOL     OW26551   1.599   1.500   6.554  0.2628  0.4833  0.6183
 5031SOL    HW126552   1.536   1.571   6.569  0.6897  1.0145 -0.0802
 5031SOL    HW226553   1.593   1.505   6.459 -0.0173 -1.7471  0.5211
 5032SOL     OW26554   2.670   1.937  15.190  0.7087  0.5519  0.5644
 5032SOL    HW126555   2.664   2.014  15.247 -0.0405  0.5623  0.4730
 5032SOL    HW226556   2.607   1.876  15.228  0.5052 -1.2337 -2.6457
 5033SOL     OW26557   3.705   3.036   8.534  0.3725 -0.1422 -0.4602
 5033SOL    HW126558   3.685   2.975   8.463  1.8340  1.9900 -2.6883
 5033SOL    HW226559   3.733   2.978   8.604  0.9230  1.3478  0.5582
 5034SOL     OW26560   0.593   4.090   9.491 -0.1535 -0.1147 -0.0685
 5034SOL    HW126561   0.653   4.102   9.565 -0.6122 -2.0155  0.5963
 5034SOL    HW226562   0.605   3.997   9.471  2.5786  0.1703  0.2785
 5035SOL     OW26563   4.575   3.282   8.374 -0.0503 -0.2046  0.0147
 5035SOL    HW126564   4.518   3.350   8.339  1.1669  0.7580 -0.1114
 5035SOL    HW226565   4.569   3.295   8.469 -0.1143 -1.2979  0.1551
 5036SOL     OW26566   2.671   4.251   4.783 -0.0838  0.5928  0.4751
 5036SOL    HW126567   2.656   4.222   4.693  0.5946  2.6637 -0.2996
 5036SOL    HW226568   2.761   4.223   4.799 -0.5364 -2.0873 -1.5828
 5037SOL     OW26569   3.936   0.998   7.005 -0.5037  0.1444 -0.3013
 5037SOL    HW126570   3.921   1.050   7.084 -0.0176  0.2871 -0.3051
 5037SOL    HW226571   3.947   1.059   6.933  0.3543  0.3886  0.0401
 5038SOL     OW26572   0.709   2.184   7.888 -0.5848 -0.0107 -0.0510
 5038SOL    HW126573   0.786   2.171   7.943 -0.6612  0.7451  0.2233
 5038SOL    HW226574   0.675   2.094   7.885 -1.0323  0.1989 -1.3715
 5039SOL     OW26575   4.012   2.998   6.626  0.5867  0.4118  0.4297
 5039SOL    HW126576   3.958   3.029   6.699  0.8218 -0.1502  0.8419
 5039SOL    HW226577   4.061   3.080   6.620 -1.9633  1.9697  0.7856
 5040SOL     OW26578   4.311   4.028   5.217  0.0456  0.5987 -0.7056
 5040SOL    HW126579   4.346   4.003   5.131  0.4512  2.6032 -1.1386
 5040SOL    HW226580   4.389   4.054   5.266 -0.1505 -0.1870  0.0212
 5041SOL     OW26581   4.104   4.360   7.266 -0.3160 -0.0692  0.4469
 5041SOL    HW126582   4.172   4.389   7.206 -0.7885  0.1247  0.0085
 5041SOL    HW226583   4.076   4.275   7.231  0.2444  0.0643 -0.3051
 5042SOL     OW26584   2.974   4.031   7.051  0.2689 -0.1271 -0.9789
 5042SOL    HW126585   2.893   4.022   7.101  1.1115 -0.3122  0.3511
 5042SOL    HW226586   3.007   4.111   7.092 -1.0559  0.1850 -0.5121
 5043SOL     OW26587   0.398   1.037  11.857  0.0088 -0.0317 -0.3932
 5043SOL    HW126588   0.305   1.053  11.838 -0.0655 -1.5541 -1.3378
 5043SOL    HW226589   0.434   1.113  11.810  3.2715 -1.0410  0.4745
 5044SOL     OW26590   0.152   0.203  10.470  0.5806 -0.0904  0.0817
 5044SOL    HW126591   0.171   0.280  10.524  0.5321  1.2605 -1.8595
 5044SOL    HW226592   0.235   0.160  10.494  0.9553  0.0414 -0.9868
 5045SOL     OW26593   0.386   1.642  16.210  0.1862 -0.5471  0.7621
 5045SOL    HW126594   0.313   1.610  16.262 -1.7191 -0.2110 -1.7367
 5045SOL    HW226595   0.375   1.736  16.218  2.0314 -0.3015  0.5525
 5046SOL     OW26596   1.117   2.979   6.948  0.0869  0.0331 -0.3817
 5046SOL    HW126597   1.042   2.962   6.892  1.3123  1.7545 -2.5116
 5046SOL    HW226598   1.084   2.972   7.038 -0.2231  1.5197 -0.3850
 5047SOL     OW26599   2.883   0.689   8.690  0.0940 -0.6924 -0.3268
 5047SOL    HW126600   2.893   0.750   8.617 -1.2469  0.7920  0.7375
 5047SOL    HW226601   2.852   0.616   8.637 -1.1301 -1.3603  1.3317
 5048SOL     OW26602   2.151   3.846   3.233 -0.2116 -0.5856  0.3881
 5048SOL    HW126603   2.229   3.896   3.206 -0.2115 -0.8108 -0.0210
 5048SOL    HW226604   2.097   3.917   3.268  2.2902  2.1365 -1.2030
 5049SOL     OW26605   0.623   1.565   4.279 -0.5509  0.0546 -0.1593
 5049SOL    HW126606   0.715   1.540   4.287 -0.4247  1.0127  1.2370
 5049SOL    HW226607   0.619   1.660   4.269  1.3670  0.1653  0.1983
 5050SOL     OW26608   1.748   0.072  14.930  0.1965  0.6771  0.6655
 5050SOL    HW126609   1.721   4.712  14.964  3.5263 -0.8645 -0.4957
 5050SOL    HW226610   1.672   0.096  14.878  1.6225  0.9267 -1.3274
 5051SOL     OW26611   2.282   3.413   7.698 -0.4440 -0.0802  0.3085
 5051SOL    HW126612   2.245   3.462   7.624 -0.3280  0.5716  0.6818
 5051SOL    HW226613   2.244   3.326   7.695 -0.8773  0.0602  1.6487
 5052SOL     OW26614   0.549   3.501   4.930 -0.4029 -0.9640  0.2430
 5052SOL    HW126615   0.556   3.486   5.024  3.3996 -2.3317 -0.2825
 5052SOL    HW226616   0.537   3.596   4.929 -3.5934 -1.3673  1.1539
 5053SOL     OW26617   0.664   2.615   1.485  0.0749  0.3471  0.1696
 5053SOL    HW126618   0.687   2.606   1.577  0.8050 -1.8887 -0.2254
 5053SOL    HW226619   0.680   2.525   1.456  1.5907  0.0625  1.9070
 5054SOL     OW26620   1.645   0.522   3.486 -0.6697  0.2814  0.3308
 5054SOL    HW126621   1.605   0.472   3.558 -1.6523 -1.6171 -1.5473
 5054SOL    HW226622   1.575   0.534   3.422 -1.6434  2.8747  1.8434
 5055SOL     OW26623   3.162   3.418   8.896  1.0627  0.1001 -0.3090
 5055SOL    HW126624   3.068   3.402   8.886  1.2712 -1.2186 -0.1079
 5055SOL    HW226625   3.194   3.330   8.917  1.6869  0.8188  1.7039
 5056SOL     OW26626   1.626   0.920   9.040  0.2703 -0.1081 -0.2405
 5056SOL    HW126627   1.589   0.969   9.114 -1.0883 -0.1258 -0.9152
 5056SOL    HW226628   1.619   0.826   9.060  1.8991 -0.2412 -0.2820
 5057SOL     OW26629   3.269   3.504  10.452 -0.2523 -0.2176 -0.4230
 5057SOL    HW126630   3.269   3.486  10.358 -1.0019 -1.2092 -0.2318
 5057SOL    HW226631   3.177   3.491  10.474  0.0286  0.1055  0.9109
 5058SOL     OW26632   0.565   2.791   3.421  0.4561  0.2957 -0.7319
 5058SOL    HW126633   0.659   2.797   3.434  0.8615 -1.3726 -3.1162
 5058SOL    HW226634   0.556   2.830   3.335  0.6749 -1.6722 -1.6470
 5059SOL     OW26635   0.846   0.383  16.485 -0.3428  0.0335 -0.4159
 5059SOL    HW126636   0.823   0.473  16.508  1.3557  0.2387  0.5127
 5059SOL    HW226637   0.839   0.350  16.574 -2.8777 -2.3115 -1.5031
 5060SOL     OW26638   3.405   3.609   5.742  0.5514  0.4611 -0.4528
 5060SOL    HW126639   3.379   3.520   5.719 -2.7377  0.8057  2.0458
 5060SOL    HW226640   3.435   3.604   5.832 -2.3746  0.7676  0.5307
 5061SOL     OW26641   4.206   2.671   4.454 -0.2680  0.1867  0.1133
 5061SOL    HW126642   4.251   2.641   4.533  0.6389 -1.8061 -1.1593
 5061SOL    HW226643   4.275   2.661   4.388  0.0091 -0.5911  0.5082
 5062SOL     OW26644   3.903   4.088   2.375  0.8104 -0.5567  0.8157
 5062SOL    HW126645   3.951   4.088   2.292 -0.9680 -0.6119 -0.2096
 5062SOL    HW226646   3.910   4.179   2.405  2.7907 -0.9694  1.6408
 5063SOL     OW26647   3.044   0.163   7.723 -0.9284 -0.5363 -0.2932
 5063SOL    HW126648   2.972   0.225   7.738  0.9079  1.7980 -1.0910
 5063SOL    HW226649   3.095   0.179   7.802 -1.5631  0.6695 -0.1191
 5064SOL     OW26650   0.672   0.492   4.791  0.7486 -0.4924 -0.3137
 5064SOL    HW126651   0.673   0.514   4.698 -1.8270 -2.9117 -0.9241
 5064SOL    HW226652   0.593   0.437   4.797 -0.3214  0.9901 -0.6383
 5065SOL     OW26653   1.555   1.452   6.019 -0.3333  0.0118 -0.7162
 5065SOL    HW126654   1.567   1.500   5.937 -1.3985 -0.3706 -1.0963
 5065SOL    HW226655   1.635   1.484   6.060 -0.4408 -1.2643  0.4617
 5066SOL     OW26656   2.529   2.581   6.604  0.7365 -0.0729 -0.8056
 5066SOL    HW126657   2.484   2.634   6.539 -0.0850 -1.1347 -1.0855
 5066SOL    HW226658   2.485   2.497   6.592 -0.1007  0.1353  0.7901
 5067SOL     OW26659   3.359   3.486  17.010  0.5625 -0.5256 -0.2293
 5067SOL    HW126660   3.450   3.460  17.025  0.3455 -0.6805  0.8284
 5067SOL    HW226661   3.372   3.581  17.006 -2.6109 -0.0210  1.0132
 5068SOL     OW26662   1.501   2.348  13.392 -0.0419  0.9283  0.0543
 5068SOL    HW126663   1.434   2.280  13.383  0.8717 -0.1627  1.6210
 5068SOL    HW226664   1.503   2.382  13.303 -0.8062  2.6818  0.7101
 5069SOL     OW26665   1.954   3.399   8.872 -0.3660  0.8172 -0.1998
 5069SOL    HW126666   2.036   3.350   8.864  0.2379  1.8046 -0.0914
 5069SOL    HW226667   1.968   3.476   8.816  0.5803  0.5014 -0.4059
 5070SOL     OW26668   2.873   1.755   3.452 -0.2940 -0.0512  0.4564
 5070SOL    HW126669   2.880   1.674   3.502 -1.1606 -0.7101 -0.4825
 5070SOL    HW226670   2.953   1.800   3.477 -0.2711 -1.1161  2.2650
 5071SOL     OW26671   4.275   3.260   4.633 -0.0168 -0.8435  0.2164
 5071SOL    HW126672   4.187   3.229   4.611 -0.8599  2.7639 -1.3235
 5071SOL    HW226673   4.260   3.354   4.638  0.9098 -0.6652 -0.4874
 5072SOL     OW26674   2.696   0.943  10.716 -0.1629  0.3289 -0.0435
 5072SOL    HW126675   2.607   0.920  10.745  0.0238 -0.3136  0.0196
 5072SOL    HW226676   2.677   1.005  10.645 -1.2449 -1.4527 -1.3391
 5073SOL     OW26677   0.929   4.648  12.255  0.0614  0.0267 -0.3002
 5073SOL    HW126678   0.984   4.583  12.212  1.1015  0.4955  0.3423
 5073SOL    HW226679   0.911   4.688  12.169 -0.5269 -0.4146 -0.3845
 5074SOL     OW26680   0.145   0.383   9.623 -0.6383 -0.2380  0.0213
 5074SOL    HW126681   0.122   0.333   9.545 -0.2900  0.9588 -0.8548
 5074SOL    HW226682   0.209   0.446   9.588 -0.7222  1.1201  2.3500
 5075SOL     OW26683   2.094   4.485   2.227  0.1466  0.0191 -0.2522
 5075SOL    HW126684   2.070   4.498   2.135 -1.9856 -1.3700  0.0994
 5075SOL    HW226685   2.066   4.393   2.229  0.2860  0.0542  2.5383
 5076SOL     OW26686   3.789   4.012   5.595  0.1292  0.3363 -0.4569
 5076SOL    HW126687   3.761   3.932   5.551 -2.4160  1.0461 -0.1372
 5076SOL    HW226688   3.860   3.969   5.643  0.1238  0.8210 -0.0130
 5077SOL     OW26689   4.084   0.698   4.295 -0.3731  0.0137 -0.4602
 5077SOL    HW126690   4.054   0.750   4.370 -0.9085 -0.5954 -0.2584
 5077SOL    HW226691   4.155   0.754   4.263  0.3500 -1.3736 -1.2752
 5078SOL     OW26692   1.224   3.820  12.432  0.1181  0.2492  0.4293
 5078SOL    HW126693   1.204   3.901  12.478 -0.0008 -0.0030  0.8176
 5078SOL    HW226694   1.267   3.852  12.352 -0.4536  2.4919  1.0374
 5079SOL     OW26695   4.219   3.224  13.408  0.5919  0.3851 -0.1454
 5079SOL    HW126696   4.284   3.217  13.338 -1.3777 -0.9991 -1.8501
 5079SOL    HW226697   4.244   3.313  13.433 -1.9386  0.0885  3.3265
 5080SOL     OW26698   2.444   3.094   1.840  0.4947  0.3518  0.0269
 5080SOL    HW126699   2.372   3.139   1.884 -1.3346 -0.2429 -2.2981
 5080SOL    HW226700   2.461   3.033   1.911  0.3805 -0.4271 -0.6114
 5081SOL     OW26701   0.580   0.561   5.635  0.0549  0.3984 -0.0742
 5081SOL    HW126702   0.650   0.555   5.699  0.3144 -4.3297 -0.8298
 5081SOL    HW226703   0.509   0.578   5.697  2.5633 -0.5187  3.0589
 5082SOL     OW26704   3.773   2.876   7.688  0.1288 -0.0072  0.9516
 5082SOL    HW126705   3.700   2.867   7.749 -0.4156 -0.7936  0.1646
 5082SOL    HW226706   3.827   2.932   7.744  0.9396  0.6993 -0.5301
 5083SOL     OW26707   4.161   4.427  10.817  0.5735  0.5885  0.1424
 5083SOL    HW126708   4.105   4.366  10.866  1.0492 -0.4443 -0.6257
 5083SOL    HW226709   4.190   4.481  10.891  1.2594 -1.1335  1.1481
 5084SOL     OW26710   1.959   1.468   3.920 -0.3713 -0.2232 -0.3356
 5084SOL    HW126711   2.019   1.525   3.969 -1.9477  1.6563 -0.5915
 5084SOL    HW226712   1.887   1.454   3.982 -0.4054 -0.3369 -0.3998
 5085SOL     OW26713   2.617   0.710   9.173 -0.3307  0.3489 -0.7317
 5085SOL    HW126714   2.634   0.713   9.078  0.0320  3.4743 -0.5796
 5085SOL    HW226715   2.527   0.740   9.165 -0.8978 -1.0081  0.5399
 5086SOL     OW26716   3.705   4.431   4.426  0.0291  0.3849 -0.2825
 5086SOL    HW126717   3.619   4.447   4.466 -0.6291 -1.0758 -1.1218
 5086SOL    HW226718   3.764   4.477   4.486 -1.3533  1.4348  0.3002
 5087SOL     OW26719   1.523   0.506   4.398 -0.6121  0.3745 -0.4049
 5087SOL    HW126720   1.507   0.462   4.482  3.1801 -0.8175 -0.3268
 5087SOL    HW226721   1.493   0.596   4.409  1.9064  1.2085 -0.3050
 5088SOL     OW26722   0.139   0.453   0.389  0.2620 -0.1900 -0.8367
 5088SOL    HW126723   0.146   0.535   0.437 -0.6494  0.0369 -1.0900
 5088SOL    HW226724   0.187   0.391   0.444 -0.4596 -0.3212 -0.3505
 5089SOL     OW26725   2.872   1.225  12.573 -0.3152 -0.0791 -0.3256
 5089SOL    HW126726   2.945   1.189  12.623 -0.3905 -0.6841 -0.6529
 5089SOL    HW226727   2.802   1.205  12.635  1.7577 -2.2794  1.3034
 5090SOL     OW26728   0.886   2.763   8.247  0.1806 -0.6073  0.3073
 5090SOL    HW126729   0.958   2.720   8.292 -0.2598 -0.6427  0.9838
 5090SOL    HW226730   0.933   2.812   8.179  0.4868 -3.1148 -1.2970
 5091SOL     OW26731   4.617   3.504   8.034 -0.5290 -0.1060 -0.6186
 5091SOL    HW126732   4.527   3.532   8.050  0.3603  2.2565  0.1628
 5091SOL    HW226733   4.631   3.413   8.060 -1.1937 -0.2254 -0.6623
 5092SOL     OW26734   0.124   3.424   3.561 -0.1317 -0.0174  0.4860
 5092SOL    HW126735   0.108   3.428   3.655 -0.6793 -0.3645  0.4096
 5092SOL    HW226736   0.037   3.434   3.523  0.2002 -2.2300 -0.8134
 5093SOL     OW26737   1.356   3.734   1.410 -0.1689  0.5995 -0.1610
 5093SOL    HW126738   1.348   3.790   1.334  1.1855  0.0052 -0.7331
 5093SOL    HW226739   1.274   3.746   1.459 -0.1162 -0.3153  0.1588
 5094SOL     OW26740   2.442   1.313   4.548 -0.0573 -0.2962 -0.3666
 5094SOL    HW126741   2.414   1.374   4.479 -1.9597 -1.0188 -0.2299
 5094SOL    HW226742   2.432   1.228   4.504 -2.0099 -0.5578  0.5970
 5095SOL     OW26743   2.220   2.688   1.878  0.3206 -0.0413 -0.4020
 5095SOL    HW126744   2.141   2.740   1.863 -0.9472 -1.6764  0.5406
 5095SOL    HW226745   2.193   2.599   1.902  0.3358  0.0867  0.0938
 5096SOL     OW26746   2.797   2.343   4.679  0.0691  0.5670  0.1019
 5096SOL    HW126747   2.729   2.317   4.743 -0.6764 -3.8310 -2.4658
 5096SOL    HW226748   2.840   2.260   4.659 -0.8188  0.3070 -0.6959
 5097SOL     OW26749   0.916   1.504   4.277  0.0138 -0.4317 -1.2207
 5097SOL    HW126750   1.005   1.529   4.303 -0.0115  0.2669 -1.8238
 5097SOL    HW226751   0.906   1.565   4.204  1.5624 -0.7221 -1.6756
 5098SOL     OW26752   1.961   4.689   2.433 -0.2910 -0.0525 -0.2442
 5098SOL    HW126753   1.932   4.598   2.427 -0.2077 -0.2068  1.8461
 5098SOL    HW226754   1.897   0.003   2.491 -1.1393  2.6189 -2.9506
 5099SOL     OW26755   3.919   1.236  15.018 -1.1787  0.0589  0.7556
 5099SOL    HW126756   3.946   1.264  14.930 -1.0922 -3.6050 -0.3897
 5099SOL    HW226757   3.907   1.142  15.007  0.7185 -0.0851 -0.2612
 5100SOL     OW26758   2.727   2.308   0.897 -0.4834 -0.8890  0.0618
 5100SOL    HW126759   2.654   2.256   0.863 -0.7083 -0.3252 -0.3188
 5100SOL    HW226760   2.752   2.357   0.818 -1.7255  0.8030  0.7231
 5101SOL     OW26761   1.077   4.464   6.189  0.6978  0.1700  0.0653
 5101SOL    HW126762   1.142   4.453   6.119  1.0005 -1.8515  0.6414
 5101SOL    HW226763   1.020   4.531   6.152 -1.0399 -0.5521  1.4401
 5102SOL     OW26764   4.178   2.714   7.793  0.2963  0.7509  0.0980
 5102SOL    HW126765   4.112   2.678   7.735 -1.0517  0.2618  1.9268
 5102SOL    HW226766   4.230   2.754   7.723  2.7703  0.5523  1.7941
 5103SOL     OW26767   0.506   1.257   7.839 -0.3226  0.1564 -0.2872
 5103SOL    HW126768   0.484   1.212   7.921  2.6747  0.3600  0.6265
 5103SOL    HW226769   0.417   1.256   7.803 -0.6061  2.6594  0.3003
 5104SOL     OW26770   2.515   2.520   0.345  0.8851 -0.0678 -0.1477
 5104SOL    HW126771   2.562   2.439   0.366  0.7852 -0.2334 -0.5797
 5104SOL    HW226772   2.436   2.492   0.299 -0.6180  0.5669  2.0315
 5105SOL     OW26773   1.207   2.999  15.559 -0.2102  0.5493  0.1267
 5105SOL    HW126774   1.251   3.044  15.630  2.7540 -0.3020 -1.1782
 5105SOL    HW226775   1.230   2.913  15.593  0.6043  0.8357  0.2893
 5106SOL     OW26776   0.003   1.873   3.023 -0.3316 -0.0607  0.3496
 5106SOL    HW126777   0.072   1.846   3.084  0.5476 -1.6266 -1.3267
 5106SOL    HW226778   0.050   1.950   2.988 -0.4947 -0.0266  0.2073
 5107SOL     OW26779   0.355   0.078   6.387  0.0360  0.5010  0.2755
 5107SOL    HW126780   0.343   0.147   6.323 -0.4559 -1.0849 -1.3359
 5107SOL    HW226781   0.428   0.045   6.335 -0.1131  0.7690 -0.1017
 5108SOL     OW26782   3.147   4.402   8.895  0.3114 -0.5463 -0.0491
 5108SOL    HW126783   3.059   4.409   8.932  1.0837  0.0170  1.6815
 5108SOL    HW226784   3.153   4.308   8.875 -0.9731 -0.3942 -1.1051
 5109SOL     OW26785   4.210   3.712   5.677  0.3070 -0.1149 -0.4753
 5109SOL    HW126786   4.257   3.669   5.749 -2.1317 -1.4264  0.3262
 5109SOL    HW226787   4.230   3.656   5.602 -0.2306 -0.3875 -0.4103
 5110SOL     OW26788   1.765   4.326  11.431 -0.0251 -0.4195  0.1336
 5110SOL    HW126789   1.700   4.376  11.481  0.9301 -0.2905  1.2508
 5110SOL    HW226790   1.834   4.344  11.495  1.2980 -1.5888 -0.9861
 5111SOL     OW26791   1.776   1.063   2.600 -0.1061  0.0735 -0.2421
 5111SOL    HW126792   1.728   1.137   2.638  0.6152  1.2015 -1.5097
 5111SOL    HW226793   1.733   0.994   2.651 -0.6343  1.6590  1.4427
 5112SOL     OW26794   4.367   1.687   4.248  0.4285 -0.3946 -0.9931
 5112SOL    HW126795   4.324   1.758   4.200  1.9965  1.8996  0.9928
 5112SOL    HW226796   4.325   1.693   4.333  3.1056  1.2625  0.2070
 5113SOL     OW26797   0.197   1.583  13.334 -0.6317  0.2684  0.3372
 5113SOL    HW126798   0.167   1.492  13.333  0.0602  0.0460  0.0283
 5113SOL    HW226799   0.245   1.583  13.251 -1.2090 -0.6662 -0.0091
 5114SOL     OW26800   4.665   1.580   5.321  0.0760 -0.5471  0.7852
 5114SOL    HW126801   4.574   1.597   5.346 -0.2599 -2.6734  1.0368
 5114SOL    HW226802   4.682   1.674   5.326 -0.7020 -0.2322 -2.9103
 5115SOL     OW26803   1.767   1.474   4.456 -0.4141  0.1249 -0.3922
 5115SOL    HW126804   1.745   1.538   4.388 -0.0812 -0.8892 -1.4440
 5115SOL    HW226805   1.838   1.512   4.509  0.4201 -2.5174  0.3621
 5116SOL     OW26806   4.699   4.139   0.406 -0.3160 -0.3830 -0.1495
 5116SOL    HW126807   4.693   4.082   0.483 -0.9409  1.5956  1.2692
 5116SOL    HW226808   4.618   4.112   0.363 -0.3143  1.2432 -1.1705
 5117SOL     OW26809   3.377   2.540   1.225 -0.1443  0.9388  0.7919
 5117SOL    HW126810   3.333   2.477   1.168  0.7694  1.3373 -0.3499
 5117SOL    HW226811   3.320   2.617   1.222 -1.6561 -0.2109  0.4258
 5118SOL     OW26812   0.592   2.512   3.084  0.1584  0.1647 -0.7190
 5118SOL    HW126813   0.676   2.558   3.088 -0.1818  0.6738  0.6043
 5118SOL    HW226814   0.614   2.448   3.152 -2.6809 -1.3106 -1.1889
 5119SOL     OW26815   4.100   2.735  14.701 -0.0861 -0.3190 -0.3766
 5119SOL    HW126816   4.029   2.708  14.759  2.0347 -3.7102  0.6537
 5119SOL    HW226817   4.105   2.657  14.645 -0.4084 -0.1979 -0.5739
 5120SOL     OW26818   4.572   3.635   0.679 -0.1284 -0.1043  0.4245
 5120SOL    HW126819   4.501   3.684   0.637  0.5199 -0.5260 -1.1770
 5120SOL    HW226820   4.649   3.658   0.626 -0.0936 -1.3552 -0.0745
 5121SOL     OW26821   1.193   0.635   3.204  0.1886 -0.2262 -0.0694
 5121SOL    HW126822   1.113   0.687   3.201  0.7309  0.5351 -1.1981
 5121SOL    HW226823   1.173   0.552   3.161 -0.5684  0.3271 -0.7831
 5122SOL     OW26824   3.774   3.569   3.513 -0.0616 -0.5580 -0.1025
 5122SOL    HW126825   3.810   3.498   3.460  0.7762  0.2503 -0.6218
 5122SOL    HW226826   3.759   3.639   3.449 -2.3558 -0.5555  0.4389
 5123SOL     OW26827   3.380   1.912   4.612  0.2757  0.0898 -0.1622
 5123SOL    HW126828   3.295   1.873   4.631  0.5878 -0.1856  0.6673
 5123SOL    HW226829   3.414   1.927   4.700  0.4289  1.6505 -0.4826
 5124SOL     OW26830   4.000   0.798   3.762  0.2035 -0.2405 -0.4066
 5124SOL    HW126831   4.038   0.732   3.820  0.6583 -1.4449 -2.0743
 5124SOL    HW226832   4.071   0.824   3.703 -0.8308  1.5040 -0.8624
 5125SOL     OW26833   1.380   1.696   7.546 -0.4990  0.0299  0.2343
 5125SOL    HW126834   1.300   1.645   7.532 -0.3963 -1.3300  4.5991
 5125SOL    HW226835   1.444   1.629   7.567 -0.8498  0.0312  1.3221
 5126SOL     OW26836   4.371   0.165   2.529  0.5226 -0.2307  0.0514
 5126SOL    HW126837   4.455   0.139   2.490 -0.3149 -3.4411  0.4406
 5126SOL    HW226838   4.379   0.151   2.623 -2.0958 -1.5733  0.0781
 5127SOL     OW26839   1.108   0.808   2.856 -0.1683 -0.5279 -0.1042
 5127SOL    HW126840   1.199   0.780   2.860 -0.2003 -0.4765  1.0997
 5127SOL    HW226841   1.087   0.853   2.774  1.0124  0.4158  0.1246
 5128SOL     OW26842   4.140   3.490   3.381  0.2492  0.4410  0.3312
 5128SOL    HW126843   4.202   3.422   3.356  1.0109  1.5413 -0.7866
 5128SOL    HW226844   4.092   3.513   3.302  0.9036 -1.6803 -0.6680
 5129SOL     OW26845   0.848   0.636  17.037 -0.5560 -0.0445 -0.1277
 5129SOL    HW126846   0.909   0.580  17.085 -1.0114 -0.1680  0.3069
 5129SOL    HW226847   0.805   0.686  17.106  0.0046  1.8946 -1.1930
 5130SOL     OW26848   1.630   1.638   4.836 -0.0175 -0.2970 -0.3127
 5130SOL    HW126849   1.584   1.702   4.782 -1.2113 -0.0057  1.0545
 5130SOL    HW226850   1.598   1.554   4.802  0.2150 -1.5830  2.6441
 5131SOL     OW26851   4.262   4.436  11.074 -0.1363  0.3483 -0.3086
 5131SOL    HW126852   4.304   4.498  11.133 -1.1779  1.9793 -1.2735
 5131SOL    HW226853   4.339   4.397  11.031  1.8128  2.4667  1.2635
 5132SOL     OW26854   4.006   0.475   7.103 -0.2758 -0.2421  0.5625
 5132SOL    HW126855   4.006   0.547   7.039 -0.9869  0.5938  1.5012
 5132SOL    HW226856   3.914   0.449   7.108  0.5290 -2.9646  1.1636
 5133SOL     OW26857   3.048   3.513   6.495 -0.3225 -0.0986  0.2102
 5133SOL    HW126858   3.096   3.483   6.572  0.1470  1.8483  0.6936
 5133SOL    HW226859   3.122   3.514   6.433  1.0446 -0.3112  1.8444
 5134SOL     OW26860   3.056   2.572   5.355  0.6768  0.0631  0.2798
 5134SOL    HW126861   3.118   2.537   5.292 -1.5591 -1.1432 -1.2409
 5134SOL    HW226862   2.993   2.502   5.373  0.7332  0.6276  2.6926
 5135SOL     OW26863   2.495   0.625   7.500  0.3281 -0.2628  0.3277
 5135SOL    HW126864   2.441   0.564   7.551 -1.8807  1.2563 -0.1763
 5135SOL    HW226865   2.428   0.685   7.467 -1.9293 -1.5656  2.4302
 5136SOL     OW26866   1.254   3.547  12.207 -0.7830  0.1008 -0.0294
 5136SOL    HW126867   1.174   3.552  12.259 -0.8636  0.9886 -0.2480
 5136SOL    HW226868   1.233   3.595  12.127  0.9951  1.6147  0.4257
 5137SOL     OW26869   3.633   1.805  14.306 -0.1993  0.1692 -0.2615
 5137SOL    HW126870   3.563   1.742  14.324 -1.1810  1.1563 -0.6446
 5137SOL    HW226871   3.577   1.880  14.286 -1.2071 -0.4993  0.0657
 5138SOL     OW26872   4.581   1.542   2.229  0.0951 -0.8067 -0.6083
 5138SOL    HW126873   4.549   1.452   2.218  0.0179 -0.8592  0.0266
 5138SOL    HW226874   4.582   1.568   2.137  1.2454  1.2822  0.0027
 5139SOL     OW26875   4.108   3.591  11.202  0.4732  0.1413 -0.2375
 5139SOL    HW126876   4.067   3.533  11.265 -2.2089  2.1892 -0.1160
 5139SOL    HW226877   4.124   3.671  11.251  2.6133 -0.7133  0.4579
 5140SOL     OW26878   3.585   0.752   7.820 -0.5474 -0.2532 -0.0108
 5140SOL    HW126879   3.524   0.780   7.889 -2.8444 -2.7953 -1.0235
 5140SOL    HW226880   3.654   0.716   7.876 -2.0975  0.1399  2.1903
 5141SOL     OW26881   2.095   0.829  16.678 -0.3940  0.2404 -0.3356
 5141SOL    HW126882   2.089   0.850  16.771  2.4642  0.5107 -0.2247
 5141SOL    HW226883   2.190   0.836  16.675 -0.5796  2.3156 -1.1368
 5142SOL     OW26884   0.488   2.729   8.266  0.1552  0.4507 -0.2157
 5142SOL    HW126885   0.416   2.738   8.203  0.3235 -0.3242 -0.5119
 5142SOL    HW226886   0.556   2.692   8.211 -0.0041  1.2935 -0.9749
 5143SOL     OW26887   0.489   1.444   9.471 -0.9121  0.2120 -0.4145
 5143SOL    HW126888   0.583   1.451   9.488 -1.0125  0.1294  0.1795
 5143SOL    HW226889   0.475   1.479   9.383  0.9174  0.8494 -0.4690
 5144SOL     OW26890   1.247   1.188   4.627  0.5599 -0.3370 -0.1452
 5144SOL    HW126891   1.211   1.277   4.630 -2.5799 -1.6423  0.9627
 5144SOL    HW226892   1.169   1.135   4.643  1.1021 -0.3819  2.1992
 5145SOL     OW26893   0.394   0.219   2.745  0.1242 -0.7482 -0.2021
 5145SOL    HW126894   0.437   0.155   2.688 -2.6601 -2.9428  0.1158
 5145SOL    HW226895   0.464   0.277   2.772 -1.0620 -0.5240  2.3790
 5146SOL     OW26896   2.799   4.304   3.795 -0.7148  0.4096  0.5247
 5146SOL    HW126897   2.878   4.263   3.761 -1.5813  1.2247 -2.4639
 5146SOL    HW226898   2.817   4.396   3.776  1.6962 -0.7335 -2.7996
 5147SOL     OW26899   2.744   4.621   4.108 -0.3745  0.1775 -0.1125
 5147SOL    HW126900   2.820   4.676   4.123  0.2727 -0.3904 -1.2831
 5147SOL    HW226901   2.750   4.621   4.013  0.9978  1.7681 -0.0285
 5148SOL     OW26902   3.574   0.547  13.040  0.4099  0.3146 -0.4027
 5148SOL    HW126903   3.526   0.606  12.983  0.3939  2.3854  1.7262
 5148SOL    HW226904   3.513   0.527  13.111 -0.7725  2.0846 -0.9389
 5149SOL     OW26905   1.137   3.467   4.046 -0.1013 -0.0088 -0.1814
 5149SOL    HW126906   1.135   3.528   4.120 -1.7609 -0.3178  0.0232
 5149SOL    HW226907   1.230   3.457   4.024 -0.2256 -0.4044 -0.5186
 5150SOL     OW26908   3.077   4.166   3.516  0.0408  0.6292  0.2488
 5150SOL    HW126909   3.024   4.119   3.452 -0.3994  1.4470  0.0168
 5150SOL    HW226910   3.099   4.089   3.568  0.0883  1.9271  2.1435
 5151SOL     OW26911   2.753   1.441   5.926  0.0481 -0.3729  0.1194
 5151SOL    HW126912   2.790   1.472   5.844 -0.3823  0.3592  0.1995
 5151SOL    HW226913   2.675   1.409   5.882 -0.1849 -0.6215  0.7128
 5152SOL     OW26914   1.150   0.724  12.599  0.0659  0.1842 -0.0193
 5152SOL    HW126915   1.233   0.766  12.622 -0.3701 -0.0909  2.0559
 5152SOL    HW226916   1.143   0.654  12.664  0.8424 -0.9032 -1.1150
 5153SOL     OW26917   2.776   2.915   4.532 -0.2052 -0.0324  0.1755
 5153SOL    HW126918   2.762   3.002   4.570 -0.6415 -0.3016  0.6307
 5153SOL    HW226919   2.870   2.909   4.551  0.0653  0.6002 -0.9752
 5154SOL     OW26920   1.129   1.804  10.207  0.0484 -0.2934 -0.5239
 5154SOL    HW126921   1.038   1.794  10.178 -1.0161 -0.1669  2.7764
 5154SOL    HW226922   1.169   1.804  10.120  0.9751 -2.5055 -0.0938
 5155SOL     OW26923   0.397   1.968   2.227 -0.0374 -0.0761 -0.4732
 5155SOL    HW126924   0.443   1.941   2.307 -0.0901 -0.0063 -0.4200
 5155SOL    HW226925   0.378   1.880   2.194 -0.1803 -0.6421  1.1228
 5156SOL     OW26926   0.260   3.069  13.994  0.1816 -0.2583 -0.0402
 5156SOL    HW126927   0.297   3.071  13.906  0.7450 -2.3510  0.1594
 5156SOL    HW226928   0.342   3.045  14.037 -1.2718 -1.4586  2.0622
 5157SOL     OW26929   0.089   1.750  14.663  0.7972 -0.6882 -0.2951
 5157SOL    HW126930   0.119   1.839  14.683 -0.3234 -0.6467  1.1539
 5157SOL    HW226931   0.003   1.771  14.628  0.6165  1.8185  1.6736
 5158SOL     OW26932   3.665   1.542   5.771 -0.3967  0.7354  0.5587
 5158SOL    HW126933   3.629   1.469   5.721 -1.4942  0.1063  2.2737
 5158SOL    HW226934   3.713   1.502   5.843 -0.4118  1.8370  1.1759
 5159SOL     OW26935   1.124   2.701  16.790  0.1484  0.0732  0.0991
 5159SOL    HW126936   1.083   2.725  16.872  0.0056  0.2282 -0.0190
 5159SOL    HW226937   1.131   2.784  16.743  1.0527  0.2906  0.6114
 5160SOL     OW26938   3.008   1.177  15.595 -0.1401 -0.1750 -0.2281
 5160SOL    HW126939   3.011   1.188  15.500  1.0273  1.9367  0.0440
 5160SOL    HW226940   3.064   1.252  15.617 -1.7135  0.8373  0.3164
 5161SOL     OW26941   4.084   2.595  12.954 -0.3380  0.3930  0.2844
 5161SOL    HW126942   4.128   2.544  13.022  0.5110  0.1572 -0.4319
 5161SOL    HW226943   4.039   2.657  13.012  0.1859 -0.1327  1.2499
 5162SOL     OW26944   0.558   2.104   4.278  0.5297 -0.0891  0.4757
 5162SOL    HW126945   0.467   2.119   4.306  0.2867  2.0544 -1.3961
 5162SOL    HW226946   0.548   2.015   4.243 -1.7960  0.6453 -0.7728
 5163SOL     OW26947   1.110   1.949  10.921  0.3047  0.2862 -0.7244
 5163SOL    HW126948   1.115   1.881  10.855  2.6195  0.8843 -1.1848
 5163SOL    HW226949   1.015   1.947  10.932  0.3346  0.7989 -0.3396
 5164SOL     OW26950   3.583   3.110  10.670  1.0239 -0.0940  0.3068
 5164SOL    HW126951   3.531   3.147  10.741  1.8131  0.6215  0.5098
 5164SOL    HW226952   3.611   3.186  10.620  1.4988 -0.6834 -0.3238
 5165SOL     OW26953   0.501   0.368   9.622  0.3157  0.4331  0.1331
 5165SOL    HW126954   0.573   0.423   9.594  0.1789  0.6358  0.1813
 5165SOL    HW226955   0.518   0.282   9.583 -0.1288 -0.1318  1.1927
 5166SOL     OW26956   3.865   0.498   3.219  0.3166 -0.4780 -0.3144
 5166SOL    HW126957   3.924   0.426   3.238  0.1620 -0.1929  1.2983
 5166SOL    HW226958   3.794   0.487   3.282  1.7029  1.5959  1.6269
 5167SOL     OW26959   4.552   2.568   7.811 -0.3230  0.1619 -0.4425
 5167SOL    HW126960   4.598   2.485   7.797  0.0582  0.6740 -2.2614
 5167SOL    HW226961   4.623   2.631   7.798  0.1866 -0.2069  0.5747
 5168SOL     OW26962   2.527   3.869   3.303  0.0494 -0.0755  0.1805
 5168SOL    HW126963   2.601   3.899   3.357  0.4858 -3.5412  1.4848
 5168SOL    HW226964   2.471   3.945   3.320 -0.7659 -0.0092 -2.7895
 5169SOL     OW26965   1.717   2.319   7.634  0.2258  0.2358  0.6011
 5169SOL    HW126966   1.700   2.373   7.557  1.0394 -1.5272 -0.8305
 5169SOL    HW226967   1.670   2.238   7.613 -1.8227  1.8143 -0.9067
 5170SOL     OW26968   1.072   2.477   4.265 -0.6894  0.6955 -0.1189
 5170SOL    HW126969   1.007   2.519   4.322 -0.0373  0.8586  0.5119
 5170SOL    HW226970   1.023   2.466   4.184  0.0153 -2.3439 -0.1443
 5171SOL     OW26971   2.133   4.639   3.525 -0.1583 -0.5996  0.2287
 5171SOL    HW126972   2.126   4.676   3.613 -0.1082  0.0166 -0.0270
 5171SOL    HW226973   2.196   4.701   3.489 -1.9465  0.4797 -1.0573
 5172SOL     OW26974   0.842   1.441   8.587  0.1962 -0.3300 -0.9448
 5172SOL    HW126975   0.924   1.488   8.572 -0.2983  1.1002  0.8025
 5172SOL    HW226976   0.840   1.384   8.511  2.4403  0.7787 -1.8253
 5173SOL     OW26977   2.009   4.293   8.031 -0.5176 -0.2445 -0.1388
 5173SOL    HW126978   1.932   4.237   8.018 -1.3894  0.5997  1.3708
 5173SOL    HW226979   1.964   4.355   8.089 -2.3093 -1.2594 -0.4237
 5174SOL     OW26980   3.377   1.651   7.544  0.5753 -0.4457  0.6129
 5174SOL    HW126981   3.357   1.709   7.470  2.2651  0.5131  0.9051
 5174SOL    HW226982   3.419   1.583   7.492  3.6101  0.4846  1.8278
 5175SOL     OW26983   1.642   0.672  14.167  0.2089 -0.0136  0.1840
 5175SOL    HW126984   1.596   0.677  14.251  3.2944  0.6187  1.8198
 5175SOL    HW226985   1.578   0.617  14.121 -2.7370  1.9787  1.9769
 5176SOL     OW26986   2.391   1.175   7.705 -0.3364  0.2667  0.0195
 5176SOL    HW126987   2.363   1.168   7.796  0.9243 -0.9134  0.3151
 5176SOL    HW226988   2.379   1.270   7.700 -1.3738  0.1160 -0.3619
 5177SOL     OW26989   4.335   0.038   4.378 -0.2041  0.2388  0.1673
 5177SOL    HW126990   4.301   4.674   4.375 -2.3689  1.1402 -1.8891
 5177SOL    HW226991   4.428   0.016   4.386 -0.0684  0.2475 -1.4989
 5178SOL     OW26992   4.578   2.302   8.545  0.0621  0.1374 -0.4753
 5178SOL    HW126993   4.596   2.356   8.621  1.3180  0.1841 -0.8113
 5178SOL    HW226994   4.596   2.217   8.584 -1.9434  0.3522  0.9174
 5179SOL     OW26995   3.379   2.579   0.771 -0.4740 -0.5724 -0.1942
 5179SOL    HW126996   3.406   2.608   0.859 -0.8662 -0.6279 -0.0542
 5179SOL    HW226997   3.307   2.642   0.761  1.9720  2.1864 -0.4634
 5180SOL     OW26998   4.559   0.577  13.672  0.3997 -0.4745 -0.1925
 5180SOL    HW126999   4.654   0.588  13.679  0.2391  1.2964 -0.6915
 5180SOL    HW227000   4.540   0.639  13.602 -1.8562 -0.1160  0.7660
 5181SOL     OW27001   0.972   1.040   7.300  0.0923 -0.4640 -0.7102
 5181SOL    HW127002   0.936   1.125   7.272 -1.9319 -2.1548 -3.2062
 5181SOL    HW227003   1.065   1.064   7.302  0.0075 -0.1936  0.1937
 5182SOL     OW27004   0.128   3.882   8.530  0.1733 -1.0206  0.5824
 5182SOL    HW127005   0.174   3.807   8.492 -1.3361 -1.4602 -0.3488
 5182SOL    HW227006   0.106   3.857   8.620  0.2749 -2.3111  0.2532
 5183SOL     OW27007   4.012   0.681   6.645  0.5166  0.0168  0.3870
 5183SOL    HW127008   4.029   0.668   6.551 -0.0110 -0.8804  0.4184
 5183SOL    HW227009   3.922   0.649   6.640  0.8007 -0.4873 -1.8989
 5184SOL     OW27010   0.748   0.847   2.800 -0.1383 -0.1446 -0.4598
 5184SOL    HW127011   0.776   0.765   2.842  1.8203 -0.6171 -2.6942
 5184SOL    HW227012   0.666   0.860   2.848  1.6400 -0.6659  2.7746
 5185SOL     OW27013   2.813   4.435   8.889 -0.4219 -0.6482 -0.4036
 5185SOL    HW127014   2.792   4.341   8.886 -1.1240 -0.5558  1.5773
 5185SOL    HW227015   2.806   4.454   8.795 -1.9303 -4.5684 -1.0934
 5186SOL     OW27016   2.440   0.861  10.823  0.5127 -0.1593 -0.4391
 5186SOL    HW127017   2.391   0.788  10.784  1.9769 -0.1301 -2.3166
 5186SOL    HW227018   2.430   0.840  10.916 -0.2005 -1.2958 -0.7717
 5187SOL     OW27019   1.586   0.222   3.931 -0.0109  0.0648 -0.6244
 5187SOL    HW127020   1.647   0.266   3.990  1.7769 -0.8838 -1.7672
 5187SOL    HW227021   1.594   0.133   3.964 -0.8652  0.4475  0.6249
 5188SOL     OW27022   2.084   0.343   5.338 -0.1719 -0.3184  0.0722
 5188SOL    HW127023   2.127   0.262   5.364  0.8402  0.1002 -0.3129
 5188SOL    HW227024   2.004   0.341   5.391 -0.0195  0.0981  0.3231
 5189SOL     OW27025   1.442   0.121   3.469  0.3829 -0.0935 -0.0164
 5189SOL    HW127026   1.381   0.161   3.408 -0.5739  0.3604  1.2461
 5189SOL    HW227027   1.418   0.136   3.560  1.9492  2.2939 -0.0092
 5190SOL     OW27028   2.382   0.087   3.460 -0.3092 -0.1144  0.4366
 5190SOL    HW127029   2.402   0.155   3.525  0.6232  0.4535 -0.4569
 5190SOL    HW227030   2.465   0.039   3.460 -1.2655 -1.7472 -0.4093
 5191SOL     OW27031   0.502   4.386   7.009 -0.3007 -0.2213 -0.1805
 5191SOL    HW127032   0.572   4.445   6.980 -0.9304  0.8801  0.5362
 5191SOL    HW227033   0.544   4.306   7.040  1.2920 -0.1967 -2.2614
 5192SOL     OW27034   4.602   0.895   8.877 -0.2221 -0.2512  0.5289
 5192SOL    HW127035   4.629   0.819   8.929  2.4132  0.1485 -0.2831
 5192SOL    HW227036   4.538   0.936   8.936 -1.9812 -1.2779 -0.6620
 5193SOL     OW27037   0.194   4.007   9.537  0.0128 -0.1436 -0.6731
 5193SOL    HW127038   0.239   4.091   9.547  0.2470 -0.1525 -1.6089
 5193SOL    HW227039   0.257   3.960   9.483  2.1656  0.5350  1.2211
 5194SOL     OW27040   0.500   4.328  13.174 -0.1878  0.1732 -0.1899
 5194SOL    HW127041   0.450   4.262  13.127  0.0209  0.6926 -1.1647
 5194SOL    HW227042   0.515   4.288  13.259 -0.7997 -3.4477 -1.7654
 5195SOL     OW27043   3.157   2.674  12.107 -0.3685 -0.1934  0.0116
 5195SOL    HW127044   3.129   2.587  12.136  0.3401  0.2908  2.1304
 5195SOL    HW227045   3.082   2.729  12.130  0.9847  1.3892  0.5877
 5196SOL     OW27046   4.434   1.178   4.327  0.1357 -0.1915  0.4744
 5196SOL    HW127047   4.513   1.135   4.295 -0.5803 -1.4250  0.3965
 5196SOL    HW227048   4.448   1.271   4.308 -0.4088 -0.9647 -3.8729
 5197SOL     OW27049   3.314   3.110   3.443 -0.0316  0.1362  0.2714
 5197SOL    HW127050   3.300   3.017   3.464  0.0975 -0.0589 -0.5202
 5197SOL    HW227051   3.242   3.107   3.381  0.8526  1.3880 -0.8073
 5198SOL     OW27052   1.231   0.854   1.010 -0.1730 -0.3490  0.3484
 5198SOL    HW127053   1.325   0.869   1.002 -0.6125  1.2621 -1.7872
 5198SOL    HW227054   1.233   0.862   1.105 -0.7364  1.0814  0.2300
 5199SOL     OW27055   0.937   0.039   6.646 -0.6172  0.4034  0.6258
 5199SOL    HW127056   0.853   4.724   6.663  0.5459 -1.5746  1.4948
 5199SOL    HW227057   0.960   0.082   6.728  0.1150  0.9431  0.1370
 5200SOL     OW27058   1.341   2.069   8.569  0.0668 -0.2342 -0.2028
 5200SOL    HW127059   1.302   2.089   8.484  1.3395  1.9333 -0.2776
 5200SOL    HW227060   1.296   2.133   8.625  2.8189  1.9022 -0.4145
 5201SOL     OW27061   1.211   4.217  15.572 -0.3757 -0.2725  0.5377
 5201SOL    HW127062   1.169   4.180  15.495  2.6749 -1.2950 -0.6489
 5201SOL    HW227063   1.297   4.175  15.568 -0.9164 -1.1695 -1.3832
 5202SOL     OW27064   2.471   4.214   4.028  0.2167  0.1972  0.2028
 5202SOL    HW127065   2.502   4.232   3.939 -0.0314  2.2390  0.5347
 5202SOL    HW227066   2.511   4.285   4.079 -0.9263 -0.0742  1.4837
 5203SOL     OW27067   4.144   2.062  13.664 -0.0127  1.0359  0.4172
 5203SOL    HW127068   4.152   1.996  13.732  1.3737 -0.0283 -0.7796
 5203SOL    HW227069   4.049   2.072  13.652 -0.0411  1.7754  1.2336
 5204SOL     OW27070   4.241   2.552   9.196  1.0038  0.1665 -0.6180
 5204SOL    HW127071   4.209   2.466   9.167  1.4669  0.1687 -1.1533
 5204SOL    HW227072   4.329   2.565   9.159  1.7310 -0.8657  0.7326
 5205SOL     OW27073   4.622   0.012   4.061  0.2558  0.5342  0.4308
 5205SOL    HW127074   4.568   0.038   3.986  2.0090 -0.6503 -1.2396
 5205SOL    HW227075   4.703   0.002   4.011  0.6097  1.1176  0.8909
 5206SOL     OW27076   2.005   3.589   3.893 -0.1394  0.3031  0.3368
 5206SOL    HW127077   2.058   3.554   3.822 -1.0705 -0.3880 -0.0159
 5206SOL    HW227078   2.009   3.685   3.888 -1.4919  0.2303 -2.2301
 5207SOL     OW27079   3.208   1.299   2.515  0.0917  0.2079 -0.6789
 5207SOL    HW127080   3.130   1.267   2.468  0.3917 -0.4688 -0.7197
 5207SOL    HW227081   3.184   1.286   2.607  1.7670 -1.1475 -0.4459
 5208SOL     OW27082   0.633   0.216   0.623 -0.3166  0.1754 -0.0762
 5208SOL    HW127083   0.570   0.237   0.554 -0.2505  1.3630  0.2211
 5208SOL    HW227084   0.718   0.234   0.583 -0.2984 -1.5905 -0.8447
 5209SOL     OW27085   1.456   1.957   2.341  0.0624  0.0829 -0.0891
 5209SOL    HW127086   1.464   1.999   2.426 -1.8929 -0.5145  0.3747
 5209SOL    HW227087   1.542   1.974   2.302  0.7542 -1.2457  0.8305
 5210SOL     OW27088   2.975   3.569   3.532  0.0124 -0.1750  0.1191
 5210SOL    HW127089   2.954   3.600   3.620  0.7653 -0.6460  0.4630
 5210SOL    HW227090   3.032   3.493   3.548  0.3596  0.0680  0.0293
 5211SOL     OW27091   3.122   3.302   3.191 -0.3136  0.0941 -0.3594
 5211SOL    HW127092   3.028   3.309   3.209 -0.3934  1.5446 -1.4081
 5211SOL    HW227093   3.136   3.208   3.205 -0.1764  0.2224  0.3901
 5212SOL     OW27094   2.720   2.076   7.082 -0.1367 -0.4716  0.3753
 5212SOL    HW127095   2.784   2.144   7.058 -1.1262  0.2794 -0.1557
 5212SOL    HW227096   2.642   2.124   7.108 -0.5568 -0.1959 -1.3647
 5213SOL     OW27097   1.686   3.116  16.963 -0.1750 -0.1385 -0.1011
 5213SOL    HW127098   1.771   3.099  17.005 -0.5787  0.0334  0.7860
 5213SOL    HW227099   1.711   3.198  16.920 -1.6567 -0.2800 -1.2043
 5214SOL     OW27100   2.600   4.681  11.643 -0.2448  0.7820  0.1241
 5214SOL    HW127101   2.640   4.598  11.671  0.5260  0.8114 -0.8664
 5214SOL    HW227102   2.612   4.677  11.548  1.5736 -1.5429  0.4534
 5215SOL     OW27103   1.330   1.663   4.847 -0.2016 -0.2404 -0.6366
 5215SOL    HW127104   1.264   1.732   4.849  0.3368  0.2452  0.0810
 5215SOL    HW227105   1.377   1.685   4.927  0.5908 -0.0950 -1.1404
 5216SOL     OW27106   1.516   1.157   8.153  0.1874 -0.0110 -0.5166
 5216SOL    HW127107   1.489   1.232   8.206  0.5794  2.5761 -3.9909
 5216SOL    HW227108   1.437   1.110   8.127  0.1545 -2.0276  3.1406
 5217SOL     OW27109   0.741   2.965   3.687  0.1171 -0.2778  0.6351
 5217SOL    HW127110   0.812   2.967   3.751  0.1036  1.4144  0.5936
 5217SOL    HW227111   0.770   2.890   3.635  3.0638  1.3527 -0.0837
 5218SOL     OW27112   0.975   4.161  12.096  0.2760  0.2880 -0.4816
 5218SOL    HW127113   1.042   4.156  12.164  0.2003  2.5271 -0.2184
 5218SOL    HW227114   0.914   4.100  12.136  0.2419  2.0278  2.1418
 5219SOL     OW27115   3.868   0.603  10.613 -0.1190  0.3095  0.4541
 5219SOL    HW127116   3.915   0.547  10.552 -0.6086 -1.1353  1.4030
 5219SOL    HW227117   3.777   0.595  10.587 -0.5346  2.1985  1.3128
 5220SOL     OW27118   1.759   0.136  10.016  0.2899  0.4405  0.8043
 5220SOL    HW127119   1.754   0.045  10.047 -1.7975 -0.3399 -1.8136
 5220SOL    HW227120   1.835   0.129   9.958 -1.5240 -1.3391 -1.3346
 5221SOL     OW27121   0.236   2.192   0.457  0.4780 -0.7827 -0.0309
 5221SOL    HW127122   0.317   2.236   0.480 -0.5926  0.4943  1.2436
 5221SOL    HW227123   0.202   2.259   0.397 -0.0503 -2.2140 -1.3400
 5222SOL     OW27124   2.115   3.831   2.192 -0.0237  0.1399  0.6496
 5222SOL    HW127125   2.122   3.737   2.175 -0.8380  0.1038  0.5082
 5222SOL    HW227126   2.040   3.861   2.141 -0.1779 -0.4543  0.5205
 5223SOL     OW27127   2.201   1.076  11.780  0.0172  0.6585  0.4163
 5223SOL    HW127128   2.281   1.043  11.821  0.3446  1.0584  0.0987
 5223SOL    HW227129   2.222   1.169  11.790 -0.3127  0.9302 -1.4811
 5224SOL     OW27130   0.811   3.769   8.298  0.8868 -0.9434  0.0745
 5224SOL    HW127131   0.730   3.792   8.344  0.7971  0.4729 -0.8029
 5224SOL    HW227132   0.851   3.698   8.349 -0.6328 -1.6610  0.2636
 5225SOL     OW27133   1.852   4.650   3.341  0.2085 -0.3365 -0.1630
 5225SOL    HW127134   1.786   4.644   3.410  1.0540 -1.9613  0.5040
 5225SOL    HW227135   1.872   4.559   3.321 -0.2810 -0.7445  1.1558
 5226SOL     OW27136   3.431   3.830  10.589 -0.0666  0.4073  0.3526
 5226SOL    HW127137   3.350   3.831  10.538  0.2518 -0.1099 -0.1641
 5226SOL    HW227138   3.408   3.767  10.658  1.4097  2.2173  2.5021
 5227SOL     OW27139   2.824   3.367   2.316  0.2968  0.3435 -0.4497
 5227SOL    HW127140   2.735   3.353   2.283 -0.3303  4.2598 -0.3638
 5227SOL    HW227141   2.834   3.292   2.375  1.4728  2.2664  1.7754
 5228SOL     OW27142   1.846   0.077  11.522  0.0807 -0.2340 -1.0022
 5228SOL    HW127143   1.815   0.167  11.525 -1.8280 -0.9634  1.0799
 5228SOL    HW227144   1.914   0.067  11.589  0.7494 -2.1881 -1.9568
 5229SOL     OW27145   0.035   1.486   8.600 -0.0523  0.0721  0.1758
 5229SOL    HW127146   0.086   1.563   8.624  1.2408 -0.0493 -2.2137
 5229SOL    HW227147   4.698   1.527   8.541 -0.5255 -0.9596 -0.0365
 5230SOL     OW27148   1.357   2.991   2.709 -0.0287  0.5506 -0.5394
 5230SOL    HW127149   1.289   2.931   2.677 -1.0465  0.5259  1.7008
 5230SOL    HW227150   1.382   2.932   2.779 -1.1783  0.3703 -0.2783
 5231SOL     OW27151   4.321   3.819   8.509  0.2942  0.1556 -0.3643
 5231SOL    HW127152   4.297   3.884   8.575  1.5951 -1.5652  1.8103
 5231SOL    HW227153   4.309   3.739   8.560  0.5572  0.1010 -0.3906
 5232SOL     OW27154   3.454   1.583  13.979 -0.3702 -0.0836 -0.2305
 5232SOL    HW127155   3.525   1.542  13.930 -0.3955 -0.5975  0.1595
 5232SOL    HW227156   3.494   1.588  14.066 -3.0911 -0.4616  1.0475
 5233SOL     OW27157   3.703   3.082   4.298 -0.3105 -0.2368 -0.1758
 5233SOL    HW127158   3.623   3.046   4.261 -0.6094 -0.5787  0.8178
 5233SOL    HW227159   3.746   3.087   4.212 -1.8254  2.0261 -0.8054
 5234SOL     OW27160   1.277   4.505   8.414 -0.4893  0.1752  0.3099
 5234SOL    HW127161   1.302   4.567   8.483 -0.1455 -1.9268  2.1056
 5234SOL    HW227162   1.190   4.475   8.442 -0.5729  1.0145  0.9413
 5235SOL     OW27163   2.779   1.132   4.473 -0.1493  0.8308  0.7510
 5235SOL    HW127164   2.839   1.175   4.413 -0.9389  0.1368 -0.5258
 5235SOL    HW227165   2.743   1.208   4.519 -1.4143 -0.0106  1.1582
 5236SOL     OW27166   3.297   3.988   5.007 -0.4699 -0.3599 -0.4408
 5236SOL    HW127167   3.223   3.944   4.967 -0.1013 -0.3493 -1.1393
 5236SOL    HW227168   3.278   4.077   4.977  0.9932  0.4923  1.1180
 5237SOL     OW27169   1.404   1.667   6.675 -0.2626  0.5230 -0.2250
 5237SOL    HW127170   1.312   1.656   6.701 -0.6615  1.1630 -1.3236
 5237SOL    HW227171   1.390   1.725   6.600  0.0418  2.1613  1.0003
 5238SOL     OW27172   4.479   4.170   4.756 -0.3799  0.1065  0.2576
 5238SOL    HW127173   4.538   4.230   4.801  1.0080 -0.6034 -0.6073
 5238SOL    HW227174   4.492   4.197   4.665 -1.8058 -0.1983 -0.0293
 5239SOL     OW27175   4.522   1.366   7.283  0.5076 -0.0459 -0.1443
 5239SOL    HW127176   4.512   1.420   7.361  0.3627 -0.7746  0.3289
 5239SOL    HW227177   4.617   1.356   7.277  0.6176  1.5582 -1.1364
 5240SOL     OW27178   0.253   1.472  10.475 -0.2846 -0.1017  0.0209
 5240SOL    HW127179   0.296   1.440  10.555  0.4248 -2.2767 -1.2364
 5240SOL    HW227180   0.331   1.494  10.425  0.7069 -0.9346  1.1931
 5241SOL     OW27181   2.738   3.938  16.125  0.1018  0.5397 -0.0188
 5241SOL    HW127182   2.731   4.032  16.107 -3.9406  0.4433  0.9322
 5241SOL    HW227183   2.721   3.944  16.219  0.3552  0.2017  0.0457
 5242SOL     OW27184   4.213   0.701   5.057  0.0142 -0.5129 -0.1354
 5242SOL    HW127185   4.301   0.664   5.068  0.3749  0.6077  0.7805
 5242SOL    HW227186   4.223   0.796   5.055 -0.4494 -0.5273 -2.6902
 5243SOL     OW27187   1.172   0.485   4.005 -0.3487  0.5043 -0.1936
 5243SOL    HW127188   1.121   0.439   3.939  0.1578  0.1799 -0.3585
 5243SOL    HW227189   1.160   0.575   3.974  1.1180  0.2978 -1.3943
 5244SOL     OW27190   0.405   4.523   9.241  0.3408 -0.2142  0.1486
 5244SOL    HW127191   0.424   4.527   9.335  1.0573  0.9849 -0.0495
 5244SOL    HW227192   0.374   4.433   9.235 -1.6985  0.4406  0.5307
 5245SOL     OW27193   4.047   1.156   5.463 -0.1897 -0.2188  0.0459
 5245SOL    HW127194   4.096   1.094   5.517 -1.6904 -0.3964  1.1851
 5245SOL    HW227195   4.006   1.092   5.405  1.6129 -1.2302 -0.1287
 5246SOL     OW27196   0.856   0.817   6.142  0.3641  0.2435  1.3251
 5246SOL    HW127197   0.861   0.884   6.073 -0.0951 -0.0646  0.9948
 5246SOL    HW227198   0.948   0.801   6.164  0.3571  0.7625  1.7461
 5247SOL     OW27199   1.530   3.924  12.812  0.0546  0.1393  0.2765
 5247SOL    HW127200   1.579   3.843  12.823 -1.2953 -0.7324 -0.1865
 5247SOL    HW227201   1.556   3.948  12.723 -0.0463  1.1877  0.5222
 5248SOL     OW27202   0.264   0.171   9.842  0.5951  0.0101  0.3392
 5248SOL    HW127203   0.301   0.198   9.926  0.6545  1.9171 -0.2841
 5248SOL    HW227204   0.284   0.254   9.797 -0.1077  0.0762  0.1551
 5249SOL     OW27205   1.230   4.163   4.091 -0.2523  0.2655 -0.1449
 5249SOL    HW127206   1.180   4.141   4.170  1.6216 -1.0872  0.6555
 5249SOL    HW227207   1.258   4.251   4.117  0.7239 -0.1225  0.1079
 5250SOL     OW27208   2.660   2.028   5.336 -0.4796  0.6446 -0.2517
 5250SOL    HW127209   2.704   1.946   5.312  1.7548  1.5009  0.9124
 5250SOL    HW227210   2.719   2.092   5.295  1.3618 -2.4692 -2.4657
 5251SOL     OW27211   0.475   0.114   8.757  0.5999 -0.1686  0.0382
 5251SOL    HW127212   0.387   0.091   8.785  0.2414 -0.7190 -1.5204
 5251SOL    HW227213   0.453   0.187   8.700  0.5047  0.3094  0.6991
 5252SOL     OW27214   0.139   4.606  17.615 -0.2077  0.1225  0.1959
 5252SOL    HW127215   0.160   4.518  17.584 -0.4656  0.1723 -0.1266
 5252SOL    HW227216   0.225   4.644  17.631  0.0619 -0.2581 -0.3254
 5253SOL     OW27217   0.214   1.176   8.376  0.5335 -0.1461 -0.4047
 5253SOL    HW127218   0.234   1.206   8.464  0.0175  0.9641 -0.6482
 5253SOL    HW227219   0.207   1.081   8.377 -2.0208  0.0554  0.8063
 5254SOL     OW27220   2.308   3.576   6.779 -0.2629  0.4325 -0.4467
 5254SOL    HW127221   2.357   3.493   6.781  0.8781  1.0974 -1.0040
 5254SOL    HW227222   2.375   3.627   6.824 -0.3324  2.2852 -2.5136
 5255SOL     OW27223   1.851   2.332   5.767  0.1350  0.0013 -0.8407
 5255SOL    HW127224   1.801   2.269   5.819  0.9774  1.2885  1.5364
 5255SOL    HW227225   1.818   2.407   5.815  1.4821  0.8533 -1.2461
 5256SOL     OW27226   1.141   4.042   8.708 -0.5150 -0.2373 -0.0103
 5256SOL    HW127227   1.067   4.097   8.735 -0.2938  0.1683 -0.2284
 5256SOL    HW227228   1.092   3.988   8.646  0.2387  0.8359 -1.5356
 5257SOL     OW27229   3.536   2.247  12.799  0.1839 -0.6685  0.1873
 5257SOL    HW127230   3.502   2.164  12.765 -2.5344 -0.2110  1.7662
 5257SOL    HW227231   3.529   2.224  12.892  1.1081  1.3390  0.7387
 5258SOL     OW27232   1.558   2.942   4.476 -0.2349 -0.2795 -0.3975
 5258SOL    HW127233   1.546   3.009   4.409  2.8920 -0.3668 -1.0529
 5258SOL    HW227234   1.558   2.866   4.418 -0.5887 -1.8681  1.6726
 5259SOL     OW27235   3.922   2.190   4.521 -0.0441 -0.4639 -0.0526
 5259SOL    HW127236   3.989   2.166   4.585  0.8533  1.0837 -0.4215
 5259SOL    HW227237   3.845   2.154   4.566 -1.1340  0.1659 -1.4305
 5260SOL     OW27238   0.089   2.994   6.467  0.7286  0.1962  0.1944
 5260SOL    HW127239   0.054   3.062   6.524 -0.7223  1.1134 -1.7806
 5260SOL    HW227240   0.140   2.944   6.530 -0.2766  0.7467  1.4507
 5261SOL     OW27241   3.089   2.250   3.327 -0.6947 -0.5365 -0.1730
 5261SOL    HW127242   3.030   2.300   3.270  1.3946  0.4025 -1.4924
 5261SOL    HW227243   3.105   2.312   3.397 -1.5444 -0.0160 -0.4374
 5262SOL     OW27244   2.034   2.502   2.048 -0.9706  0.4399  0.3222
 5262SOL    HW127245   2.013   2.578   2.102 -2.2811 -0.0272  0.4510
 5262SOL    HW227246   1.963   2.502   1.984 -1.1909  2.9512  0.5677
 5263SOL     OW27247   1.127   2.799   1.874  0.4291 -0.0408 -0.0300
 5263SOL    HW127248   1.098   2.816   1.964 -1.6750 -0.7006 -0.5653
 5263SOL    HW227249   1.129   2.883   1.828 -0.0261 -1.1017 -1.9850
 5264SOL     OW27250   0.150   0.265  15.762  0.3889 -0.1421  0.2662
 5264SOL    HW127251   0.111   0.347  15.733 -1.5161 -1.3002 -0.4655
 5264SOL    HW227252   0.244   0.276  15.750  0.0301  1.1830 -1.2470
 5265SOL     OW27253   4.271   0.178  13.003 -0.7048  0.5262 -0.2628
 5265SOL    HW127254   4.214   0.218  13.070 -1.7161  0.6444 -1.1916
 5265SOL    HW227255   4.258   0.246  12.937 -0.5558  2.2923  1.5209
 5266SOL     OW27256   0.778   3.831   5.505  0.2297 -0.4862 -0.2998
 5266SOL    HW127257   0.755   3.800   5.592 -2.3889  2.3035  0.0115
 5266SOL    HW227258   0.773   3.755   5.447  1.7230 -0.6406 -0.2240
 5267SOL     OW27259   1.246   4.091   7.774  0.6392  0.1659 -0.8635
 5267SOL    HW127260   1.284   4.049   7.851 -2.3780  2.5437  1.9511
 5267SOL    HW227261   1.182   4.148   7.817  0.3773  0.0209 -1.0599
 5268SOL     OW27262   3.701   0.070   1.323  0.1443 -0.7515  0.0878
 5268SOL    HW127263   3.689   4.709   1.360 -1.6934 -1.3163 -1.7670
 5268SOL    HW227264   3.698   0.054   1.228  0.6234  0.5832 -0.1551
 5269SOL     OW27265   1.956   0.219  14.995 -0.2459 -0.0978  0.1252
 5269SOL    HW127266   1.923   0.304  14.967  0.3218  0.4804  1.2138
 5269SOL    HW227267   1.878   0.165  14.984  0.6300 -0.9021 -1.9792
 5270SOL     OW27268   2.070   1.204  14.844  0.3417  0.0921  0.2881
 5270SOL    HW127269   2.066   1.299  14.832  0.1100  0.0516  0.0535
 5270SOL    HW227270   2.030   1.211  14.931 -3.7977  1.1475 -1.7051
 5271SOL     OW27271   2.636   0.317   4.610  0.2634  0.0203 -0.1650
 5271SOL    HW127272   2.688   0.319   4.530  0.3877 -1.2728 -0.1202
 5271SOL    HW227273   2.669   0.238   4.653 -0.3333 -0.8863 -1.3575
 5272SOL     OW27274   4.224   4.043   3.369 -0.1436 -0.1946  0.4683
 5272SOL    HW127275   4.203   3.964   3.320 -0.3413  0.3065 -0.2584
 5272SOL    HW227276   4.136   4.079   3.382 -0.1696 -0.2534  0.4540
 5273SOL     OW27277   2.352   4.085   3.289  0.1826 -0.9447 -0.1316
 5273SOL    HW127278   2.351   4.159   3.229  0.6964 -1.0339 -0.2503
 5273SOL    HW227279   2.270   4.104   3.335 -0.5268 -0.3065 -1.6434
 5274SOL     OW27280   1.239   3.918   3.968 -0.4948 -0.1826  0.3751
 5274SOL    HW127281   1.299   3.871   4.025  0.1142  0.0336 -0.0898
 5274SOL    HW227282   1.229   4.004   4.008  1.6628  0.4780 -0.5250
 5275SOL     OW27283   3.122   2.449   7.191 -0.3581 -0.2840  0.3264
 5275SOL    HW127284   3.067   2.477   7.117  0.9295  1.8207  0.1713
 5275SOL    HW227285   3.056   2.422   7.256 -0.8197 -1.9048 -0.8160
 5276SOL     OW27286   3.204   1.609   5.400 -0.3645  0.2723  0.0078
 5276SOL    HW127287   3.161   1.610   5.485  0.0475 -0.1511  0.2161
 5276SOL    HW227288   3.293   1.594   5.429 -0.4939 -0.2797  0.1044
 5277SOL     OW27289   3.218   4.663   5.619 -0.3847  0.3965  0.0970
 5277SOL    HW127290   3.214   4.569   5.637 -2.5149  0.1485 -1.7350
 5277SOL    HW227291   3.283   4.667   5.549 -0.0749  0.1598  0.3660
 5278SOL     OW27292   0.717   4.379   3.536 -0.4416 -0.6585  0.4187
 5278SOL    HW127293   0.806   4.347   3.521  0.0347  1.1103 -0.5179
 5278SOL    HW227294   0.670   4.329   3.469 -0.9922  1.2770 -0.6524
 5279SOL     OW27295   3.286   2.078   5.672 -0.6459 -0.1345 -0.0062
 5279SOL    HW127296   3.195   2.073   5.703 -1.7772  1.9929 -2.9177
 5279SOL    HW227297   3.301   1.994   5.629 -0.8311  0.1748 -0.6803
 5280SOL     OW27298   2.159   3.959   8.338  0.9738 -0.2513  0.4256
 5280SOL    HW127299   2.241   3.986   8.379  1.0368  0.3554 -0.1085
 5280SOL    HW227300   2.103   4.034   8.355  0.7480 -0.2866 -0.1534
 5281SOL     OW27301   0.269   0.309   8.421  0.1628  0.0814 -0.2031
 5281SOL    HW127302   0.307   0.369   8.485 -0.6130  0.7693 -0.3916
 5281SOL    HW227303   0.235   0.358   8.346 -0.5241  1.8272  1.2707
 5282SOL     OW27304   1.437   0.235  10.546 -0.5747 -0.3848  0.3412
 5282SOL    HW127305   1.364   0.248  10.606 -2.2236 -0.6747 -1.5667
 5282SOL    HW227306   1.492   0.311  10.563  0.6650 -1.3485  0.6249
 5283SOL     OW27307   2.535   1.074   0.094 -0.2007  0.3090  0.5190
 5283SOL    HW127308   2.486   1.108   0.019  2.2620 -0.1852 -1.2852
 5283SOL    HW227309   2.457   1.045   0.142 -0.2916  0.3358  0.3882
 5284SOL     OW27310   1.748   3.835   7.756 -0.1630  0.1215 -0.2634
 5284SOL    HW127311   1.712   3.756   7.795 -3.0198  1.5418 -0.0649
 5284SOL    HW227312   1.838   3.826   7.789 -0.9045  0.8659  1.9826
 5285SOL     OW27313   2.804   1.216   3.310  0.0491  0.5577 -0.2164
 5285SOL    HW127314   2.795   1.310   3.297 -2.1246  0.3675 -0.1191
 5285SOL    HW227315   2.812   1.204   3.405 -1.7072  1.7635  0.0736
 5286SOL     OW27316   0.414   1.801  10.427  0.3414 -0.3909  0.4825
 5286SOL    HW127317   0.378   1.806  10.339  0.4300  0.3904  0.4963
 5286SOL    HW227318   0.372   1.720  10.456  2.1724 -2.4198 -2.5403
 5287SOL     OW27319   1.716   3.155   4.638  0.1333  0.6609  0.8878
 5287SOL    HW127320   1.658   3.128   4.708  0.6955 -0.6369  0.8396
 5287SOL    HW227321   1.683   3.102   4.566 -0.1169  2.5317 -0.4035
 5288SOL     OW27322   2.957   0.108   7.333 -0.3404 -0.1206 -0.3550
 5288SOL    HW127323   2.901   0.178   7.302  1.0762  1.7739  1.3689
 5288SOL    HW227324   2.891   0.060   7.382 -1.7230  3.3702  1.1771
 5289SOL     OW27325   3.919   3.421   5.608 -0.0644  0.1657 -0.4000
 5289SOL    HW127326   3.826   3.430   5.630  0.1065 -0.4885  0.6101
 5289SOL    HW227327   3.951   3.487   5.669 -0.0528 -0.2014 -0.0101
 5290SOL     OW27328   4.707   2.432  16.899  0.0243  0.0076 -0.1751
 5290SOL    HW127329   4.680   2.509  16.948  0.6438  1.6181 -2.3489
 5290SOL    HW227330   0.015   2.376  16.969  0.8615  0.1907 -0.4294
 5291SOL     OW27331   4.169   1.479   6.849  0.0551 -0.0037 -0.8207
 5291SOL    HW127332   4.185   1.509   6.939 -2.9342 -0.3870 -0.1553
 5291SOL    HW227333   4.075   1.496   6.840 -0.0738 -0.7912 -0.9374
 5292SOL     OW27334   1.466   4.316  12.591 -0.3283  0.1274 -0.1556
 5292SOL    HW127335   1.428   4.376  12.527  0.0978 -0.7514 -1.2412
 5292SOL    HW227336   1.529   4.375  12.634 -1.0757  1.1583 -0.4702
 5293SOL     OW27337   1.716   2.259  10.875  0.2667  0.1476 -0.0707
 5293SOL    HW127338   1.696   2.171  10.906  1.6489 -0.3952 -0.6878
 5293SOL    HW227339   1.811   2.252  10.859 -0.4645 -2.2995 -3.4252
 5294SOL     OW27340   2.740   0.428   3.241  0.0431 -0.1455  0.0030
 5294SOL    HW127341   2.716   0.455   3.153  0.2834  2.9863  0.8976
 5294SOL    HW227342   2.816   0.372   3.223 -0.1814 -0.3684 -0.2395
 5295SOL     OW27343   2.048   2.820   2.631 -0.3910 -0.0419  0.6058
 5295SOL    HW127344   2.049   2.905   2.586 -1.9578  0.1254  0.8529
 5295SOL    HW227345   2.136   2.823   2.667 -0.4943  0.0809  0.8495
 5296SOL     OW27346   4.326   1.976   6.363  0.0714  0.3341  0.1708
 5296SOL    HW127347   4.252   2.002   6.416  2.3106  0.5048  3.2167
 5296SOL    HW227348   4.296   1.998   6.275 -1.7437  1.4272  1.0745
 5297SOL     OW27349   1.195   1.244   0.878  0.3363  0.3148 -0.5790
 5297SOL    HW127350   1.118   1.297   0.860  0.0940 -0.8168 -2.8202
 5297SOL    HW227351   1.160   1.169   0.925 -0.5027  1.6869  1.0302
 5298SOL     OW27352   3.444   1.760   8.301 -0.4117 -0.7151 -0.1942
 5298SOL    HW127353   3.506   1.758   8.229  2.3430 -0.2166  2.1486
 5298SOL    HW227354   3.498   1.800   8.369 -0.9706  1.4521 -1.0288
 5299SOL     OW27355   1.422   0.624   8.803  0.2084 -0.6203 -0.3513
 5299SOL    HW127356   1.476   0.702   8.818 -0.2880 -1.0264  3.6350
 5299SOL    HW227357   1.337   0.662   8.779  2.2826  2.6564 -2.6227
 5300SOL     OW27358   2.162   4.690   7.104  0.1894 -0.1207 -0.1625
 5300SOL    HW127359   2.223   4.720   7.171  0.8926 -1.6810 -0.1008
 5300SOL    HW227360   2.171   0.040   7.047  1.0786  1.0609  1.5581
 5301SOL     OW27361   3.173   0.250   5.825  0.3689 -0.0511 -0.4922
 5301SOL    HW127362   3.254   0.239   5.774  2.8662  1.8958  3.0471
 5301SOL    HW227363   3.171   0.345   5.839  3.4500 -0.0397 -0.0865
 5302SOL     OW27364   4.667   2.937   7.606 -0.0332  0.4687 -0.4162
 5302SOL    HW127365   4.580   2.936   7.646 -0.5092 -0.8024 -1.4974
 5302SOL    HW227366   4.722   2.918   7.683 -0.4273 -0.1008 -0.2773
 5303SOL     OW27367   1.942   3.774  14.757 -0.5720 -0.6270  0.0467
 5303SOL    HW127368   1.883   3.817  14.818  2.3621 -0.1875  2.6036
 5303SOL    HW227369   1.979   3.840  14.698 -0.8510 -1.2471 -0.8333
 5304SOL     OW27370   2.292   2.136   7.464  0.3132  0.1761  0.0913
 5304SOL    HW127371   2.319   2.224   7.491  0.5664 -0.5568  2.2361
 5304SOL    HW227372   2.264   2.093   7.545  2.3161 -0.4697  0.4469
 5305SOL     OW27373   0.010   2.164   7.571  0.4963  0.2507 -0.8194
 5305SOL    HW127374   0.078   2.231   7.575  1.8413 -1.2349  1.3428
 5305SOL    HW227375   0.054   2.079   7.560  0.7001  0.0233  1.7131
 5306SOL     OW27376   0.539   1.945  10.207  0.7660 -0.0979 -0.3366
 5306SOL    HW127377   0.469   1.971  10.147  0.8123  0.8333  0.0188
 5306SOL    HW227378   0.579   1.859  10.194  1.0461 -0.1370  0.7416
 5307SOL     OW27379   2.475   3.854   6.123  0.7927  0.1533  0.0452
 5307SOL    HW127380   2.561   3.851   6.080  0.3681 -0.4175 -0.7622
 5307SOL    HW227381   2.474   3.942   6.159 -0.4346  0.1253  0.0593
 5308SOL     OW27382   3.031   1.669   6.967 -0.6243  0.6108  0.1784
 5308SOL    HW127383   3.055   1.683   7.059 -1.6524  1.2274  0.3542
 5308SOL    HW227384   3.043   1.576   6.952  1.9250  1.1378 -1.0809
 5309SOL     OW27385   3.549   3.119   6.847  0.0091 -0.0184  0.2721
 5309SOL    HW127386   3.472   3.099   6.900  0.1782 -0.4004  0.3695
 5309SOL    HW227387   3.575   3.031   6.820  2.5365  0.5891  0.7040
 5310SOL     OW27388   4.266   1.490   6.608 -0.4438 -0.1853 -0.0143
 5310SOL    HW127389   4.224   1.485   6.694 -0.1961 -0.5362  0.0829
 5310SOL    HW227390   4.300   1.579   6.599 -0.7189 -0.1209 -0.4190
 5311SOL     OW27391   4.114   3.776   6.322  0.1016 -0.4956  0.7640
 5311SOL    HW127392   4.052   3.703   6.318  0.9262 -1.2334  1.3167
 5311SOL    HW227393   4.160   3.759   6.405  0.9836  0.3013  0.4295
 5312SOL     OW27394   4.421   1.449  12.053 -0.4516  0.7132 -0.5688
 5312SOL    HW127395   4.443   1.473  12.143 -1.0949 -2.2424  0.3930
 5312SOL    HW227396   4.400   1.355  12.056  3.2992 -0.1334 -0.3104
 5313SOL     OW27397   1.976   4.487   5.433  0.0954  0.2168  0.3825
 5313SOL    HW127398   2.047   4.443   5.479  0.3452  1.0642  0.8044
 5313SOL    HW227399   1.921   4.409   5.438  1.6519 -0.9439 -0.8024
 5314SOL     OW27400   2.645   3.616   5.255  0.6706 -0.6373  1.0440
 5314SOL    HW127401   2.648   3.706   5.287  1.1316 -0.0370 -0.6617
 5314SOL    HW227402   2.634   3.565   5.335 -2.3864 -1.5662  0.0241
 5315SOL     OW27403   3.834   0.707   5.693 -0.2115 -0.3941 -0.2739
 5315SOL    HW127404   3.786   0.674   5.769  0.0973  2.1090  1.0148
 5315SOL    HW227405   3.927   0.688   5.709 -0.1153 -1.6485 -2.3781
 5316SOL     OW27406   1.035   4.623   3.028  0.4669  0.0482  0.6327
 5316SOL    HW127407   1.054   4.577   2.946  1.2108  0.6804  0.4446
 5316SOL    HW227408   1.036   4.717   3.007 -0.9007 -0.4121 -1.3886
 5317SOL     OW27409   3.735   3.237   1.510 -0.9281  0.3979 -0.2556
 5317SOL    HW127410   3.725   3.332   1.518 -0.5204  0.5858 -1.7892
 5317SOL    HW227411   3.650   3.208   1.544 -1.6614  2.8430  0.0443
 5318SOL     OW27412   0.816   3.423   2.488 -0.5318 -0.5551  0.3779
 5318SOL    HW127413   0.790   3.357   2.552 -1.3452  2.2065  2.8727
 5318SOL    HW227414   0.738   3.473   2.462  0.1912  0.2933 -0.1761
 5319SOL     OW27415   1.014   1.682   4.801  0.1477  0.5170 -0.4613
 5319SOL    HW127416   0.952   1.666   4.873  1.2108  0.6810  0.5021
 5319SOL    HW227417   1.062   1.599   4.805  0.2387  0.5595 -0.6885
 5320SOL     OW27418   2.287   3.135   5.260  0.3292  0.2134  0.3839
 5320SOL    HW127419   2.367   3.114   5.212 -0.7387 -0.7577 -0.9425
 5320SOL    HW227420   2.221   3.147   5.192 -0.1142 -1.7573  0.4664
 5321SOL     OW27421   3.599   2.529   6.451 -0.0425  0.2258  0.3781
 5321SOL    HW127422   3.602   2.500   6.542  0.1592  0.5911  0.4858
 5321SOL    HW227423   3.523   2.483   6.415  0.2613 -0.0610  0.1022
 5322SOL     OW27424   4.498   4.278   7.465  0.2266  0.1243 -0.4897
 5322SOL    HW127425   4.490   4.183   7.456  3.2302 -0.1920  0.1642
 5322SOL    HW227426   4.535   4.276   7.553  1.2647  0.6472 -0.9177
 5323SOL     OW27427   4.636   1.371  17.034 -0.0199  0.1623  0.2553
 5323SOL    HW127428   4.661   1.282  17.061  1.0578  0.1830 -0.6814
 5323SOL    HW227429   4.690   1.367  16.955 -0.6241  0.1562 -0.1598
 5324SOL     OW27430   0.424   1.694  16.675 -0.3151 -0.2037  0.1919
 5324SOL    HW127431   0.432   1.600  16.660  0.9577  0.0324 -0.5700
 5324SOL    HW227432   0.500   1.731  16.630 -1.0184  0.4212 -0.4869
 5325SOL     OW27433   1.204   3.756  10.201  0.7339 -0.3840 -0.5858
 5325SOL    HW127434   1.258   3.827  10.234  0.6449 -0.0708 -1.1151
 5325SOL    HW227435   1.272   3.691  10.184  0.3301 -0.6155 -1.3696
 5326SOL     OW27436   1.294   3.467   5.899  0.0003 -0.2413 -0.1766
 5326SOL    HW127437   1.203   3.497   5.891  0.6634  1.3208 -1.7879
 5326SOL    HW227438   1.332   3.479   5.812  2.0761  2.8614  1.1372
 5327SOL     OW27439   3.533   1.558   3.454  0.3060 -0.4060 -0.0485
 5327SOL    HW127440   3.591   1.495   3.411  0.2306 -1.6622  1.6690
 5327SOL    HW227441   3.555   1.643   3.417  2.0506 -0.8827 -0.0986
 5328SOL     OW27442   1.652   1.719  10.161  0.4844 -0.1234 -0.0836
 5328SOL    HW127443   1.640   1.760  10.076  2.4159  1.3708  0.3578
 5328SOL    HW227444   1.738   1.680  10.149  0.1988 -1.0511  0.8468
 5329SOL     OW27445   1.790   1.385  13.005  0.3668 -0.2465  0.3794
 5329SOL    HW127446   1.777   1.295  13.033 -2.6627  0.0210 -0.2250
 5329SOL    HW227447   1.854   1.399  13.075  0.2227  2.0805  0.0502
 5330SOL     OW27448   0.348   2.132  10.948 -0.2263  0.2906  0.1773
 5330SOL    HW127449   0.351   2.144  11.043  1.7774  1.4563 -0.0260
 5330SOL    HW227450   0.361   2.037  10.944 -0.3649  0.2939 -0.2866
 5331SOL     OW27451   1.472   3.762   4.001  0.2441 -0.2762  0.1318
 5331SOL    HW127452   1.545   3.717   4.043  2.6502  1.3269 -2.3311
 5331SOL    HW227453   1.506   3.852   3.996  2.1376 -1.0353 -0.5550
 5332SOL     OW27454   2.897   3.282  12.527 -0.4831 -0.1979  0.9284
 5332SOL    HW127455   2.968   3.267  12.464 -2.4402 -0.0635 -1.3353
 5332SOL    HW227456   2.923   3.366  12.565 -0.1889  0.2976 -0.3461
 5333SOL     OW27457   2.309   3.678  15.979 -0.2862  0.1356  0.2898
 5333SOL    HW127458   2.320   3.586  15.955  0.1705 -0.0183  1.1303
 5333SOL    HW227459   2.392   3.721  15.958 -0.7102  0.4840 -0.6935
 5334SOL     OW27460   3.035   2.896   0.563 -0.4664 -0.1729 -0.7559
 5334SOL    HW127461   3.108   2.945   0.526 -0.2362  1.6653  2.1390
 5334SOL    HW227462   3.085   2.862   0.637 -2.6417  0.2562  0.9394
 5335SOL     OW27463   1.738   4.469  16.367  0.2988  0.8215  0.0808
 5335SOL    HW127464   1.754   4.562  16.348  2.6363  0.0489 -1.7955
 5335SOL    HW227465   1.664   4.476  16.426 -0.8189  1.2709 -1.3749
 5336SOL     OW27466   3.025   1.383   4.665 -0.3826  0.1669 -0.1304
 5336SOL    HW127467   3.094   1.317   4.666  1.2513  1.8963  1.0701
 5336SOL    HW227468   3.065   1.432   4.737  0.7775  1.0034 -1.3339
 5337SOL     OW27469   3.743   3.359   3.280  0.4526  0.1410  0.0314
 5337SOL    HW127470   3.649   3.350   3.270  0.4402 -1.9314  1.9712
 5337SOL    HW227471   3.766   3.353   3.187 -1.3991  0.6625 -0.4462
 5338SOL     OW27472   1.455   1.561  10.856 -0.5812 -0.4503  0.1504
 5338SOL    HW127473   1.394   1.591  10.788 -0.0529 -0.7607 -0.4615
 5338SOL    HW227474   1.437   1.624  10.926 -2.0955 -0.2387 -0.4281
 5339SOL     OW27475   1.279   2.659  13.579  0.2850  0.3530 -0.2169
 5339SOL    HW127476   1.293   2.747  13.543  2.4151  0.3901  0.6869
 5339SOL    HW227477   1.352   2.615  13.535 -2.9684 -2.1333 -3.1704
 5340SOL     OW27478   2.046   0.188  10.693 -0.1367  0.1279  0.2835
 5340SOL    HW127479   2.096   0.133  10.754 -0.7559 -2.4588 -1.5544
 5340SOL    HW227480   1.970   0.206  10.748  0.4090  0.7146  0.8487
 5341SOL     OW27481   2.920   4.698   2.544 -0.0957 -0.2325  0.0041
 5341SOL    HW127482   2.900   0.055   2.500  0.4519  0.6301  1.4067
 5341SOL    HW227483   3.005   4.712   2.584 -0.0112  1.8999 -0.9109
 5342SOL     OW27484   2.454   3.488   4.678  0.5727 -0.1874  0.2165
 5342SOL    HW127485   2.437   3.580   4.699  1.7925  0.4076 -1.4671
 5342SOL    HW227486   2.498   3.463   4.759  0.0244 -2.9643 -0.3448
 5343SOL     OW27487   2.592   4.264   3.368 -0.0628 -0.5576  0.2415
 5343SOL    HW127488   2.548   4.347   3.387 -1.0384 -0.7218 -1.2698
 5343SOL    HW227489   2.666   4.274   3.427  0.1902 -0.8753 -0.0227
 5344SOL     OW27490   3.367   1.481   2.373 -0.1173  0.4352 -0.3574
 5344SOL    HW127491   3.387   1.426   2.297  0.3289  0.8899 -0.5651
 5344SOL    HW227492   3.332   1.418   2.436 -0.0805 -0.4621 -1.2196
 5345SOL     OW27493   3.312   0.496   8.442  0.3075 -0.2240 -0.2562
 5345SOL    HW127494   3.322   0.567   8.379 -0.4745  0.9172  0.8847
 5345SOL    HW227495   3.259   0.541   8.508 -0.1942  0.1232 -0.8921
 5346SOL     OW27496   4.234   3.080   7.480  0.2359 -0.8213 -0.0801
 5346SOL    HW127497   4.310   3.135   7.498 -1.2599  1.2650 -0.2396
 5346SOL    HW227498   4.226   3.100   7.387  0.1170  2.4250  0.6512
 5347SOL     OW27499   3.243   3.132   1.295  0.6273  0.0812 -0.2557
 5347SOL    HW127500   3.154   3.099   1.285  0.8521 -0.5338 -0.2239
 5347SOL    HW227501   3.230   3.213   1.345 -1.2955  0.0385 -0.6950
 5348SOL     OW27502   1.840   4.049   1.004 -0.3101 -0.3148  0.1194
 5348SOL    HW127503   1.822   4.074   1.095 -3.6321  0.0355 -0.6362
 5348SOL    HW227504   1.863   4.132   0.961 -0.5095 -0.1250  0.3813
 5349SOL     OW27505   0.143   4.078   4.921  0.0104 -0.2265  0.1349
 5349SOL    HW127506   0.176   4.043   4.838  3.0896  0.8857  0.8882
 5349SOL    HW227507   0.108   4.004   4.971 -3.2460  2.2538  1.5444
 5350SOL     OW27508   1.986   2.727   3.467  0.1809  0.0114 -0.1389
 5350SOL    HW127509   2.054   2.693   3.409 -0.9994 -0.0345 -1.4921
 5350SOL    HW227510   1.923   2.656   3.460  0.2597 -0.2727  1.9775
 5351SOL     OW27511   1.628   0.607   8.111 -0.0526 -0.1166  0.2125
 5351SOL    HW127512   1.708   0.622   8.060 -0.9479  2.6482 -0.3688
 5351SOL    HW227513   1.654   0.657   8.188  2.3051 -1.5503  0.3377
 5352SOL     OW27514   4.723   2.318   9.389  0.7726  0.0605  1.3234
 5352SOL    HW127515   4.677   2.337   9.471 -1.3046  0.2470  0.1178
 5352SOL    HW227516   0.090   2.336   9.398  0.8208  0.0459  0.8680
 5353SOL     OW27517   1.081   0.703  11.018 -0.5742 -0.8035 -0.4461
 5353SOL    HW127518   1.037   0.716  11.102 -0.1766 -1.0422 -0.1973
 5353SOL    HW227519   1.066   0.789  10.980  2.8889 -0.5358 -1.2449
 5354SOL     OW27520   1.238   4.263  12.952  0.2764 -0.0975  0.1242
 5354SOL    HW127521   1.285   4.194  12.905 -1.0068 -1.7751  1.3213
 5354SOL    HW227522   1.189   4.216  13.020 -0.2027 -0.2788 -0.3449
 5355SOL     OW27523   2.888   2.979   6.945 -0.3740  0.2085  0.2941
 5355SOL    HW127524   2.976   3.013   6.929 -0.0804 -0.4112  0.5665
 5355SOL    HW227525   2.851   3.029   7.017  1.8283  0.6882  1.0851
 5356SOL     OW27526   0.706   1.152   5.628  0.6441  0.3029  0.1216
 5356SOL    HW127527   0.628   1.204   5.650  0.2770 -0.6880  1.2034
 5356SOL    HW227528   0.668   1.067   5.606 -0.2911  0.0708  2.6414
 5357SOL     OW27529   2.979   4.694   8.420 -0.5291  0.5259 -0.2371
 5357SOL    HW127530   3.071   4.722   8.430 -0.0645 -0.9516 -0.3508
 5357SOL    HW227531   2.937   0.052   8.400  0.9507  1.5061  0.6939
 5358SOL     OW27532   0.157   1.584   3.537 -0.2915 -0.5048 -0.3597
 5358SOL    HW127533   0.217   1.656   3.519  0.6389 -1.3240 -0.5429
 5358SOL    HW227534   0.109   1.613   3.614  1.0985 -0.7020  0.5874
 5359SOL     OW27535   0.568   0.771   9.152 -0.0373 -0.4180  0.1421
 5359SOL    HW127536   0.593   0.713   9.081 -0.5585 -0.3270 -0.1233
 5359SOL    HW227537   0.646   0.773   9.206 -0.9782 -0.7828  1.5030
 5360SOL     OW27538   1.381   4.564   3.370  0.2273 -0.1035 -0.3410
 5360SOL    HW127539   1.433   4.629   3.416 -2.0338 -0.4554  2.6968
 5360SOL    HW227540   1.297   4.608   3.376 -0.4410 -1.3337 -0.5219
 5361SOL     OW27541   2.730   4.264   1.194 -0.5908 -0.1759 -0.2976
 5361SOL    HW127542   2.670   4.199   1.158 -0.4657  0.0506 -0.9352
 5361SOL    HW227543   2.695   4.344   1.155  0.7274  0.4712 -0.1434
 5362SOL     OW27544   0.227   0.174   5.067  0.3862 -0.1650  0.6667
 5362SOL    HW127545   0.279   0.149   4.991  0.3026  0.9790  0.2364
 5362SOL    HW227546   0.281   0.245   5.103  0.1029  0.4492 -0.1233
 5363SOL     OW27547   2.671   2.322   1.813  0.2868  0.7259  0.4653
 5363SOL    HW127548   2.618   2.242   1.808  0.1625  0.7493  1.3289
 5363SOL    HW227549   2.698   2.319   1.722  1.0319  0.1923  0.7027
 5364SOL     OW27550   3.195   0.123   8.791  0.0787  0.1931  0.1057
 5364SOL    HW127551   3.253   0.165   8.728  0.7075 -0.5040  0.2235
 5364SOL    HW227552   3.198   0.031   8.766 -0.6276 -0.3443  2.0080
 5365SOL     OW27553   4.498   4.054  11.050  0.5581  0.3142 -0.5944
 5365SOL    HW127554   4.446   4.016  10.980  3.0782 -0.5974 -1.9580
 5365SOL    HW227555   4.497   4.148  11.030 -0.9376  0.4810  0.2139
 5366SOL     OW27556   3.614   2.209   6.897 -0.2452 -0.2413  0.1850
 5366SOL    HW127557   3.588   2.182   6.985  0.2254 -1.4994 -0.0582
 5366SOL    HW227558   3.533   2.200   6.847  0.7952 -1.4672 -1.2630
 5367SOL     OW27559   2.100   4.311   4.428  0.5401  0.0701  0.6773
 5367SOL    HW127560   2.015   4.354   4.423  1.5482  1.9598 -0.4108
 5367SOL    HW227561   2.094   4.254   4.352  2.9743  0.5304  0.1296
 5368SOL     OW27562   2.983   0.943   7.383 -0.1129 -0.0395 -0.3924
 5368SOL    HW127563   3.008   1.032   7.361  0.3059  0.3817  1.7438
 5368SOL    HW227564   3.071   0.908   7.402 -0.3289  0.2154  1.0966
 5369SOL     OW27565   0.412   3.422   2.911  0.1107  0.1528 -0.1443
 5369SOL    HW127566   0.478   3.417   2.842 -1.8391  0.0865 -2.0331
 5369SOL    HW227567   0.339   3.460   2.862 -0.0035  1.1327  0.7688
 5370SOL     OW27568   2.572   4.596   7.876  0.0731 -0.2512 -0.0041
 5370SOL    HW127569   2.621   4.678   7.879  0.3814 -0.4666  0.8009
 5370SOL    HW227570   2.500   4.624   7.820  1.1036 -0.7961 -1.6141
 5371SOL     OW27571   2.634   4.510   3.126  0.0827 -0.0717  0.2569
 5371SOL    HW127572   2.549   4.525   3.168  0.1019 -0.3010  0.3755
 5371SOL    HW227573   2.681   4.593   3.122  0.3098 -0.3176 -2.6283
 5372SOL     OW27574   2.756   0.106   0.509  0.0670 -0.1813 -0.0333
 5372SOL    HW127575   2.689   0.063   0.456  0.2255 -0.6010  0.1121
 5372SOL    HW227576   2.836   0.078   0.466  2.2613  0.0569  3.8691
 5373SOL     OW27577   3.071   1.079   4.564 -0.6019 -0.2681  0.4637
 5373SOL    HW127578   3.029   0.997   4.537  1.4531 -1.5018  1.0321
 5373SOL    HW227579   3.060   1.139   4.490 -0.6549 -1.3841 -0.4332
 5374SOL     OW27580   2.643   1.786   8.473  0.4214  0.6740 -0.0025
 5374SOL    HW127581   2.613   1.826   8.555  1.9585 -1.6671  1.6921
 5374SOL    HW227582   2.710   1.853   8.458  2.0008 -1.1161 -0.8320
 5375SOL     OW27583   3.701   4.695   5.532 -0.3797 -0.2546 -0.0567
 5375SOL    HW127584   3.742   4.613   5.503  0.8479 -0.1273  1.3335
 5375SOL    HW227585   3.625   4.659   5.579 -2.6430  1.8501 -2.0923
 5376SOL     OW27586   2.158   0.927   4.220  0.2698  0.2275  0.2600
 5376SOL    HW127587   2.252   0.911   4.220  0.4262  1.1694  0.6326
 5376SOL    HW227588   2.139   0.910   4.127  3.5011 -2.0044  0.0045
 5377SOL     OW27589   2.164   0.833   8.988 -0.4202 -0.1754 -0.6412
 5377SOL    HW127590   2.084   0.783   9.005  0.6293 -1.4464  0.4870
 5377SOL    HW227591   2.231   0.766   9.003 -1.3806 -0.9733  0.0488
 5378SOL     OW27592   4.099   0.683   8.543 -0.0846  0.2317  0.0150
 5378SOL    HW127593   4.145   0.599   8.537 -1.6376 -0.5065 -1.5221
 5378SOL    HW227594   4.160   0.748   8.508  0.4069 -0.4287 -0.3552
 5379SOL     OW27595   1.726   3.404   5.816 -0.1044  0.2497  0.5543
 5379SOL    HW127596   1.822   3.405   5.824  0.2331  0.2807 -3.3958
 5379SOL    HW227597   1.719   3.487   5.769  0.5338  0.8218  1.4715
 5380SOL     OW27598   1.595   4.475  16.107  0.3066  0.1961  0.3590
 5380SOL    HW127599   1.624   4.478  16.198  2.0026  0.6046 -0.1989
 5380SOL    HW227600   1.599   4.569  16.088  3.9043 -0.7304 -3.5359
 5381SOL     OW27601   3.378   1.820   4.364  0.4398 -0.0079  0.1401
 5381SOL    HW127602   3.421   1.885   4.309  0.9372  1.7379  2.6009
 5381SOL    HW227603   3.362   1.871   4.443  0.5220 -1.2816  0.9852
 5382SOL     OW27604   3.966   0.081  15.515  0.4655 -0.1159 -0.0466
 5382SOL    HW127605   3.990   0.027  15.439 -0.1700 -1.4696  0.7128
 5382SOL    HW227606   3.891   0.032  15.549 -1.0308  0.4472 -2.4870
 5383SOL     OW27607   1.227   1.524   8.088  0.3209 -0.0925  0.1359
 5383SOL    HW127608   1.148   1.569   8.118 -0.6639 -1.8950  0.2945
 5383SOL    HW227609   1.200   1.432   8.091 -1.3268  0.4196  0.7366
 5384SOL     OW27610   0.704   2.962   8.366 -0.0286  0.7367  0.5585
 5384SOL    HW127611   0.769   2.896   8.343 -2.3278 -1.5817  0.7651
 5384SOL    HW227612   0.655   2.980   8.285 -0.0974  0.1175  0.4608
 5385SOL     OW27613   3.691   0.134   6.925 -0.0775  0.7180 -0.1280
 5385SOL    HW127614   3.738   0.069   6.977 -1.7626 -1.3494 -1.1837
 5385SOL    HW227615   3.614   0.080   6.904 -1.6891  2.3919  1.4825
 5386SOL     OW27616   1.119   0.188   6.522  0.1326  0.0074  0.0415
 5386SOL    HW127617   1.074   0.108   6.548 -1.6743  1.2177  0.6653
 5386SOL    HW227618   1.175   0.166   6.448  0.2000 -1.3691  0.5089
 5387SOL     OW27619   0.616   2.215   7.395  0.6921  0.4295  0.1939
 5387SOL    HW127620   0.703   2.251   7.382 -0.0085  2.0281 -0.1485
 5387SOL    HW227621   0.572   2.295   7.424  2.8505  1.2292  1.2566
 5388SOL     OW27622   4.430   3.650  16.941  0.3492 -0.1426  0.2388
 5388SOL    HW127623   4.360   3.600  16.899  1.7688 -1.8856 -0.0589
 5388SOL    HW227624   4.393   3.633  17.028 -0.1688 -0.8949 -0.1304
 5389SOL     OW27625   0.842   2.756   3.548  0.3150  0.2945  0.3109
 5389SOL    HW127626   0.913   2.753   3.484  1.0766  0.0503  1.1751
 5389SOL    HW227627   0.822   2.663   3.561 -0.3796  0.3230 -0.5116
 5390SOL     OW27628   0.388   0.456   8.021 -0.6479 -0.1818  0.2192
 5390SOL    HW127629   0.451   0.527   8.030  0.4710 -1.2613  0.8443
 5390SOL    HW227630   0.359   0.469   7.930 -0.4337 -3.0090 -0.2575
 5391SOL     OW27631   2.668   0.109   0.754 -0.4408 -0.3449  0.1120
 5391SOL    HW127632   2.750   0.118   0.802  0.2819 -0.3480 -1.1211
 5391SOL    HW227633   2.708   0.107   0.667  0.6071  2.7673  0.5392
 5392SOL     OW27634   4.567   0.367   5.414 -0.2586 -0.2555 -0.1260
 5392SOL    HW127635   4.543   0.275   5.423 -0.8670 -0.0034  0.8986
 5392SOL    HW227636   4.617   0.362   5.333  1.4110  1.3650  0.7883
 5393SOL     OW27637   0.780   4.444   6.007  0.1326  0.2875  0.0273
 5393SOL    HW127638   0.763   4.532   5.972  1.8722  0.6708  0.1540
 5393SOL    HW227639   0.871   4.435   5.979  0.8389  0.5360  2.2428
 5394SOL     OW27640   0.236   3.209   8.957 -0.3485 -0.2999  0.8264
 5394SOL    HW127641   0.307   3.187   8.897  0.3540  5.7676 -0.5629
 5394SOL    HW227642   0.266   3.152   9.027  1.4999 -0.0001  0.2737
 5395SOL     OW27643   1.999   2.838   1.837 -0.5956  0.5853  0.2397
 5395SOL    HW127644   2.000   2.842   1.742  0.8752 -1.7214  0.1598
 5395SOL    HW227645   1.905   2.853   1.848 -0.9206  0.4883 -2.3818
 5396SOL     OW27646   4.076   2.890   1.155  0.7182 -0.1039  0.2709
 5396SOL    HW127647   4.044   2.861   1.069  4.1271 -1.1229 -0.6528
 5396SOL    HW227648   4.143   2.951   1.125  0.4033  0.4548  0.7206
 5397SOL     OW27649   1.193   0.668   8.261 -0.7226  0.3419 -0.4131
 5397SOL    HW127650   1.230   0.642   8.176  1.0979 -1.7363  0.9903
 5397SOL    HW227651   1.251   0.741   8.286 -0.6704  0.2913 -0.3849
 5398SOL     OW27652   2.672   2.366   4.060  0.2583 -0.2361  0.0856
 5398SOL    HW127653   2.695   2.406   3.976  1.3872  2.3159  1.5991
 5398SOL    HW227654   2.652   2.443   4.113 -0.0342 -0.3543  0.1450
 5399SOL     OW27655   3.647   0.232   9.539  0.2383 -0.6694 -0.1739
 5399SOL    HW127656   3.668   0.172   9.467  0.7383  0.2111 -0.7627
 5399SOL    HW227657   3.554   0.247   9.521  0.3934  1.9543  1.2528
 5400SOL     OW27658   3.612   1.912   8.456  0.0967 -0.4719  0.4329
 5400SOL    HW127659   3.670   1.982   8.483 -0.2109 -0.2081  0.4043
 5400SOL    HW227660   3.640   1.850   8.524 -2.7397 -1.8580  0.3526
 5401SOL     OW27661   1.585   0.699  16.248  0.0909  0.1161 -0.4353
 5401SOL    HW127662   1.532   0.628  16.212 -1.3001  0.6489  0.5702
 5401SOL    HW227663   1.587   0.762  16.176  0.0165  0.4254 -0.1628
 5402SOL     OW27664   0.532   2.364   2.244 -0.1148 -0.1372 -0.1750
 5402SOL    HW127665   0.622   2.336   2.258 -0.6837 -0.1022  3.6124
 5402SOL    HW227666   0.504   2.289   2.191 -0.6461  0.3897 -0.6461
 5403SOL     OW27667   4.595   3.757   7.523 -0.0574  0.5444 -0.3566
 5403SOL    HW127668   4.656   3.741   7.595  0.1606  0.2566 -0.6032
 5403SOL    HW227669   4.543   3.824   7.566  2.9127  1.7620  1.2914
 5404SOL     OW27670   0.075   3.853   2.341 -0.9143  0.1499  0.2298
 5404SOL    HW127671   0.032   3.906   2.274 -1.2350 -0.3590  0.0305
 5404SOL    HW227672   0.120   3.923   2.387 -0.3625 -0.4550  0.6057
 5405SOL     OW27673   0.843   2.268  15.475 -0.0338 -0.4613  0.4594
 5405SOL    HW127674   0.903   2.290  15.547  0.2975  2.3447 -0.6684
 5405SOL    HW227675   0.833   2.355  15.436  0.5635 -0.0546  1.2250
 5406SOL     OW27676   1.992   3.634   6.725 -0.0011  0.3324 -0.1207
 5406SOL    HW127677   1.977   3.552   6.678 -0.1620  0.7087 -0.7225
 5406SOL    HW227678   1.919   3.680   6.684 -2.6099 -1.9756  1.8944
 5407SOL     OW27679   4.338   1.119   3.705  0.5100 -0.4742  0.3528
 5407SOL    HW127680   4.289   1.130   3.624  1.9269  2.0307 -0.1352
 5407SOL    HW227681   4.423   1.090   3.672 -0.1670 -1.5201 -0.4904
 5408SOL     OW27682   0.902   0.798   6.871 -0.5212 -0.1543 -0.5830
 5408SOL    HW127683   0.886   0.892   6.871 -0.7281 -0.1894  0.2364
 5408SOL    HW227684   0.998   0.792   6.869 -0.5200 -0.1956 -0.4101
 5409SOL     OW27685   1.178   2.544   7.347  0.3329 -0.4864 -0.9565
 5409SOL    HW127686   1.100   2.522   7.296 -3.0316  0.1950  3.8107
 5409SOL    HW227687   1.151   2.515   7.435 -0.2235 -0.4766 -1.1251
 5410SOL     OW27688   2.288   3.930   4.626 -0.7074 -0.0502 -0.2673
 5410SOL    HW127689   2.199   3.941   4.660 -0.5686  1.0117 -0.2325
 5410SOL    HW227690   2.337   3.994   4.678 -2.1861  1.2624 -0.4739
 5411SOL     OW27691   4.084   0.604  17.048  0.5508  0.1378 -0.2202
 5411SOL    HW127692   3.998   0.567  17.069  1.0854 -1.6044 -1.1187
 5411SOL    HW227693   4.106   0.547  16.975  0.5108 -0.8988  0.5653
 5412SOL     OW27694   2.725   1.040   7.099  0.1205  0.4207 -0.5165
 5412SOL    HW127695   2.696   1.120   7.055  0.8336  1.3451  0.7024
 5412SOL    HW227696   2.647   0.987   7.083  0.3371 -0.0745  0.1158
 5413SOL     OW27697   3.209   0.129  14.537  0.3809  0.2771 -0.6765
 5413SOL    HW127698   3.223   0.075  14.459 -0.8581 -0.4514 -0.4005
 5413SOL    HW227699   3.219   0.213  14.493 -1.7602 -0.3744 -2.3923
 5414SOL     OW27700   3.334   3.504   0.168  0.7038  0.7034  0.2543
 5414SOL    HW127701   3.376   3.456   0.096 -1.0872 -2.2310  1.1978
 5414SOL    HW227702   3.390   3.582   0.171 -0.1407  1.3343 -0.3660
 5415SOL     OW27703   0.959   4.423   3.193 -0.2557  0.0942 -0.6734
 5415SOL    HW127704   0.950   4.495   3.129  1.4126  0.6256 -0.3080
 5415SOL    HW227705   1.047   4.389   3.176 -0.3143 -0.2552 -0.2684
 5416SOL     OW27706   2.226   0.926   6.438 -0.4461  0.3226  0.0202
 5416SOL    HW127707   2.182   0.945   6.354 -1.7950  0.2778  0.7201
 5416SOL    HW227708   2.258   0.837   6.424  0.7652  0.5571  1.3273
 5417SOL     OW27709   3.263   2.496  13.493 -0.5815 -0.3487 -0.3407
 5417SOL    HW127710   3.330   2.504  13.425  1.2050 -0.2181  1.4321
 5417SOL    HW227711   3.280   2.582  13.531  1.7030 -0.8379 -0.2533
 5418SOL     OW27712   0.253   4.054   9.834  0.4657  0.1512  0.1143
 5418SOL    HW127713   0.301   4.100   9.765  0.9594 -0.9972 -0.2940
 5418SOL    HW227714   0.219   3.979   9.786  2.7972 -0.4661 -0.5431
 5419SOL     OW27715   3.035   1.006  16.035 -0.2599 -0.4210  0.2607
 5419SOL    HW127716   2.972   0.938  16.057 -0.1023  0.0689  2.1789
 5419SOL    HW227717   3.040   1.061  16.113 -0.9581 -0.3140  0.2259
 5420SOL     OW27718   1.482   4.405   3.756  0.4188  0.4582 -0.1250
 5420SOL    HW127719   1.521   4.437   3.838 -0.1146  2.0478 -0.4905
 5420SOL    HW227720   1.412   4.470   3.744 -0.0731 -0.3972 -1.8175
 5421SOL     OW27721   1.766   4.078   1.272  0.4269 -0.3943  0.1001
 5421SOL    HW127722   1.683   4.124   1.287  0.5432  0.5022 -2.0817
 5421SOL    HW227723   1.813   4.089   1.355  1.0415  0.1624 -0.3281
 5422SOL     OW27724   2.623   1.521  11.874  0.2849  0.3670  1.0702
 5422SOL    HW127725   2.580   1.442  11.842  1.0050  0.5057 -0.2083
 5422SOL    HW227726   2.650   1.498  11.963 -0.5397  0.2219  1.2793
 5423SOL     OW27727   0.639   0.104   8.339 -0.2812 -0.5877  0.3595
 5423SOL    HW127728   0.706   0.059   8.288 -0.0046 -1.3535  1.3990
 5423SOL    HW227729   0.555   0.080   8.300  0.6476 -0.3936 -1.7455
 5424SOL     OW27730   2.007   4.163   7.253  0.4845  0.7631 -0.2025
 5424SOL    HW127731   2.083   4.196   7.205  0.3332  0.7756 -0.4340
 5424SOL    HW227732   2.053   4.131   7.330  1.5752  0.2820 -1.0502
 5425SOL     OW27733   0.376   0.907   8.518 -0.0564  0.2473  0.3915
 5425SOL    HW127734   0.360   0.853   8.596 -0.7822 -0.7852 -0.4715
 5425SOL    HW227735   0.297   0.900   8.465  1.1720 -1.6958 -1.1768
 5426SOL     OW27736   2.667   2.420  16.332 -0.1330  0.4953 -0.1635
 5426SOL    HW127737   2.582   2.378  16.347  1.6441 -3.4591 -1.2657
 5426SOL    HW227738   2.721   2.346  16.305  1.7466  2.0415 -0.6444
 5427SOL     OW27739   1.464   4.277   8.226  0.3131 -0.2677  0.0284
 5427SOL    HW127740   1.397   4.254   8.161 -1.3639  3.4378  0.4109
 5427SOL    HW227741   1.407   4.330   8.283  0.0098 -1.7624  1.1074
 5428SOL     OW27742   0.651   2.179  15.645 -0.3562  0.0177  0.3201
 5428SOL    HW127743   0.717   2.220  15.589  2.1988 -2.4656  1.5130
 5428SOL    HW227744   0.625   2.251  15.703 -4.1369  0.8432 -2.3321
 5429SOL     OW27745   1.499   1.746   1.524 -0.0001  0.2295  0.2728
 5429SOL    HW127746   1.416   1.783   1.554 -0.6067 -0.3106 -0.7796
 5429SOL    HW227747   1.518   1.824   1.471  1.5657  0.7856  1.6165
 5430SOL     OW27748   2.313   3.389   4.118 -0.5149  0.1054 -0.1825
 5430SOL    HW127749   2.405   3.412   4.131 -0.3279 -0.3668 -0.6520
 5430SOL    HW227750   2.313   3.331   4.193  0.4807  0.2551 -0.0623
 5431SOL     OW27751   1.487   0.060   5.890  0.1609 -0.3351 -0.4994
 5431SOL    HW127752   1.523   0.083   5.805 -1.3973 -1.9611 -1.6027
 5431SOL    HW227753   1.446   0.144   5.911 -0.6088 -0.2628 -2.3534
 5432SOL     OW27754   4.456   1.978  13.600 -0.0856  0.3183  0.0113
 5432SOL    HW127755   4.473   2.008  13.511  1.8756 -0.9177 -0.0343
 5432SOL    HW227756   4.528   1.916  13.613 -1.6105 -1.1874  1.3179
 5433SOL     OW27757   2.970   0.318   6.554  0.1722  0.1997 -0.2957
 5433SOL    HW127758   2.890   0.370   6.550  0.4419  0.8007  2.3139
 5433SOL    HW227759   2.924   0.235   6.549  3.7411 -1.7737 -0.3146
 5434SOL     OW27760   1.917   0.432   5.713 -0.1789 -0.1451 -0.4930
 5434SOL    HW127761   1.884   0.457   5.626 -2.9083  1.5136  1.0302
 5434SOL    HW227762   1.978   0.504   5.727 -2.3377  1.6952 -0.6489
 5435SOL     OW27763   4.048   3.538  11.642  0.1709  0.1057  0.1889
 5435SOL    HW127764   3.984   3.467  11.635 -0.2561  0.6192 -1.1339
 5435SOL    HW227765   4.078   3.549  11.552  2.0139 -0.0214  0.7923
 5436SOL     OW27766   4.636   1.876   6.604 -0.4208 -0.1552  0.0213
 5436SOL    HW127767   4.694   1.819   6.656  1.9282  0.3256 -2.0386
 5436SOL    HW227768   4.551   1.876   6.648 -0.2522  0.1262  0.3390
 5437SOL     OW27769   1.856   4.485   8.182 -0.0148 -0.2445  0.2467
 5437SOL    HW127770   1.803   4.486   8.103 -0.5892  1.4918  0.6580
 5437SOL    HW227771   1.791   4.492   8.252 -1.6197  0.4362 -1.3133
 5438SOL     OW27772   0.359   0.437   9.833 -0.1138 -0.4612  0.5621
 5438SOL    HW127773   0.445   0.435   9.875  0.1168 -0.5309  0.0912
 5438SOL    HW227774   0.385   0.427   9.741 -0.5129  1.9829  0.1999
 5439SOL     OW27775   0.029   1.921  11.265 -0.0531 -0.4161  0.3785
 5439SOL    HW127776   4.665   1.955  11.264 -0.4538 -1.5105 -1.8373
 5439SOL    HW227777   0.066   1.955  11.346 -0.9290  1.1331  0.1160
 5440SOL     OW27778   0.153   3.734  15.462 -0.1476 -0.3151  0.5218
 5440SOL    HW127779   0.245   3.712  15.446 -0.3842  0.0408 -1.3162
 5440SOL    HW227780   0.152   3.752  15.556 -1.0459 -0.5982  0.5639
 5441SOL     OW27781   3.825   1.319   5.264  0.1178 -0.1962  0.3411
 5441SOL    HW127782   3.841   1.239   5.214  4.4030  2.6288 -2.8350
 5441SOL    HW227783   3.915   1.345   5.286  0.1921  0.2141 -0.4611
 5442SOL     OW27784   2.276   4.529   5.982 -0.7418 -0.5955 -0.4860
 5442SOL    HW127785   2.313   4.527   5.894  0.1434  0.7585 -0.1435
 5442SOL    HW227786   2.359   4.506   6.024 -1.2479 -0.0954  0.7754
 5443SOL     OW27787   1.721   4.053   6.957 -0.1126 -0.4575  0.4858
 5443SOL    HW127788   1.780   4.120   6.923 -1.6148  0.0077 -1.1718
 5443SOL    HW227789   1.667   4.116   7.005 -0.5649  0.7986 -1.6638
 5444SOL     OW27790   3.092   0.399   8.183 -0.1357 -0.2048  0.1795
 5444SOL    HW127791   3.064   0.436   8.099  1.0100  1.6677  0.6431
 5444SOL    HW227792   3.030   0.443   8.241 -1.9080 -0.7132 -1.3226
 5445SOL     OW27793   3.507   4.543   8.373  0.2842  0.0906  0.6205
 5445SOL    HW127794   3.587   4.592   8.359 -1.4009  2.1118 -1.9049
 5445SOL    HW227795   3.513   4.500   8.288 -1.2412  2.2941 -0.6158
 5446SOL     OW27796   1.586   2.288   5.964  0.1718  0.2127  0.1714
 5446SOL    HW127797   1.619   2.220   6.023 -0.0918 -1.0577 -1.1502
 5446SOL    HW227798   1.500   2.307   6.002 -0.6097  0.8994 -1.9615
 5447SOL     OW27799   1.794   2.941  10.173 -0.6989 -0.0172  0.3410
 5447SOL    HW127800   1.867   3.001  10.161 -2.0357  1.1413 -2.0439
 5447SOL    HW227801   1.724   2.986  10.124  0.8041  1.6177 -0.3182
 5448SOL     OW27802   3.253   3.949  17.154 -0.7391  0.0725 -0.6808
 5448SOL    HW127803   3.270   3.876  17.094  2.6981  0.0281  0.3780
 5448SOL    HW227804   3.306   4.020  17.119  0.2059  1.0131  2.6317
 5449SOL     OW27805   2.089   3.092   1.844  0.6487  0.0937  0.6334
 5449SOL    HW127806   2.084   3.003   1.880  1.4347  0.3245  1.3158
 5449SOL    HW227807   2.092   3.079   1.749 -1.0018 -1.3449  0.7618
 5450SOL     OW27808   2.593   4.138   1.558  0.2707 -0.1857  0.3096
 5450SOL    HW127809   2.579   4.229   1.535 -1.6912 -0.0995  1.8591
 5450SOL    HW227810   2.674   4.160   1.605 -0.1332  1.2121  0.3354
 5451SOL     OW27811   4.504   1.281   9.265 -0.9223 -0.3435  0.1590
 5451SOL    HW127812   4.563   1.213   9.232  1.2824  1.6130  0.0281
 5451SOL    HW227813   4.532   1.273   9.356  1.5810 -0.2990 -0.6078
 5452SOL     OW27814   4.005   2.255  14.470 -0.0148  0.1944 -0.5194
 5452SOL    HW127815   3.985   2.346  14.492  0.8558  0.3885 -0.5452
 5452SOL    HW227816   3.916   2.219  14.480 -0.5430  1.8690  0.6675
 5453SOL     OW27817   2.042   0.684   6.437  0.1070  0.9746 -0.1384
 5453SOL    HW127818   2.019   0.756   6.377  1.6359 -0.9090 -2.9836
 5453SOL    HW227819   2.137   0.683   6.426  0.1290  1.0502  0.0494
 5454SOL     OW27820   2.606   1.557   0.250 -0.0959 -0.8246 -0.2603
 5454SOL    HW127821   2.674   1.490   0.257 -0.1967 -1.1357 -2.1584
 5454SOL    HW227822   2.527   1.521   0.288  0.6338 -1.8464  0.2785
 5455SOL     OW27823   1.731   0.654   9.365  0.4194  0.1280  0.0087
 5455SOL    HW127824   1.762   0.737   9.400 -0.6833  0.6136 -0.1847
 5455SOL    HW227825   1.810   0.604   9.385  2.3438  3.2781  0.3284
 5456SOL     OW27826   3.279   1.954  12.220 -0.2928  0.2938  0.0485
 5456SOL    HW127827   3.194   1.978  12.184  0.7122  2.1398 -1.0801
 5456SOL    HW227828   3.323   1.902  12.152  0.2174  2.6264 -1.3862
 5457SOL     OW27829   0.789   0.326   8.731  0.2447  0.1354 -0.2261
 5457SOL    HW127830   0.845   0.249   8.743 -1.1836 -0.9881 -0.7813
 5457SOL    HW227831   0.761   0.348   8.820 -0.1484  0.6404 -0.4716
 5458SOL     OW27832   3.222   3.606   7.815  0.4442 -0.1860 -0.6998
 5458SOL    HW127833   3.300   3.590   7.763  0.3990  1.0150 -1.1377
 5458SOL    HW227834   3.177   3.523   7.799 -0.4659 -0.4222  3.0103
 5459SOL     OW27835   2.553   3.086  12.175 -0.4380 -0.0923  0.1876
 5459SOL    HW127836   2.495   3.135  12.232  1.2562  0.9250  1.0498
 5459SOL    HW227837   2.491   3.051  12.111  0.9327 -0.2951 -1.0361
 5460SOL     OW27838   3.066   3.505   5.153 -0.6510 -0.6311 -0.2504
 5460SOL    HW127839   3.067   3.475   5.062 -0.1916  0.7192 -0.6916
 5460SOL    HW227840   2.986   3.468   5.191  0.2541 -1.7127  0.5965
 5461SOL     OW27841   3.162   0.952   5.551 -0.4419  0.1614 -0.2566
 5461SOL    HW127842   3.230   0.974   5.615 -0.2516  0.7284 -0.6620
 5461SOL    HW227843   3.217   0.933   5.475 -0.0413 -1.9001  0.5467
 5462SOL     OW27844   4.504   3.276  12.946  0.2691  0.2728 -0.1369
 5462SOL    HW127845   4.449   3.219  12.893 -0.5579  1.0050 -0.0755
 5462SOL    HW227846   4.526   3.348  12.887  0.0201  0.7314  0.3285
 5463SOL     OW27847   0.091   2.096   4.280  0.1980  0.5015  0.3536
 5463SOL    HW127848   0.147   2.088   4.203 -1.5062 -0.6390 -0.7610
 5463SOL    HW227849   0.009   2.056   4.252 -0.8662  0.4375  3.4972
 5464SOL     OW27850   0.059   3.872   9.095  0.7285  0.0245 -0.0990
 5464SOL    HW127851   0.150   3.898   9.080  0.4352  0.3977 -1.2014
 5464SOL    HW227852   0.073   3.787   9.136  1.3928 -0.4352 -1.2978
 5465SOL     OW27853   2.619   2.037   1.922 -0.4426 -0.4291 -0.2535
 5465SOL    HW127854   2.562   2.088   1.979 -0.6626 -1.9286  0.8719
 5465SOL    HW227855   2.582   1.950   1.937 -0.0609 -0.2043  2.0149
 5466SOL     OW27856   2.234   4.220   2.507 -0.3867 -0.6741  0.0127
 5466SOL    HW127857   2.204   4.287   2.569  0.1423  0.7890 -1.3222
 5466SOL    HW227858   2.328   4.230   2.517 -0.7672  0.3486  2.7138
 5467SOL     OW27859   3.996   4.053   9.097 -0.7731  0.3737  0.6840
 5467SOL    HW127860   3.945   4.025   9.173  1.2239  0.7435  2.1745
 5467SOL    HW227861   3.933   4.078   9.029 -0.1333  2.1024  0.7195
 5468SOL     OW27862   2.631   2.937   7.839 -0.3235 -0.3836  0.3717
 5468SOL    HW127863   2.672   3.016   7.803 -2.8099  0.1385 -1.3475
 5468SOL    HW227864   2.588   2.902   7.761 -2.3525  1.5703  0.6169
 5469SOL     OW27865   4.162   2.037   7.713 -0.5059 -0.4687 -0.4379
 5469SOL    HW127866   4.195   2.006   7.798 -2.8533  1.1644  1.0414
 5469SOL    HW227867   4.082   2.084   7.736 -1.1929 -3.0199  2.3890
 5470SOL     OW27868   4.478   0.629   9.945 -0.5846  0.2961 -0.3949
 5470SOL    HW127869   4.530   0.596   9.872  0.8548 -0.2508  0.8779
 5470SOL    HW227870   4.462   0.547   9.992  4.0439 -1.8462 -2.4976
 5471SOL     OW27871   3.526   1.536  14.605  0.5197  0.3106  0.1549
 5471SOL    HW127872   3.456   1.475  14.629  1.1222  0.3223  1.9396
 5471SOL    HW227873   3.494   1.573  14.522  0.1281 -1.8884 -0.6728
 5472SOL     OW27874   4.655   1.454   6.175 -0.0910 -0.2764  0.1495
 5472SOL    HW127875   4.669   1.488   6.264 -0.4889 -0.7273  0.3840
 5472SOL    HW227876   4.610   1.373   6.197 -1.4818  0.8829  1.5421
 5473SOL     OW27877   4.314   0.251   9.120 -0.0055  0.0070  0.1717
 5473SOL    HW127878   4.233   0.298   9.141 -0.5689 -1.0717  0.4121
 5473SOL    HW227879   4.375   0.277   9.189 -1.4172 -0.6687  1.6606
 5474SOL     OW27880   1.515   3.569   5.520 -0.1039  0.5396 -0.0409
 5474SOL    HW127881   1.571   3.530   5.454 -0.9848 -1.4002  0.3659
 5474SOL    HW227882   1.572   3.594   5.593 -0.3972 -1.4896  0.8765
 5475SOL     OW27883   0.462   3.104   4.512  0.1472 -0.5866  0.2358
 5475SOL    HW127884   0.377   3.148   4.506 -1.0180 -2.9918 -0.8876
 5475SOL    HW227885   0.474   3.093   4.417  0.5689  0.9720  0.1096
 5476SOL     OW27886   3.902   1.399   4.688 -0.1017  0.4057  0.7484
 5476SOL    HW127887   3.881   1.453   4.612  1.9610  1.6987  1.1011
 5476SOL    HW227888   3.836   1.442   4.741  0.4918  0.8883  1.0971
 5477SOL     OW27889   4.337   0.202  10.207  0.0464 -0.3320 -0.1754
 5477SOL    HW127890   4.276   0.203  10.281 -0.2254 -0.5349 -0.3965
 5477SOL    HW227891   4.415   0.179  10.256  0.6066  0.7866 -0.5507
 5478SOL     OW27892   3.799   0.070   3.582  0.0425  0.2709 -1.0258
 5478SOL    HW127893   3.758   0.110   3.659  3.0220  0.7570  0.2859
 5478SOL    HW227894   3.766   4.708   3.602  2.2566 -0.1659  0.7289
 5479SOL     OW27895   3.937   1.219   8.299  0.1907  0.3027 -0.3231
 5479SOL    HW127896   3.914   1.170   8.379  1.1342  2.7468  1.4316
 5479SOL    HW227897   4.032   1.208   8.299 -0.0312 -1.6154 -2.7074
 5480SOL     OW27898   2.670   1.136   2.854 -0.2370  0.1924 -0.7602
 5480SOL    HW127899   2.583   1.108   2.825 -0.5834 -0.2803  0.7231
 5480SOL    HW227900   2.660   1.203   2.921 -0.9517 -3.2694  2.5864
 5481SOL     OW27901   1.583   2.979   1.623  0.0049  0.2338 -0.2794
 5481SOL    HW127902   1.628   3.017   1.548  1.9524 -4.2712 -1.4343
 5481SOL    HW227903   1.522   2.918   1.583 -0.3788  0.8772 -0.6619
 5482SOL     OW27904   0.447   2.063   7.202  0.5868  0.0565  0.0135
 5482SOL    HW127905   0.530   2.075   7.156  1.5232 -0.7831  1.4765
 5482SOL    HW227906   0.472   2.114   7.280  0.0407  0.7967 -0.2885
 5483SOL     OW27907   4.030   1.230  14.049  0.4380  0.2864 -0.1349
 5483SOL    HW127908   4.087   1.152  14.048  1.2950  0.8869  1.5844
 5483SOL    HW227909   4.077   1.295  13.998  1.6298 -0.2880  0.2170
 5484SOL     OW27910   2.907   1.908   6.158  0.4218  0.1185 -0.2458
 5484SOL    HW127911   2.894   1.815   6.138 -1.8993  0.4186 -0.0639
 5484SOL    HW227912   2.979   1.898   6.221  0.5013 -0.4643 -0.4221
 5485SOL     OW27913   0.946   3.958   8.176 -0.0360 -0.0044 -0.4678
 5485SOL    HW127914   0.866   4.007   8.160 -0.5917 -0.9771 -0.6411
 5485SOL    HW227915   0.904   3.877   8.206 -0.5271  0.7857  0.9278
 5486SOL     OW27916   1.396   3.543  16.014 -0.0972  0.2925  0.4050
 5486SOL    HW127917   1.394   3.566  16.107  2.2955 -2.3156  1.1397
 5486SOL    HW227918   1.343   3.615  15.981 -0.1328 -0.3569 -0.9512
 5487SOL     OW27919   3.103   3.437  15.310 -1.0290 -0.0355  0.2414
 5487SOL    HW127920   3.079   3.400  15.395 -1.9073  1.2936  0.5836
 5487SOL    HW227921   3.112   3.531  15.330 -3.0833  0.4104 -0.9642
 5488SOL     OW27922   0.286   2.081   8.148  0.0942 -0.0965  0.8356
 5488SOL    HW127923   0.378   2.058   8.157 -0.0556 -0.8023  0.6132
 5488SOL    HW227924   0.252   1.991   8.155  0.3862 -0.3947 -1.6412
 5489SOL     OW27925   4.601   3.381   2.846  0.2343  0.3893 -0.4856
 5489SOL    HW127926   4.525   3.375   2.789 -1.2026 -0.1813  1.4814
 5489SOL    HW227927   4.556   3.382   2.931  0.3393 -0.6734 -0.4182
 5490SOL     OW27928   1.464   0.765  12.893 -0.2918 -0.1461  0.2173
 5490SOL    HW127929   1.404   0.806  12.831  0.6904 -0.9820 -1.2873
 5490SOL    HW227930   1.507   0.840  12.933 -1.8330 -0.1582  1.9212
 5491SOL     OW27931   0.203   3.011   9.355  0.0578 -0.1201  0.2339
 5491SOL    HW127932   0.249   2.999   9.438  0.2926  2.2378  0.4628
 5491SOL    HW227933   0.110   2.994   9.371  0.0174  0.5717  0.7913
 5492SOL     OW27934   0.492   1.358  16.172  0.0409  0.0869  0.0085
 5492SOL    HW127935   0.403   1.324  16.183 -0.2374  0.5130 -0.9209
 5492SOL    HW227936   0.484   1.449  16.145  0.1264 -0.2689 -1.1939
 5493SOL     OW27937   4.113   4.180   4.343 -0.1276  0.1186  0.4791
 5493SOL    HW127938   4.079   4.162   4.430  1.5117 -1.8138  0.7268
 5493SOL    HW227939   4.048   4.247   4.324 -1.2899 -1.3234 -0.6780
 5494SOL     OW27940   0.757   2.535   2.642 -0.2859  0.1700  0.5986
 5494SOL    HW127941   0.842   2.543   2.600  0.1326  0.2830  1.4600
 5494SOL    HW227942   0.725   2.450   2.611  2.0385 -0.0295 -1.2392
 5495SOL     OW27943   0.945   4.102  17.607  0.4779  0.0221  0.2215
 5495SOL    HW127944   1.031   4.144  17.596  1.4410 -1.8932  0.3460
 5495SOL    HW227945   0.975   4.033  17.667 -0.8559  0.9336  1.9496
 5496SOL     OW27946   0.306   3.839   3.732  0.1605 -0.0182  0.0757
 5496SOL    HW127947   0.366   3.841   3.657  0.6248  0.0919  0.4450
 5496SOL    HW227948   0.349   3.774   3.789  0.6303  1.3796  1.3181
 5497SOL     OW27949   1.864   4.104   7.472 -0.3445 -0.0300 -0.3584
 5497SOL    HW127950   1.881   4.010   7.479  0.7823  0.2859  1.1360
 5497SOL    HW227951   1.887   4.129   7.382  2.2427  2.0676  0.9173
 5498SOL     OW27952   2.683   0.735   2.005  0.1343  0.5538 -0.0720
 5498SOL    HW127953   2.631   0.660   2.034  1.7538 -0.7395 -0.4792
 5498SOL    HW227954   2.628   0.806   2.037 -2.9154 -1.5363 -0.6740
 5499SOL     OW27955   3.978   3.608   7.105 -0.0641  0.8726 -0.1019
 5499SOL    HW127956   3.910   3.584   7.168  0.5762  1.7714  0.9447
 5499SOL    HW227957   4.026   3.526   7.116 -1.7894  0.0434  1.3596
 5500SOL     OW27958   1.460   0.986   7.454 -0.3146  0.0917 -0.3833
 5500SOL    HW127959   1.537   1.021   7.410 -1.1722  2.2915 -0.1885
 5500SOL    HW227960   1.492   0.901   7.482  2.1892  1.2011  0.1160
 5501SOL     OW27961   1.000   0.166   6.877 -0.8306  0.3810 -0.1109
 5501SOL    HW127962   1.088   0.161   6.913 -2.0998 -3.0093  2.4829
 5501SOL    HW227963   0.958   0.121   6.950 -0.5808 -2.6916 -1.8397
 5502SOL     OW27964   4.374   3.442   5.394  0.1098  0.2111 -0.3391
 5502SOL    HW127965   4.286   3.470   5.421  0.3958 -0.8417  1.7030
 5502SOL    HW227966   4.393   3.389   5.471  0.1337  2.1923  1.0211
 5503SOL     OW27967   0.833   0.011  16.646 -0.8564  0.0970 -0.0219
 5503SOL    HW127968   0.842   0.096  16.689  1.0197  1.6248 -3.4320
 5503SOL    HW227969   0.744   4.710  16.669 -0.8632  0.2534  0.1391
 5504SOL     OW27970   3.379   0.335   3.157 -0.2541  0.0461 -0.2565
 5504SOL    HW127971   3.334   0.282   3.091 -1.1831 -0.1111  0.4928
 5504SOL    HW227972   3.458   0.366   3.113  1.4913 -2.6250  0.9641
 5505SOL     OW27973   0.197   0.958   2.880 -0.0564  0.1697 -0.6489
 5505SOL    HW127974   0.144   0.905   2.820 -0.2854  0.0561 -0.3466
 5505SOL    HW227975   0.160   1.044   2.865 -0.2479  0.0613 -0.7984
 5506SOL     OW27976   2.932   1.078   5.536  0.4572  0.1269  0.1311
 5506SOL    HW127977   2.940   1.121   5.450 -0.6963 -0.3840 -0.2301
 5506SOL    HW227978   3.016   1.032   5.549  0.4457 -0.0590 -0.4430
 5507SOL     OW27979   3.666   4.322  13.235 -0.1425 -0.6860  0.1346
 5507SOL    HW127980   3.642   4.414  13.251  1.3033 -0.1942 -0.5789
 5507SOL    HW227981   3.694   4.283  13.318 -0.4105 -1.4767 -0.1471
 5508SOL     OW27982   2.970   4.111   7.618  0.2243 -0.2648 -0.3150
 5508SOL    HW127983   2.898   4.126   7.556  0.2456  1.2077 -0.0018
 5508SOL    HW227984   2.917   4.125   7.697  0.0964 -3.5198  0.1563
 5509SOL     OW27985   3.490   3.753   7.485  0.0264  0.0437  0.1984
 5509SOL    HW127986   3.460   3.829   7.535  1.7099 -0.2543  1.6552
 5509SOL    HW227987   3.492   3.689   7.555  0.7957  0.0865  0.2157
 5510SOL     OW27988   4.543   2.454   6.266 -0.7467 -0.3646  0.0223
 5510SOL    HW127989   4.527   2.363   6.292 -0.7019 -0.6774 -1.0716
 5510SOL    HW227990   4.601   2.441   6.192  0.3426 -0.9905  0.9849
 5511SOL     OW27991   1.605   0.409   9.341 -0.2612 -0.0407  0.7653
 5511SOL    HW127992   1.628   0.365   9.423 -0.4384  1.7178  1.7617
 5511SOL    HW227993   1.641   0.496   9.357  0.4789 -0.1970 -0.0922
 5512SOL     OW27994   1.140   0.678   6.882  0.0844 -0.0789  0.2221
 5512SOL    HW127995   1.145   0.697   6.976 -0.2749 -1.9520  0.6181
 5512SOL    HW227996   1.106   0.589   6.883  0.9124 -0.3963 -0.1563
 5513SOL     OW27997   3.443   3.345   1.538  0.4296 -0.5745 -0.7596
 5513SOL    HW127998   3.349   3.342   1.520  0.3322  2.2505 -0.7439
 5513SOL    HW227999   3.459   3.439   1.526  2.3574 -0.8637 -0.4347
 5514SOL     OW28000   2.310   0.293   5.807  0.5107  0.2048  0.0035
 5514SOL    HW128001   2.225   0.251   5.795  0.1880  0.7604  0.3028
 5514SOL    HW228002   2.331   0.303   5.715 -0.4969 -1.6916 -0.4384
 5515SOL     OW28003   3.071   3.956   5.698  0.3767  0.2790  0.1350
 5515SOL    HW128004   3.071   3.885   5.633 -0.0466  0.2497  0.1692
 5515SOL    HW228005   3.161   3.986   5.684  0.9977 -1.1246  1.0185
 5516SOL     OW28006   0.956   4.305   9.770 -0.3573 -0.0099 -0.4076
 5516SOL    HW128007   0.899   4.376   9.799  2.4252  2.3577 -0.7815
 5516SOL    HW228008   1.041   4.331   9.804 -0.4746 -1.2795  0.8832
 5517SOL     OW28009   2.528   0.631   8.238 -0.0029  0.1128 -0.0705
 5517SOL    HW128010   2.453   0.643   8.179 -0.2500  0.5820  0.3322
 5517SOL    HW228011   2.552   0.539   8.231 -0.0467 -0.1337  3.1339
 5518SOL     OW28012   2.550   0.176   8.370  0.1212 -0.5298  0.0380
 5518SOL    HW128013   2.584   0.128   8.446 -3.2787 -0.7282  1.4117
 5518SOL    HW228014   2.460   0.144   8.377 -0.3887  0.9737  0.2735
 5519SOL     OW28015   3.175   0.611   9.184  0.3958 -0.6543  0.1460
 5519SOL    HW128016   3.112   0.552   9.225 -0.9116  0.0845 -0.7854
 5519SOL    HW228017   3.199   0.670   9.255 -1.0025 -0.6727  0.6358
 5520SOL     OW28018   4.168   1.027   6.388 -0.0589 -0.0599 -0.0135
 5520SOL    HW128019   4.078   1.028   6.357 -0.0617  1.2495  0.0098
 5520SOL    HW228020   4.183   1.122   6.390  0.3587 -0.1274 -0.0138
 5521SOL     OW28021   4.522   3.196  11.967  0.0904  0.1389 -0.3692
 5521SOL    HW128022   4.486   3.206  11.879 -2.7550 -0.7986  0.6699
 5521SOL    HW228023   4.460   3.248  12.018  0.4191  0.5855 -0.4264
 5522SOL     OW28024   2.208   1.038   3.825  0.1472 -0.0097 -0.5844
 5522SOL    HW128025   2.188   1.131   3.815 -3.4254 -0.8208 -1.0938
 5522SOL    HW228026   2.239   1.014   3.738 -0.5471 -0.5694 -0.6763
 5523SOL     OW28027   4.216   2.256   9.402 -0.1580  0.1470  0.6219
 5523SOL    HW128028   4.259   2.214   9.327 -2.1227  1.4990 -1.2335
 5523SOL    HW228029   4.193   2.173   9.444  1.2465 -1.7863 -2.4269
 5524SOL     OW28030   2.473   4.671   5.501  0.1571  0.2736  0.2760
 5524SOL    HW128031   2.443   4.696   5.414 -3.1097 -0.0903  1.2935
 5524SOL    HW228032   2.564   4.701   5.502  0.7686 -1.5373  0.4460
 5525SOL     OW28033   3.265   3.697   8.090 -0.1570  0.0845  0.4524
 5525SOL    HW128034   3.238   3.614   8.129  0.0141 -0.2616 -0.1614
 5525SOL    HW228035   3.221   3.710   8.005  1.2847  1.1052 -0.1378
 5526SOL     OW28036   3.862   2.226   6.088 -0.3119  0.1318 -0.9291
 5526SOL    HW128037   3.927   2.179   6.140  0.1875  1.5697 -0.2552
 5526SOL    HW228038   3.889   2.317   6.100 -1.0546  0.2972 -0.4890
 5527SOL     OW28039   2.701   4.172   8.849 -0.3503  0.0242 -0.2988
 5527SOL    HW128040   2.667   4.101   8.795  0.2902 -1.5927  1.4445
 5527SOL    HW228041   2.644   4.170   8.927 -0.8473  0.6517 -0.6450
 5528SOL     OW28042   1.881   0.849   9.508 -0.0022 -0.3257 -0.1187
 5528SOL    HW128043   1.967   0.830   9.547 -0.2207 -0.5202  0.2690
 5528SOL    HW228044   1.906   0.918   9.447 -1.8626  0.6149  0.1874
 5529SOL     OW28045   4.118   2.940  14.533  0.0545  0.2499 -0.5655
 5529SOL    HW128046   4.192   2.904  14.484  0.7703  2.0060 -0.7880
 5529SOL    HW228047   4.111   2.869  14.597  0.0792  2.0380  1.4155
 5530SOL     OW28048   0.011   3.592   6.529 -0.0376  0.6711 -0.0406
 5530SOL    HW128049   4.725   3.663   6.593  1.9646 -0.7813  1.9554
 5530SOL    HW228050   0.098   3.617   6.497 -0.0990 -0.1257 -0.8336
 5531SOL     OW28051   2.983   4.506   9.212 -0.5835 -0.0397  0.2175
 5531SOL    HW128052   2.975   4.531   9.304  0.1169 -1.1528  0.5832
 5531SOL    HW228053   2.894   4.474   9.201 -0.9331  1.1600 -0.4175
 5532SOL     OW28054   3.614   2.852   3.120  0.0209  0.4798  0.2698
 5532SOL    HW128055   3.688   2.852   3.181  0.4437 -1.6315 -0.2109
 5532SOL    HW228056   3.621   2.943   3.092  1.3450  0.4472  0.4849
 5533SOL     OW28057   3.973   3.116   8.314  0.8269  0.1990  0.3126
 5533SOL    HW128058   3.881   3.116   8.341  0.4560 -0.2310 -0.9115
 5533SOL    HW228059   3.962   3.146   8.223  3.9041  2.3069  0.6443
 5534SOL     OW28060   3.200   4.364   5.672  0.3614  0.2444 -0.0033
 5534SOL    HW128061   3.134   4.360   5.741  0.0835 -2.4516 -0.4048
 5534SOL    HW228062   3.173   4.291   5.616  1.9935 -1.0653  0.9140
 5535SOL     OW28063   2.391   1.691   7.271  0.2305  0.0830 -0.3277
 5535SOL    HW128064   2.443   1.736   7.338 -0.6882  3.1604 -1.6884
 5535SOL    HW228065   2.411   1.746   7.196 -2.3791 -2.2761 -2.7384
 5536SOL     OW28066   0.579   1.061   9.292 -0.2621  0.1021  0.3608
 5536SOL    HW128067   0.489   1.087   9.269 -0.3590  0.2462  0.8968
 5536SOL    HW228068   0.595   1.105   9.375  0.0314  0.7722 -0.0559
 5537SOL     OW28069   3.528   4.521   4.627 -0.7077  0.5099  0.9133
 5537SOL    HW128070   3.551   4.572   4.704  1.1453 -0.4929  1.0122
 5537SOL    HW228071   3.525   4.592   4.563  0.1201 -1.0135 -0.8159
 5538SOL     OW28072   0.040   1.336   5.440 -0.5564  0.3111 -0.1517
 5538SOL    HW128073   0.028   1.430   5.427  1.6345  0.7232  0.8064
 5538SOL    HW228074   0.040   1.345   5.535  0.7709 -1.4356  0.0169
 5539SOL     OW28075   2.302   4.304   2.155 -0.1261  0.2124 -0.3528
 5539SOL    HW128076   2.235   4.358   2.195  1.7231  1.8652  0.4978
 5539SOL    HW228077   2.381   4.329   2.204 -0.2734 -0.6172  0.3110
 5540SOL     OW28078   1.985   0.592   9.061  0.3270  0.4779 -0.6602
 5540SOL    HW128079   2.054   0.542   9.016  0.1892 -0.6085  0.3395
 5540SOL    HW228080   1.978   0.539   9.140 -2.4317  2.5500  0.4987
 5541SOL     OW28081   3.786   2.256  10.879 -0.0169 -0.4279  0.9344
 5541SOL    HW128082   3.833   2.315  10.938 -2.4721  1.0470  1.4404
 5541SOL    HW228083   3.764   2.318  10.809  2.7587 -0.6091 -0.0683
 5542SOL     OW28084   0.833   0.554   6.912  0.0033 -0.0171  0.3105
 5542SOL    HW128085   0.856   0.647   6.918  1.7043 -0.3094 -1.7934
 5542SOL    HW228086   0.738   0.562   6.924 -0.1529  0.5202 -1.2996
 5543SOL     OW28087   1.756   1.430   4.091  0.4270 -0.6771  0.5344
 5543SOL    HW128088   1.751   1.354   4.149  1.3048 -0.0892  1.3891
 5543SOL    HW228089   1.762   1.500   4.156 -1.7505 -0.3250  0.3636
 5544SOL     OW28090   0.532   1.664   4.702  0.2782 -0.0384 -0.5371
 5544SOL    HW128091   0.441   1.679   4.678  0.0770  1.4482  1.1867
 5544SOL    HW228092   0.537   1.708   4.787  1.8266 -1.9303  0.3518
 5545SOL     OW28093   4.290   0.243   4.588 -0.1900  0.3000 -0.5682
 5545SOL    HW128094   4.256   0.320   4.544  1.6893  0.2995 -2.0181
 5545SOL    HW228095   4.295   0.180   4.516  1.9202  0.2429 -0.3959
 5546SOL     OW28096   1.729   1.460   2.819  0.0399 -0.0607 -0.0586
 5546SOL    HW128097   1.712   1.479   2.726 -0.5420 -3.4242 -0.6402
 5546SOL    HW228098   1.660   1.500   2.871 -0.0157  0.3076 -0.4083
 5547SOL     OW28099   3.737   4.705  13.029 -0.0890 -0.1838  0.0687
 5547SOL    HW128100   3.699   0.067  13.023 -1.0358 -0.5728  0.3673
 5547SOL    HW228101   3.757   4.693  12.937  2.1926 -2.7874  0.9007
 5548SOL     OW28102   4.029   1.056   2.736 -0.4759 -0.1837  0.3525
 5548SOL    HW128103   4.037   0.961   2.734 -1.5135 -0.2608 -0.0446
 5548SOL    HW228104   4.029   1.070   2.641  1.0189 -2.2745  0.0536
 5549SOL     OW28105   2.875   3.874   6.178 -0.0080 -0.2112 -0.4612
 5549SOL    HW128106   2.963   3.875   6.141  0.5948 -1.7912  0.9401
 5549SOL    HW228107   2.864   3.784   6.208 -1.7051 -0.3055 -1.3682
 5550SOL     OW28108   3.192   2.719   4.252 -0.4942 -0.2310  0.2838
 5550SOL    HW128109   3.149   2.802   4.272 -1.6796 -0.7645 -0.0408
 5550SOL    HW228110   3.193   2.675   4.337 -0.0430  0.8066  0.8178
 5551SOL     OW28111   0.662   4.069  13.398 -0.9853 -0.4723 -0.0055
 5551SOL    HW128112   0.570   4.042  13.402 -0.5008 -1.8756  1.7988
 5551SOL    HW228113   0.689   4.021  13.320  1.5195  0.4218  0.3277
 5552SOL     OW28114   0.501   2.920   4.740  0.1604  0.1745 -0.6185
 5552SOL    HW128115   0.432   2.974   4.778 -1.7913 -3.1479  0.5098
 5552SOL    HW228116   0.505   2.947   4.648  0.0467  4.7360  0.6965
 5553SOL     OW28117   1.182   4.690   5.463  0.2770 -0.1030  0.1272
 5553SOL    HW128118   1.147   0.021   5.530 -1.9676  1.1522 -2.1331
 5553SOL    HW228119   1.240   4.635   5.516 -1.2255 -0.4467  1.4022
 5554SOL     OW28120   2.905   3.358   2.977  0.4095 -0.0656  0.2444
 5554SOL    HW128121   2.947   3.444   2.970  0.0985  0.2298  2.0244
 5554SOL    HW228122   2.846   3.366   2.902  2.0387  1.1798 -0.8911
 5555SOL     OW28123   4.308   3.376  11.502 -0.7809  0.3332 -0.1277
 5555SOL    HW128124   4.349   3.461  11.486 -1.0029  0.1399 -1.7509
 5555SOL    HW228125   4.295   3.342  11.413 -3.7107  1.6772 -0.2067
 5556SOL     OW28126   1.533   3.242   6.726  0.0862 -0.0021 -0.1619
 5556SOL    HW128127   1.461   3.195   6.769  1.3273 -0.3899  1.4634
 5556SOL    HW228128   1.606   3.201   6.773 -1.5935 -3.7216 -0.7882
 5557SOL     OW28129   2.235   4.386  13.426  0.8120  0.2158 -0.1320
 5557SOL    HW128130   2.327   4.373  13.406  0.7352  1.1113 -1.0713
 5557SOL    HW228131   2.214   4.297  13.455 -1.9887  0.8596 -0.1464
 5558SOL     OW28132   3.051   3.803   7.762 -0.1590  0.1834 -0.0489
 5558SOL    HW128133   3.122   3.743   7.786  0.1576 -0.0181 -1.4735
 5558SOL    HW228134   3.093   3.847   7.688 -3.2259 -2.4316 -3.3460
 5559SOL     OW28135   1.620   0.281  11.579  0.4929  0.1941 -0.0488
 5559SOL    HW128136   1.667   0.315  11.504 -0.5619  0.4243 -0.6118
 5559SOL    HW228137   1.573   0.206  11.541  0.6337  0.1918 -0.2160
 5560SOL     OW28138   0.964   4.086  11.833 -0.1568 -0.1106 -0.0255
 5560SOL    HW128139   0.997   3.997  11.829  1.9531  0.6748 -0.3377
 5560SOL    HW228140   0.962   4.108  11.926 -1.7765 -0.0102 -0.0938
 5561SOL     OW28141   4.164   1.164   8.995 -0.1593  0.0897  0.6063
 5561SOL    HW128142   4.171   1.140   8.903 -2.0138 -0.8918  0.7236
 5561SOL    HW228143   4.070   1.184   8.990 -0.1154  0.4277  1.0625
 5562SOL     OW28144   0.841   3.314   4.358 -0.2794  0.5189 -0.0063
 5562SOL    HW128145   0.769   3.377   4.352  1.5080  2.5192 -0.3721
 5562SOL    HW228146   0.824   3.279   4.445 -2.7538 -0.7705 -0.9900
 5563SOL     OW28147   3.710   2.640   4.778  0.2126  0.4041  0.3272
 5563SOL    HW128148   3.784   2.616   4.722 -0.9846 -0.7160 -0.7469
 5563SOL    HW228149   3.692   2.730   4.749  0.1249  1.0611  2.4223
 5564SOL     OW28150   3.269   0.582   5.410 -0.2146  0.2026  0.4279
 5564SOL    HW128151   3.331   0.634   5.359 -0.6426 -0.3425 -0.6578
 5564SOL    HW228152   3.318   0.502   5.431  0.3336  0.7720  1.3123
 5565SOL     OW28153   1.900   4.156   2.641  0.0687 -0.7703 -0.0269
 5565SOL    HW128154   1.858   4.203   2.713 -0.8081  2.9407 -2.9879
 5565SOL    HW228155   1.983   4.135   2.682 -0.2614  0.9567  1.5193
 5566SOL     OW28156   3.907   3.884   3.526  0.5015 -0.1505  0.1213
 5566SOL    HW128157   3.989   3.855   3.486 -0.8676 -4.4821  0.4512
 5566SOL    HW228158   3.845   3.842   3.467 -1.1737  0.8140  1.1821
 5567SOL     OW28159   2.374   4.587   3.183  0.3355  0.5625 -0.5092
 5567SOL    HW128160   2.349   4.656   3.245  0.0016 -0.2059  0.1968
 5567SOL    HW228161   2.321   4.614   3.107  1.2446  0.0549 -1.3224
 5568SOL     OW28162   2.428   1.443   8.243  0.0848 -0.0187  0.4911
 5568SOL    HW128163   2.402   1.487   8.163  1.6234  0.7389  0.3982
 5568SOL    HW228164   2.494   1.382   8.209  0.3920 -0.2933  1.5458
 5569SOL     OW28165   1.157   2.720   6.221 -0.1621 -0.0753  0.7270
 5569SOL    HW128166   1.097   2.651   6.249 -0.0889 -0.6120 -0.4484
 5569SOL    HW228167   1.145   2.716   6.126  1.5132  2.1761  0.4062
 5570SOL     OW28168   3.029   3.491  16.420 -0.6102  0.2945 -0.4102
 5570SOL    HW128169   3.093   3.428  16.453 -0.2652  1.1593  0.5788
 5570SOL    HW228170   2.977   3.437  16.359 -0.0418 -1.1198  0.3500
 5571SOL     OW28171   3.372   1.012   8.665  0.3982 -0.3305  0.3092
 5571SOL    HW128172   3.293   0.968   8.634  1.3562 -2.5514  0.9762
 5571SOL    HW228173   3.365   0.989   8.758 -2.0153 -0.4544  0.0907
 5572SOL     OW28174   0.847   3.626   9.718 -0.3076  0.0833  0.5208
 5572SOL    HW128175   0.891   3.543   9.734 -1.2687 -0.3333  1.0048
 5572SOL    HW228176   0.837   3.659   9.808  1.6907  0.6571  0.5382
 5573SOL     OW28177   2.863   1.982   7.594 -0.1568  0.0796 -0.4930
 5573SOL    HW128178   2.950   1.942   7.602  0.7245  1.7777 -1.6055
 5573SOL    HW228179   2.807   1.907   7.611 -0.0056  0.2637  0.8044
 5574SOL     OW28180   2.059   1.688   5.175 -0.1535  0.2613 -0.2409
 5574SOL    HW128181   2.036   1.768   5.223 -1.3556 -0.8015  0.9850
 5574SOL    HW228182   1.983   1.682   5.118  0.9472  0.3446 -1.6969
 5575SOL     OW28183   1.318   2.760   4.192 -0.6111  0.0851  0.7462
 5575SOL    HW128184   1.345   2.839   4.145 -0.8118 -1.4265 -1.8976
 5575SOL    HW228185   1.401   2.747   4.237  0.0182 -1.0288 -0.7510
 5576SOL     OW28186   0.103   0.239  17.131 -0.0810 -0.1740 -0.1013
 5576SOL    HW128187   0.015   0.265  17.106 -0.4641  1.1258  2.6504
 5576SOL    HW228188   0.098   0.265  17.223  2.5250 -1.2999  0.3567
 5577SOL     OW28189   4.635   4.137   4.288 -0.6051  0.2815  0.1909
 5577SOL    HW128190   4.561   4.138   4.348 -0.3185  1.2318  0.5266
 5577SOL    HW228191   4.599   4.111   4.204  1.9284  1.7003 -1.3532
 5578SOL     OW28192   0.426   2.348  15.390 -0.1931 -0.2044 -0.0134
 5578SOL    HW128193   0.390   2.403  15.320  2.0417 -0.2985 -1.2459
 5578SOL    HW228194   0.349   2.337  15.445  0.3610  1.0472  1.0140
 5579SOL     OW28195   3.676   3.544   6.652 -0.2175 -0.2035  0.4684
 5579SOL    HW128196   3.713   3.494   6.725  1.1276 -1.7967 -1.2974
 5579SOL    HW228197   3.636   3.471   6.604  1.7839 -2.0532  1.5973
 5580SOL     OW28198   1.242   2.935   3.898  0.2670 -0.1534 -0.4913
 5580SOL    HW128199   1.293   3.015   3.893  0.0071 -0.0864 -2.0612
 5580SOL    HW228200   1.312   2.873   3.877 -0.7447 -1.8493  1.1898
 5581SOL     OW28201   0.381   4.410   6.138  0.6799 -0.3911 -0.1141
 5581SOL    HW128202   0.440   4.350   6.094  0.6189 -0.8987  0.4911
 5581SOL    HW228203   0.399   4.489   6.087 -0.9893 -0.6557 -1.0972
 5582SOL     OW28204   3.617   1.103   7.444 -0.1593 -0.0200  0.2060
 5582SOL    HW128205   3.637   1.151   7.525 -0.5472  1.8545 -0.8028
 5582SOL    HW228206   3.614   1.015   7.482  0.3929 -1.3618 -2.8838
 5583SOL     OW28207   0.188   1.045  12.239 -0.4432  0.1401  0.4623
 5583SOL    HW128208   0.258   1.058  12.303 -1.5011 -0.3145  1.7134
 5583SOL    HW228209   0.137   1.125  12.253  0.4554  0.8362 -0.2088
 5584SOL     OW28210   1.233   4.353  14.210 -0.5091 -0.3234  0.2884
 5584SOL    HW128211   1.186   4.329  14.290 -0.2624  0.0908  0.5568
 5584SOL    HW228212   1.279   4.272  14.186 -1.3987 -0.8020  0.2221
 5585SOL     OW28213   3.061   4.043   5.268  0.5707  0.2319  0.2418
 5585SOL    HW128214   3.145   4.051   5.312  0.5070 -1.7385  0.7209
 5585SOL    HW228215   3.055   3.951   5.243  1.6190  0.8864 -2.4177
 5586SOL     OW28216   3.046   1.480   1.083 -0.4860 -0.0650  0.2998
 5586SOL    HW128217   3.119   1.470   1.145 -2.3396  1.4913  2.7284
 5586SOL    HW228218   2.966   1.447   1.125  1.2541 -4.2319  0.3963
 5587SOL     OW28219   0.105   2.877   3.510 -0.4192  0.2084 -0.5027
 5587SOL    HW128220   0.035   2.872   3.446 -1.4395  0.8964  0.5798
 5587SOL    HW228221   0.145   2.791   3.493 -0.5560 -0.1180  0.8222
 5588SOL     OW28222   1.123   0.363  14.129  0.9201 -0.2107 -0.5121
 5588SOL    HW128223   1.182   0.429  14.165  0.8152  1.0304 -2.6558
 5588SOL    HW228224   1.116   0.304  14.205 -1.5935  0.3196 -0.3360
 5589SOL     OW28225   2.627   1.546   4.318  0.4437 -0.3884 -0.2659
 5589SOL    HW128226   2.695   1.539   4.252  0.0642  1.4924 -0.8603
 5589SOL    HW228227   2.637   1.472   4.377  0.3134 -0.1060  0.1118
 5590SOL     OW28228   3.550   0.160   1.652  0.1512  0.4424  0.3683
 5590SOL    HW128229   3.573   0.068   1.643  1.4507  0.7467  0.4283
 5590SOL    HW228230   3.456   0.162   1.668 -0.2933 -1.6272 -1.9106
 5591SOL     OW28231   1.848   3.572   9.994  0.6317 -0.4377  0.5039
 5591SOL    HW128232   1.887   3.646   9.946  2.1510 -1.3228  0.3685
 5591SOL    HW228233   1.826   3.506   9.928 -0.2366 -0.4406  0.8048
 5592SOL     OW28234   2.969   1.807   7.973  0.3089  0.3991  0.3097
 5592SOL    HW128235   2.922   1.761   7.903  0.4336  0.0437  0.4588
 5592SOL    HW228236   2.973   1.739   8.040 -0.3750 -1.2296 -1.2744
 5593SOL     OW28237   3.157   2.438   2.033  0.2913 -0.1927 -1.0105
 5593SOL    HW128238   3.083   2.380   2.015  1.3835 -1.7457 -0.4768
 5593SOL    HW228239   3.231   2.397   1.988  1.4171 -0.6012  1.2191
 5594SOL     OW28240   2.935   1.515  10.307  0.5816  0.0628 -0.3117
 5594SOL    HW128241   2.912   1.425  10.283 -0.1702 -0.7429  3.5282
 5594SOL    HW228242   2.919   1.510  10.401 -0.9602 -1.5925 -0.6734
 5595SOL     OW28243   3.179   2.723   5.134 -0.3879 -0.0458 -0.3465
 5595SOL    HW128244   3.252   2.761   5.183  1.4904 -2.0615 -1.5560
 5595SOL    HW228245   3.120   2.715   5.209  0.3550  1.0442  0.3526
 5596SOL     OW28246   3.728   1.272   2.120 -0.1888 -0.5458  0.0288
 5596SOL    HW128247   3.814   1.305   2.094 -0.3195  0.4804  0.8926
 5596SOL    HW228248   3.759   1.204   2.180 -3.6028 -0.2812  2.0775
 5597SOL     OW28249   3.358   3.749   0.522  0.2998  0.1328  0.1892
 5597SOL    HW128250   3.356   3.745   0.618 -0.4904  2.2775  0.2741
 5597SOL    HW228251   3.330   3.840   0.510 -0.4049 -0.3380 -1.7201
 5598SOL     OW28252   2.738   2.723   8.336  0.4254  0.3137  0.1596
 5598SOL    HW128253   2.643   2.733   8.332  0.5760  0.7095 -2.4921
 5598SOL    HW228254   2.767   2.755   8.250 -0.5733 -0.8319 -0.5891
 5599SOL     OW28255   3.614   2.940  13.934 -0.1945  0.5593  0.2610
 5599SOL    HW128256   3.689   2.921  13.877  0.7021  1.1724  1.2232
 5599SOL    HW228257   3.653   2.911  14.017  0.1895 -0.2518 -0.2034
 5600SOL     OW28258   4.223   3.491   4.296  0.1649  0.1604  0.2399
 5600SOL    HW128259   4.291   3.426   4.315 -0.4321 -0.3645  0.5624
 5600SOL    HW228260   4.174   3.437   4.235  0.3527  0.0344  0.1996
 5601SOL     OW28261   0.409   0.679   3.338  0.0300 -0.1906  0.5261
 5601SOL    HW128262   0.352   0.607   3.367 -1.2169  0.4535 -0.3523
 5601SOL    HW228263   0.363   0.725   3.269  0.0543 -2.4683 -1.0055
 5602SOL     OW28264   4.382   3.618   2.836  0.4915  0.1595 -0.1509
 5602SOL    HW128265   4.412   3.554   2.772  0.0831  0.2944 -0.4753
 5602SOL    HW228266   4.421   3.699   2.802  0.5607 -0.7141 -2.1767
 5603SOL     OW28267   3.276   2.805   6.040  0.1320  0.1856 -0.3505
 5603SOL    HW128268   3.190   2.766   6.058  0.8362 -1.8010 -1.2380
 5603SOL    HW228269   3.281   2.809   5.945 -1.4209  0.0865 -0.4460
 5604SOL     OW28270   0.935   4.323  15.094  0.2996 -0.6500 -0.2169
 5604SOL    HW128271   0.915   4.296  15.005  2.1491 -1.6677 -0.3234
 5604SOL    HW228272   0.929   4.249  15.154  0.3155  1.9890  3.0036
 5605SOL     OW28273   3.385   2.773  16.704  0.2878  0.1894  0.3158
 5605SOL    HW128274   3.467   2.727  16.688  1.1058  1.7778 -0.0559
 5605SOL    HW228275   3.379   2.831  16.628 -1.5182  2.9394  2.5165
 5606SOL     OW28276   2.813   3.253   6.307 -1.3057  0.7102  0.4691
 5606SOL    HW128277   2.796   3.170   6.352 -1.4340 -0.3403 -1.5181
 5606SOL    HW228278   2.907   3.242   6.293 -1.0309  1.1187  1.9311
 5607SOL     OW28279   1.918   2.413   1.235 -0.1149  0.2723 -0.5871
 5607SOL    HW128280   2.013   2.410   1.243 -0.3613 -1.2961  1.9231
 5607SOL    HW228281   1.914   2.495   1.186  1.3350 -0.9265 -2.7052
 5608SOL     OW28282   1.332   1.582   7.103  0.1922 -0.3624  1.0544
 5608SOL    HW128283   1.414   1.604   7.147  1.3200  0.6741 -1.5673
 5608SOL    HW228284   1.357   1.558   7.014  1.0536 -1.5854  1.6290
 5609SOL     OW28285   0.775   4.595   7.315  0.0492  0.1038  0.4704
 5609SOL    HW128286   0.698   4.637   7.278  1.0893 -0.1275 -1.9472
 5609SOL    HW228287   0.750   4.587   7.407 -0.4211 -0.0748  0.3305
 5610SOL     OW28288   4.104   2.337   5.420  0.2519 -0.0780  0.0702
 5610SOL    HW128289   4.095   2.394   5.496 -0.5022 -0.6061  0.3704
 5610SOL    HW228290   4.168   2.393   5.375  0.3814  0.3177  0.7568
 5611SOL     OW28291   0.336   2.968   6.795  0.3833  0.7163  0.2447
 5611SOL    HW128292   0.419   3.006   6.770 -0.0150  1.1842 -0.3550
 5611SOL    HW228293   0.308   2.931   6.711 -2.6043  1.5836  0.8462
 5612SOL     OW28294   1.212   2.082  16.619 -0.3473 -0.2789 -0.2222
 5612SOL    HW128295   1.222   2.068  16.714  2.4051 -1.8363 -0.7301
 5612SOL    HW228296   1.267   2.160  16.612  0.6361 -0.7526  1.9660
 5613SOL     OW28297   0.284   0.923   4.743 -0.0219 -0.2213  0.3210
 5613SOL    HW128298   0.359   0.977   4.718 -1.3013  0.7406 -1.4430
 5613SOL    HW228299   0.213   0.987   4.745  0.9192  0.8453 -0.4447
 5614SOL     OW28300   3.719   0.827   6.385 -0.0601 -0.1973  0.2039
 5614SOL    HW128301   3.628   0.796   6.386 -0.0229 -0.2686  1.3947
 5614SOL    HW228302   3.755   0.745   6.418 -1.4359 -0.4023  1.2319
 5615SOL     OW28303   2.280   0.524   3.240 -0.1483 -0.0208 -0.0647
 5615SOL    HW128304   2.308   0.461   3.174 -0.5225 -0.0718 -0.1742
 5615SOL    HW228305   2.186   0.510   3.252 -0.0386  0.1967  1.0917
 5616SOL     OW28306   3.600   2.849   8.373  0.2640 -0.5711  0.2002
 5616SOL    HW128307   3.505   2.847   8.366  0.3299 -0.7168 -0.6305
 5616SOL    HW228308   3.634   2.793   8.304 -0.5398  0.9736 -1.4340
 5617SOL     OW28309   4.129   3.540   5.457 -0.5209 -0.1101  0.2076
 5617SOL    HW128310   4.051   3.494   5.489  0.4546 -1.2444  0.9246
 5617SOL    HW228311   4.084   3.594   5.392 -0.1283 -1.7892 -1.4511
 5618SOL     OW28312   1.537   4.181   7.801 -0.6249  0.0027  0.1886
 5618SOL    HW128313   1.625   4.154   7.776  0.4842  2.7697  1.0414
 5618SOL    HW228314   1.488   4.101   7.816 -1.5348  0.7533  1.2364
 5619SOL     OW28315   0.309   3.810  12.408 -0.3131  0.2364 -0.4545
 5619SOL    HW128316   0.229   3.807  12.355 -1.4940  0.8647  1.2988
 5619SOL    HW228317   0.270   3.788  12.493 -1.3911 -0.9958 -1.2656
 5620SOL     OW28318   2.537   2.472  14.759  0.2195  0.3069 -0.2392
 5620SOL    HW128319   2.504   2.394  14.803  0.3942 -0.5327 -1.5928
 5620SOL    HW228320   2.582   2.428  14.687 -0.4823 -0.3824 -0.2574
 5621SOL     OW28321   3.770   0.517  14.710 -0.4135 -0.2489  0.2275
 5621SOL    HW128322   3.747   0.603  14.747 -0.5606  0.2075 -0.9333
 5621SOL    HW228323   3.806   0.541  14.625 -1.5083 -4.2389 -1.3426
 5622SOL     OW28324   2.237   3.806  15.682  0.0331 -0.0775 -0.0487
 5622SOL    HW128325   2.248   3.901  15.690 -1.9550  0.1544 -0.0668
 5622SOL    HW228326   2.149   3.811  15.718 -1.3279 -1.8857 -3.1340
 5623SOL     OW28327   1.569   2.948   8.141  0.1579 -0.8863 -0.0168
 5623SOL    HW128328   1.485   2.951   8.187  1.0530 -2.1849  1.6991
 5623SOL    HW228329   1.632   2.936   8.212 -1.1914  0.6668  1.4261
 5624SOL     OW28330   1.329   4.509   7.828 -0.2578  0.0415  0.3891
 5624SOL    HW128331   1.316   4.420   7.862  0.7585 -0.3589 -0.2806
 5624SOL    HW228332   1.420   4.504   7.800 -0.3763  2.5791 -0.4458
 5625SOL     OW28333   4.469   1.209  12.532  0.2717 -0.3220 -0.1993
 5625SOL    HW128334   4.387   1.254  12.552  0.0102  0.7692 -3.7767
 5625SOL    HW228335   4.451   1.145  12.463 -0.8912 -0.2373  0.0349
 5626SOL     OW28336   3.642   4.264   9.200  0.0984 -0.3239 -0.3843
 5626SOL    HW128337   3.590   4.210   9.139 -0.5006  0.7059 -0.7973
 5626SOL    HW228338   3.695   4.310   9.135 -1.1979 -0.3440 -1.4721
 5627SOL     OW28339   0.759   0.017  17.690  0.3109 -0.4740  0.0722
 5627SOL    HW128340   0.807   4.688  17.627  0.7954 -0.6211  0.5755
 5627SOL    HW228341   0.806   0.099  17.680 -0.6889  0.3289  2.0664
 5628SOL     OW28342   3.001   0.264   3.914  0.3025 -0.1877  0.0818
 5628SOL    HW128343   2.979   0.354   3.936 -1.3449 -1.1419  2.3065
 5628SOL    HW228344   3.010   0.256   3.819 -0.5998  1.9804 -0.1727
 5629SOL     OW28345   3.860   2.964   6.405 -0.1860  0.6294 -0.4088
 5629SOL    HW128346   3.926   2.995   6.467  0.1595 -0.0548 -0.4327
 5629SOL    HW228347   3.797   2.928   6.468  2.5436 -0.4255  1.7151
 5630SOL     OW28348   0.336   4.305   3.133 -0.0427 -0.1392 -0.6596
 5630SOL    HW128349   0.401   4.372   3.155  0.5278 -0.8164 -0.2870
 5630SOL    HW228350   0.284   4.340   3.061 -0.3200  1.1248  0.1598
 5631SOL     OW28351   3.055   2.435  13.138  0.1825  0.8008  0.5104
 5631SOL    HW128352   3.001   2.356  13.145  0.6686  0.4985  0.9526
 5631SOL    HW228353   3.060   2.456  13.045 -0.2085 -0.5945  0.1687
 5632SOL     OW28354   3.135   4.098   2.878 -0.6933  0.6458  0.0494
 5632SOL    HW128355   3.196   4.169   2.857 -2.3019  2.3872  1.2914
 5632SOL    HW228356   3.191   4.054   2.943 -0.0070  2.7856  0.9240
 5633SOL     OW28357   3.781   3.426   4.273 -0.4279  0.1850  0.1816
 5633SOL    HW128358   3.761   3.418   4.179  0.5830  2.2924 -0.2238
 5633SOL    HW228359   3.778   3.521   4.287  1.3749 -0.1668  2.7867
 5634SOL     OW28360   2.187   3.281   8.821 -0.2481 -0.4525 -0.9790
 5634SOL    HW128361   2.230   3.195   8.818  2.4967  1.0242 -3.6773
 5634SOL    HW228362   2.257   3.342   8.845  0.2279 -0.8983 -1.2428
 5635SOL     OW28363   1.117   4.435  12.267 -0.5987  0.1234  0.3129
 5635SOL    HW128364   1.181   4.484  12.319  0.3352 -0.0378 -0.6889
 5635SOL    HW228365   1.123   4.344  12.296 -2.4332  0.5071  1.8402
 5636SOL     OW28366   3.935   0.819  15.502 -0.0935 -0.4557  0.1174
 5636SOL    HW128367   4.008   0.823  15.441  0.8378  0.7985  1.2979
 5636SOL    HW228368   3.935   0.726  15.524  0.4162 -0.8068 -1.3726
 5637SOL     OW28369   1.075   0.265  16.429 -0.4453  0.1376 -0.1260
 5637SOL    HW128370   1.031   0.180  16.418  2.2287 -1.3611  0.6520
 5637SOL    HW228371   1.001   0.320  16.453 -2.0729 -0.0766 -4.7040
 5638SOL     OW28372   0.025   4.676  16.140 -0.0029  0.6232  0.4362
 5638SOL    HW128373   0.079   0.015  16.183  1.1454  1.0322 -1.6199
 5638SOL    HW228374   0.018   4.606  16.205 -0.3061  0.5929  0.3731
 5639SOL     OW28375   2.802   0.892   6.834 -0.6039  0.2518  0.1430
 5639SOL    HW128376   2.779   0.960   6.771 -0.2634 -1.4745 -1.7986
 5639SOL    HW228377   2.720   0.845   6.842  0.0168 -0.8523 -0.0243
 5640SOL     OW28378   0.610   4.184   4.324 -0.0901  0.0325  0.5418
 5640SOL    HW128379   0.554   4.112   4.294 -0.8671  0.4641  0.9598
 5640SOL    HW228380   0.618   4.191   4.419  1.8018 -1.4620  0.4887
 5641SOL     OW28381   4.445   2.939   9.046  0.0263 -0.6405 -0.3682
 5641SOL    HW128382   4.381   2.940   9.117  2.1095  1.4150  1.4882
 5641SOL    HW228383   4.428   2.852   9.009  1.1283 -0.7058 -0.7110
 5642SOL     OW28384   1.177   0.195   5.719  0.3187 -0.1952  0.0236
 5642SOL    HW128385   1.096   0.188   5.668  0.2922 -1.7588  0.2602
 5642SOL    HW228386   1.175   0.105   5.753 -2.0538  0.5130  1.6974
 5643SOL     OW28387   3.765   0.244  14.734  0.5491  0.0353  0.4337
 5643SOL    HW128388   3.764   0.340  14.734 -2.7659  0.0004 -0.7552
 5643SOL    HW228389   3.766   0.226  14.640 -1.5423  1.3826  0.1616
 5644SOL     OW28390   3.251   1.703   8.146  0.3202 -0.0615 -0.1376
 5644SOL    HW128391   3.312   1.705   8.220 -4.1440  0.9324  3.5207
 5644SOL    HW228392   3.212   1.618   8.167 -0.5775 -0.5234 -3.6783
 5645SOL     OW28393   0.548   1.915   7.997 -0.4712  0.6596 -0.1763
 5645SOL    HW128394   0.574   1.831   7.960  0.3113  0.6374  0.4379
 5645SOL    HW228395   0.562   1.899   8.090 -1.0027  1.2301  0.0029
 5646SOL     OW28396   4.359   4.635   6.899 -0.0520 -0.5031  0.0175
 5646SOL    HW128397   4.387   4.562   6.844 -1.8363 -0.6318 -0.7223
 5646SOL    HW228398   4.274   4.661   6.863 -0.1667 -1.4521 -0.3913
 5647SOL     OW28399   2.084   2.644   8.051  0.0009 -0.1124  0.0376
 5647SOL    HW128400   2.112   2.729   8.086 -1.1331  0.7073 -1.0774
 5647SOL    HW228401   2.018   2.616   8.114  2.0226 -3.0468  0.8635
 5648SOL     OW28402   1.735   3.432   5.421  0.4086  0.2678 -0.1956
 5648SOL    HW128403   1.780   3.375   5.483 -0.9512 -0.1696  0.3758
 5648SOL    HW228404   1.743   3.380   5.341 -0.1802 -1.5448  0.9393
 5649SOL     OW28405   1.446   4.106   3.195  0.2030 -0.2705  0.8560
 5649SOL    HW128406   1.516   4.122   3.131  0.8666  0.5492  1.7808
 5649SOL    HW228407   1.462   4.013   3.212  2.0361  0.1163  1.2605
 5650SOL     OW28408   0.374   3.661   9.153 -0.0874  0.1011  0.3307
 5650SOL    HW128409   0.301   3.609   9.120 -0.1367  1.5154 -1.8095
 5650SOL    HW228410   0.427   3.673   9.074  1.5940  0.4811  1.5147
 5651SOL     OW28411   3.069   0.507  16.186  0.2802  0.0924 -0.4683
 5651SOL    HW128412   3.050   0.596  16.217  1.1806 -0.0046  0.3689
 5651SOL    HW228413   2.990   0.493  16.135  1.7641 -1.3149 -2.3751
 5652SOL     OW28414   0.589   0.012   6.228 -0.5303 -1.0980  0.0405
 5652SOL    HW128415   0.659   4.674   6.243  0.5886  0.0943 -0.0528
 5652SOL    HW228416   0.635   0.094   6.207 -1.1223 -0.8396 -0.2514
 5653SOL     OW28417   0.968   2.788   5.747  0.2574 -0.5556  0.3610
 5653SOL    HW128418   0.930   2.729   5.681 -1.4888  2.6357 -1.4750
 5653SOL    HW228419   1.013   2.857   5.699 -0.8911 -0.2491 -0.2853
 5654SOL     OW28420   0.706   2.717  17.309 -0.5714  0.0133 -0.0003
 5654SOL    HW128421   0.764   2.703  17.235 -0.1514 -0.9892  0.5165
 5654SOL    HW228422   0.739   2.802  17.337 -0.0105 -0.0704 -0.4084
 5655SOL     OW28423   2.597   4.099   2.175  0.2890 -0.0045 -0.1132
 5655SOL    HW128424   2.511   4.059   2.185  0.6596  0.1243  3.6126
 5655SOL    HW228425   2.653   4.021   2.182 -1.2034 -0.9728  1.0457
 5656SOL     OW28426   3.079   1.996  16.876 -0.2336 -0.4232  0.1466
 5656SOL    HW128427   3.152   1.989  16.815 -0.9653 -0.4474 -0.7351
 5656SOL    HW228428   3.119   1.963  16.957 -2.4512 -0.0404  1.4125
 5657SOL     OW28429   0.422   2.873   6.246  0.6452 -0.1540 -0.4206
 5657SOL    HW128430   0.343   2.820   6.247 -0.7954  2.0747  2.5996
 5657SOL    HW228431   0.476   2.811   6.196  0.4324 -0.2781 -0.4940
 5658SOL     OW28432   1.634   3.466   9.218  0.0193  0.6596 -0.0500
 5658SOL    HW128433   1.544   3.498   9.224  0.1329  0.7071  1.3495
 5658SOL    HW228434   1.651   3.452   9.311  0.2635 -0.1426 -0.2164
 5659SOL     OW28435   3.849   0.239   1.460  0.0751 -0.2441 -0.3823
 5659SOL    HW128436   3.784   0.195   1.405 -0.2017 -0.0695 -0.1967
 5659SOL    HW228437   3.927   0.240   1.404  1.4979  0.3654  1.6045
 5660SOL     OW28438   0.607   3.811   4.835  0.3246  0.1023  0.1062
 5660SOL    HW128439   0.684   3.754   4.842 -0.8273 -1.3060  1.4261
 5660SOL    HW228440   0.644   3.882   4.887 -0.3269 -0.9744  2.0446
 5661SOL     OW28441   1.390   3.986  13.047  0.0555  0.8202  0.7171
 5661SOL    HW128442   1.442   4.051  13.095  2.5867 -1.8183  1.5863
 5661SOL    HW228443   1.443   3.967  12.970  1.2624 -0.2377  1.8062
 5662SOL     OW28444   3.733   1.176   5.528 -0.0811  0.0161 -0.1556
 5662SOL    HW128445   3.728   1.098   5.473  0.6588 -0.4018  0.3850
 5662SOL    HW228446   3.821   1.212   5.519  0.5003 -1.0717  1.1982
 5663SOL     OW28447   2.439   3.201   2.899  0.1306 -0.0198 -0.4763
 5663SOL    HW128448   2.484   3.285   2.899  0.7942 -0.3516  1.6840
 5663SOL    HW228449   2.490   3.144   2.957 -0.0809  0.5514  0.2814
 5664SOL     OW28450   4.041   4.518   0.557 -0.3142 -0.2707  0.3225
 5664SOL    HW128451   3.955   4.546   0.588 -0.0884  2.2823 -1.4029
 5664SOL    HW228452   4.025   4.423   0.555 -0.4912 -0.2816  2.3211
 5665SOL     OW28453   1.612   0.244   4.291  0.5682 -0.7061  0.1297
 5665SOL    HW128454   1.541   0.259   4.229  2.9930  1.2453 -2.1927
 5665SOL    HW228455   1.626   0.330   4.331 -0.7360  0.2828 -1.5423
 5666SOL     OW28456   4.683   1.223  12.370 -0.3346  0.2242  0.4628
 5666SOL    HW128457   0.017   1.227  12.444 -0.1536  3.2485  0.1247
 5666SOL    HW228458   4.600   1.226  12.416 -0.1772  0.9136  0.6926
 5667SOL     OW28459   2.751   0.448   6.015  0.7307 -0.2397  0.0410
 5667SOL    HW128460   2.688   0.378   6.029  0.3981 -0.5194 -2.9211
 5667SOL    HW228461   2.790   0.428   5.930  0.6429  0.0927 -0.0796
 5668SOL     OW28462   2.219   3.384  15.392  0.5065 -0.0295 -0.3270
 5668SOL    HW128463   2.163   3.374  15.469  1.9842 -0.5542  0.6734
 5668SOL    HW228464   2.266   3.463  15.418 -0.1218 -0.2767  1.5405
 5669SOL     OW28465   2.243   3.938   7.674  0.7117 -0.0943  0.0326
 5669SOL    HW128466   2.278   3.991   7.746  0.4296 -0.1385  0.2013
 5669SOL    HW228467   2.277   3.850   7.687 -0.9092 -0.7415 -0.2108
 5670SOL     OW28468   3.137   1.933   8.169 -0.2453  0.0820 -0.1277
 5670SOL    HW128469   3.162   1.842   8.149 -2.9095 -0.7972  0.4438
 5670SOL    HW228470   3.064   1.950   8.109  1.1744  0.4179 -1.7444
 5671SOL     OW28471   2.415   0.981  16.919 -0.4289 -0.3144 -0.3177
 5671SOL    HW128472   2.357   1.042  16.965 -0.6980 -0.2819 -0.6983
 5671SOL    HW228473   2.490   1.003  16.975 -1.5785  0.2721  0.9819
 5672SOL     OW28474   4.263   3.367  11.224  0.5405 -0.5857  0.5119
 5672SOL    HW128475   4.231   3.456  11.208  1.5085 -0.0265  1.6403
 5672SOL    HW228476   4.194   3.307  11.196 -0.5485  0.3936  1.1015
 5673SOL     OW28477   1.993   2.074   5.026 -0.2092 -0.3834 -0.4615
 5673SOL    HW128478   2.062   2.071   5.092  0.3534 -0.4849 -1.0557
 5673SOL    HW228479   2.039   2.017   4.965  1.2318 -1.4421  1.6317
 5674SOL     OW28480   2.387   1.068   9.093  0.4625  0.1295  0.4824
 5674SOL    HW128481   2.403   1.152   9.049 -0.1547  1.1404  2.2007
 5674SOL    HW228482   2.415   1.085   9.183  0.1216  2.5978  0.1105
 5675SOL     OW28483   0.369   0.603   6.456  0.1902 -0.0699  0.2095
 5675SOL    HW128484   0.362   0.515   6.492 -0.1641 -0.4293 -0.7356
 5675SOL    HW228485   0.463   0.609   6.444 -0.0367  0.3635 -1.3678
 5676SOL     OW28486   1.043   2.540   2.620 -0.0461 -0.3368 -0.4537
 5676SOL    HW128487   1.100   2.502   2.552  0.2525 -1.9114  0.6669
 5676SOL    HW228488   1.079   2.498   2.698  3.0697 -2.1951 -2.8330
 5677SOL     OW28489   2.006   1.272   3.206  0.1934 -0.2629  0.3728
 5677SOL    HW128490   1.927   1.228   3.174  0.0133  0.8391 -0.7036
 5677SOL    HW228491   2.017   1.234   3.293 -0.6052  0.6503  0.8739
 5678SOL     OW28492   3.211   0.040  14.269 -0.7097  0.0191  0.1599
 5678SOL    HW128493   3.205   4.677  14.234 -1.3049  0.6194 -1.2507
 5678SOL    HW228494   3.139   0.076  14.217 -0.6516  0.0675  0.1127
 5679SOL     OW28495   1.791   0.499  11.036 -0.1624 -0.0775  0.5238
 5679SOL    HW128496   1.870   0.503  11.090  0.1108 -2.5204  0.3026
 5679SOL    HW228497   1.751   0.424  11.079 -0.6164  0.0395  0.3042
 5680SOL     OW28498   0.697   1.934   4.490  0.2843  0.9412  0.0193
 5680SOL    HW128499   0.654   2.001   4.439  1.3133  0.3155 -1.6826
 5680SOL    HW228500   0.634   1.894   4.550 -2.3685  2.4161 -1.8176
 5681SOL     OW28501   0.567   3.005   0.723  0.1259 -0.2541 -0.5394
 5681SOL    HW128502   0.656   3.020   0.753  0.4321 -0.6282 -1.2505
 5681SOL    HW228503   0.539   2.930   0.776 -0.2004  2.2380  2.8221
 5682SOL     OW28504   4.681   1.313   3.115  0.3039 -0.1524 -0.1497
 5682SOL    HW128505   4.718   1.380   3.172 -1.5912 -1.6409  2.8176
 5682SOL    HW228506   4.599   1.304   3.163 -0.1056  0.2613 -0.7708
 5683SOL     OW28507   4.723   2.683   4.452 -0.2995  0.0231  0.1303
 5683SOL    HW128508   0.059   2.755   4.442 -0.2227  0.1885  1.6925
 5683SOL    HW228509   4.709   2.691   4.547  0.5296 -0.0976  0.2722
 5684SOL     OW28510   1.420   0.612  10.911 -0.3868 -0.2208 -0.2608
 5684SOL    HW128511   1.475   0.580  10.840  0.7384  0.0325  0.5020
 5684SOL    HW228512   1.397   0.701  10.885  0.7520  0.0512 -0.3128
 5685SOL     OW28513   1.325   2.770   7.278 -0.2486 -0.8136  0.3572
 5685SOL    HW128514   1.253   2.707   7.282 -1.2358  0.4337  2.0757
 5685SOL    HW228515   1.352   2.755   7.368  0.4799 -0.2164  0.2396
 5686SOL     OW28516   3.296   0.892   3.142  0.3654  0.0007  0.1812
 5686SOL    HW128517   3.364   0.878   3.208  1.3923 -0.3454 -0.9396
 5686SOL    HW228518   3.226   0.831   3.162  0.0725  1.2118  2.8929
 5687SOL     OW28519   0.544   1.668   7.313  0.3998  0.2843 -0.3206
 5687SOL    HW128520   0.536   1.746   7.258 -0.5978 -1.7553 -3.0573
 5687SOL    HW228521   0.456   1.632   7.304 -0.2365  1.5446  0.8062
 5688SOL     OW28522   2.906   0.502  11.531  0.4583  0.1709  0.1515
 5688SOL    HW128523   2.907   0.505  11.436  4.2567 -0.4927  0.1870
 5688SOL    HW228524   2.911   0.597  11.541 -2.3087  0.6974 -3.6151
 5689SOL     OW28525   3.021   0.554   5.320  0.4045 -0.3759  0.2352
 5689SOL    HW128526   3.104   0.581   5.360  1.7210  1.2228 -3.5913
 5689SOL    HW228527   2.978   0.637   5.298 -0.6218 -0.9044  0.2407
 5690SOL     OW28528   1.449   2.555   9.339  0.6854 -0.0048 -0.0023
 5690SOL    HW128529   1.361   2.575   9.308  1.9224  2.1307 -2.1830
 5690SOL    HW228530   1.432   2.592   9.426  1.5882  0.7071 -0.1264
 5691SOL     OW28531   1.895   4.465   6.680 -0.4183 -0.5502  0.3827
 5691SOL    HW128532   1.967   4.521   6.711 -0.9458  0.3115  0.0610
 5691SOL    HW228533   1.939   4.383   6.656  0.1351 -0.8083  2.3016
 5692SOL     OW28534   4.544   2.341   6.880 -0.1985 -0.0147  0.2878
 5692SOL    HW128535   4.550   2.254   6.919 -1.3346 -0.4261 -0.4285
 5692SOL    HW228536   4.581   2.389   6.953  1.6314 -0.8615 -0.0847
 5693SOL     OW28537   2.757   3.689  10.673  0.1422  0.3640 -0.3570
 5693SOL    HW128538   2.785   3.660  10.760 -1.3239  2.1159  0.7031
 5693SOL    HW228539   2.695   3.758  10.697 -0.9957 -0.7792  0.0074
 5694SOL     OW28540   4.580   1.771   5.714 -0.1407 -0.0256  0.4098
 5694SOL    HW128541   4.600   1.856   5.676  3.7541 -0.7078  1.0035
 5694SOL    HW228542   4.623   1.768   5.799 -1.1429  0.7746  0.9336
 5695SOL     OW28543   1.657   4.506   5.647  0.3707  0.4500  0.1378
 5695SOL    HW128544   1.660   4.415   5.676  1.9762  0.4216 -0.1257
 5695SOL    HW228545   1.565   4.513   5.620  0.1571 -0.1718  0.7374
 5696SOL     OW28546   0.102   1.131   4.776  0.2843  0.5500  0.0685
 5696SOL    HW128547   0.031   1.117   4.714  0.6244 -0.2655 -0.1440
 5696SOL    HW228548   0.058   1.137   4.861 -1.8663  2.3672 -1.2011
 5697SOL     OW28549   2.436   1.812   8.110  0.6428 -0.5800  0.4461
 5697SOL    HW128550   2.424   1.777   8.198 -3.1701 -0.9233 -0.1978
 5697SOL    HW228551   2.466   1.729   8.074 -0.7555  0.3096 -2.7532
 5698SOL     OW28552   3.525   2.872   7.143  0.1183 -0.3832  0.0241
 5698SOL    HW128553   3.530   2.831   7.230 -0.0487  0.5487  0.4736
 5698SOL    HW228554   3.432   2.864   7.122 -0.1175  0.1683  0.8428
 5699SOL     OW28555   4.381   0.333   4.187  0.4621  0.0554  0.6830
 5699SOL    HW128556   4.402   0.387   4.111  2.1256 -1.5586  0.0083
 5699SOL    HW228557   4.361   0.251   4.142  1.5090  1.4343 -2.2828
 5700SOL     OW28558   1.641   2.433   6.390 -0.7660  0.1006 -0.4945
 5700SOL    HW128559   1.595   2.349   6.392 -1.6732  0.5808 -1.3105
 5700SOL    HW228560   1.612   2.472   6.307  1.4686 -1.7570 -2.1308
 5701SOL     OW28561   4.711   2.861   3.094 -0.5615 -0.1296 -0.1792
 5701SOL    HW128562   4.672   2.809   3.023  1.1311 -1.2426 -0.2982
 5701SOL    HW228563   0.030   2.932   3.047  0.3821  1.0635  2.5626
 5702SOL     OW28564   2.793   2.513   5.919 -0.2088 -0.4082 -0.4141
 5702SOL    HW128565   2.721   2.575   5.931 -0.5973 -0.7482 -0.9603
 5702SOL    HW228566   2.859   2.578   5.898  2.0692 -2.6093 -0.0673
 5703SOL     OW28567   1.828   1.133   7.003 -0.6650  0.6885 -0.6238
 5703SOL    HW128568   1.906   1.175   7.039 -1.0489  0.1919  0.8050
 5703SOL    HW228569   1.756   1.189   7.036  1.0370  1.8429  1.1558
 5704SOL     OW28570   1.985   1.202  13.633  0.1949  0.3310  0.2118
 5704SOL    HW128571   1.994   1.193  13.538  1.0583  1.7596  0.1662
 5704SOL    HW228572   1.895   1.173  13.652  0.5702 -0.1382  1.2802
 5705SOL     OW28573   4.048   2.489   1.761 -0.2316 -0.0058  0.1637
 5705SOL    HW128574   4.000   2.549   1.703 -1.3605 -1.6218 -0.5975
 5705SOL    HW228575   4.090   2.558   1.812 -2.4831  2.3811 -1.2053
 5706SOL     OW28576   2.715   1.407   6.926 -0.0171  0.5392 -0.5329
 5706SOL    HW128577   2.718   1.500   6.951 -1.2333  0.5598 -0.4317
 5706SOL    HW228578   2.641   1.402   6.866  0.5657 -2.1541 -1.0052
 5707SOL     OW28579   4.439   4.368   9.387  0.6456  0.1087  0.0408
 5707SOL    HW128580   4.359   4.418   9.369  0.7164  0.3128  0.2811
 5707SOL    HW228581   4.481   4.420   9.455  2.0976 -0.6066 -0.3050
 5708SOL     OW28582   1.207   4.202  17.547  0.2768 -0.2849  0.9433
 5708SOL    HW128583   1.265   4.127  17.558  1.4267  0.6743  1.3771
 5708SOL    HW228584   1.265   4.275  17.568 -2.7785  2.3952  0.0494
 5709SOL     OW28585   0.380   1.822   4.357 -0.2201 -0.4923  0.2987
 5709SOL    HW128586   0.427   1.768   4.294  0.7680 -0.8678  1.3687
 5709SOL    HW228587   0.299   1.771   4.357 -1.8338  2.0107 -0.9801
 5710SOL     OW28588   4.131   4.323   6.247  0.0927  0.0912  0.2104
 5710SOL    HW128589   4.215   4.289   6.276 -0.0989 -0.1411  0.4898
 5710SOL    HW228590   4.075   4.324   6.325 -2.2033  3.3912 -1.4751
 5711SOL     OW28591   3.913   1.980   5.481  0.7332 -0.3209  0.3349
 5711SOL    HW128592   3.847   2.048   5.496 -0.0235 -0.6618 -1.4889
 5711SOL    HW228593   3.865   1.900   5.461  0.2159 -0.3319  1.5999
 5712SOL     OW28594   0.303   1.830   1.141  0.1238 -0.3059 -0.1493
 5712SOL    HW128595   0.372   1.767   1.122  2.0693  1.5682  0.6070
 5712SOL    HW228596   0.226   1.784   1.174  0.1816  0.0698  0.5127
 5713SOL     OW28597   3.396   3.558   8.675  0.6248  0.3102 -0.6765
 5713SOL    HW128598   3.358   3.617   8.609  1.5160  3.9556  2.0647
 5713SOL    HW228599   3.329   3.493   8.657  2.1417 -1.3385 -0.3114
 5714SOL     OW28600   0.216   2.204   7.129  0.0277  0.1826  0.0318
 5714SOL    HW128601   0.288   2.144   7.109 -1.0088 -0.0947 -2.8571
 5714SOL    HW228602   0.217   2.219   7.224  1.1301 -1.2683  0.2563
 5715SOL     OW28603   3.525   2.935   0.802  0.7296 -0.1866  0.7133
 5715SOL    HW128604   3.489   2.859   0.848  3.9561 -0.5395  2.6358
 5715SOL    HW228605   3.614   2.933   0.835  0.5311  1.1659  1.3455
 5716SOL     OW28606   2.013   3.362  16.829 -0.0692  0.5115 -0.5602
 5716SOL    HW128607   1.921   3.348  16.806 -0.4475 -0.2300  1.4115
 5716SOL    HW228608   2.044   3.275  16.802 -2.9090  0.5007 -3.7841
 5717SOL     OW28609   3.387   0.846  12.877 -0.1636 -0.0180 -0.4569
 5717SOL    HW128610   3.297   0.825  12.903 -0.1024 -0.3965 -0.5425
 5717SOL    HW228611   3.372   0.911  12.809  1.4027  1.9682  1.1145
 5718SOL     OW28612   4.326   2.141   4.892 -0.7027 -0.2574  0.6071
 5718SOL    HW128613   4.344   2.051   4.917 -0.3769 -0.4998 -0.5002
 5718SOL    HW228614   4.261   2.171   4.956 -1.6647 -1.7735  0.3250
 5719SOL     OW28615   2.815   0.778   6.406  0.5767 -0.6807 -0.2344
 5719SOL    HW128616   2.820   0.728   6.325 -0.5031  1.3268 -1.5357
 5719SOL    HW228617   2.723   0.804   6.410  0.7724 -0.0178 -0.1490
 5720SOL     OW28618   3.248   0.213   7.185 -0.4322  0.4287 -0.1873
 5720SOL    HW128619   3.330   0.176   7.218 -0.5933 -0.4790 -0.7941
 5720SOL    HW228620   3.234   0.151   7.112 -0.0846 -1.5067  1.3881
 5721SOL     OW28621   2.701   0.227   2.849 -0.1053  0.3265  1.0111
 5721SOL    HW128622   2.651   0.172   2.788 -0.5515  2.7356 -0.7862
 5721SOL    HW228623   2.791   0.221   2.817 -1.0692  3.7257 -2.3797
 5722SOL     OW28624   0.592   1.870   6.092 -0.7017 -0.4474 -0.3144
 5722SOL    HW128625   0.544   1.937   6.141  1.9309  0.7090  0.7241
 5722SOL    HW228626   0.641   1.920   6.027  3.1283 -1.3290  1.8700
 5723SOL     OW28627   3.502   1.910   1.363  0.4501 -0.4541  0.4051
 5723SOL    HW128628   3.527   1.973   1.431 -0.7972  0.3145  0.1422
 5723SOL    HW228629   3.425   1.876   1.410 -0.1300 -0.5900 -0.6505
 5724SOL     OW28630   4.147   4.670   3.130 -0.2574 -0.1765  0.2346
 5724SOL    HW128631   4.135   0.038   3.115  0.9366  0.1683  1.4191
 5724SOL    HW228632   4.066   4.647   3.085 -1.7486  3.1299  1.1520
 5725SOL     OW28633   1.601   1.901   5.589  0.7791 -0.7604 -0.0197
 5725SOL    HW128634   1.607   1.996   5.584 -1.7444 -0.5495  1.0292
 5725SOL    HW228635   1.641   1.883   5.504  0.8289 -0.4911 -0.0537
 5726SOL     OW28636   1.496   0.472   4.941  0.2277 -0.1600 -0.2161
 5726SOL    HW128637   1.580   0.517   4.932  0.3563 -0.2018  0.7195
 5726SOL    HW228638   1.517   0.379   4.934  1.0401  0.1623 -1.9100
 5727SOL     OW28639   4.490   3.449   3.094 -0.0656  0.0662  0.1461
 5727SOL    HW128640   4.412   3.415   3.137 -0.5208 -0.4667 -1.0976
 5727SOL    HW228641   4.538   3.489   3.167  2.3934  1.3820 -2.1912
 5728SOL     OW28642   4.571   3.703   5.755  0.2937 -0.4584  0.5839
 5728SOL    HW128643   4.616   3.747   5.683 -2.0325 -0.6106 -0.9502
 5728SOL    HW228644   4.528   3.773   5.804  1.8409 -0.6254  2.1978
 5729SOL     OW28645   0.134   3.719   2.099  0.4404  0.0589  0.2342
 5729SOL    HW128646   0.117   3.715   2.193  0.7430 -3.9187  0.1255
 5729SOL    HW228647   0.061   3.769   2.064 -0.9524 -0.6946  2.1007
 5730SOL     OW28648   2.062   3.266   5.761 -0.0055 -0.0658  0.1280
 5730SOL    HW128649   2.129   3.215   5.806 -0.6423 -0.4385  0.6566
 5730SOL    HW228650   2.042   3.315   5.842 -0.0307 -0.9709  0.6670
 5731SOL     OW28651   0.369   4.622   3.214 -0.0923  0.0359 -0.1662
 5731SOL    HW128652   0.361   4.589   3.303  0.8150  1.8580  0.5970
 5731SOL    HW228653   0.341   4.712   3.233 -0.4022 -0.3159  1.0397
 5732SOL     OW28654   2.924   0.639  17.663  0.0272  0.2640 -0.0693
 5732SOL    HW128655   2.975   0.715  17.635  1.1601 -0.6944 -0.6144
 5732SOL    HW228656   2.977   0.568  17.627 -0.1512  0.6336 -1.0535
 5733SOL     OW28657   3.251   4.255   6.191  0.0194 -0.2301  0.4730
 5733SOL    HW128658   3.277   4.319   6.124 -0.7251  0.8298  1.1953
 5733SOL    HW228659   3.208   4.188   6.138  1.4649 -0.8235  0.0332
 5734SOL     OW28660   3.558   3.776   7.222 -0.8050  0.0089 -0.5801
 5734SOL    HW128661   3.515   3.772   7.307 -1.8903  0.1356 -1.1172
 5734SOL    HW228662   3.479   3.771   7.168 -1.8658  0.2190  0.9451
 5735SOL     OW28663   2.670   2.441   7.145 -0.4159 -0.0833 -0.1720
 5735SOL    HW128664   2.749   2.398   7.178 -2.1691 -0.4298  3.5782
 5735SOL    HW228665   2.715   2.492   7.077 -0.0887 -0.8869 -0.5619
 5736SOL     OW28666   4.074   0.516   8.886 -1.2297 -0.4706 -0.3646
 5736SOL    HW128667   4.154   0.568   8.900 -2.2210  0.8526  0.3944
 5736SOL    HW228668   4.067   0.468   8.969 -0.1848  0.4862  0.2805
 5737SOL     OW28669   3.067   2.184   0.510 -0.1003 -0.9327  0.3349
 5737SOL    HW128670   3.081   2.125   0.584  0.4539 -0.0570  0.9362
 5737SOL    HW228671   3.008   2.131   0.457 -3.3989  2.9569  0.0892
 5738SOL     OW28672   0.771   1.081   2.636 -0.1484 -0.2431  0.7022
 5738SOL    HW128673   0.772   1.002   2.690 -2.2129 -0.9994 -0.3712
 5738SOL    HW228674   0.750   1.043   2.550 -0.3204  1.0747  0.1666
 5739SOL     OW28675   2.969   3.001   8.720 -0.3375  0.2945  0.0420
 5739SOL    HW128676   2.910   2.926   8.724  0.2151 -0.2419 -1.9628
 5739SOL    HW228677   2.922   3.064   8.667  2.8051  2.2937 -0.3910
 5740SOL     OW28678   0.693   0.005   8.623 -0.0721  0.0519 -0.1324
 5740SOL    HW128679   0.647   0.025   8.542  0.4560  0.8655 -0.2298
 5740SOL    HW228680   0.640   0.044   8.693 -0.7146  0.5144 -0.8671
 5741SOL     OW28681   2.406   0.364  15.949 -0.0673 -0.1218 -0.5103
 5741SOL    HW128682   2.378   0.453  15.970 -2.1358 -1.3376  1.8918
 5741SOL    HW228683   2.410   0.316  16.031 -0.9354 -0.1878 -0.5161
 5742SOL     OW28684   1.714   2.773   0.391 -0.6730 -0.1347  0.3320
 5742SOL    HW128685   1.748   2.708   0.453  0.7392 -0.8414 -1.1800
 5742SOL    HW228686   1.669   2.707   0.337 -3.8871  0.2434  2.5235
 5743SOL     OW28687   2.732   2.752   7.058  0.5025 -0.0063 -0.6596
 5743SOL    HW128688   2.685   2.721   6.981 -3.1904 -3.2005  2.8864
 5743SOL    HW228689   2.743   2.835   7.011 -1.7971  1.8585  2.1242
 5744SOL     OW28690   0.353   1.246   6.047 -0.1506 -0.9728 -0.4070
 5744SOL    HW128691   0.305   1.328   6.060  1.5493 -0.3192  1.6215
 5744SOL    HW228692   0.318   1.198   6.122  0.2059  0.2844  0.5622
 5745SOL     OW28693   2.286   0.082  11.201  0.5597  0.3689 -0.1025
 5745SOL    HW128694   2.218   0.129  11.154 -1.0254 -2.0559 -0.2537
 5745SOL    HW228695   2.351   0.151  11.197  1.2198 -0.2991 -0.8574
 5746SOL     OW28696   3.097   1.776   7.230  0.5183 -0.2600 -0.1555
 5746SOL    HW128697   3.159   1.845   7.206  0.1280 -0.5675 -1.9985
 5746SOL    HW228698   3.014   1.820   7.251 -0.5112 -1.7942 -0.9839
 5747SOL     OW28699   4.628   1.017   9.481 -0.0717 -0.3262  0.1505
 5747SOL    HW128700   4.621   1.081   9.551  1.4489 -0.7148  0.6542
 5747SOL    HW228701   4.663   0.944   9.532 -0.9888 -1.8984 -1.4656
 5748SOL     OW28702   0.386   1.572   8.062  0.7021 -0.7419 -0.2626
 5748SOL    HW128703   0.293   1.556   8.079  0.4291 -0.8058 -1.7773
 5748SOL    HW228704   0.419   1.513   8.130  0.5244 -0.4639  0.0609
 5749SOL     OW28705   0.764   2.468   8.248 -0.3910  0.1750 -0.5534
 5749SOL    HW128706   0.737   2.537   8.188 -1.1145  0.1801 -0.2242
 5749SOL    HW228707   0.851   2.453   8.211 -0.2776  0.5565 -0.4458
 5750SOL     OW28708   2.684   4.709   8.578 -0.1815  0.1448  0.1414
 5750SOL    HW128709   2.639   4.685   8.659 -1.9142 -1.6202 -1.3430
 5750SOL    HW228710   2.749   0.035   8.625 -0.4910 -1.0785  1.9318
 5751SOL     OW28711   2.297   2.975   3.480  0.3862 -0.0930  0.4422
 5751SOL    HW128712   2.307   3.020   3.397 -1.2306 -0.6737 -0.0741
 5751SOL    HW228713   2.207   2.994   3.509 -0.5470 -2.6248 -0.8361
 5752SOL     OW28714   0.127   2.411  11.590 -0.4382  0.3193 -0.0207
 5752SOL    HW128715   0.080   2.346  11.538  2.2538 -0.1603 -1.8985
 5752SOL    HW228716   0.105   2.492  11.542 -2.5970  0.6637  1.5718
 5753SOL     OW28717   0.105   0.685   1.703 -0.1234  0.0052 -0.9217
 5753SOL    HW128718   0.036   0.647   1.757 -1.0347  1.4779 -1.0346
 5753SOL    HW228719   0.078   0.777   1.704  0.8238  0.2305  2.4466
 5754SOL     OW28720   0.859   0.727   2.338 -0.2962  0.3555 -0.3432
 5754SOL    HW128721   0.840   0.685   2.254 -0.0018  0.5482 -0.5066
 5754SOL    HW228722   0.955   0.727   2.331 -0.2205 -1.1151  0.7372
 5755SOL     OW28723   1.338   2.210   3.579  0.8099  0.3570  0.1104
 5755SOL    HW128724   1.418   2.243   3.619  0.1856 -1.2883  2.6874
 5755SOL    HW228725   1.325   2.126   3.622 -0.9670 -0.5100 -2.0983
 5756SOL     OW28726   0.818   4.218   9.326  0.3445 -0.7141 -0.5194
 5756SOL    HW128727   0.871   4.149   9.366 -0.5759 -0.4874  1.1031
 5756SOL    HW228728   0.746   4.168   9.286 -1.1671  0.2640  1.0058
 5757SOL     OW28729   2.087   4.142   2.858 -0.1208 -0.0823 -0.6051
 5757SOL    HW128730   2.137   4.222   2.872  1.3826 -0.9818 -0.9280
 5757SOL    HW228731   2.154   4.095   2.809  3.1839  2.0952  1.8216
 5758SOL     OW28732   3.442   3.926   8.004  0.6463 -0.2846  0.2311
 5758SOL    HW128733   3.434   3.835   8.034  2.1394 -0.6282 -0.3803
 5758SOL    HW228734   3.410   3.968   8.083  0.4455  2.4431 -1.2790
 5759SOL     OW28735   4.208   0.848   3.619 -0.6995 -0.5537 -0.8032
 5759SOL    HW128736   4.152   0.835   3.542 -2.3599 -5.6514  1.2682
 5759SOL    HW228737   4.280   0.897   3.578  0.2479 -0.6894  0.6899
 5760SOL     OW28738   1.327   4.140   8.883 -0.0916  0.2122  0.9237
 5760SOL    HW128739   1.353   4.220   8.839  1.3069 -0.9908 -0.4432
 5760SOL    HW228740   1.270   4.100   8.817  0.3950  2.7922 -1.0602
 5761SOL     OW28741   4.127   3.383   7.563  0.8512 -0.1080 -0.1649
 5761SOL    HW128742   4.200   3.365   7.622  0.5122 -1.2201 -0.0838
 5761SOL    HW228743   4.172   3.428   7.491  1.5742  0.7740  0.8542
 5762SOL     OW28744   3.840   2.958  15.735  0.0116  0.2054  0.0744
 5762SOL    HW128745   3.794   2.969  15.818  0.8441  0.2544  0.5289
 5762SOL    HW228746   3.818   3.044  15.700 -0.0724  0.1337 -0.0526
 5763SOL     OW28747   4.714   0.079   0.030  0.1218  0.0666 -0.0610
 5763SOL    HW128748   4.697   0.157  17.682 -0.8739  0.3974  0.7478
 5763SOL    HW228749   0.048   0.027  17.682  2.0263  1.7233  0.4863
 5764SOL     OW28750   0.059   4.174  13.180  0.5324  0.2834  0.1976
 5764SOL    HW128751   0.000   4.246  13.159 -0.5465 -0.1264  1.7638
 5764SOL    HW228752   0.084   4.205  13.267  1.3763 -2.9727  1.1173
 5765SOL     OW28753   2.916   1.862   1.982  0.2287  0.2855 -0.7788
 5765SOL    HW128754   2.883   1.818   2.060  2.5679 -1.6087 -0.8449
 5765SOL    HW228755   2.861   1.940   1.972 -0.2611  0.0500  0.1135
 5766SOL     OW28756   3.348   2.388   3.077 -0.4939  0.6600  0.0765
 5766SOL    HW128757   3.372   2.306   3.033 -1.2724 -0.4520  1.7046
 5766SOL    HW228758   3.397   2.370   3.157  1.2258 -1.3957 -1.4396
 5767SOL     OW28759   2.920   4.211   8.455  0.0429 -0.3329  0.1924
 5767SOL    HW128760   2.944   4.301   8.435 -2.9289 -0.0999 -2.3253
 5767SOL    HW228761   2.825   4.205   8.459 -0.1242 -0.1341 -3.3377
 5768SOL     OW28762   1.142   0.793   6.140  0.0802  0.0859  0.0507
 5768SOL    HW128763   1.180   0.861   6.084 -0.4508 -1.3456 -2.0634
 5768SOL    HW228764   1.211   0.792   6.206  0.1301 -0.0889 -0.0046
 5769SOL     OW28765   1.807   3.019  10.620  0.4307  0.4264 -0.3030
 5769SOL    HW128766   1.859   2.992  10.545  0.4690  0.8669 -0.4369
 5769SOL    HW228767   1.774   3.103  10.589 -0.1317 -0.4309 -2.0215
 5770SOL     OW28768   3.646   1.821   3.710 -0.8713 -0.2823  0.4585
 5770SOL    HW128769   3.658   1.726   3.711  1.7953  0.0551 -0.3034
 5770SOL    HW228770   3.555   1.834   3.683 -0.8435  1.0706  1.0364
 5771SOL     OW28771   3.929   2.119   2.818 -0.0830  0.3620 -0.0210
 5771SOL    HW128772   3.908   2.071   2.898 -0.4512  2.0174  0.8722
 5771SOL    HW228773   4.016   2.086   2.794 -0.4149 -1.6341  1.5281
 5772SOL     OW28774   0.778   1.416   9.249 -0.7286 -0.4422 -0.5865
 5772SOL    HW128775   0.803   1.382   9.163 -1.2479 -1.8417 -0.1705
 5772SOL    HW228776   0.697   1.468   9.241  0.9439  2.0041 -1.5612
 5773SOL     OW28777   3.807   3.101  15.473 -0.6380  0.3551 -0.1203
 5773SOL    HW128778   3.751   3.179  15.475  0.8897  1.4479 -0.4329
 5773SOL    HW228779   3.894   3.139  15.484  0.4054 -1.4373 -2.2522
 5774SOL     OW28780   1.643   3.361   6.269 -0.1680 -0.1288 -0.5596
 5774SOL    HW128781   1.628   3.278   6.225  0.4150 -1.3362  1.5359
 5774SOL    HW228782   1.604   3.418   6.202 -1.7965  1.3982  1.6637
 5775SOL     OW28783   2.836   0.274   4.385 -0.2825  1.2309  0.2718
 5775SOL    HW128784   2.897   0.206   4.413  0.0235  0.3701 -2.4584
 5775SOL    HW228785   2.894   0.328   4.331  0.6151  1.5566  1.5714
 5776SOL     OW28786   3.323   4.163  15.594  0.3344 -0.3518 -0.3678
 5776SOL    HW128787   3.399   4.215  15.619  1.2167 -1.6925 -0.2611
 5776SOL    HW228788   3.309   4.158  15.499 -0.5959  0.0610 -0.2472
 5777SOL     OW28789   3.646   1.811   3.381 -0.3461  0.2420 -0.6611
 5777SOL    HW128790   3.645   1.869   3.458 -0.2870 -2.2116  1.2069
 5777SOL    HW228791   3.731   1.834   3.344 -0.0969 -0.3421 -0.4551
 5778SOL     OW28792   0.381   2.921   7.497 -0.8439  0.0844 -0.1520
 5778SOL    HW128793   0.404   3.013   7.483  0.0935  0.0298  1.0787
 5778SOL    HW228794   0.289   2.927   7.468 -1.2694  0.6101  1.3009
 5779SOL     OW28795   1.379   1.604  17.167 -0.3052 -0.0413  0.1078
 5779SOL    HW128796   1.472   1.625  17.157 -0.6102  1.9029  1.1833
 5779SOL    HW228797   1.364   1.518  17.130  1.4054  0.0175 -0.7237
 5780SOL     OW28798   1.690   2.975   2.332 -0.2019 -0.4772  0.1830
 5780SOL    HW128799   1.638   2.895   2.328  0.1575 -0.6482 -1.0592
 5780SOL    HW228800   1.665   3.005   2.245  0.5551  1.2971  0.5859
 5781SOL     OW28801   3.386   1.051   0.960 -0.6159  0.1742 -0.2915
 5781SOL    HW128802   3.471   1.048   0.918 -0.0760  0.2768  0.8058
 5781SOL    HW228803   3.374   0.958   0.978  0.2383  0.1755  0.2717
 5782SOL     OW28804   3.194   3.825   7.519 -0.1297  0.0692 -0.3603
 5782SOL    HW128805   3.267   3.853   7.575  0.5437 -0.6678 -0.8654
 5782SOL    HW228806   3.201   3.731   7.508  0.8242  0.4322 -2.8924
 5783SOL     OW28807   2.046   0.396   2.139 -0.6578  0.2908 -0.9941
 5783SOL    HW128808   2.048   0.342   2.217  0.3709  0.3299 -1.0024
 5783SOL    HW228809   2.067   0.338   2.066 -0.8348  0.7989 -1.4564
 5784SOL     OW28810   4.538   3.069   8.816  0.0387  0.8350  0.4100
 5784SOL    HW128811   4.505   3.033   8.898 -0.6015  3.6449  1.3727
 5784SOL    HW228812   4.455   3.057   8.768 -0.5997  1.6229  1.3299
 5785SOL     OW28813   4.004   0.736   6.951  0.0931  1.0384 -0.1314
 5785SOL    HW128814   3.962   0.816   6.983  0.6792  1.3692 -0.1846
 5785SOL    HW228815   3.981   0.737   6.858 -1.3404  1.0033  0.2205
 5786SOL     OW28816   4.704   4.381   4.112  0.3415 -0.3616  0.0195
 5786SOL    HW128817   0.049   4.439   4.140  0.8638 -1.0178  0.0415
 5786SOL    HW228818   4.711   4.303   4.167 -1.0638  0.1493  0.9225
 5787SOL     OW28819   4.583   0.060   1.985  0.0894 -0.2065  0.3954
 5787SOL    HW128820   4.660   0.004   1.992 -1.0746 -1.7423  1.0439
 5787SOL    HW228821   4.514   0.003   2.018  0.9536 -0.9959  0.8328
 5788SOL     OW28822   2.147   1.254   6.335  0.0084  0.3503 -0.6267
 5788SOL    HW128823   2.077   1.213   6.285  0.0651  1.4926 -1.6156
 5788SOL    HW228824   2.217   1.218   6.280  1.0710 -0.6144  1.3506
 5789SOL     OW28825   2.606   0.527   6.873  0.0782  0.0396  0.2461
 5789SOL    HW128826   2.547   0.482   6.933 -0.9098  2.0026  0.7347
 5789SOL    HW228827   2.577   0.616   6.893 -0.3015  0.3239 -1.5535
 5790SOL     OW28828   1.754   4.331   6.890 -0.2809  0.3388 -0.4387
 5790SOL    HW128829   1.816   4.369   6.827  0.6787 -0.5215 -0.0213
 5790SOL    HW228830   1.671   4.372   6.869 -0.2830  0.4172 -0.2812
 5791SOL     OW28831   1.599   0.449  10.546 -0.2523 -0.0513 -0.5797
 5791SOL    HW128832   1.579   0.542  10.536 -0.8242 -0.3298 -2.0041
 5791SOL    HW228833   1.677   0.438  10.600 -2.4506 -2.5895  2.0686
 5792SOL     OW28834   0.056   3.666   4.408  0.2879  0.2407  0.1070
 5792SOL    HW128835   0.056   3.732   4.338 -1.0712 -0.4794 -0.5629
 5792SOL    HW228836   0.019   3.705   4.486  1.7031  1.4538  0.1722
 5793SOL     OW28837   1.819   1.853   4.152 -0.3508 -0.3892 -0.0607
 5793SOL    HW128838   1.746   1.888   4.101 -0.0755  0.3483  0.0442
 5793SOL    HW228839   1.886   1.844   4.085 -1.2322  0.2902 -1.0305
 5794SOL     OW28840   4.386   3.260  13.199 -0.0856  0.1709 -0.2956
 5794SOL    HW128841   4.427   3.285  13.116  2.5410 -0.7848  0.6991
 5794SOL    HW228842   4.453   3.298  13.256 -1.3254  0.4705  0.9514
 5795SOL     OW28843   2.369   0.508   1.328  0.1479 -0.1424  0.2982
 5795SOL    HW128844   2.413   0.571   1.271 -2.2485  1.1086 -0.1592
 5795SOL    HW228845   2.289   0.559   1.341 -0.2830 -0.4923 -1.0021
 5796SOL     OW28846   2.679   3.836   4.620 -0.1047  0.1582 -0.4895
 5796SOL    HW128847   2.620   3.767   4.590  0.4052 -0.2352 -0.5769
 5796SOL    HW228848   2.768   3.807   4.600  0.5650  2.4900 -0.9830
 5797SOL     OW28849   3.085   2.113   8.890 -0.6336 -0.0552  0.2578
 5797SOL    HW128850   3.015   2.102   8.954 -0.8579 -0.1707 -0.0081
 5797SOL    HW228851   3.044   2.144   8.809 -0.3002  1.2585  0.5862
 5798SOL     OW28852   1.040   2.477   8.738  0.1303 -0.1983 -0.7149
 5798SOL    HW128853   0.955   2.520   8.728 -0.7322 -1.7877 -0.2400
 5798SOL    HW228854   1.091   2.533   8.797 -0.0762 -1.1923  0.3950
 5799SOL     OW28855   2.365   3.482   8.604  0.2354  0.2295 -0.2582
 5799SOL    HW128856   2.430   3.524   8.661 -2.3438  1.2060  1.9820
 5799SOL    HW228857   2.288   3.537   8.616  0.5596  0.5291  0.4683
 5800SOL     OW28858   0.479   2.641   7.831 -0.7204 -0.0710  0.5376
 5800SOL    HW128859   0.444   2.579   7.767 -2.0470  0.3120  0.9000
 5800SOL    HW228860   0.574   2.636   7.818 -1.0443 -0.9302 -1.4292
 5801SOL     OW28861   2.664   0.880   5.674 -0.1682  0.5114 -0.9725
 5801SOL    HW128862   2.606   0.925   5.736 -0.3530  0.1207 -0.8642
 5801SOL    HW228863   2.683   0.811   5.739 -2.3124  0.7309 -0.1197
 5802SOL     OW28864   3.639   1.419   1.852  0.4103  0.4495  0.4122
 5802SOL    HW128865   3.687   1.352   1.901  2.0219  1.1919 -0.1649
 5802SOL    HW228866   3.576   1.360   1.810  2.1028 -0.6983 -0.4864
 5803SOL     OW28867   0.813   1.031  16.757 -0.6455  0.2695  0.2651
 5803SOL    HW128868   0.809   0.941  16.789 -0.6263 -0.3162 -1.3911
 5803SOL    HW228869   0.765   1.036  16.674 -1.6013  1.4021  0.8838
 5804SOL     OW28870   4.258   4.088   1.990  0.2671 -0.0265 -0.3927
 5804SOL    HW128871   4.236   4.154   1.925 -2.1347 -0.1218  0.3376
 5804SOL    HW228872   4.335   4.054   1.943  0.9265  0.0570  0.6267
 5805SOL     OW28873   3.309   2.181  12.967  0.9968 -0.4100  0.1801
 5805SOL    HW128874   3.381   2.120  12.981 -0.5816 -2.9033 -2.5315
 5805SOL    HW228875   3.301   2.230  13.049 -1.3433  0.4223 -0.5432
 5806SOL     OW28876   2.510   0.326   7.946  1.3359  0.3682 -0.1811
 5806SOL    HW128877   2.529   0.304   8.038 -0.0756  0.1473  0.0625
 5806SOL    HW228878   2.439   0.387   7.963 -0.3403 -2.5254  3.2954
 5807SOL     OW28879   2.354   2.800   0.430 -0.3824  0.1878  0.0355
 5807SOL    HW128880   2.387   2.758   0.509 -0.0632  0.5430  0.0939
 5807SOL    HW228881   2.293   2.731   0.406 -1.8654  1.5917 -0.1880
 5808SOL     OW28882   2.376   3.094   8.205  0.2636  0.1645  0.6465
 5808SOL    HW128883   2.469   3.078   8.186  0.3728  0.0268  1.3116
 5808SOL    HW228884   2.380   3.146   8.286 -2.1504  0.0119  0.8529
 5809SOL     OW28885   3.133   1.041   4.136  0.4086  0.3365  0.4497
 5809SOL    HW128886   3.198   0.978   4.168  0.2525 -0.3735 -0.6373
 5809SOL    HW228887   3.165   1.052   4.047 -0.2300 -1.0657  0.0369
 5810SOL     OW28888   0.674   3.856  16.790  0.2009 -0.1289 -0.0995
 5810SOL    HW128889   0.656   3.940  16.833  1.7540  0.3291 -0.3633
 5810SOL    HW228890   0.592   3.810  16.811 -0.9593  2.3526  0.8766
 5811SOL     OW28891   4.022   4.334   3.540 -0.2738  0.3052 -0.2312
 5811SOL    HW128892   3.990   4.357   3.628 -0.4505  0.9715 -0.4685
 5811SOL    HW228893   4.077   4.411   3.526 -1.7382  0.9480 -2.4533
 5812SOL     OW28894   0.553   2.669   4.765  0.0446  0.2956 -0.4419
 5812SOL    HW128895   0.554   2.764   4.781 -2.8973  0.6833 -2.4687
 5812SOL    HW228896   0.600   2.659   4.682 -1.7546  1.2210 -1.5639
 5813SOL     OW28897   0.012   1.497   5.644  0.7952 -0.1597 -0.5514
 5813SOL    HW128898   0.080   1.560   5.621  1.0154 -0.5139 -0.8665
 5813SOL    HW228899   4.674   1.557   5.684 -0.5924 -2.4622  0.6818
 5814SOL     OW28900   1.071   3.836   6.797  0.4886  0.0154  0.0940
 5814SOL    HW128901   1.137   3.773   6.826  0.9825  0.4886 -0.0092
 5814SOL    HW228902   1.025   3.860   6.877  1.2628  2.9021 -0.3362
 5815SOL     OW28903   1.008   2.901   7.805  0.4095  0.0298 -0.1132
 5815SOL    HW128904   1.064   2.909   7.728  0.2219  0.1786 -0.2332
 5815SOL    HW228905   1.060   2.853   7.869 -0.2409  0.1933  0.5443
 5816SOL     OW28906   4.553   0.252  17.129 -0.3077 -0.4064 -0.1454
 5816SOL    HW128907   4.463   0.259  17.159 -0.4325  4.0843 -1.5824
 5816SOL    HW228908   4.550   0.164  17.092  0.7893  0.5791 -2.5821
 5817SOL     OW28909   1.401   0.061   7.888  0.1364 -0.4785 -0.0171
 5817SOL    HW128910   1.366   4.703   7.916 -0.5199 -0.3235 -0.3778
 5817SOL    HW228911   1.323   0.108   7.859  0.9795  0.7662 -0.3128
 5818SOL     OW28912   4.003   3.518   9.674 -0.1841 -0.6780 -0.7070
 5818SOL    HW128913   3.944   3.486   9.606  0.7004 -0.7442 -1.4514
 5818SOL    HW228914   4.044   3.594   9.632  2.1060 -0.9568  0.9863
 5819SOL     OW28915   2.887   2.438   8.173 -0.0636  0.5750 -0.1175
 5819SOL    HW128916   2.893   2.347   8.142  2.6722  0.0792  1.7438
 5819SOL    HW228917   2.977   2.461   8.150 -1.3633  3.2602 -2.3981
 5820SOL     OW28918   2.755   0.943  11.003 -0.4505  0.1582  0.2172
 5820SOL    HW128919   2.722   0.963  10.915 -0.2849 -1.0924 -0.1193
 5820SOL    HW228920   2.745   0.848  11.002  0.3488  0.0940 -1.0655
 5821SOL     OW28921   3.570   3.831   8.679 -0.1178  0.0584  0.0213
 5821SOL    HW128922   3.632   3.818   8.751  0.9195  1.2294 -0.6613
 5821SOL    HW228923   3.633   3.848   8.609 -0.2730  1.1316  0.1520
 5822SOL     OW28924   4.215   0.266   7.132 -0.1909  0.5858  0.3427
 5822SOL    HW128925   4.147   0.330   7.114 -1.6502 -1.2995 -0.8153
 5822SOL    HW228926   4.153   0.196   7.155 -0.7746  0.3475 -2.0344
 5823SOL     OW28927   2.309   2.437   9.477 -0.2256  0.0773 -0.0796
 5823SOL    HW128928   2.276   2.527   9.481 -0.4159 -0.0662  1.3284
 5823SOL    HW228929   2.402   2.454   9.459  0.5573 -0.9915  3.0258
 5824SOL     OW28930   0.664   2.375   3.321 -0.8058 -0.1214  0.1435
 5824SOL    HW128931   0.650   2.289   3.361 -1.1352  0.6491  1.6689
 5824SOL    HW228932   0.759   2.384   3.325 -0.7728 -0.4527  0.1533
 5825SOL     OW28933   3.240   3.109  16.291 -0.1736  0.2460 -0.0587
 5825SOL    HW128934   3.146   3.100  16.275  0.2473 -1.1458 -1.6739
 5825SOL    HW228935   3.242   3.189  16.344 -2.6971 -0.5208  1.1582
 5826SOL     OW28936   2.558   1.667   2.712 -0.3125 -0.3356 -0.0445
 5826SOL    HW128937   2.536   1.592   2.766 -0.5711 -0.3876 -0.2204
 5826SOL    HW228938   2.586   1.732   2.776  1.1786 -2.3621  1.3166
 5827SOL     OW28939   3.565   3.520   2.841  0.0312 -0.2767  0.3424
 5827SOL    HW128940   3.511   3.524   2.762  1.7460 -0.3665 -0.8319
 5827SOL    HW228941   3.595   3.429   2.833  2.0534  0.3160  1.4005
 5828SOL     OW28942   3.414   0.774   5.824  0.8515 -0.5108 -0.2884
 5828SOL    HW128943   3.476   0.729   5.767  2.3872 -0.5445  1.4228
 5828SOL    HW228944   3.334   0.758   5.773  1.4435 -1.4822 -0.9035
 5829SOL     OW28945   0.877   1.436   7.821 -0.3897  0.1141 -0.6690
 5829SOL    HW128946   0.871   1.376   7.895 -0.2675  0.6553 -0.2197
 5829SOL    HW228947   0.961   1.414   7.782  0.4794 -0.3674  1.5256
 5830SOL     OW28948   4.653   4.347   6.272 -0.4932  0.0369  0.6565
 5830SOL    HW128949   4.694   4.262   6.256 -2.4603 -0.9513  0.8870
 5830SOL    HW228950   4.584   4.354   6.206 -1.8596 -0.6291  2.0171
 5831SOL     OW28951   2.126   3.085  15.686  0.2216 -0.0462  0.2817
 5831SOL    HW128952   2.138   2.990  15.692  1.6399  0.1932  1.3615
 5831SOL    HW228953   2.032   3.090  15.672  0.5566 -0.0661 -1.8795
 5832SOL     OW28954   2.593   3.812   2.408 -0.0772 -0.2752 -0.2087
 5832SOL    HW128955   2.558   3.767   2.332  0.1277 -2.4937  0.9959
 5832SOL    HW228956   2.646   3.875   2.359 -1.0744 -1.4821 -2.8261
 5833SOL     OW28957   4.701   0.457   8.375  0.1002 -0.4436  0.7876
 5833SOL    HW128958   0.042   0.459   8.307 -1.2551 -3.5392 -0.5973
 5833SOL    HW228959   4.635   0.403   8.332  1.1364 -0.7420 -0.4283
 5834SOL     OW28960   3.808   3.860  11.501  0.7825  0.3398  0.0141
 5834SOL    HW128961   3.759   3.906  11.570 -1.1718 -0.4387 -0.8694
 5834SOL    HW228962   3.899   3.876  11.525  1.3182  1.3905 -2.7791
 5835SOL     OW28963   2.941   1.989   5.420  0.2248 -0.3224 -0.6265
 5835SOL    HW128964   2.972   1.954   5.503  0.0081  2.2385  0.5540
 5835SOL    HW228965   2.885   1.918   5.389 -1.4298  0.3961  0.7152
 5836SOL     OW28966   1.821   3.662   7.532  0.5186  0.3389 -0.3744
 5836SOL    HW128967   1.811   3.751   7.564  1.4028  0.7213 -1.1459
 5836SOL    HW228968   1.806   3.604   7.607  0.5809  1.9508  0.8751
 5837SOL     OW28969   0.543   3.880  12.855  0.3231 -0.6465  0.8643
 5837SOL    HW128970   0.577   3.914  12.772 -0.6339 -0.2971  0.6058
 5837SOL    HW228971   0.513   3.800  12.812  0.5483 -1.2339  1.7896
 5838SOL     OW28972   2.340   2.912   7.346 -0.0685  0.4790 -0.0018
 5838SOL    HW128973   2.325   2.951   7.431  0.7180  1.6280 -0.3984
 5838SOL    HW228974   2.335   2.990   7.290 -1.1477  0.2836 -0.1863
 5839SOL     OW28975   2.746   2.094  11.103  0.0635 -0.4856  0.6130
 5839SOL    HW128976   2.773   2.185  11.119  1.7440 -0.4932 -2.2215
 5839SOL    HW228977   2.815   2.033  11.127  1.7628  1.9953  1.9948
 5840SOL     OW28978   3.654   2.787  16.615  0.0987 -0.1830  0.3106
 5840SOL    HW128979   3.696   2.788  16.701 -1.9684  3.0129  1.2958
 5840SOL    HW228980   3.708   2.843  16.561 -0.0565 -0.7324 -0.4082
 5841SOL     OW28981   0.130   4.140   0.191  0.1230  0.0260 -0.0485
 5841SOL    HW128982   0.208   4.196   0.187  0.3958 -0.4077 -0.7990
 5841SOL    HW228983   0.098   4.155   0.280  0.2789  0.8750 -0.1355
 5842SOL     OW28984   2.575   0.016  10.995 -0.0657 -0.2995 -0.1153
 5842SOL    HW128985   2.531   4.660  11.019 -0.2948  0.0039  0.5152
 5842SOL    HW228986   2.521   0.064  10.932  0.8328 -1.9936 -2.1600
 5843SOL     OW28987   2.908   0.765  10.693  0.0321  0.4541  0.0911
 5843SOL    HW128988   2.952   0.845  10.722 -2.0478  1.7642 -0.3699
 5843SOL    HW228989   2.816   0.790  10.695  0.4056  1.8588 -0.3328
 5844SOL     OW28990   2.170   0.423   8.931  0.2656 -0.2349 -0.2567
 5844SOL    HW128991   2.194   0.459   8.845 -1.0397  1.6726  0.1783
 5844SOL    HW228992   2.159   0.332   8.902  1.5574 -1.4757  3.1939
 5845SOL     OW28993   4.385   2.443   9.530 -0.2252  0.2090  0.5550
 5845SOL    HW128994   4.447   2.379   9.563 -1.7368 -1.1251  0.8093
 5845SOL    HW228995   4.315   2.391   9.490 -1.0661 -0.3457  2.7151
 5846SOL     OW28996   1.465   2.017   4.888  0.5416  0.0926  0.1897
 5846SOL    HW128997   1.523   1.967   4.946 -1.5190 -1.4407  0.9398
 5846SOL    HW228998   1.464   2.108   4.919 -2.2864 -0.0121  0.3850
 5847SOL     OW28999   4.315   1.370   8.890  0.1651  0.0462 -0.3195
 5847SOL    HW129000   4.258   1.308   8.936 -1.0957  0.7782 -0.8782
 5847SOL    HW229001   4.357   1.420   8.959  1.1106  0.1945 -1.0111
 5848SOL     OW29002   1.844   2.384   3.189 -0.4245  0.0900  0.1521
 5848SOL    HW129003   1.926   2.373   3.237  0.1368 -0.5304 -0.9414
 5848SOL    HW229004   1.877   2.383   3.099  1.6217  2.0730  0.8806
 5849SOL     OW29005   3.390   3.303   4.953 -0.0090 -0.0180  0.2234
 5849SOL    HW129006   3.397   3.209   4.966  0.3418 -0.0751 -0.3448
 5849SOL    HW229007   3.310   3.324   5.001  0.7948  1.2050  1.0328
 5850SOL     OW29008   1.753   3.800   6.941  0.5042 -0.3294  0.4813
 5850SOL    HW129009   1.754   3.896   6.942  1.9773 -0.3548  1.9468
 5850SOL    HW229010   1.737   3.793   7.036 -0.4479  1.7218  0.4707
 5851SOL     OW29011   2.528   0.556   2.109 -0.0762  0.2503  0.0578
 5851SOL    HW129012   2.454   0.536   2.166 -0.2202  2.5262  0.6900
 5851SOL    HW229013   2.551   0.466   2.088  2.2419  0.6928  0.6194
 5852SOL     OW29014   0.881   2.965   0.201 -0.6104  0.4342  0.0408
 5852SOL    HW129015   0.976   2.972   0.216 -0.5721  2.6458 -1.1623
 5852SOL    HW229016   0.864   2.939   0.291 -1.4296  0.7493 -0.0238
 5853SOL     OW29017   0.139   3.064   2.975  0.1538  0.5575 -0.3858
 5853SOL    HW129018   0.217   3.093   3.022 -0.7628 -1.4135  2.3200
 5853SOL    HW229019   0.134   3.116   2.895 -0.9572 -1.2554 -1.5123
 5854SOL     OW29020   4.494   2.371   6.609  0.7968 -0.0348 -0.3849
 5854SOL    HW129021   4.484   2.466   6.607 -0.1521 -0.1229  0.7818
 5854SOL    HW229022   4.528   2.356   6.697  3.7992 -1.3573 -1.7571
 5855SOL     OW29023   4.371   4.567   3.425 -0.4328 -0.1809  0.4821
 5855SOL    HW129024   4.404   4.533   3.508  1.2898 -2.6106 -1.1998
 5855SOL    HW229025   4.278   4.545   3.435 -0.3727 -0.0952  1.2616
 5856SOL     OW29026   4.065   0.229   1.308  0.1343 -0.1399 -0.5144
 5856SOL    HW129027   4.077   0.135   1.293 -0.3710 -0.3745  0.5234
 5856SOL    HW229028   4.144   0.264   1.267 -1.1835  1.9785 -1.2543
 5857SOL     OW29029   4.645   4.047  15.677  0.0505  0.0608 -0.2045
 5857SOL    HW129030   4.651   4.140  15.702 -0.7946 -0.3563  1.5119
 5857SOL    HW229031   4.550   4.037  15.685  0.3411 -1.5902  0.9832
 5858SOL     OW29032   2.354   2.176   6.599 -0.7772 -0.1085 -0.4659
 5858SOL    HW129033   2.446   2.167   6.576 -1.1077  0.7116 -2.0898
 5858SOL    HW229034   2.360   2.164   6.694  2.4348 -0.7132 -0.7441
 5859SOL     OW29035   3.487   4.113   9.033 -0.3753 -0.2596  0.3053
 5859SOL    HW129036   3.476   4.037   8.976 -1.3694  0.7848 -0.8675
 5859SOL    HW229037   3.429   4.094   9.107 -3.4087  0.1321 -1.9758
 5860SOL     OW29038   0.899   2.578   4.770  0.0262 -0.2954  0.4474
 5860SOL    HW129039   0.842   2.597   4.696  1.1334 -2.0444 -0.8577
 5860SOL    HW229040   0.857   2.623   4.843  1.3932  1.2009  0.3201
 5861SOL     OW29041   1.145   2.167   1.664 -0.8489  0.3686 -0.1856
 5861SOL    HW129042   1.144   2.144   1.757 -2.6070 -1.4912 -0.6769
 5861SOL    HW229043   1.197   2.098   1.625 -1.1757  0.1601 -0.2518
 5862SOL     OW29044   3.778   1.044  16.501 -0.9489 -0.1413 -0.1972
 5862SOL    HW129045   3.812   1.121  16.547 -1.0364 -1.6708  2.4431
 5862SOL    HW229046   3.740   1.088  16.425  0.7234 -0.8168 -1.4289
 5863SOL     OW29047   1.244   0.326   4.422 -0.3527  0.6915  0.1947
 5863SOL    HW129048   1.288   0.343   4.339  1.2532  0.3665  0.9749
 5863SOL    HW229049   1.168   0.383   4.411 -0.7214  0.3722  1.0636
 5864SOL     OW29050   3.368   1.257   1.136  0.3117  0.0582  0.1835
 5864SOL    HW129051   3.369   1.177   1.083  2.2295  1.5165 -1.9588
 5864SOL    HW229052   3.461   1.273   1.146  0.8369 -1.3631 -2.4948
 5865SOL     OW29053   1.109   0.711   2.185 -0.5773  0.3112 -0.2611
 5865SOL    HW129054   1.068   0.719   2.100 -1.4873 -1.4233  0.0016
 5865SOL    HW229055   1.152   0.626   2.171  1.0508  1.1683 -0.4961
 5866SOL     OW29056   3.926   2.858   8.111 -0.2146 -0.2745 -0.4416
 5866SOL    HW129057   4.010   2.881   8.071 -0.8811  0.8505 -1.2070
 5866SOL    HW229058   3.942   2.780   8.164  0.9935  0.6526  0.5753
 5867SOL     OW29059   0.600   4.253   6.074 -0.5069 -0.0325  0.2856
 5867SOL    HW129060   0.657   4.324   6.047 -0.8619  0.2584  0.3073
 5867SOL    HW229061   0.652   4.212   6.143  0.1415 -1.1105 -0.8515
 5868SOL     OW29062   0.750   3.170   8.545  0.3705  0.2873 -0.1405
 5868SOL    HW129063   0.744   3.095   8.485 -1.9679  0.2683  0.1356
 5868SOL    HW229064   0.753   3.111   8.620  0.9459  0.1143 -0.2951
 5869SOL     OW29065   0.140   1.371   0.734 -0.5150  0.3565  0.5929
 5869SOL    HW129066   0.159   1.296   0.791  0.0081  0.3017  0.3520
 5869SOL    HW229067   0.144   1.332   0.646  2.1093  0.4906  0.6479
 5870SOL     OW29068   2.891   2.334  14.584 -0.4190  0.0374 -0.1842
 5870SOL    HW129069   2.897   2.259  14.525 -0.0040 -0.5465  0.5971
 5870SOL    HW229070   2.962   2.317  14.647  0.8424  2.5376 -0.9118
 5871SOL     OW29071   0.072   2.620  11.414  0.3383  0.4296  0.0165
 5871SOL    HW129072   4.703   2.623  11.412  0.3974  2.5569  0.0962
 5871SOL    HW229073   0.098   2.712  11.426 -0.8781  0.7636  0.0276
 5872SOL     OW29074   0.814   3.803   1.936  0.5773 -0.5319 -0.6254
 5872SOL    HW129075   0.845   3.852   2.012 -0.8286 -0.0498 -0.3686
 5872SOL    HW229076   0.723   3.789   1.962  0.7454  0.2104  0.3387
 5873SOL     OW29077   2.681   3.441   2.817  0.0379 -0.0160 -0.1631
 5873SOL    HW129078   2.701   3.534   2.811 -3.1004  0.5759 -1.6333
 5873SOL    HW229079   2.647   3.421   2.730 -0.2487  0.0620 -0.0689
 5874SOL     OW29080   0.996   1.730  16.444 -0.6289 -0.2038  0.3778
 5874SOL    HW129081   1.005   1.773  16.359  1.2061 -0.7606  0.2894
 5874SOL    HW229082   0.979   1.646  16.402  1.1127  0.3673 -1.5226
 5875SOL     OW29083   2.744   0.047   3.037  0.4332  0.4512  0.3645
 5875SOL    HW129084   2.731   0.124   2.982  2.3474  0.6536  0.1947
 5875SOL    HW229085   2.783   4.720   2.968  2.1273  0.8757  0.9753
 5876SOL     OW29086   4.077   3.452  13.767 -0.5192 -0.5320 -0.0319
 5876SOL    HW129087   4.029   3.447  13.685  0.0050 -2.6539 -0.2120
 5876SOL    HW229088   4.018   3.502  13.824  0.5627 -0.7983  1.3447
 5877SOL     OW29089   3.295   4.703   9.289  0.0154 -0.3254  0.1981
 5877SOL    HW129090   3.279   4.612   9.265 -0.1796  0.1275 -1.3941
 5877SOL    HW229091   3.363   0.008   9.228  0.2084 -1.8731 -0.3723
 5878SOL     OW29092   1.360   0.102   1.807  0.3307  0.5736  0.3546
 5878SOL    HW129093   1.300   0.049   1.755  0.6671  0.1170  0.4268
 5878SOL    HW229094   1.410   0.123   1.729 -0.7262 -0.5609 -0.6318
 5879SOL     OW29095   4.167   0.264   3.970  0.6920  0.2311 -0.4721
 5879SOL    HW129096   4.119   0.345   3.983  0.3671  0.1390 -1.0686
 5879SOL    HW229097   4.100   0.205   3.934  0.1268 -0.6295  2.0438
 5880SOL     OW29098   4.196   2.153   5.139 -0.0261 -0.3900 -0.0469
 5880SOL    HW129099   4.155   2.067   5.152  0.2357 -0.4556  0.3371
 5880SOL    HW229100   4.131   2.204   5.187  0.8550  1.2884 -0.6677
 5881SOL     OW29101   1.755   1.118   0.870 -0.7155  0.4049 -0.0578
 5881SOL    HW129102   1.739   1.082   0.957 -2.1818 -1.3355 -1.0578
 5881SOL    HW229103   1.750   1.213   0.880  0.1953  0.4318  0.1080
 5882SOL     OW29104   4.560   3.085  13.448  0.1774 -0.7043  0.3053
 5882SOL    HW129105   4.546   3.029  13.371  0.3998  0.2099 -0.4081
 5882SOL    HW229106   4.537   3.173  13.416 -0.6248 -1.3790 -0.9619
 5883SOL     OW29107   2.807   3.991   5.738 -0.0172 -0.6951 -0.0038
 5883SOL    HW129108   2.787   4.072   5.691  0.4094  1.5948  3.8062
 5883SOL    HW229109   2.901   3.991   5.719  0.1056  1.9620  0.6045
 5884SOL     OW29110   2.319   4.643   0.951  0.0367 -0.4622  0.1582
 5884SOL    HW129111   2.358   4.666   1.035 -0.1848  1.3715 -0.2351
 5884SOL    HW229112   2.230   4.626   0.981 -0.0366 -0.4140 -0.0274
 5885SOL     OW29113   3.579   2.803   7.397  0.3866  0.1713  0.2089
 5885SOL    HW129114   3.560   2.717   7.433 -0.0391 -0.6130 -1.8538
 5885SOL    HW229115   3.674   2.807   7.403  0.2608  1.5385  1.2267
 5886SOL     OW29116   3.427   4.098   9.537  0.0150 -0.2914  0.5031
 5886SOL    HW129117   3.334   4.091   9.514 -0.0595 -1.3982  1.1306
 5886SOL    HW229118   3.456   4.171   9.482  0.7487  0.2053  1.5709
 5887SOL     OW29119   2.107   2.007   1.591 -0.2855 -0.4380  0.4448
 5887SOL    HW129120   2.065   1.925   1.616 -0.3355 -0.1944  1.1733
 5887SOL    HW229121   2.046   2.067   1.633 -0.2265 -2.4610  3.3834
 5888SOL     OW29122   4.142   3.408   6.328  0.8251  0.6975 -0.3525
 5888SOL    HW129123   4.123   3.439   6.416  0.4356 -0.4648 -0.0219
 5888SOL    HW229124   4.232   3.382   6.350  0.8252 -0.2795 -1.4877
 5889SOL     OW29125   2.152   2.534   7.815  0.0608 -0.3777 -0.5166
 5889SOL    HW129126   2.133   2.583   7.895  0.6667  0.4360 -0.8725
 5889SOL    HW229127   2.134   2.444   7.844 -1.8243 -0.2369 -1.2565
 5890SOL     OW29128   1.275   1.750   9.949 -0.3489 -0.0212  0.7202
 5890SOL    HW129129   1.208   1.808   9.912 -0.6020  0.4664  1.9409
 5890SOL    HW229130   1.292   1.710   9.864  3.0260  0.0506  1.3605
 5891SOL     OW29131   2.387   0.969  16.424  0.2137  0.6378 -0.3049
 5891SOL    HW129132   2.389   0.921  16.507 -2.6974  0.1246 -0.5220
 5891SOL    HW229133   2.375   1.056  16.462  0.9470  1.0931 -1.1176
 5892SOL     OW29134   1.907   2.210   8.476 -0.1039 -0.0842 -0.3039
 5892SOL    HW129135   1.930   2.175   8.390  1.2882 -1.9996  0.8333
 5892SOL    HW229136   1.852   2.284   8.452 -2.7196 -1.8046  0.4469
 5893SOL     OW29137   3.057   3.794   5.198  0.3575 -0.0610  0.2005
 5893SOL    HW129138   3.074   3.701   5.186 -2.4910 -0.4442 -0.8975
 5893SOL    HW229139   3.011   3.805   5.115 -0.9513 -0.5827  0.8535
 5894SOL     OW29140   3.271   2.796  14.177  0.7784 -0.5292 -0.0997
 5894SOL    HW129141   3.290   2.862  14.110  0.1835  0.3220  0.5681
 5894SOL    HW229142   3.277   2.845  14.259 -0.0974 -2.1392  0.9292
 5895SOL     OW29143   2.886   2.752   3.857 -0.2506 -0.6115  0.1309
 5895SOL    HW129144   2.791   2.761   3.845 -0.3766 -2.6241 -0.3264
 5895SOL    HW229145   2.884   2.733   3.951 -3.7859 -2.0755 -0.2489
 5896SOL     OW29146   1.771   1.084   1.952 -0.2362 -0.8134 -0.4123
 5896SOL    HW129147   1.749   1.123   2.037  0.6969 -1.8297  0.2997
 5896SOL    HW229148   1.713   1.135   1.896 -0.0898  0.1476  0.3124
 5897SOL     OW29149   3.043   1.255   4.305  0.3542  0.3835 -0.7060
 5897SOL    HW129150   3.078   1.187   4.248 -1.4954  1.2914 -2.8964
 5897SOL    HW229151   3.082   1.336   4.273 -1.6997  1.5315 -0.3101
 5898SOL     OW29152   1.245   3.458   1.927  0.0312 -0.5206 -0.6951
 5898SOL    HW129153   1.196   3.535   1.956 -0.0153 -0.6184 -0.5155
 5898SOL    HW229154   1.275   3.485   1.840  0.1796 -1.8091 -1.0501
 5899SOL     OW29155   3.895   3.800  11.191  0.1466 -0.4895  0.5194
 5899SOL    HW129156   3.976   3.802  11.241 -0.4528  0.0379  1.4787
 5899SOL    HW229157   3.906   3.878  11.136  0.6264 -1.7369 -1.1738
 5900SOL     OW29158   0.848   4.006   1.479  0.1480 -0.0200 -0.4879
 5900SOL    HW129159   0.808   3.923   1.451 -1.6075  0.2949  1.0892
 5900SOL    HW229160   0.914   4.001   1.410  2.1593  1.0920  1.3872
 5901SOL     OW29161   3.371   4.216   4.408  0.2568 -0.0273 -0.2695
 5901SOL    HW129162   3.464   4.199   4.422 -0.8490 -3.6438  2.7253
 5901SOL    HW229163   3.348   4.123   4.406 -0.3227  0.0853  1.1479
 5902SOL     OW29164   1.814   2.865  11.487 -0.1275 -0.1986  0.2683
 5902SOL    HW129165   1.906   2.863  11.462 -0.0737  1.3923  0.3199
 5902SOL    HW229166   1.774   2.946  11.455 -0.2730  0.0159  0.9962
 5903SOL     OW29167   0.846   0.705   1.088 -0.4648 -0.5174 -0.2425
 5903SOL    HW129168   0.834   0.799   1.098  2.3189 -0.3134  1.2306
 5903SOL    HW229169   0.779   0.673   1.148 -0.2170  1.1971  0.9615
 5904SOL     OW29170   1.345   1.267   2.619  0.2440 -0.0419  0.1334
 5904SOL    HW129171   1.311   1.353   2.645 -1.1665 -1.0475  1.6616
 5904SOL    HW229172   1.276   1.240   2.559  0.8570 -0.2842 -0.4531
 5905SOL     OW29173   2.784   3.994   6.595  0.7272 -0.0553 -0.4748
 5905SOL    HW129174   2.754   4.074   6.637  0.7565 -0.2272 -0.1253
 5905SOL    HW229175   2.787   3.928   6.665 -0.2118 -2.0149 -2.2655
 5906SOL     OW29176   4.173   4.272   8.128 -0.1626  0.4413 -0.1472
 5906SOL    HW129177   4.177   4.312   8.041 -1.6331 -0.8448 -0.7926
 5906SOL    HW229178   4.080   4.284   8.148 -0.1941  0.3611 -0.2470
 5907SOL     OW29179   2.572   0.940  16.225  0.6987 -0.0181  0.0419
 5907SOL    HW129180   2.650   0.996  16.234  1.2896 -1.4174  4.0291
 5907SOL    HW229181   2.535   0.936  16.313 -1.6292  0.8196 -0.9066
 5908SOL     OW29182   3.847   2.721   0.426  0.5315 -0.1201 -0.2851
 5908SOL    HW129183   3.875   2.638   0.463  1.1082 -0.1841 -0.8673
 5908SOL    HW229184   3.860   2.786   0.496  1.0571 -1.0058  0.4281
 5909SOL     OW29185   0.589   1.242   4.821  0.7451  0.5726  0.3948
 5909SOL    HW129186   0.677   1.279   4.828 -0.4245  3.0272  2.1046
 5909SOL    HW229187   0.557   1.254   4.910 -1.3054 -3.3209  0.1882
 5910SOL     OW29188   4.463   2.305   2.923 -0.2573 -0.4045  0.6816
 5910SOL    HW129189   4.527   2.310   2.851  0.9587  0.2355  1.8022
 5910SOL    HW229190   4.473   2.213   2.945  3.1647 -0.2950 -0.4037
 5911SOL     OW29191   2.204   0.577   5.438  0.2485 -0.0114 -0.4536
 5911SOL    HW129192   2.229   0.643   5.373  4.2478 -0.8384  0.2080
 5911SOL    HW229193   2.131   0.535   5.392 -0.3467 -1.7426  2.0904
 5912SOL     OW29194   0.923   2.152   1.954 -0.1356  0.1893  0.1046
 5912SOL    HW129195   0.909   2.228   2.010  1.0797  0.7022 -0.2878
 5912SOL    HW229196   1.017   2.134   1.958 -0.1223  0.3420  0.4762
 5913SOL     OW29197   1.642   2.702  10.953  0.5004  0.1244 -0.1381
 5913SOL    HW129198   1.639   2.759  10.876  0.1310  1.1795  0.6499
 5913SOL    HW229199   1.548   2.686  10.959  0.2776  0.6248 -2.0182
 5914SOL     OW29200   4.582   0.146  14.450 -0.1013  0.1530  0.5122
 5914SOL    HW129201   4.598   0.184  14.364 -3.6726  0.5648  0.0460
 5914SOL    HW229202   4.601   0.226  14.498  1.5627  1.0420 -1.5917
 5915SOL     OW29203   4.478   2.063   3.744 -0.7343  0.2574 -0.4098
 5915SOL    HW129204   4.530   1.998   3.791  1.1821  1.8551 -0.3058
 5915SOL    HW229205   4.540   2.095   3.679 -0.1494 -2.8555 -1.3779
 5916SOL     OW29206   1.208   1.139   7.310  0.7651  0.2679  0.2884
 5916SOL    HW129207   1.298   1.133   7.281  0.6662 -0.4927  0.1395
 5916SOL    HW229208   1.214   1.210   7.374 -0.0634  2.5299 -2.1691
 5917SOL     OW29209   1.695   3.940   2.991  0.3528  0.1084  0.6924
 5917SOL    HW129210   1.653   3.967   2.910  1.4270 -1.2381 -0.3225
 5917SOL    HW229211   1.787   3.928   2.970  0.6323  1.1855  1.3052
 5918SOL     OW29212   3.351   0.350   2.815 -0.3562 -0.0759 -0.2008
 5918SOL    HW129213   3.332   0.443   2.826 -3.4377 -0.7157 -0.3079
 5918SOL    HW229214   3.420   0.343   2.749 -0.8887 -2.5460 -0.5120
 5919SOL     OW29215   2.683   2.058  10.854  0.4110 -0.3228  0.2767
 5919SOL    HW129216   2.769   2.096  10.836 -0.1653 -0.0917 -2.0572
 5919SOL    HW229217   2.691   2.052  10.949 -0.2379 -1.3126  0.2586
 5920SOL     OW29218   1.515   1.463  15.521 -0.0960 -0.8356  0.4350
 5920SOL    HW129219   1.498   1.381  15.473 -1.6259 -1.1254  1.4713
 5920SOL    HW229220   1.456   1.521  15.474  2.7065  1.7749  0.1419
 5921SOL     OW29221   4.706   3.888  12.619  0.4447  0.0488  0.6025
 5921SOL    HW129222   0.060   3.851  12.657 -0.5891 -1.7265  1.0689
 5921SOL    HW229223   4.664   3.813  12.578  0.9834  0.5960 -0.9495
 5922SOL     OW29224   3.943   4.507  10.644  0.0136  0.4059  0.0555
 5922SOL    HW129225   3.924   4.425  10.598  0.9008 -0.1577  0.6962
 5922SOL    HW229226   4.015   4.479  10.700 -0.5293 -2.5550 -0.7218
 5923SOL     OW29227   2.012   2.712   5.535  0.6995 -0.2891  0.0134
 5923SOL    HW129228   2.042   2.802   5.548  1.5570 -0.5731 -0.0420
 5923SOL    HW229229   1.929   2.728   5.489  0.4458 -1.0631  0.2078
 5924SOL     OW29230   1.196   2.970   2.347  0.4059  0.6716  0.5448
 5924SOL    HW129231   1.103   2.968   2.324  0.2534  0.2704  1.1986
 5924SOL    HW229232   1.209   3.063   2.360  1.6056  0.3137  1.9021
 5925SOL     OW29233   2.273   0.214  11.731  0.3203 -0.1336  0.2898
 5925SOL    HW129234   2.353   0.180  11.770  0.2963  0.4210  0.8199
 5925SOL    HW229235   2.302   0.224  11.640 -2.7557 -0.5952 -0.7468
 5926SOL     OW29236   3.008   4.384   7.920 -0.0329 -0.6291  0.4796
 5926SOL    HW129237   2.975   4.441   7.990  0.9931 -0.7275  1.0368
 5926SOL    HW229238   3.080   4.336   7.960  1.5329  0.4651 -1.0292
 5927SOL     OW29239   3.196   1.088   6.918  0.5403 -0.7956 -0.5998
 5927SOL    HW129240   3.108   1.062   6.944  0.4906  0.3923  0.4184
 5927SOL    HW229241   3.214   1.030   6.844  0.7009 -2.1220  0.4829
 5928SOL     OW29242   0.671   0.638   3.917 -0.4797  0.0411  0.1475
 5928SOL    HW129243   0.713   0.689   3.986 -0.1938 -1.1091  0.8343
 5928SOL    HW229244   0.621   0.705   3.872 -0.4550  0.3075  0.5190
 5929SOL     OW29245   0.848   4.101   7.131  0.0470 -0.0253  0.2626
 5929SOL    HW129246   0.787   4.131   7.198 -0.1819  0.5752 -0.2063
 5929SOL    HW229247   0.925   4.157   7.141  0.7250 -1.2499  1.7318
 5930SOL     OW29248   2.145   4.024  12.698 -0.0811  0.3585 -0.2343
 5930SOL    HW129249   2.227   4.003  12.654  0.9938  2.0058  0.9828
 5930SOL    HW229250   2.121   4.107  12.657 -0.3161  0.2165 -0.3831
 5931SOL     OW29251   1.257   4.450   9.775 -0.2523 -0.3641 -0.2821
 5931SOL    HW129252   1.315   4.446   9.850  1.1447 -0.6557 -1.3861
 5931SOL    HW229253   1.248   4.546   9.768 -1.2663 -0.4396 -0.1187
 5932SOL     OW29254   0.836   1.554   5.693 -0.0911 -0.2962 -0.1812
 5932SOL    HW129255   0.901   1.532   5.760 -1.0845 -3.3789 -0.2282
 5932SOL    HW229256   0.867   1.496   5.623 -3.1966 -2.3106  0.1305
 5933SOL     OW29257   2.599   0.686  11.629 -0.1550  0.0133 -0.2685
 5933SOL    HW129258   2.504   0.692  11.644 -0.2247 -0.9480 -0.3517
 5933SOL    HW229259   2.628   0.745  11.699  0.8761 -1.0410  0.1971
 5934SOL     OW29260   2.351   3.736   6.548 -0.4818  0.1135 -0.4304
 5934SOL    HW129261   2.308   3.681   6.614 -2.9770  3.4330  0.7265
 5934SOL    HW229262   2.425   3.769   6.600  0.3143 -1.4355 -0.5941
 5935SOL     OW29263   0.817   3.874  10.760 -0.4936  0.4488  0.2255
 5935SOL    HW129264   0.817   3.904  10.669  1.0744  0.9655  0.3863
 5935SOL    HW229265   0.811   3.782  10.734  1.8247  0.5417 -0.6684
 5936SOL     OW29266   0.030   1.194   7.539  0.4630 -0.4764  0.1039
 5936SOL    HW129267   4.684   1.167   7.482  2.2165  0.9326 -2.8244
 5936SOL    HW229268   0.078   1.113   7.521 -1.0284 -0.8849 -2.1328
 5937SOL     OW29269   3.486   2.890   4.463  0.0479 -0.2292 -0.3316
 5937SOL    HW129270   3.475   2.985   4.471 -1.8224 -0.4746 -0.0223
 5937SOL    HW229271   3.464   2.874   4.371  0.7866 -1.7220 -0.2364
 5938SOL     OW29272   4.208   1.225   9.254 -0.5052 -0.7727 -0.3961
 5938SOL    HW129273   4.299   1.248   9.235 -0.4535  1.7387  2.9639
 5938SOL    HW229274   4.182   1.177   9.176 -0.4259  0.1862 -1.0145
 5939SOL     OW29275   1.444   0.921  15.966 -0.4832 -0.8238  0.2260
 5939SOL    HW129276   1.496   0.991  15.925 -0.2662 -1.9494 -1.4112
 5939SOL    HW229277   1.515   0.858  15.977  0.0223 -0.5587 -1.5133
 5940SOL     OW29278   2.122   1.192   7.158 -0.2787  0.3833  0.5734
 5940SOL    HW129279   2.201   1.175   7.210 -0.7915 -0.6062  1.0366
 5940SOL    HW229280   2.150   1.201   7.067 -0.3314 -1.3034  0.3899
 5941SOL     OW29281   3.739   1.522   3.692  0.7220  1.0019 -0.4098
 5941SOL    HW129282   3.652   1.483   3.680  1.4223 -0.8384  0.7028
 5941SOL    HW229283   3.786   1.460   3.747 -1.5560 -3.8839 -3.9655
 5942SOL     OW29284   1.002   2.822   4.648 -0.4278 -0.2918  0.3584
 5942SOL    HW129285   0.931   2.864   4.601  0.3210 -0.4940 -0.9570
 5942SOL    HW229286   1.051   2.779   4.578  0.3418 -0.1726  0.8138
 5943SOL     OW29287   1.547   1.565   8.108 -0.3014 -0.4700  0.3072
 5943SOL    HW129288   1.470   1.526   8.066 -1.3517  1.1466  0.7342
 5943SOL    HW229289   1.509   1.587   8.193  0.2598 -0.9425  0.6792
 5944SOL     OW29290   0.485   1.323   0.750 -0.5211 -0.2063 -0.5849
 5944SOL    HW129291   0.478   1.418   0.756 -3.7655 -0.4938  0.4671
 5944SOL    HW229292   0.472   1.306   0.657  2.5236 -2.4146 -0.5857
 5945SOL     OW29293   0.821   2.491   5.822  0.0174 -0.0376  0.3424
 5945SOL    HW129294   0.810   2.454   5.735 -0.9831  1.7256 -0.2893
 5945SOL    HW229295   0.851   2.578   5.795 -0.7074 -0.4427 -1.7840
 5946SOL     OW29296   1.518   0.840  16.892  0.7790 -0.6829 -0.2524
 5946SOL    HW129297   1.459   0.783  16.941 -0.6568 -0.9784 -2.3257
 5946SOL    HW229298   1.457   0.878  16.828 -0.0602 -1.1648  0.2728
 5947SOL     OW29299   0.223   0.187  11.864  0.3480  0.3303 -0.6822
 5947SOL    HW129300   0.207   0.261  11.923  2.8540  0.4794 -0.1583
 5947SOL    HW229301   0.253   0.125  11.931  0.1277 -2.0731 -2.8064
 5948SOL     OW29302   1.797   1.342   5.212 -0.0885 -0.4653  0.0429
 5948SOL    HW129303   1.744   1.327   5.290 -0.9940 -0.6586 -0.6180
 5948SOL    HW229304   1.881   1.301   5.232  0.3591  1.9868  3.3812
 5949SOL     OW29305   2.825   1.357  12.332 -0.3478 -0.4497  0.4098
 5949SOL    HW129306   2.847   1.309  12.412  0.5029  1.8024  1.5158
 5949SOL    HW229307   2.879   1.435  12.341  0.1689 -0.8913  1.1720
 5950SOL     OW29308   0.215   1.705   8.592 -0.1375  0.0697  0.6284
 5950SOL    HW129309   0.185   1.755   8.516  0.3103 -2.3339 -1.1110
 5950SOL    HW229310   0.228   1.780   8.650 -3.0806  0.8862  0.2302
 5951SOL     OW29311   3.166   0.390  12.682 -0.0996 -0.4492 -0.5170
 5951SOL    HW129312   3.093   0.446  12.657 -0.6758 -1.2322 -0.5613
 5951SOL    HW229313   3.129   0.306  12.708 -0.7309 -0.2349 -0.7241
 5952SOL     OW29314   2.002   3.092   3.380  0.0273 -0.0452  0.1488
 5952SOL    HW129315   2.011   3.048   3.465  0.9138  0.4248  0.2895
 5952SOL    HW229316   2.010   3.184   3.405 -1.1294  0.5380 -1.6421
 5953SOL     OW29317   3.442   2.873   1.183  0.1374  0.2481 -0.3399
 5953SOL    HW129318   3.504   2.927   1.231  1.6020 -0.3922 -1.5325
 5953SOL    HW229319   3.372   2.855   1.246  0.6921  1.7272  0.6948
 5954SOL     OW29320   1.939   3.518   3.138 -0.6395 -0.0067 -0.4559
 5954SOL    HW129321   1.922   3.580   3.067  1.7608 -0.5771 -1.5208
 5954SOL    HW229322   1.991   3.460   3.083 -0.6219  0.8525 -1.3498
 5955SOL     OW29323   2.310   0.984  12.242 -0.1704  1.0156  0.2157
 5955SOL    HW129324   2.268   0.969  12.157  1.3843  0.2491 -0.4140
 5955SOL    HW229325   2.323   0.893  12.268  0.6264  0.2183 -2.9687
 5956SOL     OW29326   2.808   2.786   5.994  0.1306 -0.3821 -0.7993
 5956SOL    HW129327   2.718   2.754   5.992  0.1851 -0.4219 -2.4815
 5956SOL    HW229328   2.798   2.850   5.924  0.0001  0.4316 -0.0409
 5957SOL     OW29329   1.461   2.245   5.326  0.3416  0.0856  0.1793
 5957SOL    HW129330   1.456   2.195   5.244  1.0819 -1.2210  0.9178
 5957SOL    HW229331   1.373   2.253   5.363  1.1032  0.3718  1.9324
 5958SOL     OW29332   2.538   2.394   8.219  0.1377 -0.1139  0.6994
 5958SOL    HW129333   2.464   2.454   8.221  0.4340  0.2546  0.6628
 5958SOL    HW229334   2.576   2.407   8.306  0.3552  0.8859  0.4504
 5959SOL     OW29335   0.031   3.981   4.032 -0.1078 -0.2620  0.0305
 5959SOL    HW129336   4.672   3.971   3.989 -0.3819  0.3905  0.4257
 5959SOL    HW229337   0.082   4.048   3.986  2.4065 -2.9466 -1.1341
 5960SOL     OW29338   0.985   1.691   7.800 -0.1681 -0.4135 -0.0808
 5960SOL    HW129339   0.939   1.608   7.811 -1.9442  0.3842 -1.4804
 5960SOL    HW229340   0.926   1.722   7.731  1.7251  0.5057 -1.2976
 5961SOL     OW29341   0.297   0.796  12.077 -0.0804 -0.0481  0.0213
 5961SOL    HW129342   0.221   0.817  12.132 -0.7749 -0.0440 -0.9489
 5961SOL    HW229343   0.314   0.710  12.115  1.5178 -0.4649 -1.6042
 5962SOL     OW29344   3.393   1.878   7.125 -0.0627  0.4471 -0.1117
 5962SOL    HW129345   3.380   1.791   7.088 -0.8070  0.3055  0.4932
 5962SOL    HW229346   3.415   1.853   7.215  0.4341 -0.1809 -0.4015
 5963SOL     OW29347   2.669   2.034   6.137  0.2095 -0.1506  0.1198
 5963SOL    HW129348   2.640   1.946   6.160  1.7758 -0.6963  0.0163
 5963SOL    HW229349   2.761   2.009   6.130 -0.4140 -2.6496  0.7894
 5964SOL     OW29350   4.647   2.549   3.082 -0.3336  0.4372 -1.1311
 5964SOL    HW129351   4.559   2.580   3.062 -0.6392 -0.5566 -1.3707
 5964SOL    HW229352   4.678   2.605   3.153 -2.1245  0.4629 -0.3614
 5965SOL     OW29353   1.643   0.926   7.737 -0.3862  0.6095  0.4282
 5965SOL    HW129354   1.656   0.948   7.829  1.0599  1.6172 -0.0070
 5965SOL    HW229355   1.652   1.007   7.687  0.0689 -0.5672 -1.4177
 5966SOL     OW29356   0.146   1.949   5.752 -0.3728  0.5393  0.1167
 5966SOL    HW129357   0.123   1.971   5.842 -1.3048 -0.4682  0.1140
 5966SOL    HW229358   0.072   1.984   5.702 -1.3505  1.1378  2.0093
 5967SOL     OW29359   2.875   2.739   2.820  0.5082 -0.3466  0.4765
 5967SOL    HW129360   2.845   2.737   2.911  0.7654  0.6737  0.5822
 5967SOL    HW229361   2.834   2.812   2.774  1.3112 -1.4559 -2.0085
 5968SOL     OW29362   3.351   3.975  11.739  0.0423  0.0033 -0.0920
 5968SOL    HW129363   3.352   3.888  11.780  0.9319 -0.4570 -1.0919
 5968SOL    HW229364   3.413   3.954  11.669 -0.3677 -0.7748 -0.2218
 5969SOL     OW29365   0.624   4.037  16.566  0.7277 -0.3692 -0.4995
 5969SOL    HW129366   0.605   4.118  16.612  0.0580 -0.1368 -1.1843
 5969SOL    HW229367   0.639   3.974  16.636 -1.2968 -0.0266  0.2309
 5970SOL     OW29368   4.125   3.854   9.189 -0.3358  0.3518 -0.2921
 5970SOL    HW129369   4.125   3.794   9.114 -1.3592 -0.0443  0.0287
 5970SOL    HW229370   4.079   3.931   9.156  0.0193  0.6631 -0.0564
 5971SOL     OW29371   0.179   2.682   2.818  0.0476  0.1569  0.1024
 5971SOL    HW129372   0.093   2.693   2.778  0.4835 -0.5841 -1.0374
 5971SOL    HW229373   0.188   2.589   2.794 -1.2559  0.1279 -0.2688
 5972SOL     OW29374   3.145   1.953   6.641 -0.0393 -0.6055  0.3084
 5972SOL    HW129375   3.178   2.031   6.685 -2.9451  0.5011  0.5086
 5972SOL    HW229376   3.063   1.935   6.687 -0.0851  1.3027  0.9650
 5973SOL     OW29377   3.686   2.517  13.613  0.1634  0.4954  0.3917
 5973SOL    HW129378   3.655   2.607  13.625 -0.7226  0.0114  1.6909
 5973SOL    HW229379   3.624   2.468  13.667  3.5990 -3.0718  1.0708
 5974SOL     OW29380   2.968   1.510   6.530  0.2454 -0.7912 -0.2632
 5974SOL    HW129381   2.913   1.540   6.457 -1.4735  0.4773  1.5447
 5974SOL    HW229382   2.937   1.421   6.550 -1.2396 -0.3661 -0.6990
 5975SOL     OW29383   3.050   3.770   7.091  0.3898  0.1689  0.4565
 5975SOL    HW129384   3.007   3.775   7.176  1.2415 -0.5059  0.9285
 5975SOL    HW229385   3.047   3.863   7.071  1.6639  0.2032  0.4530
 5976SOL     OW29386   2.459   2.520   7.957 -0.3047  0.1931 -0.2828
 5976SOL    HW129387   2.395   2.519   7.886 -0.7682  0.2906  0.1383
 5976SOL    HW229388   2.463   2.610   7.989 -0.2625 -0.2717  1.0520
 5977SOL     OW29389   1.974   0.302   6.969  0.0805  0.0002  0.5794
 5977SOL    HW129390   1.923   0.222   6.982  2.0849 -1.0316  2.1668
 5977SOL    HW229391   1.928   0.331   6.890  1.5393  2.0442  0.5060
 5978SOL     OW29392   0.592   1.588   3.303 -0.6363  0.0306 -0.7776
 5978SOL    HW129393   0.567   1.675   3.272  0.8509  1.1309  1.1425
 5978SOL    HW229394   0.535   1.588   3.380 -0.8294  0.1891 -0.9172
 5979SOL     OW29395   1.385   3.268   9.335  0.3904 -0.3089  0.1466
 5979SOL    HW129396   1.417   3.318   9.410  0.5947 -1.1501  0.6223
 5979SOL    HW229397   1.305   3.230   9.371  0.5645 -0.5913  0.2363
 5980SOL     OW29398   2.285   3.062  13.859 -0.0852  0.0629  0.3930
 5980SOL    HW129399   2.347   3.080  13.930  0.3460  0.0198  0.0224
 5980SOL    HW229400   2.309   3.129  13.795 -1.5241  1.1233  0.9622
 5981SOL     OW29401   2.798   0.192  14.358 -0.2841  0.4469 -0.1009
 5981SOL    HW129402   2.739   0.196  14.434  0.3531  0.7817  0.3792
 5981SOL    HW229403   2.865   0.247  14.399  0.1046  1.5925 -2.2593
 5982SOL     OW29404   0.690   1.083   7.584 -0.6044  0.1905 -0.5188
 5982SOL    HW129405   0.774   1.129   7.587 -1.7022  2.4388 -3.6930
 5982SOL    HW229406   0.712   0.994   7.557 -0.6215 -0.6965  2.4003
 5983SOL     OW29407   1.241   1.852   7.130  0.4957 -0.0918 -0.3709
 5983SOL    HW129408   1.284   1.876   7.212 -0.1353 -0.4235  0.0572
 5983SOL    HW229409   1.252   1.757   7.124  2.5176  0.2201 -1.3045
 5984SOL     OW29410   3.592   2.646   0.613 -0.0349  0.1837 -0.0306
 5984SOL    HW129411   3.669   2.622   0.666  0.8081 -1.6679 -2.0605
 5984SOL    HW229412   3.514   2.620   0.662  1.4471  0.2494  2.3379
 5985SOL     OW29413   2.176   2.537   2.981  0.0061  0.0009  0.1910
 5985SOL    HW129414   2.249   2.481   3.009 -0.6853  0.0752  2.1402
 5985SOL    HW229415   2.218   2.612   2.940 -1.4662  0.8356  0.2475
 5986SOL     OW29416   1.620   1.708   3.243  0.0902 -0.0759 -0.1642
 5986SOL    HW129417   1.680   1.634   3.245 -0.2039 -0.3754 -2.9567
 5986SOL    HW229418   1.682   1.781   3.241 -0.8534  0.7139 -0.6437
 5987SOL     OW29419   0.367   4.417   5.346 -0.4478 -0.0021  0.4397
 5987SOL    HW129420   0.344   4.456   5.262  1.0286 -0.6270 -0.2591
 5987SOL    HW229421   0.461   4.404   5.328 -0.4923  0.7137 -0.2843
 5988SOL     OW29422   1.977   0.841  15.139  0.0143 -0.2121 -0.2218
 5988SOL    HW129423   1.923   0.783  15.085  1.8612 -2.0923 -0.0601
 5988SOL    HW229424   1.942   0.826  15.227  1.1950 -1.1274  0.0869
 5989SOL     OW29425   2.192   2.804  15.267 -0.0282 -0.0112  0.5976
 5989SOL    HW129426   2.212   2.733  15.206 -1.2085 -1.3317  1.7519
 5989SOL    HW229427   2.096   2.800  15.269 -0.1610  1.0604 -2.9006
 5990SOL     OW29428   2.181   3.206   7.147 -0.1192 -0.2085 -0.2756
 5990SOL    HW129429   2.144   3.240   7.065 -1.1042 -0.0741  0.2328
 5990SOL    HW229430   2.107   3.203   7.208 -0.0456  0.8853 -0.1319
 5991SOL     OW29431   4.090   1.229   7.385 -0.1616  1.0301 -0.5780
 5991SOL    HW129432   4.013   1.262   7.431  0.5285  1.3392  0.3439
 5991SOL    HW229433   4.074   1.136   7.401  1.4187  0.6046 -1.5163
 5992SOL     OW29434   4.426   3.099   6.725  0.0436 -0.2164  0.1208
 5992SOL    HW129435   4.508   3.111   6.677 -0.7812 -0.0029 -1.2415
 5992SOL    HW229436   4.444   3.013   6.762  0.6993  1.3048  3.3410
 5993SOL     OW29437   3.718   2.356  14.708  0.3267  0.4611 -0.0975
 5993SOL    HW129438   3.765   2.357  14.792  0.6273 -1.3334 -0.2420
 5993SOL    HW229439   3.662   2.433  14.713 -0.3316 -0.0005 -0.4453
 5994SOL     OW29440   1.618   0.023   2.255 -0.4573 -0.2234 -0.1370
 5994SOL    HW129441   1.548   4.691   2.227  0.0906  0.4886 -2.9775
 5994SOL    HW229442   1.691   4.686   2.253 -1.2126 -1.0166 -2.0735
 5995SOL     OW29443   3.684   0.376   1.941 -0.2740 -0.2382 -0.4249
 5995SOL    HW129444   3.645   0.297   1.903 -0.5990 -1.2878  2.0688
 5995SOL    HW229445   3.711   0.412   1.857 -2.5183 -1.5797 -1.7239
 5996SOL     OW29446   4.705   0.548   4.867  0.3356 -0.5305 -0.5403
 5996SOL    HW129447   4.668   0.533   4.779 -1.9825 -0.9514  0.5053
 5996SOL    HW229448   4.671   0.637   4.879  1.9561  0.1109 -0.6695
 5997SOL     OW29449   4.160   2.474  15.716 -0.2118 -0.1930 -0.0330
 5997SOL    HW129450   4.084   2.436  15.759  1.4170 -2.1178  1.1152
 5997SOL    HW229451   4.191   2.401  15.663  0.1639 -1.3860  1.8413
 5998SOL     OW29452   1.287   2.249   4.601  0.1287 -0.0317 -0.1645
 5998SOL    HW129453   1.249   2.337   4.595  1.5535  0.5887 -0.2683
 5998SOL    HW229454   1.294   2.234   4.695 -0.4937 -0.3700 -0.1770
 5999SOL     OW29455   3.083   3.025  17.466  0.4395 -0.0950  0.4587
 5999SOL    HW129456   3.165   3.023  17.416  0.5275  1.4567  0.5364
 5999SOL    HW229457   3.107   3.103  17.518 -2.3676  1.8714 -1.1813
 6000SOL     OW29458   0.263   2.111   1.194 -0.1384  0.0115 -0.3638
 6000SOL    HW129459   0.178   2.126   1.153 -0.7230  0.6610  1.1045
 6000SOL    HW229460   0.271   2.019   1.171  0.1045 -0.0956  0.1593
 6001SOL     OW29461   1.163   2.063   6.347 -0.0727  0.0800  0.6046
 6001SOL    HW129462   1.127   2.128   6.407 -1.4682  0.3349 -0.5134
 6001SOL    HW229463   1.082   2.038   6.302  1.8338  0.2344 -2.9611
 6002SOL     OW29464   1.353   3.981  10.742 -0.3528 -0.2990 -0.2858
 6002SOL    HW129465   1.323   3.925  10.813  0.8293 -1.5674 -0.7948
 6002SOL    HW229466   1.423   4.036  10.779 -2.4779  3.3284 -1.6271
 6003SOL     OW29467   1.839   0.533   6.507 -0.1024 -0.5897 -0.2218
 6003SOL    HW129468   1.803   0.603   6.563 -0.2347 -0.9480  0.1419
 6003SOL    HW229469   1.899   0.593   6.463 -1.9658  0.7308 -0.9844
 6004SOL     OW29470   1.118   4.357  10.979 -0.2105  0.1596 -0.1348
 6004SOL    HW129471   1.033   4.314  10.967  0.6654 -1.5920 -0.0879
 6004SOL    HW229472   1.104   4.433  10.923  0.1355  0.5209  0.2676
 6005SOL     OW29473   4.453   1.581   8.758  0.3279 -0.0969  0.0884
 6005SOL    HW129474   4.503   1.556   8.836 -0.3686 -0.3081  0.4705
 6005SOL    HW229475   4.369   1.543   8.786  1.8509  0.5896  5.6274
 6006SOL     OW29476   0.986   1.832   1.906  0.0470 -0.6185 -0.0904
 6006SOL    HW129477   0.911   1.799   1.957 -1.1177  0.1844 -1.2814
 6006SOL    HW229478   1.012   1.895   1.973 -1.0285  0.6917 -0.9046
 6007SOL     OW29479   3.575   3.991   3.152  0.2374  0.2107  0.3249
 6007SOL    HW129480   3.585   3.905   3.111 -0.3759  1.6856 -2.9111
 6007SOL    HW229481   3.654   4.037   3.123 -0.0292  0.3353 -0.1826
 6008SOL     OW29482   3.477   4.648   6.882 -0.2065  0.3081  1.1783
 6008SOL    HW129483   3.518   4.597   6.812 -1.4538  0.6017  0.2508
 6008SOL    HW229484   3.469   4.583   6.952 -0.0773  0.6253  1.4901
 6009SOL     OW29485   1.882   2.614   0.559  0.0927 -0.7051 -0.3188
 6009SOL    HW129486   1.924   2.693   0.594 -2.6248  0.2903  0.6402
 6009SOL    HW229487   1.904   2.550   0.627 -2.4203  0.0833  1.2016
 6010SOL     OW29488   2.741   2.463   7.938 -0.6664  0.0562 -0.0514
 6010SOL    HW129489   2.800   2.495   8.006 -2.2644 -0.0162  1.3757
 6010SOL    HW229490   2.653   2.471   7.976  0.1636  2.5925  1.3117
 6011SOL     OW29491   4.160   3.234   8.118  0.3254 -0.9442 -0.5391
 6011SOL    HW129492   4.256   3.227   8.118  0.1971 -2.7377  1.8270
 6011SOL    HW229493   4.148   3.172   8.190 -2.3801 -0.2020 -0.3413
 6012SOL     OW29494   3.801   3.485   7.507 -0.6102  0.4162 -0.3535
 6012SOL    HW129495   3.767   3.397   7.520 -0.5542  0.5559  0.7158
 6012SOL    HW229496   3.876   3.488   7.568  1.5220 -1.0765 -2.8898
 6013SOL     OW29497   1.372   3.144   7.593  0.1670 -0.3289 -0.7769
 6013SOL    HW129498   1.430   3.185   7.529  0.4979 -0.4627 -0.5605
 6013SOL    HW229499   1.430   3.097   7.652  0.7199  0.5911 -0.5853
 6014SOL     OW29500   2.672   4.632   0.945 -0.0202  0.0545  0.2124
 6014SOL    HW129501   2.752   4.592   0.912 -0.2507 -2.1715  2.3983
 6014SOL    HW229502   2.675   4.722   0.911 -1.0045 -1.1587 -3.1397
 6015SOL     OW29503   4.012   3.244   4.889 -0.4965  0.3881  0.5742
 6015SOL    HW129504   3.980   3.190   4.961 -0.5615 -1.3676 -0.7637
 6015SOL    HW229505   3.982   3.191   4.815  0.7428  0.1612  0.2380
 6016SOL     OW29506   4.638   2.817   4.017 -0.2905  0.7489 -0.2324
 6016SOL    HW129507   4.606   2.828   4.107 -1.0549  2.6368 -0.7320
 6016SOL    HW229508   4.661   2.724   4.021 -0.3967  0.6879 -0.9373
 6017SOL     OW29509   2.924   0.833   2.045 -0.5169  0.4768  0.0017
 6017SOL    HW129510   2.842   0.786   2.031 -0.0350 -0.7357  1.3069
 6017SOL    HW229511   2.963   0.804   1.962 -0.3573 -0.7414  0.5118
 6018SOL     OW29512   0.151   0.853   9.706 -0.8066 -0.3382 -0.0255
 6018SOL    HW129513   0.135   0.768   9.746 -3.4821 -0.6232 -1.7039
 6018SOL    HW229514   0.108   0.907   9.772 -0.5057 -1.1373  0.8247
 6019SOL     OW29515   4.598   2.804   1.846  0.2340  0.2123 -0.0585
 6019SOL    HW129516   4.563   2.727   1.890 -1.2909  0.2115 -1.2793
 6019SOL    HW229517   4.659   2.849   1.903 -0.6761 -0.0652  1.1276
 6020SOL     OW29518   1.463   2.468   7.597  0.1220 -0.4766 -0.3830
 6020SOL    HW129519   1.529   2.412   7.555 -0.2556 -1.3002  0.1186
 6020SOL    HW229520   1.463   2.435   7.687 -0.0249  0.7255  0.0615
 6021SOL     OW29521   3.190   0.165   1.280 -0.2260  0.0891  0.4754
 6021SOL    HW129522   3.280   0.200   1.280 -0.6362  1.1245  1.2917
 6021SOL    HW229523   3.156   0.220   1.350  0.4658  0.7858  0.2595
 6022SOL     OW29524   4.428   2.968   3.877 -0.0563 -0.3644 -0.4223
 6022SOL    HW129525   4.484   2.898   3.910  2.4528  2.1730  0.6042
 6022SOL    HW229526   4.424   2.940   3.785  0.3920 -0.4983 -0.3970
 6023SOL     OW29527   3.879   1.001   6.630  0.3668  0.6266  0.6186
 6023SOL    HW129528   3.872   0.917   6.584 -1.1538  1.3587 -0.5016
 6023SOL    HW229529   3.971   1.026   6.621  0.7033 -0.9226 -0.3405
 6024SOL     OW29530   3.355   2.249  12.200 -0.4236 -0.2941 -0.5421
 6024SOL    HW129531   3.298   2.192  12.148 -1.1696  0.3988 -0.5000
 6024SOL    HW229532   3.427   2.189  12.216  2.3026  2.5932 -2.0250
 6025SOL     OW29533   2.048   3.284  12.668  0.2681  0.4560  0.1350
 6025SOL    HW129534   2.037   3.366  12.620  0.9136 -1.5943 -3.5165
 6025SOL    HW229535   1.996   3.218  12.622 -1.2598  0.8802  1.2523
 6026SOL     OW29536   2.834   3.395   1.966  0.2543  0.1248  0.8401
 6026SOL    HW129537   2.873   3.315   2.001  1.2530  0.9178  1.5524
 6026SOL    HW229538   2.885   3.410   1.887  0.1939  0.6544  0.8995
 6027SOL     OW29539   2.212   0.271   4.888  0.4689 -0.3571  0.3651
 6027SOL    HW129540   2.147   0.214   4.930  0.5457 -2.2234 -2.0205
 6027SOL    HW229541   2.165   0.270   4.805  1.0770  0.9787  0.0090
 6028SOL     OW29542   3.015   3.574   2.845 -0.0396  0.8202 -0.0302
 6028SOL    HW129543   2.996   3.665   2.822 -0.0268  0.3329 -1.9653
 6028SOL    HW229544   3.108   3.566   2.823  0.1706  0.6534  0.9356
 6029SOL     OW29545   4.654   2.934  11.671  0.1059  0.0045  0.2756
 6029SOL    HW129546   4.719   2.942  11.601  0.1437 -0.6036  0.2400
 6029SOL    HW229547   4.592   2.866  11.647 -1.5697  0.6957  2.6033
 6030SOL     OW29548   2.984   2.351   6.702 -0.7391  0.4652  0.5172
 6030SOL    HW129549   2.919   2.389   6.643  1.8151  2.3112 -1.0786
 6030SOL    HW229550   3.062   2.396   6.670  0.0830  0.1580  2.0820
 6031SOL     OW29551   1.152   3.710   6.146  0.4179 -0.5799  0.0313
 6031SOL    HW129552   1.160   3.656   6.225  2.0876  0.9909  0.9168
 6031SOL    HW229553   1.224   3.772   6.152 -0.3150  0.2132  0.7100
 6032SOL     OW29554   3.442   2.009  14.209 -1.0720  0.5206 -0.4912
 6032SOL    HW129555   3.503   2.038  14.141 -0.5486 -1.7578 -1.0040
 6032SOL    HW229556   3.452   2.068  14.284 -0.8915 -2.0114  1.4950
 6033SOL     OW29557   0.817   2.731   9.431 -0.4448  0.1832  0.0618
 6033SOL    HW129558   0.878   2.685   9.373 -0.7023 -1.1880  0.8833
 6033SOL    HW229559   0.858   2.817   9.439  1.2342 -0.8228  2.3440
 6034SOL     OW29560   1.606   1.810  17.431  0.5184  0.2643  0.3472
 6034SOL    HW129561   1.560   1.726  17.439 -0.7136  0.8594 -0.4622
 6034SOL    HW229562   1.696   1.787  17.454  1.1766  1.9316 -0.5814
 6035SOL     OW29563   1.483   3.976   9.065 -0.3363 -0.2236  0.1762
 6035SOL    HW129564   1.436   4.058   9.048  3.0664  2.0548  1.8198
 6035SOL    HW229565   1.409   3.916   9.059 -0.8854  0.4705 -0.0225
 6036SOL     OW29566   2.988   0.911   7.029  0.0105  0.1408  0.4554
 6036SOL    HW129567   2.945   0.965   7.095  0.1580 -1.0724  1.5618
 6036SOL    HW229568   2.912   0.901   6.972 -0.6522 -2.1329  1.7690
 6037SOL     OW29569   3.983   3.223  13.562  0.4425 -0.4298 -0.1654
 6037SOL    HW129570   3.971   3.318  13.566 -0.0640 -0.4872 -0.3083
 6037SOL    HW229571   4.071   3.225  13.525 -0.7551  0.8366 -2.9815
 6038SOL     OW29572   3.644   1.007  10.603 -0.0626 -0.0287  0.0896
 6038SOL    HW129573   3.571   1.043  10.552 -0.9894  0.2497  1.6266
 6038SOL    HW229574   3.713   0.979  10.543  0.3748  0.2982  0.4416
 6039SOL     OW29575   4.389   0.839  13.576 -0.2089  0.3737  0.5957
 6039SOL    HW129576   4.436   0.903  13.523 -0.3364  0.4697  0.5972
 6039SOL    HW229577   4.324   0.812  13.511 -0.7037 -2.1770  2.1463
 6040SOL     OW29578   3.047   2.961   1.448 -0.5808 -0.0724  0.4395
 6040SOL    HW129579   3.100   3.023   1.498 -1.4066 -0.9833  2.4414
 6040SOL    HW229580   2.960   3.000   1.454 -0.1269  1.0179  0.0633
 6041SOL     OW29581   1.668   4.653   3.517 -0.8662 -0.2199  0.1199
 6041SOL    HW129582   1.614   4.709   3.573  1.1966  2.1055 -0.2182
 6041SOL    HW229583   1.679   4.593   3.591 -1.2059  0.1883  0.5059
 6042SOL     OW29584   2.864   1.958   2.473  0.1243 -0.0760  0.3490
 6042SOL    HW129585   2.877   1.867   2.445  1.2132 -0.7206  2.9156
 6042SOL    HW229586   2.941   2.000   2.435 -0.2790 -0.1412 -0.5343
 6043SOL     OW29587   2.974   1.724   0.675 -0.2210  0.1475  0.0463
 6043SOL    HW129588   3.021   1.657   0.725 -1.6947  1.0177  2.5893
 6043SOL    HW229589   2.945   1.673   0.599  2.9320 -0.8289 -0.4913
 6044SOL     OW29590   0.952   0.165   4.696  0.1411  0.3437 -0.6197
 6044SOL    HW129591   0.912   0.236   4.645  1.6773  1.2665 -0.5571
 6044SOL    HW229592   0.914   0.093   4.646 -2.5961  1.8070 -0.6211
 6045SOL     OW29593   0.247   0.768   2.328 -0.0442 -0.4774  0.2462
 6045SOL    HW129594   0.298   0.779   2.409 -0.4522  2.3095  0.0955
 6045SOL    HW229595   0.275   0.683   2.293 -1.3095 -0.1363 -1.5437
 6046SOL     OW29596   2.829   0.090  11.190  0.2884 -0.1085  0.3808
 6046SOL    HW129597   2.847   0.127  11.104  1.2173  0.4051  0.7927
 6046SOL    HW229598   2.734   0.082  11.194  0.4504 -1.7891  0.6673
 6047SOL     OW29599   0.267   3.356   8.033 -0.0640  0.6652 -0.1253
 6047SOL    HW129600   0.241   3.268   8.061 -1.0264  1.1167  0.4188
 6047SOL    HW229601   0.336   3.364   8.099  0.6413  2.7071 -1.1044
 6048SOL     OW29602   0.284   4.724   1.361 -0.0243 -0.1236 -0.1268
 6048SOL    HW129603   0.259   4.658   1.297 -2.2943 -0.2272  0.8571
 6048SOL    HW229604   0.258   4.688   1.446  1.2419  0.8043  0.6450
 6049SOL     OW29605   3.020   2.041   7.855 -0.1414  0.0097  0.3939
 6049SOL    HW129606   2.943   2.050   7.799  1.4112  2.3746 -1.3810
 6049SOL    HW229607   3.018   1.949   7.883 -2.2973  0.0490  0.3397
 6050SOL     OW29608   2.507   1.266   8.894  0.0666 -0.0486 -0.0976
 6050SOL    HW129609   2.431   1.317   8.865 -1.2097 -1.2334  1.1637
 6050SOL    HW229610   2.579   1.314   8.852  0.0247  0.7354  0.7370
 6051SOL     OW29611   3.292   3.173   7.223  0.3486 -0.2377 -0.5533
 6051SOL    HW129612   3.371   3.133   7.261  0.5920 -0.9022 -1.7596
 6051SOL    HW229613   3.307   3.267   7.228 -1.8109  0.1126 -0.9153
 6052SOL     OW29614   3.281   1.709  11.315 -0.5024 -0.9006 -0.5916
 6052SOL    HW129615   3.287   1.697  11.410 -1.0159  0.0242 -0.4461
 6052SOL    HW229616   3.277   1.621  11.278 -0.7542  0.1882 -3.1087
 6053SOL     OW29617   1.786   0.784   7.487  0.2830 -0.3584 -0.0228
 6053SOL    HW129618   1.755   0.802   7.576  1.9852 -2.1897  0.9284
 6053SOL    HW229619   1.794   0.689   7.492 -0.6896 -0.3558  1.5735
 6054SOL     OW29620   0.757   4.431  13.413 -0.2523 -0.0787 -0.7395
 6054SOL    HW129621   0.791   4.349  13.377 -1.4071 -1.5986  1.5812
 6054SOL    HW229622   0.806   4.433  13.496  0.7228  1.1445 -1.3481
 6055SOL     OW29623   1.417   2.449  13.124  0.3471 -0.1204 -0.1587
 6055SOL    HW129624   1.346   2.467  13.062  0.5228  0.7476 -0.1038
 6055SOL    HW229625   1.483   2.415  13.064  1.2689  2.3140 -0.5437
 6056SOL     OW29626   0.934   0.515  13.210  0.1492  0.0626 -0.2208
 6056SOL    HW129627   0.996   0.523  13.282 -0.3659  2.0994 -0.0110
 6056SOL    HW229628   0.951   0.597  13.163  0.5005  0.8072  1.2102
 6057SOL     OW29629   1.894   3.565   9.245 -0.0395  0.0086 -0.4270
 6057SOL    HW129630   1.874   3.650   9.285  0.3151 -0.5502  0.9598
 6057SOL    HW229631   1.817   3.518   9.279  1.0325 -2.7120 -1.7913
 6058SOL     OW29632   1.141   3.249   9.549  0.0022 -0.4190 -0.4953
 6058SOL    HW129633   1.216   3.194   9.571  0.7659  0.4675 -0.9128
 6058SOL    HW229634   1.117   3.211   9.465  0.1753 -0.1776 -0.6528
 6059SOL     OW29635   1.691   4.503  12.394  0.4150 -0.6432 -0.0843
 6059SOL    HW129636   1.696   4.528  12.302  0.9185 -0.7182 -0.0824
 6059SOL    HW229637   1.695   4.581  12.449  1.0179  1.2470 -2.8120
 6060SOL     OW29638   2.154   2.420   9.262  0.4680 -0.2765  0.3150
 6060SOL    HW129639   2.205   2.408   9.342 -0.0439  1.2697  0.8623
 6060SOL    HW229640   2.220   2.421   9.192 -0.7832  1.6041 -0.8385
 6061SOL     OW29641   1.175   2.853  12.539 -0.3472 -0.1330 -0.1975
 6061SOL    HW129642   1.145   2.780  12.485  1.1828 -1.4849  0.8178
 6061SOL    HW229643   1.265   2.856  12.505 -0.0086  0.7285  0.7664
 6062SOL     OW29644   2.616   1.671  10.839 -0.1217  0.1361 -0.2379
 6062SOL    HW129645   2.570   1.743  10.797  0.2428  0.9806  0.8125
 6062SOL    HW229646   2.707   1.700  10.827 -0.9963  2.3987 -1.2547
 6063SOL     OW29647   3.465   2.420  16.118  0.4461 -0.2856  0.2204
 6063SOL    HW129648   3.482   2.335  16.077  1.7474  0.7263 -1.3373
 6063SOL    HW229649   3.502   2.402  16.204  1.6288  0.7750 -0.0665
 6064SOL     OW29650   1.094   3.436   9.078 -0.8786  0.1811  0.1329
 6064SOL    HW129651   1.027   3.453   9.011  1.0094 -0.3777 -1.8911
 6064SOL    HW229652   1.103   3.341   9.074 -4.1641 -0.1044 -0.5197
 6065SOL     OW29653   2.244   2.785   0.119  0.5221  0.0879 -0.1216
 6065SOL    HW129654   2.323   2.836   0.136  0.0208  0.9334 -0.2965
 6065SOL    HW229655   2.288   2.720   0.064 -3.0499 -1.9860 -0.5404
 6066SOL     OW29656   3.895   1.588   7.799  0.0079  0.6858  0.5278
 6066SOL    HW129657   3.869   1.678   7.778  0.7915  0.5258 -1.0705
 6066SOL    HW229658   3.990   1.591   7.789  0.0769 -0.9611  0.6985
 6067SOL     OW29659   0.221   4.651   8.510 -0.2605 -0.3578 -0.1900
 6067SOL    HW129660   0.143   4.596   8.513 -0.9734  0.6358 -0.2965
 6067SOL    HW229661   0.202   4.713   8.580  3.3488 -0.4378  0.8448
 6068SOL     OW29662   0.780   0.020   5.950 -0.4799  0.5083 -0.1243
 6068SOL    HW129663   0.731   0.102   5.961  0.8120  0.9502  2.4357
 6068SOL    HW229664   0.722   4.700   5.890 -0.6097  0.8070 -0.2268
 6069SOL     OW29665   4.462   4.610   8.297 -0.4372  0.3926  0.4169
 6069SOL    HW129666   4.496   4.676   8.358 -1.1793  0.3556  0.8737
 6069SOL    HW229667   4.369   4.628   8.282 -0.8945 -0.8866  1.6700
 6070SOL     OW29668   2.852   3.897   3.727 -0.2872  0.0505  0.4204
 6070SOL    HW129669   2.866   3.805   3.747  0.0282 -0.0264 -0.1662
 6070SOL    HW229670   2.938   3.934   3.746  0.6659 -1.7657 -0.3768
 6071SOL     OW29671   3.284   3.340  15.795  0.0670 -0.0589 -0.1228
 6071SOL    HW129672   3.257   3.431  15.808 -0.4043  0.1570 -2.6952
 6071SOL    HW229673   3.213   3.288  15.832  1.4465 -0.4570  1.9932
 6072SOL     OW29674   0.641   3.079   7.861  0.1488  1.0296  0.2866
 6072SOL    HW129675   0.663   3.151   7.802 -1.2324  0.4248 -0.9822
 6072SOL    HW229676   0.666   3.007   7.804  0.7992  1.2259  0.3312
 6073SOL     OW29677   4.212   0.268  17.173 -0.2703  0.1060  0.1189
 6073SOL    HW129678   4.172   0.181  17.170 -0.4140  0.1988 -0.7749
 6073SOL    HW229679   4.170   0.299  17.253  0.9572  0.9364  0.4464
 6074SOL     OW29680   1.739   2.600   8.049 -0.0021 -0.3141  0.0451
 6074SOL    HW129681   1.801   2.586   8.120  1.9772 -0.0137 -1.6008
 6074SOL    HW229682   1.755   2.519   8.000 -0.8635  0.2151 -1.1139
 6075SOL     OW29683   1.318   2.042  13.286  0.0372  0.2661 -0.4029
 6075SOL    HW129684   1.376   2.022  13.212  0.2711  2.6778 -0.8810
 6075SOL    HW229685   1.371   2.034  13.366  0.9731  1.3023 -0.9117
 6076SOL     OW29686   3.966   0.105   8.982  0.3118 -0.2047  0.3249
 6076SOL    HW129687   3.960   0.017   8.946 -0.0137 -0.2126  0.3945
 6076SOL    HW229688   3.884   0.141   8.949 -0.2270 -1.9030 -0.2006
 6077SOL     OW29689   1.466   1.940   4.643  0.1149 -0.1577 -0.3158
 6077SOL    HW129690   1.374   1.917   4.659  0.2817 -1.3469 -1.0623
 6077SOL    HW229691   1.480   1.982   4.728 -1.6649  3.3645 -1.7741
 6078SOL     OW29692   2.814   1.827   3.794 -0.4191  0.4774  0.0076
 6078SOL    HW129693   2.872   1.755   3.769  1.0409  1.5079  0.3975
 6078SOL    HW229694   2.892   1.883   3.803 -0.2803  0.1283  0.9846
 6079SOL     OW29695   2.166   1.452   8.663 -0.4606  0.1726  0.4016
 6079SOL    HW129696   2.162   1.413   8.751  1.7335  1.7675  1.2219
 6079SOL    HW229697   2.181   1.368   8.619 -0.9043  0.1560  0.2817
 6080SOL     OW29698   0.955   0.743  13.924 -0.1581 -0.3184  0.5388
 6080SOL    HW129699   0.931   0.827  13.886  0.6899 -0.2782  0.1015
 6080SOL    HW229700   1.006   0.698  13.856 -2.4634  1.2118 -2.1928
 6081SOL     OW29701   0.829   2.239   8.734  0.2905 -0.0458 -0.5791
 6081SOL    HW129702   0.780   2.286   8.666 -2.6093 -3.3161 -0.7600
 6081SOL    HW229703   0.829   2.309   8.800  0.4005 -3.5701  3.1467
 6082SOL     OW29704   3.459   0.895   0.589 -0.0443 -0.0564  0.9397
 6082SOL    HW129705   3.421   0.808   0.579  0.2260 -0.0468 -0.1595
 6082SOL    HW229706   3.542   0.884   0.635  1.2850  1.4878 -1.0448
 6083SOL     OW29707   2.965   3.358  17.075  0.0356 -0.8314  0.1968
 6083SOL    HW129708   2.981   3.347  16.981 -2.0401  0.9805 -0.3580
 6083SOL    HW229709   2.898   3.294  17.096 -1.4456  1.5625  2.7884
 6084SOL     OW29710   1.673   2.311   4.828 -0.2990  0.6218 -0.1300
 6084SOL    HW129711   1.702   2.220   4.822  1.5058  1.1792  0.3197
 6084SOL    HW229712   1.723   2.353   4.757  0.3479  1.7647  1.0008
 6085SOL     OW29713   0.267   0.763  14.815 -0.7113 -0.2616  0.0604
 6085SOL    HW129714   0.239   0.836  14.760  1.2676  1.8831  1.9281
 6085SOL    HW229715   0.336   0.800  14.869  0.4608 -1.5839 -0.5223
 6086SOL     OW29716   3.705   4.251  11.283 -0.0306 -0.8211  0.2385
 6086SOL    HW129717   3.616   4.278  11.304  1.1356  1.4208  2.2415
 6086SOL    HW229718   3.746   4.333  11.253 -0.9752 -0.1047  0.9015
 6087SOL     OW29719   1.548   2.204   4.159 -0.0480  0.5119  0.2215
 6087SOL    HW129720   1.508   2.194   4.246 -0.7507  0.0539 -0.1547
 6087SOL    HW229721   1.488   2.146   4.112 -0.1239  1.5014 -0.8767
 6088SOL     OW29722   3.100   1.530   0.841 -0.7246  0.1708 -0.4656
 6088SOL    HW129723   3.090   1.510   0.934 -2.0041  1.2207 -0.3833
 6088SOL    HW229724   3.140   1.449   0.809 -0.5658  0.9391 -2.2273
 6089SOL     OW29725   3.335   3.059   6.973 -0.3210  0.0371 -0.9827
 6089SOL    HW129726   3.321   3.137   7.027  0.7419 -0.9288  0.7066
 6089SOL    HW229727   3.311   2.991   7.037 -0.5889  2.1992  1.2041
 6090SOL     OW29728   2.247   1.570   6.458 -0.4497 -0.0101  0.2942
 6090SOL    HW129729   2.248   1.556   6.363  0.9305  2.0873  0.0049
 6090SOL    HW229730   2.156   1.551   6.478 -1.0546  0.8684 -1.5632
 6091SOL     OW29731   4.292   2.449   8.727  0.2279 -0.3734 -0.7800
 6091SOL    HW129732   4.333   2.365   8.750  0.2667 -0.6183 -1.7450
 6091SOL    HW229733   4.204   2.410   8.731  0.1667 -0.4803 -3.1597
 6092SOL     OW29734   3.544   4.452   8.119 -0.4159  0.4744  0.5301
 6092SOL    HW129735   3.501   4.504   8.052  0.2064 -0.7278 -0.8008
 6092SOL    HW229736   3.633   4.486   8.110 -0.6605  1.0177  0.1875
 6093SOL     OW29737   2.932   1.362   9.235 -0.2684  0.1303  0.5451
 6093SOL    HW129738   2.966   1.428   9.174 -3.4949  2.1159  0.8701
 6093SOL    HW229739   2.873   1.406   9.296 -0.7507  2.2787 -1.4599
 6094SOL     OW29740   0.697   2.324  11.138 -0.0412 -0.3732  0.7355
 6094SOL    HW129741   0.730   2.408  11.170 -1.8264  1.0858 -1.2102
 6094SOL    HW229742   0.607   2.343  11.111 -0.1066 -0.1123  1.1367
 6095SOL     OW29743   1.485   4.002   2.376 -0.2810  0.2487 -0.4614
 6095SOL    HW129744   1.448   3.920   2.343  0.4742 -1.2241  2.3010
 6095SOL    HW229745   1.533   3.972   2.454 -0.3613  1.6997  0.1445
 6096SOL     OW29746   1.552   2.719   4.304  0.3202 -0.1668  0.0558
 6096SOL    HW129747   1.595   2.648   4.351 -0.8273 -0.1524  1.1414
 6096SOL    HW229748   1.611   2.743   4.233  1.2924  1.5322  1.4493
 6097SOL     OW29749   3.400   2.141   4.803 -0.3221  0.3907  0.0664
 6097SOL    HW129750   3.376   2.120   4.893 -0.7047  1.5791  0.2346
 6097SOL    HW229751   3.454   2.219   4.812 -2.5819  2.0581 -0.7890
 6098SOL     OW29752   0.203   0.923   3.957 -0.2458 -0.6195 -0.1196
 6098SOL    HW129753   0.193   0.885   4.044  0.0264 -1.0875 -0.2902
 6098SOL    HW229754   0.207   0.845   3.901 -1.9976  0.4819 -1.7838
 6099SOL     OW29755   2.078   4.392   3.579  0.5805  0.1806 -0.3988
 6099SOL    HW129756   2.072   4.478   3.539  1.1315 -0.8784 -2.7398
 6099SOL    HW229757   2.125   4.432   3.652 -1.6235  2.7093 -0.3718
 6100SOL     OW29758   3.652   0.225   4.588  0.2167  0.0508 -0.1365
 6100SOL    HW129759   3.580   0.174   4.551  1.1670 -1.2086 -0.2418
 6100SOL    HW229760   3.653   0.306   4.537 -0.7358  0.2646  0.1648
 6101SOL     OW29761   1.352   1.372   5.190 -0.4991  0.1454 -0.4804
 6101SOL    HW129762   1.351   1.337   5.279 -0.9519 -1.3597 -1.0610
 6101SOL    HW229763   1.428   1.331   5.149 -2.3801 -2.4330 -1.4402
 6102SOL     OW29764   4.716   2.139  13.770 -0.1976 -0.3584 -1.2253
 6102SOL    HW129765   0.019   2.102  13.854  0.1156 -1.0441 -1.6339
 6102SOL    HW229766   4.700   2.054  13.729  0.3061 -0.0601 -2.0454
 6103SOL     OW29767   2.411   3.724   7.450 -0.2237 -0.1014 -0.3052
 6103SOL    HW129768   2.355   3.650   7.475 -1.7037  1.5565  1.1984
 6103SOL    HW229769   2.339   3.786   7.464  0.5321  0.8929 -0.8415
 6104SOL     OW29770   3.656   4.408  12.504 -0.0340 -0.1094 -0.1640
 6104SOL    HW129771   3.626   4.346  12.572 -0.2290 -0.6118 -0.7103
 6104SOL    HW229772   3.750   4.407  12.521 -0.3493 -1.6197  1.5509
 6105SOL     OW29773   3.991   0.710   0.286  0.0018  0.2718  0.0448
 6105SOL    HW129774   4.017   0.653   0.358 -0.8045  0.0257  0.1293
 6105SOL    HW229775   3.933   0.661   0.228  1.0145 -1.6274  0.6420
 6106SOL     OW29776   3.584   1.628   1.375 -0.3356  0.5074 -0.0051
 6106SOL    HW129777   3.521   1.558   1.391  0.1880  0.5821  2.2919
 6106SOL    HW229778   3.565   1.678   1.454 -0.8357  0.3088  0.0013
 6107SOL     OW29779   0.719   1.533   0.753  0.5734  0.6781  0.1911
 6107SOL    HW129780   0.779   1.464   0.725 -0.9942 -0.6611  0.1208
 6107SOL    HW229781   0.648   1.483   0.794  0.9464  0.6786  0.8400
 6108SOL     OW29782   2.008   0.174  10.397  0.2245  0.1132  0.2661
 6108SOL    HW129783   1.958   0.252  10.372  2.4650  1.4724 -0.0346
 6108SOL    HW229784   1.989   0.173  10.491  0.8822 -0.4931  0.3924
 6109SOL     OW29785   4.683   3.760  16.899 -0.7579 -0.0753  0.0241
 6109SOL    HW129786   4.604   3.707  16.892 -1.8056  1.6707 -1.3862
 6109SOL    HW229787   4.718   3.742  16.986 -2.0572 -1.1847  0.3029
 6110SOL     OW29788   3.813   4.466   4.974 -0.3078 -0.0716  0.1760
 6110SOL    HW129789   3.791   4.551   4.938  0.4681  0.4235  0.8748
 6110SOL    HW229790   3.895   4.475   5.022  1.1109 -2.1939 -1.8662
 6111SOL     OW29791   0.764   3.645   1.152  0.7741 -0.0105  0.4071
 6111SOL    HW129792   0.850   3.624   1.190  1.0110  1.0090  0.4245
 6111SOL    HW229793   0.766   3.741   1.157 -0.6234 -0.0162  0.8701
 6112SOL     OW29794   2.212   1.400   1.987  0.4636  0.6472 -0.0198
 6112SOL    HW129795   2.208   1.305   1.985  0.2818  0.6703 -0.9620
 6112SOL    HW229796   2.229   1.417   2.080  0.2733  1.5505 -0.1446
 6113SOL     OW29797   2.844   1.217  14.608 -0.8737 -0.1447 -0.3130
 6113SOL    HW129798   2.799   1.300  14.626 -2.0242 -0.1641 -3.0751
 6113SOL    HW229799   2.778   1.148  14.610  0.5378 -1.4395  1.7179
 6114SOL     OW29800   3.673   4.487   6.313  0.0990 -0.1079 -0.4265
 6114SOL    HW129801   3.700   4.513   6.225  2.4937 -2.1449 -0.3069
 6114SOL    HW229802   3.731   4.412   6.326 -2.3588 -2.1494 -1.2224
 6115SOL     OW29803   1.047   2.281   3.591  0.2482  0.6778 -0.1092
 6115SOL    HW129804   1.126   2.230   3.575 -1.1936 -0.5689 -3.2232
 6115SOL    HW229805   0.996   2.215   3.638  1.0046 -1.3722 -2.1886
 6116SOL     OW29806   4.126   4.255  11.202  0.3213  0.0955 -0.2065
 6116SOL    HW129807   4.168   4.315  11.140  1.0469 -1.9073 -1.6728
 6116SOL    HW229808   4.052   4.225  11.149  0.8729 -0.0719 -0.8897
 6117SOL     OW29809   3.419   0.016   7.779  0.7603 -0.0951 -0.0724
 6117SOL    HW129810   3.440   4.702   7.695 -2.7054 -0.7696 -0.5850
 6117SOL    HW229811   3.399   0.105   7.751 -3.1979 -0.4841  1.6086
 6118SOL     OW29812   2.372   0.736   2.718  0.1551 -0.3155  0.3394
 6118SOL    HW129813   2.465   0.742   2.742 -0.0530  0.1821  1.0123
 6118SOL    HW229814   2.378   0.780   2.633  0.7414 -1.4175 -0.1836
 6119SOL     OW29815   4.362   1.195  16.377  0.6143 -0.5458  0.1107
 6119SOL    HW129816   4.321   1.145  16.306 -0.4563 -1.3855  1.3114
 6119SOL    HW229817   4.279   1.225  16.413  1.4451  1.9589 -0.0457
 6120SOL     OW29818   1.904   0.947   2.906 -0.3917 -0.2329 -0.2997
 6120SOL    HW129819   1.822   0.910   2.872  0.9812  0.8352 -4.7446
 6120SOL    HW229820   1.956   0.928   2.828 -0.1821  1.2610 -0.5235
 6121SOL     OW29821   3.684   4.247   2.198 -0.5162 -0.5720  0.3080
 6121SOL    HW129822   3.619   4.307   2.160 -1.9476 -0.6077  2.7321
 6121SOL    HW229823   3.752   4.313   2.208  2.0117 -3.0200 -0.8942
 6122SOL     OW29824   0.272   3.722  12.906  0.0709 -0.3120 -0.2243
 6122SOL    HW129825   0.349   3.670  12.929  1.8604  2.5943  0.3261
 6122SOL    HW229826   0.254   3.762  12.991 -1.1660 -0.7675 -0.2806
 6123SOL     OW29827   3.534   0.705   4.992 -0.2919 -0.1940 -0.3042
 6123SOL    HW129828   3.497   0.618   5.005  0.7402 -0.7741 -1.2207
 6123SOL    HW229829   3.621   0.680   4.961 -0.0470  0.0581  0.1808
 6124SOL     OW29830   0.503   1.477   7.690 -0.1691  0.3428  0.3213
 6124SOL    HW129831   0.535   1.401   7.739  1.2671  1.7206  1.5037
 6124SOL    HW229832   0.528   1.456   7.600  0.2543  1.4961  0.1727
 6125SOL     OW29833   2.848   1.666   6.035 -0.9050 -0.4263  0.5444
 6125SOL    HW129834   2.828   1.717   5.956  1.7234  0.2041  0.2907
 6125SOL    HW229835   2.816   1.582   6.002 -0.3497 -1.1789  1.9177
 6126SOL     OW29836   2.739   2.035   4.879 -0.3263 -0.1247 -0.3331
 6126SOL    HW129837   2.806   2.005   4.817 -1.5291 -0.3352 -1.5520
 6126SOL    HW229838   2.792   2.070   4.951 -0.1747  2.2230 -1.5859
 6127SOL     OW29839   3.126   2.594   8.093  0.2031  0.0731  0.7643
 6127SOL    HW129840   3.092   2.632   8.013  2.3348 -1.4976 -0.8749
 6127SOL    HW229841   3.190   2.659   8.122  0.3038  0.2064  0.2411
 6128SOL     OW29842   3.380   0.223   3.681 -0.0617  0.1913 -0.8013
 6128SOL    HW129843   3.290   0.211   3.651 -0.7410 -2.5958  2.2711
 6128SOL    HW229844   3.384   0.318   3.680  0.9137  0.1677  0.5086
 6129SOL     OW29845   0.442   0.763  15.936  0.1286  0.1859  0.4355
 6129SOL    HW129846   0.465   0.731  15.849  1.7624 -0.2281  1.0102
 6129SOL    HW229847   0.402   0.848  15.920  0.1426 -0.0651 -0.9432
 6130SOL     OW29848   3.422   1.810   5.607 -0.0626  0.0590 -0.3753
 6130SOL    HW129849   3.380   1.733   5.645  0.8466 -0.5841 -0.6859
 6130SOL    HW229850   3.471   1.768   5.537  0.4141 -0.5019  0.2958
 6131SOL     OW29851   3.718   3.750   1.427  0.0086 -0.5839 -0.6212
 6131SOL    HW129852   3.667   3.817   1.473  1.2473  0.5049 -0.8458
 6131SOL    HW229853   3.713   3.683   1.495  0.5210 -1.0143 -1.0059
 6132SOL     OW29854   4.722   4.723   8.992 -0.3740  0.2718 -0.1065
 6132SOL    HW129855   4.642   4.687   8.953  0.1062 -1.5454  0.5469
 6132SOL    HW229856   4.706   4.718   9.087 -0.7512  1.3899 -0.1163
 6133SOL     OW29857   1.315   2.484   4.149  0.4228 -0.3065  0.1892
 6133SOL    HW129858   1.327   2.576   4.125 -1.7065 -0.6847 -2.3130
 6133SOL    HW229859   1.225   2.490   4.179 -0.0230  0.6460 -1.3512
 6134SOL     OW29860   2.343   1.541   7.992 -0.5949 -0.1898 -0.0922
 6134SOL    HW129861   2.258   1.515   8.028  0.2366  0.8137  2.6065
 6134SOL    HW229862   2.356   1.491   7.911  1.1777  1.8032 -1.0286
 6135SOL     OW29863   0.933   0.170   0.783 -0.4100  0.0927  0.5981
 6135SOL    HW129864   0.932   0.241   0.718  1.0852  0.7767  1.3175
 6135SOL    HW229865   0.960   0.221   0.859  1.2536  0.8984 -0.5312
 6136SOL     OW29866   0.266   1.878   8.840 -0.1545  0.0660  0.0240
 6136SOL    HW129867   0.361   1.876   8.846 -0.0344  1.7432 -1.4617
 6136SOL    HW229868   0.239   1.966   8.866 -1.8926  0.0834 -1.7896
 6137SOL     OW29869   1.225   3.031   7.316  0.0430 -0.6922 -0.0953
 6137SOL    HW129870   1.196   3.025   7.407  1.4939 -2.1984  0.2612
 6137SOL    HW229871   1.237   2.940   7.289 -1.0692  0.0268 -3.1009
 6138SOL     OW29872   1.658   2.522   8.654  0.3127 -0.1819 -0.4209
 6138SOL    HW129873   1.604   2.596   8.681  1.7292  0.0171  1.9067
 6138SOL    HW229874   1.670   2.475   8.736 -0.3261  1.7812  0.8064
 6139SOL     OW29875   0.895   0.518   4.955 -0.3081 -0.1586 -0.3593
 6139SOL    HW129876   0.961   0.554   4.896  1.1770 -0.6440  0.9952
 6139SOL    HW229877   0.825   0.496   4.894 -0.9535 -0.2479  0.4130
 6140SOL     OW29878   1.772   0.390  14.842  0.2978 -0.2906 -0.1454
 6140SOL    HW129879   1.742   0.446  14.771  0.1346 -0.1692  0.0175
 6140SOL    HW229880   1.707   0.320  14.841 -1.0110  0.8903  1.9563
 6141SOL     OW29881   1.032   2.238   6.551 -0.0783  0.1011  0.1549
 6141SOL    HW129882   1.115   2.281   6.571  0.2464 -1.2168  1.6882
 6141SOL    HW229883   0.983   2.309   6.510 -1.1266  0.3481  1.8309
 6142SOL     OW29884   4.346   4.025   3.791 -0.5576 -0.1249 -0.4888
 6142SOL    HW129885   4.286   3.952   3.801  0.4561 -0.8496  0.2871
 6142SOL    HW229886   4.289   4.102   3.798  1.7340  1.5543 -0.3093
 6143SOL     OW29887   4.512   2.663   8.701 -0.1946  0.4336 -0.2237
 6143SOL    HW129888   4.444   2.598   8.721  0.0990 -0.0348 -0.7489
 6143SOL    HW229889   4.472   2.705   8.626  1.2885  0.4516 -1.0056
 6144SOL     OW29890   1.163   4.552   4.492 -0.2631 -0.5007  0.7734
 6144SOL    HW129891   1.240   4.523   4.540  1.3993  0.6734 -1.1883
 6144SOL    HW229892   1.162   4.646   4.514 -1.2200 -0.9093  2.5118
 6145SOL     OW29893   2.592   1.805  14.778 -0.1061 -0.4383  0.0374
 6145SOL    HW129894   2.643   1.831  14.701 -0.5542 -0.4242 -0.2536
 6145SOL    HW229895   2.516   1.770  14.732  0.4338 -0.3396 -0.9177
 6146SOL     OW29896   4.297   2.990  11.474  0.3628 -0.0478  0.7116
 6146SOL    HW129897   4.381   3.030  11.453  0.6739  0.3386  2.6601
 6146SOL    HW229898   4.320   2.942  11.554 -0.5908 -1.1202  0.3384
 6147SOL     OW29899   1.743   2.082  10.107 -0.1805 -0.0939 -0.8803
 6147SOL    HW129900   1.837   2.086  10.127  0.1660  0.6191 -2.6442
 6147SOL    HW229901   1.694   2.065  10.188  0.8622 -2.6615 -0.7958
 6148SOL     OW29902   1.378   1.275   5.441  0.1115  0.3319 -0.4473
 6148SOL    HW129903   1.471   1.253   5.452  0.0660  1.2921  1.8484
 6148SOL    HW229904   1.357   1.339   5.509  0.6628  0.2230 -0.1751
 6149SOL     OW29905   4.324   1.090   9.575 -0.1319  0.4034  0.0204
 6149SOL    HW129906   4.384   1.164   9.587 -2.2609  2.0095  0.8482
 6149SOL    HW229907   4.360   1.032   9.642  1.4298  1.0772 -0.2530
 6150SOL     OW29908   0.842   1.039   4.080  0.2814 -0.1199 -0.3537
 6150SOL    HW129909   0.838   1.056   3.986 -1.1745 -0.7313 -0.4048
 6150SOL    HW229910   0.823   1.128   4.110  0.0387 -0.5874  0.8798
 6151SOL     OW29911   0.505   2.550  17.085  0.1584 -0.3524  0.3639
 6151SOL    HW129912   0.498   2.536  17.179  1.5488  0.5041  0.5895
 6151SOL    HW229913   0.570   2.486  17.055  2.3050  0.2371  3.7280
 6152SOL     OW29914   4.535   1.737   2.812  0.1653  0.4212  0.0825
 6152SOL    HW129915   4.575   1.686   2.881  1.1268  1.1659  0.0682
 6152SOL    HW229916   4.476   1.798   2.857 -0.3844 -0.4540  0.5584
 6153SOL     OW29917   3.797   4.080   8.889 -0.0136  0.2210 -0.0561
 6153SOL    HW129918   3.783   4.100   8.796  2.4623 -0.4864 -0.5792
 6153SOL    HW229919   3.754   3.994   8.889 -0.8204  0.6207 -0.1526
 6154SOL     OW29920   0.577   1.561   5.785  0.1339 -0.4588 -0.0994
 6154SOL    HW129921   0.665   1.595   5.769  0.8099 -1.5674  1.2936
 6154SOL    HW229922   0.566   1.564   5.880  1.2976  0.2449  0.0226
 6155SOL     OW29923   3.187   3.368   0.358 -0.0048  0.0336  0.0336
 6155SOL    HW129924   3.267   3.396   0.312 -0.2904 -0.5827 -0.8365
 6155SOL    HW229925   3.118   3.390   0.296  0.2242 -0.9844 -0.5726
 6156SOL     OW29926   3.573   2.587   1.725  0.0412  0.1091  0.3280
 6156SOL    HW129927   3.532   2.502   1.712 -0.6826  0.6421 -0.8456
 6156SOL    HW229928   3.526   2.630   1.654 -1.4747  0.4574  1.5472
 6157SOL     OW29929   1.505   4.356  11.749  0.6031  0.2737 -0.2678
 6157SOL    HW129930   1.581   4.395  11.791 -0.1366  1.0583  0.3347
 6157SOL    HW229931   1.452   4.434  11.734  0.6332  0.0961 -1.3389
 6158SOL     OW29932   0.235   3.208   4.414  0.4004 -0.6011 -0.2019
 6158SOL    HW129933   0.147   3.209   4.378 -0.2465 -3.4323  1.2970
 6158SOL    HW229934   0.279   3.163   4.342  1.6408 -1.1836  0.9250
 6159SOL     OW29935   4.415   0.725  16.434 -0.6146 -0.2813 -0.3695
 6159SOL    HW129936   4.461   0.657  16.383  0.0492  2.2135 -3.0746
 6159SOL    HW229937   4.394   0.788  16.366 -0.3655 -0.5219 -0.6733
 6160SOL     OW29938   4.069   3.279  15.550 -0.2137  0.2157 -0.0136
 6160SOL    HW129939   3.999   3.273  15.615  0.4066 -0.4362  0.5975
 6160SOL    HW229940   4.098   3.370  15.562 -0.3559  0.3030 -0.3458
 6161SOL     OW29941   2.397   1.226  12.054  0.3732  0.2455 -0.0164
 6161SOL    HW129942   2.429   1.190  11.971 -0.4732  0.6836 -0.5294
 6161SOL    HW229943   2.351   1.302  12.020 -0.4267 -0.4569 -0.5002
 6162SOL     OW29944   4.054   1.265   3.907  0.2195 -0.1208  0.2599
 6162SOL    HW129945   4.116   1.205   3.948  1.2089 -0.3842 -1.6213
 6162SOL    HW229946   4.073   1.332   3.974 -0.8255  0.4373  0.0029
 6163SOL     OW29947   4.031   0.794   2.693  0.5460 -0.9169  0.7272
 6163SOL    HW129948   4.057   0.768   2.781 -0.9990 -0.7343  1.2285
 6163SOL    HW229949   4.097   0.745   2.644 -1.8588 -2.0409 -1.3354
 6164SOL     OW29950   3.628   3.892   1.654  0.2894  0.0838  0.2022
 6164SOL    HW129951   3.641   3.987   1.655  0.2637  0.0683  2.2391
 6164SOL    HW229952   3.597   3.875   1.743 -1.3422  0.0168 -0.3612
 6165SOL     OW29953   1.940   4.269  16.373 -0.1142 -0.0618 -0.3449
 6165SOL    HW129954   1.912   4.221  16.295 -1.2531 -1.4577  0.9252
 6165SOL    HW229955   1.875   4.339  16.372  2.8186  2.7161  0.9293
 6166SOL     OW29956   2.367   3.992   1.691 -0.2793  0.5440 -0.5968
 6166SOL    HW129957   2.353   4.055   1.761 -2.2785  0.8355 -1.2627
 6166SOL    HW229958   2.431   4.046   1.644  2.5371 -1.2182  1.2194
 6167SOL     OW29959   0.027   2.958   7.908  0.5144 -0.3079  0.1966
 6167SOL    HW129960   0.045   2.870   7.941 -4.4227 -0.8578  1.4918
 6167SOL    HW229961   0.119   2.974   7.889  0.2443 -0.9580 -1.6536
 6168SOL     OW29962   2.181   3.141  16.656 -0.1818  0.0472  0.1453
 6168SOL    HW129963   2.194   3.088  16.577 -4.4716  0.7013 -0.9733
 6168SOL    HW229964   2.219   3.091  16.728 -1.2811  0.6305  1.1347
 6169SOL     OW29965   3.945   0.833   5.433  0.3014 -0.5655  0.1669
 6169SOL    HW129966   3.997   0.757   5.408 -1.8708 -1.0905 -2.7339
 6169SOL    HW229967   3.902   0.804   5.513 -0.0338 -1.2703 -0.2730
 6170SOL     OW29968   3.569   3.199   6.038  0.1776 -0.8506  0.4610
 6170SOL    HW129969   3.618   3.191   6.120 -1.9679  2.5667  2.0582
 6170SOL    HW229970   3.494   3.140   6.049  0.7130 -1.9425 -1.7191
 6171SOL     OW29971   2.097   1.509   7.172  0.5863  0.1533 -0.1956
 6171SOL    HW129972   2.087   1.419   7.141  0.2632 -0.4674  1.6907
 6171SOL    HW229973   2.112   1.556   7.090 -0.0579  0.8393  0.0823
 6172SOL     OW29974   4.099   0.658   6.379 -0.4835 -0.1754  0.7732
 6172SOL    HW129975   4.185   0.623   6.403 -0.1072  1.0982  1.2765
 6172SOL    HW229976   4.108   0.682   6.287 -1.1266 -0.4631  0.6341
 6173SOL     OW29977   0.200   0.956   3.133 -0.1584 -0.6895 -0.0408
 6173SOL    HW129978   0.272   1.018   3.147 -0.9494  0.3495 -0.5584
 6173SOL    HW229979   0.214   0.942   3.039  0.1461  0.2159 -0.1340
 6174SOL     OW29980   3.163   4.523   2.603 -0.0302  0.0921  0.2713
 6174SOL    HW129981   3.219   4.513   2.680 -1.3585 -0.5902  1.1616
 6174SOL    HW229982   3.074   4.511   2.637  0.0397 -1.5791 -0.1369
 6175SOL     OW29983   4.610   1.229   6.882 -0.2398  0.3842 -0.0671
 6175SOL    HW129984   4.581   1.160   6.822  0.9393  3.4395 -4.1913
 6175SOL    HW229985   4.682   1.181   6.923 -2.3295 -1.3572  1.5330
 6176SOL     OW29986   4.034   0.582   7.374 -0.0327  0.0213  0.0398
 6176SOL    HW129987   4.011   0.554   7.285 -0.0226 -1.4657  0.5027
 6176SOL    HW229988   3.965   0.645   7.393  1.5039  2.3776 -2.2281
 6177SOL     OW29989   1.766   2.965   0.214 -0.1832 -0.1009 -0.0020
 6177SOL    HW129990   1.756   2.888   0.269 -0.7162 -1.7034 -2.3505
 6177SOL    HW229991   1.858   2.945   0.194 -0.0940  2.0764 -1.7858
 6178SOL     OW29992   3.254   3.641  14.182  0.1183  0.6541 -0.3629
 6178SOL    HW129993   3.262   3.546  14.172  2.2206  0.8870 -0.9302
 6178SOL    HW229994   3.180   3.647  14.121  2.4582 -1.7183 -3.4960
 6179SOL     OW29995   1.984   3.639   8.732  0.4766  0.5591  0.3530
 6179SOL    HW129996   2.036   3.658   8.653 -1.5455 -0.3420 -1.1921
 6179SOL    HW229997   2.053   3.659   8.795  0.2852 -0.9185  1.0349
 6180SOL     OW29998   1.833   2.768   5.318 -0.2563 -0.1430  0.0903
 6180SOL    HW129999   1.744   2.754   5.287 -0.3491  0.9407 -0.1405
 6180SOL    HW230000   1.880   2.740   5.239  1.0837  0.5208  0.6440
 6181SOL     OW30001   2.148   2.352  13.323 -0.0170 -0.1545  0.3381
 6181SOL    HW130002   2.161   2.294  13.248 -1.0011  0.7656 -0.5320
 6181SOL    HW230003   2.180   2.431  13.280 -2.3220  0.9713  0.7072
 6182SOL     OW30004   3.119   3.022   3.259  0.0868  0.6142 -0.3682
 6182SOL    HW130005   3.126   2.954   3.192  0.0807  0.7877 -0.5445
 6182SOL    HW230006   3.052   2.986   3.316 -0.1374 -0.2858 -1.2123
 6183SOL     OW30007   2.283   2.484   5.345 -0.0936 -0.3043 -0.2626
 6183SOL    HW130008   2.191   2.478   5.316 -0.3854  2.2699  0.1540
 6183SOL    HW230009   2.296   2.568   5.388 -0.4752  1.5324 -3.7582
 6184SOL     OW30010   0.634   1.482   5.352  0.3994  0.4411  0.2588
 6184SOL    HW130011   0.635   1.566   5.305  0.6432  1.0310  1.3035
 6184SOL    HW230012   0.716   1.444   5.323 -0.9641 -2.3677  0.0977
 6185SOL     OW30013   3.801   1.146   8.527  0.1586  0.1522 -0.0397
 6185SOL    HW130014   3.788   1.090   8.604 -0.3942 -0.6981 -0.7557
 6185SOL    HW230015   3.737   1.215   8.547 -0.0734 -0.5439  1.6722
 6186SOL     OW30016   4.191   1.160   2.190 -0.2428 -0.3396  0.2599
 6186SOL    HW130017   4.272   1.119   2.220  1.1320  2.0467 -0.1542
 6186SOL    HW230018   4.150   1.095   2.133 -0.7374  0.0602  0.1476
 6187SOL     OW30019   0.743   1.209   4.410  0.3881 -0.2251  0.4816
 6187SOL    HW130020   0.714   1.253   4.489 -0.2991 -2.8684  1.6859
 6187SOL    HW230021   0.804   1.275   4.376  1.3365 -1.3380  0.0157
 6188SOL     OW30022   4.306   3.470  13.642  0.2148 -0.3604  0.3306
 6188SOL    HW130023   4.380   3.515  13.684 -0.1458  1.3461 -0.8398
 6188SOL    HW230024   4.235   3.465  13.706  0.0522 -0.0537  0.1746
 6189SOL     OW30025   2.638   1.183  13.719 -0.1730 -0.0652 -0.5836
 6189SOL    HW130026   2.652   1.253  13.655 -1.7535  0.0004 -0.8636
 6189SOL    HW230027   2.557   1.209  13.764 -0.1592 -0.8560 -0.1105
 6190SOL     OW30028   1.757   1.192   9.552 -0.6203  0.5841 -0.8357
 6190SOL    HW130029   1.838   1.224   9.591 -1.6142  2.2224 -0.0671
 6190SOL    HW230030   1.789   1.165   9.466 -0.6491  2.4858 -1.4525
 6191SOL     OW30031   1.571   1.057   9.257 -0.1905  0.1750  0.0636
 6191SOL    HW130032   1.549   1.148   9.278  1.5225  0.7339 -0.6303
 6191SOL    HW230033   1.502   1.014   9.308 -0.1299 -0.1085 -0.0940
 6192SOL     OW30034   2.858   3.693   7.598 -0.3605 -0.3977 -0.4044
 6192SOL    HW130035   2.885   3.763   7.658 -0.3379  1.1290 -2.1977
 6192SOL    HW230036   2.941   3.652   7.574  0.7748  1.0656  1.0509
 6193SOL     OW30037   4.090   3.625   8.136 -0.4184 -0.0909  0.0319
 6193SOL    HW130038   4.123   3.714   8.128 -2.3903  0.5220 -1.2864
 6193SOL    HW230039   4.069   3.607   8.227  1.1308  2.4232  0.8750
 6194SOL     OW30040   1.593   1.225   2.733  0.6552  0.3144  0.7605
 6194SOL    HW130041   1.604   1.304   2.786  0.0366  1.2275 -0.4972
 6194SOL    HW230042   1.500   1.235   2.710  0.7880 -1.9362 -0.7478
 6195SOL     OW30043   0.316   4.541   6.499  0.1197  0.0074  0.2743
 6195SOL    HW130044   0.226   4.516   6.476 -0.2215  2.0296 -0.5651
 6195SOL    HW230045   0.318   4.633   6.472 -0.0164 -0.5053 -1.4401
 6196SOL     OW30046   2.770   2.450   8.414 -0.0654  0.2800 -0.1551
 6196SOL    HW130047   2.803   2.442   8.325 -0.4015 -1.0524 -0.1651
 6196SOL    HW230048   2.747   2.543   8.418  0.1112  0.3012  0.3000
 6197SOL     OW30049   3.618   4.417   5.225  0.8421  0.0594 -0.0058
 6197SOL    HW130050   3.648   4.394   5.137 -1.6197  1.4187 -1.2019
 6197SOL    HW230051   3.692   4.447   5.276  0.4317 -1.7310  1.6648
 6198SOL     OW30052   1.252   2.736   7.866  0.3175 -0.1124 -0.4670
 6198SOL    HW130053   1.336   2.693   7.882  0.6778  1.2302  1.3324
 6198SOL    HW230054   1.272   2.823   7.902  1.4042 -1.3260  1.8751
 6199SOL     OW30055   2.968   2.658   3.278  0.7457 -0.1713  0.7275
 6199SOL    HW130056   3.022   2.628   3.205 -0.9725  0.2668 -0.7323
 6199SOL    HW230057   2.942   2.575   3.319  0.5950 -1.1673 -1.4246
 6200SOL     OW30058   4.110   0.916   4.485  0.6062  0.8038  0.7335
 6200SOL    HW130059   4.071   0.852   4.544 -0.4550 -0.1002 -0.9359
 6200SOL    HW230060   4.047   0.985   4.467  1.3625  1.3420  0.1452
 6201SOL     OW30061   2.781   2.974  10.047 -0.3020 -0.5910  0.4543
 6201SOL    HW130062   2.813   3.038   9.983  1.3097 -1.0298  0.8282
 6201SOL    HW230063   2.693   3.011  10.052  0.3551  1.0631 -0.4158
 6202SOL     OW30064   4.689   0.320   5.193  0.1487 -0.0916 -0.3715
 6202SOL    HW130065   4.694   0.233   5.155 -1.1971  1.0089 -3.0646
 6202SOL    HW230066   0.050   0.355   5.175 -0.2910  1.6636  0.8870
 6203SOL     OW30067   1.421   0.235  11.064 -0.6823 -0.2727  0.3533
 6203SOL    HW130068   1.396   0.317  11.105 -1.1272  1.3036 -3.0774
 6203SOL    HW230069   1.358   0.171  11.098 -0.7084 -0.5740 -0.2641
 6204SOL     OW30070   2.512   0.996   5.863  0.4355 -0.2509  0.5223
 6204SOL    HW130071   2.518   1.016   5.957  1.8966  2.8451 -0.2316
 6204SOL    HW230072   2.522   1.083   5.824  0.6307 -0.4685  0.0974
 6205SOL     OW30073   2.854   0.734   8.102 -0.4986 -0.4651  0.4077
 6205SOL    HW130074   2.842   0.745   8.007  0.3440 -0.0222  0.3499
 6205SOL    HW230075   2.820   0.645   8.116 -2.2565 -0.3784 -3.1760
 6206SOL     OW30076   3.707   1.407   4.224 -0.4365  0.2273 -0.0311
 6206SOL    HW130077   3.794   1.372   4.240 -0.0612  1.3221  0.2964
 6206SOL    HW230078   3.710   1.500   4.199 -0.3263  0.6313  1.5339
 6207SOL     OW30079   2.621   1.122   7.331 -0.4278  0.6474  0.2812
 6207SOL    HW130080   2.656   1.067   7.401 -1.5729  1.9629  1.8899
 6207SOL    HW230081   2.687   1.105   7.263 -1.1410  1.2226 -0.5586
 6208SOL     OW30082   1.099   2.620   3.450  0.7847  0.2324  0.3074
 6208SOL    HW130083   1.164   2.614   3.521 -0.1760  0.0707  1.1774
 6208SOL    HW230084   1.126   2.711   3.438 -0.8338  0.7481  0.6948
 6209SOL     OW30085   4.321   0.907   5.285  0.1610  0.5591  0.0910
 6209SOL    HW130086   4.410   0.890   5.255 -0.4118 -2.6457  0.2022
 6209SOL    HW230087   4.293   0.976   5.224 -0.5458  0.1905 -0.0078
 6210SOL     OW30088   2.859   3.302   5.054 -0.5923 -0.3294  0.1891
 6210SOL    HW130089   2.812   3.383   5.032  0.8311  1.1477  2.6519
 6210SOL    HW230090   2.790   3.241   5.080 -1.1324  1.2038  2.2987
 6211SOL     OW30091   2.115   3.330   8.097 -0.2347  0.3362  0.4082
 6211SOL    HW130092   2.033   3.356   8.055  0.0039 -1.1056 -0.9771
 6211SOL    HW230093   2.113   3.235   8.084  1.5137  0.5338 -1.3149
 6212SOL     OW30094   4.173   1.186   5.031  0.5063  0.4097  0.4666
 6212SOL    HW130095   4.123   1.249   5.083  1.1594  2.3382 -1.2334
 6212SOL    HW230096   4.127   1.186   4.948  1.2437  1.6695  0.0631
 6213SOL     OW30097   3.856   1.700   8.194 -0.1549  0.5894 -0.1994
 6213SOL    HW130098   3.932   1.719   8.249 -1.8918  1.5429  1.8802
 6213SOL    HW230099   3.865   1.605   8.184 -2.1860  0.0773  2.9705
 6214SOL     OW30100   4.176   3.785  16.458  0.4446 -0.0564  0.2072
 6214SOL    HW130101   4.124   3.781  16.377  0.1576  0.7099  0.3525
 6214SOL    HW230102   4.126   3.839  16.519  1.5461  0.3485  0.7470
 6215SOL     OW30103   0.719   3.915   1.119  0.3779 -0.0828  0.9166
 6215SOL    HW130104   0.714   3.991   1.176 -0.2553  1.9503 -1.8853
 6215SOL    HW230105   0.722   3.965   1.038 -0.4941 -3.0464 -0.9431
 6216SOL     OW30106   4.171   2.146   3.211  0.0829 -0.2688 -0.4862
 6216SOL    HW130107   4.143   2.204   3.140 -3.3117  1.6089  2.3977
 6216SOL    HW230108   4.174   2.058   3.172  0.0961 -0.7534  0.6079
 6217SOL     OW30109   4.560   0.530   7.410  0.1790  0.0137  0.0032
 6217SOL    HW130110   4.483   0.523   7.354 -1.8778  0.6697  2.7182
 6217SOL    HW230111   4.622   0.477   7.361  0.1501  0.9627 -1.0631
 6218SOL     OW30112   1.638   0.911   9.625  0.2460 -0.3822  0.7129
 6218SOL    HW130113   1.729   0.884   9.616  0.1783 -0.3807  0.0141
 6218SOL    HW230114   1.650   0.979   9.558 -0.7846 -0.2139  0.6948
 6219SOL     OW30115   0.954   2.247   9.915  0.0618  0.1653  0.3301
 6219SOL    HW130116   0.999   2.224   9.997  1.4756 -2.5877 -1.2059
 6219SOL    HW230117   0.872   2.203   9.937 -0.4175  0.5961 -0.6199
 6220SOL     OW30118   0.132   3.229   3.351  0.1984  0.0663  0.7254
 6220SOL    HW130119   0.203   3.168   3.371  0.3870 -0.0122 -0.2070
 6220SOL    HW230120   0.155   3.298   3.414  0.8671 -0.2779  0.8627
 6221SOL     OW30121   3.439   2.205   5.866 -0.1110 -0.0131  0.0571
 6221SOL    HW130122   3.517   2.154   5.844  0.2089  1.1613 -1.5558
 6221SOL    HW230123   3.375   2.159   5.811 -1.1115 -0.3958  1.5530
 6222SOL     OW30124   3.232   2.514   8.670  0.4069  0.5783  0.0637
 6222SOL    HW130125   3.148   2.549   8.639 -0.0036 -0.6421 -0.1755
 6222SOL    HW230126   3.211   2.421   8.668 -0.0565  0.6726  0.5087
 6223SOL     OW30127   3.696   2.951   0.532  0.6612 -0.0885  0.0035
 6223SOL    HW130128   3.683   2.862   0.501  1.1777 -0.4983  0.9603
 6223SOL    HW230129   3.623   2.966   0.592  3.0432  1.7494  2.4813
 6224SOL     OW30130   2.731   2.724   4.750 -1.0432 -0.3745 -0.0624
 6224SOL    HW130131   2.648   2.685   4.777 -0.3883 -0.3504  1.9970
 6224SOL    HW230132   2.703   2.751   4.662  1.1766  1.6689 -0.1471
 6225SOL     OW30133   1.089   1.063  14.433  0.0634 -0.3409  0.3607
 6225SOL    HW130134   1.016   1.116  14.464  0.8746  0.8349  0.2491
 6225SOL    HW230135   1.070   1.074  14.340  0.4852  2.1835  0.5728
 6226SOL     OW30136   3.058   3.532  16.073 -0.4086  0.3828  0.3664
 6226SOL    HW130137   2.990   3.540  16.140  0.8803  0.7943  1.6284
 6226SOL    HW230138   3.039   3.443  16.041 -1.3728  0.8587 -0.3713
 6227SOL     OW30139   3.509   3.674  17.593 -0.0573 -0.1641  0.0013
 6227SOL    HW130140   3.544   3.761  17.571 -1.5009 -0.3651 -3.0247
 6227SOL    HW230141   3.555   3.653  17.674  1.2677  1.0866 -0.4074
 6228SOL     OW30142   3.449   3.402  10.598  0.5315 -0.0539 -0.5984
 6228SOL    HW130143   3.382   3.440  10.541 -0.8560 -0.7631  0.5766
 6228SOL    HW230144   3.391   3.364  10.664 -0.9367 -0.4894 -2.1585
 6229SOL     OW30145   1.796   1.153   6.434  0.1727 -0.2414 -0.0706
 6229SOL    HW130146   1.833   1.125   6.518 -2.7109 -2.4351  0.4688
 6229SOL    HW230147   1.809   1.248   6.443  1.2716 -0.2262 -1.8626
 6230SOL     OW30148   2.713   3.758   0.571 -0.3074 -0.8602  0.1563
 6230SOL    HW130149   2.801   3.776   0.603 -1.2188 -0.3156  2.3030
 6230SOL    HW230150   2.695   3.688   0.632 -0.1083 -0.4080  0.7334
 6231SOL     OW30151   4.287   0.315   3.655  0.5203  0.1537 -0.3240
 6231SOL    HW130152   4.191   0.317   3.654  0.4756 -1.9103  1.6935
 6231SOL    HW230153   4.307   0.251   3.587 -0.9696  0.0960 -0.7113
 6232SOL     OW30154   2.474   3.425   7.915  0.3071 -0.3075  0.0769
 6232SOL    HW130155   2.550   3.442   7.859 -1.0025 -2.0997 -2.2447
 6232SOL    HW230156   2.419   3.386   7.848  0.7361 -1.2206  0.2618
 6233SOL     OW30157   2.757   0.218  14.724 -0.9164 -0.1693 -0.1550
 6233SOL    HW130158   2.768   0.309  14.698  0.7378  0.0658  1.3567
 6233SOL    HW230159   2.826   0.201  14.788 -1.1046 -1.0916 -0.1992
 6234SOL     OW30160   2.884   0.895   4.070  0.4010 -0.1526  0.9954
 6234SOL    HW130161   2.849   0.901   4.159 -1.2745 -0.6654  0.3710
 6234SOL    HW230162   2.976   0.904   4.093  0.4852 -1.0094  0.9790
 6235SOL     OW30163   2.283   0.823  17.688  0.1833 -0.1256  0.3574
 6235SOL    HW130164   2.265   0.731   0.004 -2.2239  0.0987 -0.6820
 6235SOL    HW230165   2.208   0.868   0.022  0.6577 -0.2510  1.3999
 6236SOL     OW30166   3.564   3.636   9.660  0.0232  0.5051 -0.2360
 6236SOL    HW130167   3.577   3.715   9.609  0.9290 -1.0607 -2.4450
 6236SOL    HW230168   3.471   3.642   9.679 -0.1478 -0.6182 -0.6891
 6237SOL     OW30169   0.876   4.633  15.839 -0.1023 -0.1469  0.6424
 6237SOL    HW130170   0.929   4.705  15.872  0.7215  0.5783 -2.2377
 6237SOL    HW230171   0.802   4.625  15.899 -1.3868 -0.0462 -0.9249
 6238SOL     OW30172   4.618   3.169   1.906  0.4060  0.1895  0.4284
 6238SOL    HW130173   4.609   3.121   1.988 -2.1616  0.7580  0.4819
 6238SOL    HW230174   4.529   3.198   1.890 -0.0023 -1.3474 -0.1577
 6239SOL     OW30175   0.164   0.798  12.882 -0.0109 -0.1655 -0.6216
 6239SOL    HW130176   0.217   0.862  12.930 -0.9984  0.0610  0.1676
 6239SOL    HW230177   0.153   0.848  12.800 -1.6360 -1.4356 -1.1701
 6240SOL     OW30178   2.240   4.720   2.279 -0.2268 -0.1068  0.5004
 6240SOL    HW130179   2.319   4.691   2.234 -0.4114  0.2308 -0.0413
 6240SOL    HW230180   2.183   4.644   2.271 -0.5470  0.1103  0.7646
 6241SOL     OW30181   2.311   2.762   5.356  0.1940 -0.2968 -0.0864
 6241SOL    HW130182   2.236   2.768   5.296  0.2788  2.9934  0.1246
 6241SOL    HW230183   2.274   2.802   5.434  0.4251  0.0377 -0.1477
 6242SOL     OW30184   2.514   1.703  17.287 -0.2294 -0.0697  0.2440
 6242SOL    HW130185   2.476   1.619  17.263 -1.4649  0.4629  0.3196
 6242SOL    HW230186   2.576   1.719  17.215 -0.1253 -0.6574  0.2032
 6243SOL     OW30187   2.611   1.296   8.101  0.1805 -0.1647  0.0382
 6243SOL    HW130188   2.535   1.255   8.061  0.9751 -0.9970 -0.6283
 6243SOL    HW230189   2.658   1.304   8.018  1.5935  2.9423  1.1221
 6244SOL     OW30190   2.742   2.142   3.107  0.3447 -0.1845  0.3150
 6244SOL    HW130191   2.780   2.054   3.097 -1.4095 -0.8902 -0.0546
 6244SOL    HW230192   2.697   2.130   3.191  1.9112  0.1734  1.2281
 6245SOL     OW30193   1.533   3.402  14.582  0.2124  0.0527  0.4668
 6245SOL    HW130194   1.559   3.322  14.628 -0.7812 -0.9859 -0.7741
 6245SOL    HW230195   1.586   3.392  14.503 -0.2959  0.4189  0.0880
 6246SOL     OW30196   0.255   0.311   5.601  0.1880  0.0212  0.0746
 6246SOL    HW130197   0.229   0.313   5.509  0.5153 -0.6602 -0.0350
 6246SOL    HW230198   0.321   0.380   5.595 -0.4188  0.5095 -0.8592
 6247SOL     OW30199   4.382   0.942  17.277 -0.2765  0.6067 -0.3510
 6247SOL    HW130200   4.364   0.982  17.192 -1.5795  0.6812 -0.0461
 6247SOL    HW230201   4.355   0.850  17.267  0.8316  0.4703 -2.0844
 6248SOL     OW30202   0.057   1.732   6.787  0.4269  0.4179 -0.0146
 6248SOL    HW130203   0.045   1.645   6.749 -2.0972  0.9891 -0.5637
 6248SOL    HW230204   4.703   1.741   6.840  0.1158 -0.6337 -0.2927
 6249SOL     OW30205   1.235   2.857   3.502  0.2534 -0.6305  0.0644
 6249SOL    HW130206   1.156   2.908   3.521 -0.5875 -1.9495  0.1813
 6249SOL    HW230207   1.299   2.909   3.549 -0.9606  1.5657 -0.7097
 6250SOL     OW30208   2.544   0.855   3.867  0.8184  0.3056 -0.1164
 6250SOL    HW130209   2.494   0.797   3.809  0.9577  0.4822 -0.4106
 6250SOL    HW230210   2.584   0.920   3.811  1.8856  0.3819  0.7418
 6251SOL     OW30211   2.228   0.389  17.206 -0.1456  0.3272 -0.6772
 6251SOL    HW130212   2.215   0.482  17.186  2.0834  0.9577  0.8690
 6251SOL    HW230213   2.134   0.374  17.213 -0.0053 -0.2188 -0.0113
 6252SOL     OW30214   4.583   2.819   3.386 -0.0596  0.6963  0.3174
 6252SOL    HW130215   4.600   2.814   3.292  1.3329 -1.0198  0.6661
 6252SOL    HW230216   4.488   2.806   3.388  0.3982 -2.4854  0.2658
 6253SOL     OW30217   2.601   0.985   7.854  0.0072 -0.0281  0.1127
 6253SOL    HW130218   2.601   1.025   7.767 -3.4172  2.4043  1.2203
 6253SOL    HW230219   2.537   1.029   7.910  2.6931  2.4500  1.2921
 6254SOL     OW30220   0.612   4.507  17.627  0.2228  0.3710  0.2116
 6254SOL    HW130221   0.641   4.506   0.013 -0.1239  1.7438  0.3357
 6254SOL    HW230222   0.565   4.591  17.625 -0.6223 -0.1416 -1.4336
 6255SOL     OW30223   1.922   1.431   4.947 -0.3100  0.3530 -0.6522
 6255SOL    HW130224   1.841   1.385   4.971 -1.1806  3.2844  2.0250
 6255SOL    HW230225   1.894   1.519   4.971  1.2492  0.5963  0.2583
 6256SOL     OW30226   2.046   0.151   5.560 -0.3559 -0.1160 -0.1232
 6256SOL    HW130227   2.006   0.228   5.601 -0.0343  0.7635 -1.4358
 6256SOL    HW230228   1.966   0.116   5.522 -0.7002  0.8108 -0.2600
 6257SOL     OW30229   4.650   0.256   9.097  0.2450  0.3158 -0.0659
 6257SOL    HW130230   4.717   0.210   9.047  0.5734  0.0631  0.6090
 6257SOL    HW230231   4.625   0.325   9.036 -2.1551 -1.7882 -1.4435
 6258SOL     OW30232   1.020   0.518   5.775 -0.2832 -0.1861  0.0141
 6258SOL    HW130233   1.078   0.499   5.849 -1.3232 -2.2296  0.3097
 6258SOL    HW230234   1.048   0.464   5.702  0.3434 -0.0573  0.1552
 6259SOL     OW30235   3.450   4.186  17.317 -0.1046 -0.2379  0.2990
 6259SOL    HW130236   3.417   4.171  17.228 -1.0123 -1.3266  0.8212
 6259SOL    HW230237   3.535   4.149  17.293  0.1251  1.2035 -1.1146
 6260SOL     OW30238   0.547   2.020   9.064  1.0430  0.3682  0.4861
 6260SOL    HW130239   0.626   2.008   9.012  1.2271  3.4118  0.0315
 6260SOL    HW230240   0.502   2.095   9.026 -1.7567 -1.2608  0.6247
 6261SOL     OW30241   2.883   2.596  14.351  0.0323  0.2353 -0.1482
 6261SOL    HW130242   2.830   2.669  14.321 -0.0483  0.1888 -0.1186
 6261SOL    HW230243   2.929   2.575  14.269 -0.4575 -1.4195 -0.0052
 6262SOL     OW30244   1.897   3.147   7.229 -0.2445 -0.1960  0.6371
 6262SOL    HW130245   1.834   3.216   7.251 -0.8834 -0.3706 -0.6156
 6262SOL    HW230246   1.846   3.066   7.229 -1.9916  0.8806 -2.3960
 6263SOL     OW30247   4.497   0.862   2.578  0.0303 -0.8731  0.7572
 6263SOL    HW130248   4.542   0.789   2.535 -0.7590  0.6048 -2.6013
 6263SOL    HW230249   4.415   0.851   2.529  1.1551  0.5537 -1.4430
 6264SOL     OW30250   4.461   2.743   1.488 -0.3352  0.0946  0.6603
 6264SOL    HW130251   4.544   2.788   1.467 -1.0276  2.3715  2.7671
 6264SOL    HW230252   4.483   2.652   1.467  1.6903  0.9286 -0.8976
 6265SOL     OW30253   1.539   4.387   2.144  0.0185 -0.5276 -0.0915
 6265SOL    HW130254   1.504   4.341   2.221  2.4742 -3.1925 -0.5494
 6265SOL    HW230255   1.507   4.477   2.147  0.0389 -0.4759 -1.7243
 6266SOL     OW30256   3.019   2.740   7.905  0.2690 -0.6764  0.2440
 6266SOL    HW130257   2.990   2.751   7.815 -1.3401 -0.6324  0.7688
 6266SOL    HW230258   3.029   2.830   7.937 -0.9451  0.7885 -3.5546
 6267SOL     OW30259   0.054   3.479   3.181  0.0663  0.3444  0.1401
 6267SOL    HW130260   0.035   3.489   3.088  2.4452  1.5969 -0.1967
 6267SOL    HW230261   0.087   3.390   3.184  0.3558  0.4828  0.9860
 6268SOL     OW30262   1.394   4.213   5.826  0.1470  0.4172  0.5356
 6268SOL    HW130263   1.397   4.167   5.742 -0.5171  2.0674 -0.3840
 6268SOL    HW230264   1.482   4.201   5.861  0.7280 -0.1034 -1.1119
 6269SOL     OW30265   0.316   4.145  13.077 -0.1738 -0.4407 -0.0370
 6269SOL    HW130266   0.313   4.052  13.053 -2.3127 -0.8061  1.6335
 6269SOL    HW230267   0.229   4.158  13.115  0.3253  0.8028  0.6784
 6270SOL     OW30268   1.600   2.721   2.941 -0.0225 -0.0217  0.0545
 6270SOL    HW130269   1.653   2.717   3.021 -0.8647 -0.0708  0.6031
 6270SOL    HW230270   1.670   2.743   2.880  2.3068 -1.1649  2.2928
 6271SOL     OW30271   4.298   3.509   5.853  0.2667 -0.6224  0.8079
 6271SOL    HW130272   4.275   3.431   5.903 -1.0879 -1.0857 -0.5268
 6271SOL    HW230273   4.308   3.579   5.917 -1.0157 -1.1733  1.6167
 6272SOL     OW30274   3.107   2.194   1.377  0.0179  0.4661  0.5512
 6272SOL    HW130275   3.164   2.229   1.309 -2.2643  1.7205 -0.7320
 6272SOL    HW230276   3.153   2.224   1.456  1.4495 -1.9348  0.6164
 6273SOL     OW30277   4.671   0.516   9.765  0.3332  0.3814 -0.0479
 6273SOL    HW130278   4.723   0.475   9.696  0.2176 -0.0409  0.1170
 6273SOL    HW230279   0.010   0.536   9.832 -0.4355 -1.3417  1.2183
 6274SOL     OW30280   3.518   2.604   9.301 -0.2192  0.2326 -0.0767
 6274SOL    HW130281   3.558   2.691   9.304 -2.6811  1.3713 -0.4009
 6274SOL    HW230282   3.590   2.552   9.338 -0.0031  1.9916  1.9537
 6275SOL     OW30283   3.756   2.021   7.319 -0.1674 -0.2701  0.5688
 6275SOL    HW130284   3.804   2.088   7.271 -2.7051  0.8048 -0.4560
 6275SOL    HW230285   3.815   2.013   7.395 -1.5174 -2.1327  1.4172
 6276SOL     OW30286   1.191   0.306   8.017  0.2710 -0.1922 -0.4318
 6276SOL    HW130287   1.178   0.400   8.001  2.0796  0.3006  0.9772
 6276SOL    HW230288   1.273   0.289   7.970  2.1723 -0.8207  3.0893
 6277SOL     OW30289   4.610   1.683   3.449 -0.1319 -0.4385  0.3592
 6277SOL    HW130290   4.650   1.770   3.440  2.0550 -1.4516  0.2448
 6277SOL    HW230291   4.604   1.668   3.543 -1.1849  1.4427  0.5974
 6278SOL     OW30292   3.446   2.945   6.514 -0.7273 -0.1916 -0.2792
 6278SOL    HW130293   3.381   3.015   6.519  1.6590  1.9975 -0.2926
 6278SOL    HW230294   3.443   2.921   6.421 -0.1078 -2.8393  0.3900
 6279SOL     OW30295   3.682   4.046   6.856  0.3452  0.1009  0.2239
 6279SOL    HW130296   3.692   3.960   6.817 -1.4277  0.2971 -0.6688
 6279SOL    HW230297   3.676   4.032   6.951  1.9095  1.3432  0.5118
 6280SOL     OW30298   3.334   0.436   9.037  0.3208 -0.2197  0.2204
 6280SOL    HW130299   3.260   0.493   9.054  0.6099 -0.2074  1.4641
 6280SOL    HW230300   3.406   0.491   9.067 -0.7587  1.9891 -1.2534
 6281SOL     OW30301   0.235   0.488   3.428 -0.5130 -0.0061 -0.5280
 6281SOL    HW130302   0.174   0.415   3.440 -0.4586  0.2723  1.3398
 6281SOL    HW230303   0.280   0.480   3.512  0.7259 -0.2264 -1.2229
 6282SOL     OW30304   2.417   2.949   4.187  0.4463 -0.3121 -0.2156
 6282SOL    HW130305   2.378   2.882   4.131 -1.1289  0.0120  0.4941
 6282SOL    HW230306   2.446   2.906   4.267  0.6988 -1.7519 -1.0770
 6283SOL     OW30307   1.717   0.815   2.108  0.8207  0.2106  0.6287
 6283SOL    HW130308   1.780   0.743   2.104  0.7523  0.3147 -2.2990
 6283SOL    HW230309   1.739   0.873   2.035  1.0499  0.5351  0.9562
 6284SOL     OW30310   0.648   4.680  15.970  0.2686 -0.3443  0.0491
 6284SOL    HW130311   0.569   0.007  15.971 -0.2150 -1.0296 -1.6388
 6284SOL    HW230312   0.604   4.599  15.947 -0.6776 -0.0290  0.7424
 6285SOL     OW30313   2.230   4.457   3.784  0.1215 -0.1181 -0.6258
 6285SOL    HW130314   2.237   4.519   3.857  0.6041  0.3793 -1.1017
 6285SOL    HW230315   2.318   4.428   3.761  0.8224  1.4721  0.0387
 6286SOL     OW30316   2.711   3.956   3.492 -0.1126 -0.0664  0.4370
 6286SOL    HW130317   2.748   3.938   3.578 -1.7179 -2.5694  0.6077
 6286SOL    HW230318   2.786   3.993   3.445  0.5164 -1.0181  0.6796
 6287SOL     OW30319   2.242   1.732   2.421  0.0768  0.7090 -0.6053
 6287SOL    HW130320   2.234   1.803   2.357  0.9934  1.7170  0.4041
 6287SOL    HW230321   2.336   1.743   2.437 -0.1850 -1.2387  2.2539
 6288SOL     OW30322   4.401   2.050   3.463 -0.2842 -0.1493 -0.5227
 6288SOL    HW130323   4.369   2.130   3.505 -0.7482 -0.6484  0.0873
 6288SOL    HW230324   4.350   1.978   3.499 -0.5084 -0.7597 -2.0768
 6289SOL     OW30325   2.446   3.102  14.089  0.1388 -0.4649  0.0793
 6289SOL    HW130326   2.458   3.097  14.184  0.1733 -1.4149  0.0278
 6289SOL    HW230327   2.413   3.191  14.091  1.7232  0.1384 -0.7669
 6290SOL     OW30328   0.946   4.381   9.500  0.3885 -0.0912 -0.3930
 6290SOL    HW130329   0.890   4.324   9.448 -0.0721 -0.2439  0.2757
 6290SOL    HW230330   0.909   4.369   9.587  0.4633 -0.4877 -0.4153
 6291SOL     OW30331   0.764   4.244   2.089 -0.3727  0.6917 -0.6416
 6291SOL    HW130332   0.814   4.275   2.014  1.8833 -1.3278  0.0138
 6291SOL    HW230333   0.800   4.155   2.097 -1.3646  0.3474  0.1719
 6292SOL     OW30334   0.935   0.013  16.397 -0.0055  0.0788 -0.4285
 6292SOL    HW130335   0.896   4.717  16.481  3.1410 -1.5894  0.5834
 6292SOL    HW230336   0.999   4.669  16.384  0.5390  0.6579 -0.8912
 6293SOL     OW30337   2.594   4.010   2.752  0.4623 -0.8376  0.6663
 6293SOL    HW130338   2.564   3.966   2.831 -1.4851  0.2448  0.5225
 6293SOL    HW230339   2.625   3.939   2.696  1.3570 -1.0367  1.4053
 6294SOL     OW30340   3.231   3.496   3.347  0.3920 -0.6049 -0.0749
 6294SOL    HW130341   3.205   3.456   3.430 -1.8188 -0.9526 -0.9247
 6294SOL    HW230342   3.196   3.430   3.288  1.2954  2.7073 -4.3089
 6295SOL     OW30343   4.661   4.151   5.199  0.3936  0.0891  0.2485
 6295SOL    HW130344   0.008   4.185   5.250  0.1991  3.4488 -1.7158
 6295SOL    HW230345   4.620   4.087   5.257  0.2159  0.8471  0.9533
 6296SOL     OW30346   1.234   1.718   0.865  0.1308 -0.0471  0.3207
 6296SOL    HW130347   1.141   1.709   0.845  0.2582 -2.1116  0.6392
 6296SOL    HW230348   1.245   1.801   0.911  0.4190  0.0015  0.1653
 6297SOL     OW30349   3.572   3.568   8.165  0.2301 -0.2676  0.4212
 6297SOL    HW130350   3.493   3.547   8.115 -1.0110 -0.1525  2.3370
 6297SOL    HW230351   3.555   3.530   8.251 -1.5717  1.0517  0.6442
 6298SOL     OW30352   1.198   0.748   5.021 -0.5835 -0.1089  0.1988
 6298SOL    HW130353   1.252   0.771   4.945  1.0187  0.1628  1.4190
 6298SOL    HW230354   1.195   0.652   5.014 -1.9811 -0.2389  2.4200
 6299SOL     OW30355   1.118   3.733   8.395 -0.1166  0.1289  0.1967
 6299SOL    HW130356   1.154   3.729   8.307 -0.0993  0.7121  0.1789
 6299SOL    HW230357   1.177   3.663   8.422  0.6478  0.1502 -1.4513
 6300SOL     OW30358   1.234   0.458   5.014  0.0776  0.5572  0.5978
 6300SOL    HW130359   1.323   0.477   4.984  0.1753  2.7770  2.2718
 6300SOL    HW230360   1.243   0.450   5.109 -1.5434 -0.2455  0.6743
 6301SOL     OW30361   3.090   4.557   4.374 -0.2246 -0.6296  0.6364
 6301SOL    HW130362   3.147   4.514   4.438 -1.3412 -1.8709  0.8176
 6301SOL    HW230363   3.135   4.542   4.291 -0.6694 -0.9943  0.4590
 6302SOL     OW30364   0.007   4.051   7.476  0.2868 -0.3527  0.3013
 6302SOL    HW130365   0.063   3.976   7.460  0.3103 -0.2862  0.0709
 6302SOL    HW230366   0.046   4.114   7.415 -0.8418  0.6829  0.6204
 6303SOL     OW30367   3.071   3.100  14.111  0.0897 -0.2645  0.2717
 6303SOL    HW130368   3.034   3.013  14.100  2.7857 -1.1243 -2.0707
 6303SOL    HW230369   3.161   3.073  14.092  0.5290  2.9851 -2.3641
 6304SOL     OW30370   0.951   2.705   1.660  0.2404 -0.4365  0.5367
 6304SOL    HW130371   0.860   2.704   1.691  0.2111 -0.3437  0.4516
 6304SOL    HW230372   1.000   2.720   1.741  0.3451 -0.3877  0.4634
 6305SOL     OW30373   4.219   2.747   2.971 -0.1688  0.3980 -0.5333
 6305SOL    HW130374   4.185   2.674   3.022  1.2161 -0.1710 -0.4283
 6305SOL    HW230375   4.131   2.779   2.948  0.2684  1.1190 -1.2286
 6306SOL     OW30376   0.801   4.440   4.783  0.3015 -0.8957 -0.8424
 6306SOL    HW130377   0.836   4.526   4.807 -3.6759  1.4941 -3.5184
 6306SOL    HW230378   0.876   4.381   4.787 -0.9282 -2.3899  0.4030
 6307SOL     OW30379   2.066   4.688   5.256  0.3483 -0.0813  0.1501
 6307SOL    HW130380   2.021   4.633   5.192 -0.0424 -0.4392  0.7434
 6307SOL    HW230381   2.046   4.640   5.336  0.3168 -1.1617 -0.5160
 6308SOL     OW30382   4.588   0.810   7.488 -0.1500  0.2190  0.3349
 6308SOL    HW130383   4.548   0.723   7.488  1.5225 -0.5519 -0.3802
 6308SOL    HW230384   4.619   0.797   7.398  2.5959  1.7576  1.0602
 6309SOL     OW30385   0.290   2.016   2.670  0.5254  0.3262  0.2332
 6309SOL    HW130386   0.279   2.080   2.599  1.4642  0.3781  0.1301
 6309SOL    HW230387   0.378   2.047   2.694  0.7262 -0.7216  0.8351
 6310SOL     OW30388   2.425   1.963   6.303 -0.6300 -0.4774 -0.5115
 6310SOL    HW130389   2.346   1.972   6.358 -1.0264 -2.9185 -0.6405
 6310SOL    HW230390   2.429   2.051   6.267  1.4938 -0.1732  0.5078
 6311SOL     OW30391   2.362   0.755   2.413 -0.1003  0.0719  0.4393
 6311SOL    HW130392   2.342   0.703   2.335 -0.8776  0.3422  0.4569
 6311SOL    HW230393   2.279   0.768   2.460  0.3866  0.5614  1.1571
 6312SOL     OW30394   1.209   2.460  13.308  0.4515 -0.1111  0.1585
 6312SOL    HW130395   1.272   2.476  13.238  0.2731 -0.0721  0.0064
 6312SOL    HW230396   1.149   2.531  13.284  0.2639 -0.1224  0.5892
 6313SOL     OW30397   2.768   3.504   5.849  0.2924  0.3755  0.6235
 6313SOL    HW130398   2.720   3.467   5.923  1.5789 -2.2089  0.1850
 6313SOL    HW230399   2.827   3.565   5.892  1.5700 -0.4206  0.0060
 6314SOL     OW30400   0.537   1.571   6.350  0.0085  0.7705  0.2994
 6314SOL    HW130401   0.538   1.489   6.300 -0.3562  1.7711 -1.3361
 6314SOL    HW230402   0.458   1.619   6.326  0.5066 -0.2348 -3.3263
 6315SOL     OW30403   2.366   2.438   2.698  0.0327 -0.3145 -0.1478
 6315SOL    HW130404   2.394   2.424   2.788 -0.7362 -0.4214  0.0752
 6315SOL    HW230405   2.405   2.523   2.676  3.3624 -1.3776  1.6585
 6316SOL     OW30406   3.832   1.154   3.796 -0.3122 -0.1279  0.0606
 6316SOL    HW130407   3.858   1.114   3.713  2.6579  0.0391  0.9028
 6316SOL    HW230408   3.912   1.163   3.848 -0.4326 -0.0464  0.2312
 6317SOL     OW30409   0.516   3.973   3.139 -0.3262  0.0665 -0.6023
 6317SOL    HW130410   0.593   4.023   3.112  1.8681 -2.4380  1.0250
 6317SOL    HW230411   0.536   3.962   3.232 -2.7764 -1.1276 -0.2384
 6318SOL     OW30412   1.192   4.226   6.013  0.1727  0.5648 -0.0116
 6318SOL    HW130413   1.265   4.232   5.952  0.9982 -3.2885  0.5524
 6318SOL    HW230414   1.177   4.134   5.991 -1.3638  1.3030 -1.9513
 6319SOL     OW30415   3.134   2.499  14.554 -0.8114  0.0311 -0.0506
 6319SOL    HW130416   3.136   2.444  14.475  0.7849  2.5788 -1.7739
 6319SOL    HW230417   3.227   2.507  14.577 -0.2194 -1.7973 -1.7635
 6320SOL     OW30418   1.572   2.508   2.214 -0.5994  0.0961 -0.3596
 6320SOL    HW130419   1.629   2.445   2.256  0.9703  3.3795  2.4854
 6320SOL    HW230420   1.503   2.455   2.174 -0.7516  0.6005 -0.7849
 6321SOL     OW30421   4.659   0.403   7.014  1.0863  0.1326  0.2177
 6321SOL    HW130422   4.603   0.456   7.070  1.4619  1.3251 -0.5234
 6321SOL    HW230423   4.645   0.455   6.935 -0.5175 -1.6507 -0.6618
 6322SOL     OW30424   1.085   1.446   7.081  0.4525 -0.1606  0.3296
 6322SOL    HW130425   1.166   1.496   7.094 -0.5605  1.0568  1.9233
 6322SOL    HW230426   1.124   1.378   7.026 -0.2376  0.6385 -1.1516
 6323SOL     OW30427   4.209   1.088   2.939 -0.1079 -0.1045 -0.4546
 6323SOL    HW130428   4.247   1.132   2.863 -2.5221 -0.0628 -1.6358
 6323SOL    HW230429   4.134   1.057   2.889 -1.1094  0.1715  0.8900
 6324SOL     OW30430   1.835   3.431   3.564 -0.0506 -0.0207 -0.8812
 6324SOL    HW130431   1.908   3.398   3.513  1.5906  1.6670  0.3777
 6324SOL    HW230432   1.831   3.527   3.555 -1.3802 -0.2318 -2.7563
 6325SOL     OW30433   0.011   4.513  14.564  0.7215  0.2555 -0.0408
 6325SOL    HW130434   0.085   4.452  14.555 -0.6843 -1.4724 -0.0455
 6325SOL    HW230435   4.710   4.514  14.472 -2.7343 -1.6403  0.9454
 6326SOL     OW30436   0.706   1.293  11.878  0.4020  0.2222 -0.2561
 6326SOL    HW130437   0.754   1.359  11.827 -0.8785  0.5824 -0.9895
 6326SOL    HW230438   0.627   1.280  11.826  0.0901  1.0582  0.0036
 6327SOL     OW30439   1.461   1.385   7.794 -0.2508 -0.0418  0.3933
 6327SOL    HW130440   1.383   1.435   7.819 -0.6836 -0.6594  0.2666
 6327SOL    HW230441   1.467   1.382   7.699  1.1317 -1.0885  0.5164
 6328SOL     OW30442   3.020   2.844  14.021  0.2194  0.3897 -0.6538
 6328SOL    HW130443   3.076   2.789  14.076 -0.9532  0.6720  0.8259
 6328SOL    HW230444   2.993   2.783  13.953 -1.7467  0.3043  0.2070
 6329SOL     OW30445   1.308   0.186   6.751 -0.1222 -0.1331 -0.5405
 6329SOL    HW130446   1.340   0.266   6.793  0.1280  0.7865 -2.4900
 6329SOL    HW230447   1.236   0.221   6.698 -0.6803 -1.0964 -0.4370
 6330SOL     OW30448   0.552   1.000   4.370 -0.5947 -0.1037 -0.4098
 6330SOL    HW130449   0.625   1.062   4.376 -1.5366  0.7452  2.2607
 6330SOL    HW230450   0.522   0.997   4.460 -1.5459  0.9362 -0.6894
 6331SOL     OW30451   3.122   2.540   3.077 -0.1823 -0.2404  0.5669
 6331SOL    HW130452   3.198   2.486   3.059 -0.4096 -0.4378  0.2124
 6331SOL    HW230453   3.052   2.475   3.067  0.2739 -1.0510  2.6043
 6332SOL     OW30454   1.683   0.767   5.332  0.3704  0.4769 -0.4902
 6332SOL    HW130455   1.626   0.830   5.288  0.8162  2.3281  1.6487
 6332SOL    HW230456   1.769   0.796   5.301  0.4825 -0.1757 -0.7903
 6333SOL     OW30457   2.493   4.115   7.612  0.1336 -0.0632 -0.0447
 6333SOL    HW130458   2.528   4.204   7.602 -2.2227  0.8435 -0.1652
 6333SOL    HW230459   2.456   4.102   7.525  1.0937 -0.8598 -0.3383
 6334SOL     OW30460   2.676   1.674   6.987  0.6229  0.3646  0.8463
 6334SOL    HW130461   2.758   1.720   6.972  0.2970  0.1817 -1.4678
 6334SOL    HW230462   2.630   1.726   7.054 -0.5157  0.4293  0.0217
 6335SOL     OW30463   3.467   1.604   3.078  0.3902 -0.2266 -0.1164
 6335SOL    HW130464   3.557   1.634   3.067  0.1174  0.9283  0.6581
 6335SOL    HW230465   3.409   1.669   3.038 -2.1042 -2.8532 -0.7863
 6336SOL     OW30466   0.180   3.217   3.746  0.2953 -0.0317  0.1650
 6336SOL    HW130467   0.224   3.276   3.807 -0.2424 -1.4204  1.8846
 6336SOL    HW230468   0.249   3.157   3.720 -0.8328 -0.9925 -0.5982
 6337SOL     OW30469   3.907   3.855   7.875  0.2726 -0.0929  0.2716
 6337SOL    HW130470   3.987   3.861   7.823  0.5297  0.1940  0.6966
 6337SOL    HW230471   3.847   3.880   7.804  0.3811 -0.4967  0.0410
 6338SOL     OW30472   0.772   3.638  10.584  0.6039  0.2712 -0.0507
 6338SOL    HW130473   0.697   3.625  10.525 -0.0860  1.3490  0.5951
 6338SOL    HW230474   0.843   3.655  10.522 -1.5729 -0.2178 -2.7417
 6339SOL     OW30475   1.132   2.216   7.296 -0.4117 -0.3792 -0.6785
 6339SOL    HW130476   1.128   2.152   7.367 -3.1053 -0.5076 -0.9364
 6339SOL    HW230477   1.225   2.239   7.294 -0.3458 -0.4239  1.5479
 6340SOL     OW30478   3.728   0.812   2.637 -0.4725  0.1722 -0.1117
 6340SOL    HW130479   3.739   0.727   2.596 -2.4976  0.5393 -1.4253
 6340SOL    HW230480   3.820   0.840   2.642 -0.6998  0.6633  1.5081
 6341SOL     OW30481   2.834   3.149   2.508  0.1264 -0.0886  0.1148
 6341SOL    HW130482   2.748   3.118   2.537  0.0619 -0.8067 -0.8626
 6341SOL    HW230483   2.891   3.079   2.540  1.8557  1.2778  0.0413
 6342SOL     OW30484   1.929   4.021   3.268  0.8605 -0.1160 -0.0553
 6342SOL    HW130485   1.974   4.081   3.328  1.8275  0.2867 -1.1820
 6342SOL    HW230486   1.845   4.004   3.311  0.5729 -0.3823 -0.7330
 6343SOL     OW30487   2.550   2.184  10.444  0.0550 -0.3178 -0.1097
 6343SOL    HW130488   2.587   2.207  10.359 -0.1212 -2.6818 -0.8358
 6343SOL    HW230489   2.577   2.092  10.439  0.2183 -0.2956  0.3652
 6344SOL     OW30490   2.272   1.439   8.948 -0.4848 -0.2405  0.3477
 6344SOL    HW130491   2.230   1.517   8.911 -2.4601 -1.3701  0.1910
 6344SOL    HW230492   2.321   1.482   9.019  0.7610  0.9702 -1.2448
 6345SOL     OW30493   2.057   2.016   2.579  0.7197  0.0497 -0.0347
 6345SOL    HW130494   2.127   2.030   2.642  0.8758  0.7103 -0.3561
 6345SOL    HW230495   2.046   2.108   2.557 -0.3369 -0.4567 -1.6168
 6346SOL     OW30496   0.745   0.933   4.859 -0.4702  0.4379  0.3695
 6346SOL    HW130497   0.790   0.881   4.793 -1.2361 -1.2298  1.1447
 6346SOL    HW230498   0.800   1.010   4.846 -1.2570  1.0389  0.6085
 6347SOL     OW30499   4.673   1.784   1.059 -0.2413  0.2542  0.3836
 6347SOL    HW130500   4.594   1.732   1.073  0.0577 -0.8783 -2.3332
 6347SOL    HW230501   4.711   1.777   1.146 -0.4297  0.5613  0.4949
 6348SOL     OW30502   4.251   3.506  16.790  0.3959 -0.2752  0.2986
 6348SOL    HW130503   4.175   3.466  16.831 -0.8404  1.5541 -0.1921
 6348SOL    HW230504   4.227   3.507  16.697 -0.1739  2.4718  0.4648
 6349SOL     OW30505   1.494   2.643   0.565  0.3405  0.1794 -0.3393
 6349SOL    HW130506   1.555   2.593   0.619  1.5310  0.2756 -1.5976
 6349SOL    HW230507   1.436   2.576   0.528  0.6246 -1.3442  1.9683
 6350SOL     OW30508   2.790   2.807   1.286  0.4180 -0.2641 -0.6655
 6350SOL    HW130509   2.698   2.783   1.291  0.7189 -1.1128  0.8767
 6350SOL    HW230510   2.797   2.865   1.362 -1.4168  0.9073 -1.3890
 6351SOL     OW30511   0.864   3.708   0.325 -0.3053 -0.3419  0.1014
 6351SOL    HW130512   0.852   3.658   0.245  2.4973 -2.7880  1.2150
 6351SOL    HW230513   0.948   3.682   0.362  0.4613  0.0629 -1.3446
 6352SOL     OW30514   0.604   1.708   5.509 -0.1369  0.0249 -0.3473
 6352SOL    HW130515   0.579   1.620   5.481 -1.1715  0.0106  0.5963
 6352SOL    HW230516   0.590   1.692   5.602 -0.4295  2.8458  0.1036
 6353SOL     OW30517   3.664   1.411  15.415  0.3944  0.6726 -0.4804
 6353SOL    HW130518   3.626   1.390  15.330 -0.3510 -2.3366  0.5884
 6353SOL    HW230519   3.754   1.429  15.386  1.4879 -0.2493  2.3000
 6354SOL     OW30520   4.205   2.530   2.244  0.0707  0.0302  0.3185
 6354SOL    HW130521   4.165   2.591   2.182 -0.6235 -0.8007 -0.0486
 6354SOL    HW230522   4.136   2.536   2.310  0.2321  1.3982  0.3644
 6355SOL     OW30523   2.072   2.202   3.553 -0.6776 -0.4361  0.2012
 6355SOL    HW130524   2.164   2.179   3.536  0.6623  2.6538  3.3322
 6355SOL    HW230525   2.031   2.120   3.524 -1.8052  0.2373 -0.0963
 6356SOL     OW30526   2.885   1.554   8.656 -0.6744  0.1741 -0.0131
 6356SOL    HW130527   2.965   1.602   8.680 -0.1299 -0.8033  0.1052
 6356SOL    HW230528   2.815   1.606   8.695  1.7700  3.5647 -0.1077
 6357SOL     OW30529   3.857   4.147  14.513 -0.3519 -0.4726 -0.2845
 6357SOL    HW130530   3.787   4.094  14.478  0.1508 -1.9149  0.8905
 6357SOL    HW230531   3.891   4.093  14.585  1.5588  0.3601 -0.5525
 6358SOL     OW30532   3.835   0.474  17.189 -0.2531  0.1054 -0.5762
 6358SOL    HW130533   3.880   0.470  17.273  0.5083 -2.0574 -1.0826
 6358SOL    HW230534   3.815   0.382  17.168  1.9395 -0.9597  1.9886
 6359SOL     OW30535   1.411   4.511   4.612 -0.6704 -0.3135 -0.6695
 6359SOL    HW130536   1.417   4.589   4.667 -0.3735 -0.7090 -0.1469
 6359SOL    HW230537   1.382   4.448   4.678 -0.1566 -1.4115 -1.4813
 6360SOL     OW30538   2.085   4.087  15.099  0.6554  0.3133 -0.3645
 6360SOL    HW130539   2.057   3.998  15.075  0.5520  1.2492 -3.6557
 6360SOL    HW230540   2.158   4.070  15.160 -0.2117 -1.3822  0.2124
 6361SOL     OW30541   4.401   1.607  15.017  0.2447  0.2422 -0.5555
 6361SOL    HW130542   4.389   1.512  15.010  0.3205  0.2121 -0.2787
 6361SOL    HW230543   4.459   1.614  15.093  3.6542 -0.4867 -3.0959
 6362SOL     OW30544   3.558   4.161   5.680  0.1593 -0.2542  0.1348
 6362SOL    HW130545   3.637   4.115   5.654 -0.6834 -0.7213 -1.6291
 6362SOL    HW230546   3.552   4.237   5.622  1.5758  0.6824  1.2223
 6363SOL     OW30547   0.265   1.201  16.106  0.0134  0.3407 -0.2421
 6363SOL    HW130548   0.257   1.125  16.164  0.0049  0.9805  0.5990
 6363SOL    HW230549   0.314   1.176  16.028 -0.0388 -1.3569  0.2835
 6364SOL     OW30550   4.526   3.330   8.640  0.2225 -0.2557  0.3107
 6364SOL    HW130551   4.588   3.306   8.709 -0.9944  0.1066  1.5131
 6364SOL    HW230552   4.446   3.314   8.690  0.3472 -2.1128 -0.0858
 6365SOL     OW30553   0.785   4.597   4.284 -0.0870  0.3340  0.2907
 6365SOL    HW130554   0.787   4.637   4.197 -0.4859 -0.2896 -0.0101
 6365SOL    HW230555   0.691   4.605   4.299 -0.1383  2.5955 -1.2981
 6366SOL     OW30556   2.932   2.124   5.043  0.0122 -0.1792  0.3743
 6366SOL    HW130557   3.001   2.179   5.006 -1.1104  0.3883 -0.8939
 6366SOL    HW230558   2.972   2.100   5.126  0.7074  0.3184  0.1851
 6367SOL     OW30559   3.241   2.716   6.632 -0.8486 -0.1293  0.5722
 6367SOL    HW130560   3.225   2.734   6.539 -0.1296 -0.9896  0.2820
 6367SOL    HW230561   3.256   2.807   6.656 -2.5328  0.2311  0.2486
 6368SOL     OW30562   1.761   3.475   2.401 -0.3280 -0.5657  0.5815
 6368SOL    HW130563   1.746   3.380   2.402 -0.6679 -0.5284 -1.1340
 6368SOL    HW230564   1.752   3.491   2.308  2.5568 -0.8390  0.2392
 6369SOL     OW30565   4.624   2.636  17.054 -0.0571  0.0860 -0.8939
 6369SOL    HW130566   4.672   2.713  17.024 -0.6809  0.4253 -1.0098
 6369SOL    HW230567   4.622   2.660  17.147  0.6279  0.0902 -0.8780
 6370SOL     OW30568   3.597   0.637  11.522  0.0237  0.1884 -0.3666
 6370SOL    HW130569   3.667   0.630  11.586  0.5493 -2.2065 -1.1991
 6370SOL    HW230570   3.525   0.585  11.558 -0.7263  0.2134 -1.7876
 6371SOL     OW30571   0.573   1.745   1.895 -0.5435 -0.5558  0.0666
 6371SOL    HW130572   0.590   1.793   1.815 -2.2148 -1.6055 -0.9201
 6371SOL    HW230573   0.609   1.658   1.875  2.4710  1.0398 -1.3749
 6372SOL     OW30574   2.724   1.897   0.936  0.1074  0.5262 -0.0981
 6372SOL    HW130575   2.759   1.909   1.025 -2.8356 -0.5235  1.2145
 6372SOL    HW230576   2.738   1.804   0.920 -0.3723  0.0936  1.9830
 6373SOL     OW30577   0.586   2.416   6.430  0.0082  0.0465  0.3200
 6373SOL    HW130578   0.543   2.337   6.462  1.5079 -0.1956  1.7636
 6373SOL    HW230579   0.518   2.482   6.442  1.0396  0.6612  2.7893
 6374SOL     OW30580   2.611   3.934   8.714 -0.0153 -0.0104  1.0912
 6374SOL    HW130581   2.545   3.874   8.749 -1.9253  2.6465  2.0278
 6374SOL    HW230582   2.612   3.913   8.620  0.6414 -2.4448  1.6506
 6375SOL     OW30583   0.425   4.195   9.279  0.0773  0.2996  0.6079
 6375SOL    HW130584   0.506   4.173   9.232  0.2698 -0.1190  1.1451
 6375SOL    HW230585   0.447   4.194   9.372 -1.3095  0.6421  0.9298
 6376SOL     OW30586   3.082   2.063   2.350 -0.4468  0.6940 -0.2208
 6376SOL    HW130587   3.110   2.153   2.369  2.0537  0.0722 -1.1185
 6376SOL    HW230588   3.114   2.052   2.261 -0.6276 -2.0855  0.0700
 6377SOL     OW30589   0.032   4.212   8.154 -0.3739  0.0529 -0.0708
 6377SOL    HW130590   4.724   4.227   8.242 -0.0009  0.0241  0.0791
 6377SOL    HW230591   0.100   4.150   8.178  0.9810  1.1998 -0.9543
 6378SOL     OW30592   4.308   1.072  17.023 -0.2208 -0.1965 -0.4313
 6378SOL    HW130593   4.293   1.155  17.070  1.5948 -0.4381  0.5810
 6378SOL    HW230594   4.307   1.106  16.933 -2.3017 -0.5436 -0.5354
 6379SOL     OW30595   0.754   4.232   2.380  0.4219  0.0383 -0.5564
 6379SOL    HW130596   0.691   4.160   2.378  1.6222 -1.0502  1.6172
 6379SOL    HW230597   0.746   4.264   2.290  2.9024  0.8219 -0.5123
 6380SOL     OW30598   1.017   0.423   6.794  0.3004 -0.0581  0.1980
 6380SOL    HW130599   0.934   0.454   6.830  2.0345 -0.1033  4.2022
 6380SOL    HW230600   1.018   0.329   6.816 -0.0739  0.6383  3.1577
 6381SOL     OW30601   4.401   0.206   7.343  0.1395  0.3191  0.3655
 6381SOL    HW130602   4.332   0.272   7.333 -1.1479 -0.9467  0.8151
 6381SOL    HW230603   4.409   0.199   7.438  1.1209 -0.7126  0.1981
 6382SOL     OW30604   1.712   3.642   5.701 -0.0352 -0.3562  0.0048
 6382SOL    HW130605   1.700   3.720   5.756 -0.8275 -0.0654 -0.5842
 6382SOL    HW230606   1.805   3.645   5.682  0.0654  0.7745  0.6539
 6383SOL     OW30607   1.336   0.917  12.648 -0.5022 -0.2597  0.4155
 6383SOL    HW130608   1.429   0.934  12.665 -0.3392 -0.6196 -0.0908
 6383SOL    HW230609   1.339   0.923  12.553  3.5534  0.1704  0.5388
 6384SOL     OW30610   0.631   3.949   8.916 -0.8177 -0.2525  0.0068
 6384SOL    HW130611   0.589   3.871   8.953  1.5151 -1.2516  0.5633
 6384SOL    HW230612   0.683   3.918   8.842 -0.0184  0.4997  0.2499
 6385SOL     OW30613   3.687   4.024  17.224  0.4405  0.2433 -0.3924
 6385SOL    HW130614   3.772   4.064  17.241  0.4164  0.2938 -0.3914
 6385SOL    HW230615   3.685   3.968  17.146  0.6653  1.0727 -0.9863
 6386SOL     OW30616   3.760   2.797  17.462 -0.4547  0.0167  0.2081
 6386SOL    HW130617   3.731   2.830  17.548  0.1810 -2.2109  1.2804
 6386SOL    HW230618   3.761   2.886  17.428  0.8240 -0.1469 -0.1676
 6387SOL     OW30619   1.144   0.746   8.909  0.0128  0.8196  0.2566
 6387SOL    HW130620   1.132   0.781   8.821  0.1790  1.0193  0.3122
 6387SOL    HW230621   1.076   0.680   8.914  1.3761 -0.5413  0.7330
 6388SOL     OW30622   4.635   4.299   9.695 -0.3302 -0.0185 -0.2488
 6388SOL    HW130623   4.607   4.220   9.648  0.9211 -0.9841  0.6436
 6388SOL    HW230624   4.643   4.362   9.623  1.2353 -1.0396 -0.9733
 6389SOL     OW30625   3.065   2.436  10.409  0.2633 -0.3962 -0.2043
 6389SOL    HW130626   3.061   2.531  10.420  0.3985 -0.1419 -2.2527
 6389SOL    HW230627   3.057   2.428  10.314  1.9232  0.8687 -0.4487
 6390SOL     OW30628   2.289   1.167  14.482  0.1644  0.6467 -0.1778
 6390SOL    HW130629   2.278   1.258  14.454 -2.2758  0.3216 -0.2796
 6390SOL    HW230630   2.212   1.118  14.454  0.6375 -0.0133 -0.3323
 6391SOL     OW30631   0.477   0.746  10.901  0.0225 -0.3571 -0.2610
 6391SOL    HW130632   0.475   0.793  10.984 -2.2105  0.9259 -1.0395
 6391SOL    HW230633   0.465   0.817  10.837 -3.4962 -0.0110  0.8118
 6392SOL     OW30634   0.362   1.582   3.752  0.0706 -0.6963  0.4058
 6392SOL    HW130635   0.304   1.531   3.696 -0.6601  0.4680  0.0959
 6392SOL    HW230636   0.357   1.538   3.837 -2.2504 -1.7191 -0.2797
 6393SOL     OW30637   1.841   3.246  11.514 -0.4717  0.6991  0.4646
 6393SOL    HW130638   1.918   3.215  11.466 -0.6325  0.1887  0.5403
 6393SOL    HW230639   1.778   3.261  11.443  0.7440  1.8678 -0.3770
 6394SOL     OW30640   2.375   0.323   5.524 -0.5803 -0.8164 -0.4975
 6394SOL    HW130641   2.412   0.274   5.450 -1.3935 -3.4447  0.8249
 6394SOL    HW230642   2.324   0.391   5.482 -0.0142 -0.2914 -0.3294
 6395SOL     OW30643   2.277   3.384   4.454  0.3708 -0.2093  0.1011
 6395SOL    HW130644   2.317   3.421   4.533 -0.4084 -0.2132  0.4975
 6395SOL    HW230645   2.346   3.334   4.412 -1.0227 -1.6161 -0.5304
 6396SOL     OW30646   2.228   3.902   0.506  0.1052  0.3416 -0.0139
 6396SOL    HW130647   2.206   3.826   0.452 -2.5813  1.9681 -1.2334
 6396SOL    HW230648   2.303   3.858   0.546  0.3763  0.4811 -0.3765
 6397SOL     OW30649   3.227   2.348   6.393 -0.5952 -0.1529  0.0715
 6397SOL    HW130650   3.234   2.384   6.482  1.5153 -0.6792  0.1168
 6397SOL    HW230651   3.270   2.263   6.401  1.5093  0.9185  0.2108
 6398SOL     OW30652   2.758   0.460   8.896 -0.1512  0.1027  0.6311
 6398SOL    HW130653   2.752   0.382   8.952  1.4484 -0.0048  0.6418
 6398SOL    HW230654   2.832   0.500   8.941 -0.1919 -0.3320  1.0926
 6399SOL     OW30655   0.080   1.624  13.627  0.1624 -0.2071  0.3239
 6399SOL    HW130656   0.060   1.637  13.720 -2.6277 -2.1159  0.0085
 6399SOL    HW230657   0.079   1.529  13.630 -1.1298 -0.2797 -1.9308
 6400SOL     OW30658   3.810   1.601  17.281 -0.3460  0.1474 -0.4651
 6400SOL    HW130659   3.736   1.555  17.242 -1.2705  0.1802  1.2455
 6400SOL    HW230660   3.832   1.678  17.229  0.6851 -0.1225 -0.4152
 6401SOL     OW30661   2.920   3.781   6.803 -0.1589  0.1663 -0.0327
 6401SOL    HW130662   3.007   3.743   6.803 -0.0710  0.3638 -0.2586
 6401SOL    HW230663   2.925   3.821   6.889  2.7010  0.1810 -0.2118
 6402SOL     OW30664   3.204   0.776   9.385  0.0973  0.2596 -0.3785
 6402SOL    HW130665   3.271   0.844   9.389  0.0800  0.1173  2.0689
 6402SOL    HW230666   3.160   0.807   9.464 -0.2277 -2.3678  0.4860
 6403SOL     OW30667   0.596   3.049   8.129 -0.1924 -0.5815  0.0993
 6403SOL    HW130668   0.561   3.131   8.166  1.7401 -0.0062  0.6362
 6403SOL    HW230669   0.605   3.073   8.037 -0.3827  1.8521  0.7211
 6404SOL     OW30670   4.353   1.049  16.663 -0.1256 -0.4850  0.2571
 6404SOL    HW130671   4.395   1.067  16.578  0.4359 -0.6155  0.5028
 6404SOL    HW230672   4.355   1.134  16.707 -1.4603 -0.2585 -0.1427
 6405SOL     OW30673   4.245   0.895   2.418 -0.0201  0.1616 -0.6706
 6405SOL    HW130674   4.307   0.914   2.347  0.5742  2.9742  0.6279
 6405SOL    HW230675   4.182   0.965   2.403  1.7442  1.5730 -1.4368
 6406SOL     OW30676   0.189   2.356  12.378 -0.2678  0.2162 -0.1769
 6406SOL    HW130677   0.260   2.305  12.339  0.0950 -0.2039  1.0164
 6406SOL    HW230678   0.120   2.344  12.313  1.3789  1.0141 -2.0925
 6407SOL     OW30679   1.179   4.149  11.275  0.5589  0.3776 -0.1319
 6407SOL    HW130680   1.185   4.102  11.359  1.6140 -0.3897 -0.6390
 6407SOL    HW230681   1.097   4.106  11.249  0.5388  0.2780  0.0924
 6408SOL     OW30682   0.764   2.543  15.944 -0.1101  0.0971 -0.1760
 6408SOL    HW130683   0.743   2.614  15.883  0.6462  0.6976  0.2460
 6408SOL    HW230684   0.807   2.590  16.016  1.6852  1.9667 -2.4687
 6409SOL     OW30685   2.989   4.283  17.267 -0.4532  0.6175 -0.6108
 6409SOL    HW130686   3.055   4.342  17.306  0.0214 -1.7998  2.2432
 6409SOL    HW230687   2.957   4.338  17.196 -0.8803  0.7434 -0.3212
 6410SOL     OW30688   0.506   3.474   4.126  0.0963 -0.3991 -0.3230
 6410SOL    HW130689   0.571   3.513   4.185 -0.7657 -1.0391  1.0452
 6410SOL    HW230690   0.495   3.541   4.058 -1.7054  0.0758  0.4293
 6411SOL     OW30691   1.256   2.444   2.435  0.3846  0.0410  0.1678
 6411SOL    HW130692   1.344   2.436   2.470  1.2373 -0.0319 -1.9993
 6411SOL    HW230693   1.264   2.407   2.347 -0.5029 -0.8481  0.4599
 6412SOL     OW30694   0.738   1.686   9.021 -0.0205  0.4744  0.4452
 6412SOL    HW130695   0.746   1.776   9.052  0.6006 -0.0394  1.8162
 6412SOL    HW230696   0.830   1.659   9.010 -0.0130  0.4662  0.5257
 6413SOL     OW30697   0.578   3.623  10.381 -0.2765 -0.5112  0.1275
 6413SOL    HW130698   0.497   3.577  10.405 -1.2401  1.3116  0.3638
 6413SOL    HW230699   0.610   3.552  10.326  0.1956 -0.6068  0.5257
 6414SOL     OW30700   2.273   0.962   3.569  0.2600  0.0070  0.4394
 6414SOL    HW130701   2.283   0.870   3.545  0.0957 -0.4549  2.1339
 6414SOL    HW230702   2.364   0.990   3.564  0.3614 -0.4021  0.0131
 6415SOL     OW30703   0.947   1.893   8.000 -0.2521 -0.6711  0.0893
 6415SOL    HW130704   0.951   1.828   7.930  0.8769 -2.6633  2.0054
 6415SOL    HW230705   0.972   1.833   8.071 -1.3517  0.9388  1.8523
 6416SOL     OW30706   3.243   2.767   1.358  0.3830  0.1865 -0.1801
 6416SOL    HW130707   3.199   2.850   1.377  2.0480  0.9752  0.2348
 6416SOL    HW230708   3.164   2.727   1.323  0.7021 -0.3794 -0.2554
 6417SOL     OW30709   0.609   1.419   4.607  0.2541 -0.2680  0.4463
 6417SOL    HW130710   0.624   1.359   4.680 -0.4468 -0.3645  0.5081
 6417SOL    HW230711   0.579   1.501   4.647 -0.4283 -0.8341  1.0921
 6418SOL     OW30712   2.226   2.002   7.691  0.4057  0.3650  0.5201
 6418SOL    HW130713   2.222   1.980   7.784 -0.8545 -0.1101  0.3641
 6418SOL    HW230714   2.131   2.009   7.677  0.6621  4.6401  0.9402
 6419SOL     OW30715   2.285   0.115   5.258  0.1359 -0.4222 -0.4301
 6419SOL    HW130716   2.329   0.036   5.228 -1.0603 -0.8234 -1.0870
 6419SOL    HW230717   2.194   0.090   5.245  0.0757  0.3631 -1.5013
 6420SOL     OW30718   4.484   2.582   1.959 -0.4401 -0.0012 -0.5135
 6420SOL    HW130719   4.441   2.497   1.945 -2.5236  0.7302  1.5489
 6420SOL    HW230720   4.561   2.559   2.010 -0.1649 -1.2796 -1.5032
 6421SOL     OW30721   0.764   0.317   1.424 -0.2425  0.4135  0.0876
 6421SOL    HW130722   0.681   0.353   1.391 -0.3901  1.9837  2.2100
 6421SOL    HW230723   0.753   0.236   1.473 -3.1136 -1.0745 -3.0699
 6422SOL     OW30724   3.922   4.478   5.784 -0.1653 -0.5486  0.0365
 6422SOL    HW130725   3.964   4.564   5.791 -0.8895 -0.3940  2.4659
 6422SOL    HW230726   3.968   4.431   5.853  0.0764 -1.7368 -0.9381
 6423SOL     OW30727   3.298   0.684   7.545 -0.1511  0.4126 -0.4761
 6423SOL    HW130728   3.365   0.753   7.546 -0.1485  0.4242 -1.3229
 6423SOL    HW230729   3.240   0.715   7.614 -0.0184  0.0203 -0.1858
 6424SOL     OW30730   3.001   1.247   8.906  0.1075  0.7764  0.3239
 6424SOL    HW130731   2.967   1.284   8.988 -0.0880  1.9620 -0.3054
 6424SOL    HW230732   3.020   1.161   8.944 -0.8679  2.4782  4.7198
 6425SOL     OW30733   2.691   4.678   8.266  0.0462 -0.1760  0.6567
 6425SOL    HW130734   2.656   0.038   8.242  1.0033 -0.6073 -2.2243
 6425SOL    HW230735   2.702   4.694   8.360 -2.1892  0.3179  0.8383
 6426SOL     OW30736   1.480   1.122  13.631 -0.4094  0.1196 -0.2922
 6426SOL    HW130737   1.455   1.207  13.669 -2.2983  0.2165 -1.7433
 6426SOL    HW230738   1.553   1.103  13.690 -0.3337  0.8397 -0.1577
 6427SOL     OW30739   0.374   3.131   9.170 -0.3703  0.7581  0.0232
 6427SOL    HW130740   0.314   3.075   9.219 -1.1376  0.8091 -0.8568
 6427SOL    HW230741   0.345   3.211   9.215 -0.5206  0.0893  1.1432
 6428SOL     OW30742   3.006   2.247   5.436  0.2961 -0.5103 -0.5307
 6428SOL    HW130743   3.000   2.152   5.437  0.7928 -0.5464 -1.0878
 6428SOL    HW230744   2.916   2.278   5.430  0.9724  1.7670  1.1501
 6429SOL     OW30745   2.306   3.625   2.968 -0.0660 -0.4951 -0.0172
 6429SOL    HW130746   2.313   3.624   3.063 -1.1471  0.0682  0.0656
 6429SOL    HW230747   2.383   3.677   2.943 -1.7081  2.1551  0.4898
 6430SOL     OW30748   4.413   3.357  16.489  0.3147 -0.6310 -0.3994
 6430SOL    HW130749   4.452   3.428  16.439  2.4780 -1.8804 -0.4589
 6430SOL    HW230750   4.318   3.368  16.477  0.9084  2.8753 -1.7169
 6431SOL     OW30751   1.669   0.973   2.320  0.1216 -0.1357  0.0588
 6431SOL    HW130752   1.727   0.938   2.387  0.4790 -0.1989 -0.2843
 6431SOL    HW230753   1.688   0.909   2.252 -1.9751  0.4259 -1.0547
 6432SOL     OW30754   0.432   1.352  13.260  0.2778  0.1413 -0.0265
 6432SOL    HW130755   0.406   1.271  13.304 -0.0350 -0.8381 -1.9823
 6432SOL    HW230756   0.357   1.392  13.215 -0.8403 -0.9985  0.8370
 6433SOL     OW30757   0.739   4.057   0.354 -0.0126  0.1654 -0.6693
 6433SOL    HW130758   0.688   4.093   0.282  0.7720 -1.9430 -2.2850
 6433SOL    HW230759   0.821   4.102   0.334  0.0536 -0.1079 -0.9980
 6434SOL     OW30760   0.373   4.627  12.541  0.1789 -0.0593 -0.0436
 6434SOL    HW130761   0.445   4.655  12.485  0.1159  0.1843  0.0007
 6434SOL    HW230762   0.309   4.601  12.474 -1.8827  1.6202  1.2554
 6435SOL     OW30763   0.929   3.614   8.514  0.1718  0.9051 -0.5381
 6435SOL    HW130764   0.999   3.673   8.487  0.7485 -0.5500 -2.1928
 6435SOL    HW230765   0.974   3.538   8.551  0.2111  0.6648 -1.0914
 6436SOL     OW30766   3.138   3.519   0.609  0.3499 -0.1230 -0.0689
 6436SOL    HW130767   3.160   3.543   0.699 -0.5783 -0.1367  0.1620
 6436SOL    HW230768   3.135   3.605   0.568 -0.3420 -1.0463 -1.9369
 6437SOL     OW30769   3.071   0.457   8.903  0.3438 -0.3069 -0.6176
 6437SOL    HW130770   3.066   0.372   8.947 -4.0775  0.8209  1.0800
 6437SOL    HW230771   3.075   0.426   8.812 -1.1932  0.4251 -0.9400
 6438SOL     OW30772   3.400   2.979   5.049 -0.4751 -0.5107  0.4097
 6438SOL    HW130773   3.483   3.012   5.014 -1.4956  1.1352 -0.4749
 6438SOL    HW230774   3.417   2.890   5.079 -1.8747 -0.9584 -0.1053
 6439SOL     OW30775   1.014   3.019   3.569 -0.4630 -0.6344 -0.5138
 6439SOL    HW130776   0.943   3.012   3.505  0.6268  0.6021 -1.8521
 6439SOL    HW230777   0.969   3.078   3.629  0.0593 -0.3696 -0.3850
 6440SOL     OW30778   3.586   2.523  17.209  0.0615 -0.1425  0.2518
 6440SOL    HW130779   3.561   2.544  17.299 -0.9810 -0.0181 -0.0566
 6440SOL    HW230780   3.513   2.565  17.163 -0.8910 -1.1865  0.8150
 6441SOL     OW30781   4.433   0.624   9.186  0.2155 -0.0877 -0.0385
 6441SOL    HW130782   4.478   0.696   9.231  0.2693 -2.2762  3.4524
 6441SOL    HW230783   4.489   0.555   9.222  0.2799  0.9869  1.9213
 6442SOL     OW30784   1.667   4.564   8.398 -0.3582 -0.5058 -0.7244
 6442SOL    HW130785   1.621   4.498   8.450  1.3443 -0.3762  0.9306
 6442SOL    HW230786   1.601   4.633   8.389  0.4568  0.3674 -0.0717
 6443SOL     OW30787   3.076   3.623   8.579 -0.0771 -0.3359  0.3089
 6443SOL    HW130788   3.023   3.625   8.658 -0.9804 -1.3622 -0.2701
 6443SOL    HW230789   3.124   3.704   8.596  0.2277 -0.1847 -1.2229
 6444SOL     OW30790   4.151   2.367   6.237  0.6405  0.2515 -0.0797
 6444SOL    HW130791   4.099   2.290   6.261 -1.2891  1.5599 -0.0741
 6444SOL    HW230792   4.237   2.340   6.268  0.7124  0.8451  0.2336
 6445SOL     OW30793   0.309   0.463   3.701 -0.0764  0.0709  0.4059
 6445SOL    HW130794   0.327   0.461   3.795  1.8591  2.3572  0.0839
 6445SOL    HW230795   0.397   0.438   3.674  0.0039 -0.4186  1.1253
 6446SOL     OW30796   0.295   3.113   1.578 -0.6204 -0.5032 -0.3929
 6446SOL    HW130797   0.235   3.098   1.651 -0.2112 -1.4359 -0.2534
 6446SOL    HW230798   0.244   3.187   1.544 -0.0191  0.3652  0.5894
 6447SOL     OW30799   4.178   2.522  11.724  0.3023  0.1259 -0.3174
 6447SOL    HW130800   4.134   2.471  11.793  0.1028  0.6831 -0.0287
 6447SOL    HW230801   4.217   2.444  11.686  1.2808 -1.0476  3.0397
 6448SOL     OW30802   4.127   1.472   7.496  1.1069  0.4327  0.3097
 6448SOL    HW130803   4.114   1.395   7.440  3.1319  0.7909 -0.6352
 6448SOL    HW230804   4.150   1.433   7.581  0.6821 -0.8327 -0.1452
 6449SOL     OW30805   0.387   0.330   2.350  0.0193 -0.1599  0.5613
 6449SOL    HW130806   0.460   0.354   2.407 -0.5171 -1.2736  1.7010
 6449SOL    HW230807   0.332   0.286   2.414  1.5700 -2.4145  0.3238
 6450SOL     OW30808   0.176   3.898   5.830  0.0022  0.2008  0.4546
 6450SOL    HW130809   0.176   3.929   5.921  1.8084 -0.5602  0.6990
 6450SOL    HW230810   0.204   3.807   5.842  1.9950  0.8964  1.0688
 6451SOL     OW30811   4.579   1.873   2.000 -0.2554  0.2495 -0.1351
 6451SOL    HW130812   4.499   1.901   2.044 -1.0411 -0.8295 -0.8783
 6451SOL    HW230813   4.569   1.778   1.999 -1.1361  0.3482 -0.6473
 6452SOL     OW30814   1.433   2.790   3.782  0.0173  0.4929 -0.2445
 6452SOL    HW130815   1.420   2.856   3.714 -0.9739  0.3716 -0.1626
 6452SOL    HW230816   1.506   2.736   3.754 -0.9138 -0.6047 -0.5263
 6453SOL     OW30817   0.709   2.194  10.001  0.2147 -0.6154 -0.0779
 6453SOL    HW130818   0.697   2.281   9.963  1.0386 -1.1791 -1.6024
 6453SOL    HW230819   0.629   2.144   9.984 -2.1687  2.2277  2.8428
 6454SOL     OW30820   1.669   0.328   7.117 -0.0814  0.1816 -0.1105
 6454SOL    HW130821   1.598   0.357   7.059 -1.1119 -2.0368  0.0211
 6454SOL    HW230822   1.706   0.244   7.089  1.8155  1.2278 -0.7160
 6455SOL     OW30823   0.900   3.191   6.565 -0.0628  0.3801  0.2253
 6455SOL    HW130824   0.963   3.125   6.594  0.4991  0.4288 -0.8892
 6455SOL    HW230825   0.871   3.223   6.650 -1.0188 -1.0658  0.4430
 6456SOL     OW30826   1.291   3.537   8.407  0.7384  0.4613  0.0060
 6456SOL    HW130827   1.277   3.482   8.330 -0.1391 -0.6836  0.9687
 6456SOL    HW230828   1.359   3.495   8.460 -0.0367 -0.5744  0.1826
 6457SOL     OW30829   4.526   0.564  16.269  1.0772  0.1617 -0.2246
 6457SOL    HW130830   4.520   0.474  16.235  1.6749  0.4632 -1.1444
 6457SOL    HW230831   4.621   0.577  16.262  0.8065  0.5585 -3.2993
 6458SOL     OW30832   1.230   3.154   6.374 -0.3112  0.7245 -0.4754
 6458SOL    HW130833   1.309   3.179   6.421 -1.8304  1.1018  1.8565
 6458SOL    HW230834   1.255   3.174   6.284 -0.1760  0.7298 -0.4360
 6459SOL     OW30835   4.503   0.963   4.734  0.3923 -0.2300 -0.5793
 6459SOL    HW130836   4.463   0.906   4.669 -0.8288 -1.6013  1.3998
 6459SOL    HW230837   4.561   1.019   4.682  3.1728 -1.5417  1.1041
 6460SOL     OW30838   4.383   3.366   9.750 -0.1714 -0.6076  0.2245
 6460SOL    HW130839   4.321   3.323   9.691 -1.9789 -0.4181  1.9863
 6460SOL    HW230840   4.465   3.325   9.724  0.3542  0.1282  0.6891
 6461SOL     OW30841   2.758   1.654   7.861 -0.0476 -0.3585  0.1424
 6461SOL    HW130842   2.749   1.684   7.770 -2.2428 -1.4521 -0.0206
 6461SOL    HW230843   2.735   1.561   7.856 -0.7368 -0.1299 -1.1386
 6462SOL     OW30844   1.826   0.265  10.812 -0.1435  0.0521 -0.2111
 6462SOL    HW130845   1.851   0.347  10.769 -0.0531  0.4346  0.5693
 6462SOL    HW230846   1.795   0.294  10.898  1.9802 -2.7317  1.4805
 6463SOL     OW30847   1.501   4.444   5.269 -0.2344 -0.0254 -0.2454
 6463SOL    HW130848   1.533   4.533   5.282 -1.5766  0.4053  0.1314
 6463SOL    HW230849   1.530   4.430   5.179 -0.4734  0.4315 -0.3925
 6464SOL     OW30850   0.773   0.654   7.618 -0.1602 -0.1711  0.5649
 6464SOL    HW130851   0.864   0.660   7.648 -0.7480 -1.7601  2.6665
 6464SOL    HW230852   0.763   0.712   7.543  1.2323 -0.4689  0.1441
 6465SOL     OW30853   1.135   4.682   0.029 -0.3311 -0.3157  0.0545
 6465SOL    HW130854   1.074   0.006   0.084 -1.9401 -1.3312 -0.8016
 6465SOL    HW230855   1.177   4.622   0.091 -0.8501 -1.3766 -0.6300
 6466SOL     OW30856   3.720   2.322   5.782  0.1191  0.1293  0.7635
 6466SOL    HW130857   3.742   2.289   5.869 -1.7134 -1.3953  0.6242
 6466SOL    HW230858   3.805   2.300   5.743 -1.8635  0.1465 -3.5515
 6467SOL     OW30859   4.120   4.243   3.924  0.4557 -0.3961 -0.4299
 6467SOL    HW130860   4.184   4.276   3.987 -1.5105  1.6101  0.5031
 6467SOL    HW230861   4.099   4.319   3.870  1.3302  0.2148  0.0918
 6468SOL     OW30862   2.981   4.644  11.607 -0.0641 -0.3427 -0.8077
 6468SOL    HW130863   3.006   4.606  11.523 -0.5152  4.5738 -3.1596
 6468SOL    HW230864   2.889   4.620  11.611 -0.8230  2.5044 -1.3566
 6469SOL     OW30865   4.572   1.765  17.587  0.2372 -0.0921  0.2657
 6469SOL    HW130866   4.612   1.795  17.505  1.3930 -1.2446  0.4092
 6469SOL    HW230867   4.643   1.732  17.642 -0.3269 -1.8414 -0.0612
 6470SOL     OW30868   4.039   2.381   6.989  0.0956 -0.2585 -0.5673
 6470SOL    HW130869   4.121   2.429   6.978 -0.5247  0.9798  0.3963
 6470SOL    HW230870   3.990   2.446   7.038  0.9561 -0.4931  0.6118
 6471SOL     OW30871   0.247   2.759   9.677 -0.3221 -0.6242  0.5852
 6471SOL    HW130872   0.155   2.766   9.702 -0.5850 -0.1987 -0.5010
 6471SOL    HW230873   0.242   2.665   9.659  1.6885 -0.4916 -0.6661
 6472SOL     OW30874   1.277   3.595  14.547 -0.4831 -0.4800 -0.0960
 6472SOL    HW130875   1.204   3.549  14.505  0.6197 -2.3707  0.0595
 6472SOL    HW230876   1.345   3.534  14.519 -2.0353 -2.5259  0.5416
 6473SOL     OW30877   3.435   0.236   2.197 -0.3512 -0.1245  0.0758
 6473SOL    HW130878   3.494   0.311   2.188 -1.2075  0.6267  0.7310
 6473SOL    HW230879   3.395   0.258   2.282 -0.1617  4.7042 -1.0772
 6474SOL     OW30880   1.060   2.921   8.070 -0.1052 -0.4376  0.9340
 6474SOL    HW130881   1.000   2.960   8.006 -1.7688  1.6853  3.7512
 6474SOL    HW230882   1.141   2.968   8.050 -0.1016 -1.6701 -1.8995
 6475SOL     OW30883   3.952   2.956   2.278 -0.1618 -0.1764 -0.9576
 6475SOL    HW130884   3.873   2.983   2.231 -1.0946 -0.2964  0.5253
 6475SOL    HW230885   3.997   2.911   2.207 -1.5364  0.1707 -2.0470
 6476SOL     OW30886   0.499   4.428   8.255  0.1947  0.1876  0.0119
 6476SOL    HW130887   0.540   4.451   8.171 -0.3917  0.6336 -0.1457
 6476SOL    HW230888   0.438   4.357   8.236 -1.9661  2.0131  0.1040
 6477SOL     OW30889   3.491   2.697  16.141 -0.4046  0.4083 -0.2776
 6477SOL    HW130890   3.475   2.604  16.123  1.5218 -0.4047  2.2725
 6477SOL    HW230891   3.575   2.686  16.185 -1.0392 -0.8369  0.6267
 6478SOL     OW30892   3.981   3.122  12.613 -0.4673 -0.0481 -0.9974
 6478SOL    HW130893   3.975   3.100  12.706  1.0695 -0.1358 -0.9307
 6478SOL    HW230894   3.900   3.081  12.581 -0.2837  1.4040 -3.2790
 6479SOL     OW30895   0.980   1.434   5.468 -0.0002  0.2566  0.3604
 6479SOL    HW130896   0.959   1.407   5.379  0.0574 -1.4543  0.8748
 6479SOL    HW230897   1.041   1.507   5.452  0.1739  0.4531  1.9399
 6480SOL     OW30898   4.456   4.667  14.305  0.0756 -0.4901 -0.0933
 6480SOL    HW130899   4.519   4.596  14.323  1.8759  1.5437  1.7211
 6480SOL    HW230900   4.480   0.008  14.369 -1.2282 -0.8027  0.7284
 6481SOL     OW30901   3.750   2.020   6.429  0.7339 -0.3009 -0.5900
 6481SOL    HW130902   3.800   1.959   6.374  1.2899  0.8219 -1.3331
 6481SOL    HW230903   3.669   2.035   6.380  0.2483 -1.5760 -0.1778
 6482SOL     OW30904   3.822   1.932   3.988 -0.6162 -0.4251  0.6194
 6482SOL    HW130905   3.736   1.956   3.951  0.0258  0.8113 -0.0943
 6482SOL    HW230906   3.891   1.975   3.937 -1.0132 -0.1616  0.3003
 6483SOL     OW30907   3.394   2.321   3.705 -0.2516  0.4064 -0.0098
 6483SOL    HW130908   3.450   2.314   3.783 -0.4802 -1.6368 -0.0276
 6483SOL    HW230909   3.386   2.416   3.695 -0.1868  0.3830 -0.2821
 6484SOL     OW30910   3.061   3.589  17.164  0.1194 -0.5219 -0.1385
 6484SOL    HW130911   3.024   3.501  17.162 -0.6745 -0.1713 -0.6503
 6484SOL    HW230912   3.086   3.606  17.073 -1.6950 -1.4553 -0.8093
 6485SOL     OW30913   1.797   1.505   8.280  0.1448  0.0488 -0.1255
 6485SOL    HW130914   1.720   1.547   8.242  0.1989  0.5444  0.3125
 6485SOL    HW230915   1.853   1.582   8.271  0.3055 -0.0763 -0.1905
 6486SOL     OW30916   3.137   2.650   7.411 -0.1211 -0.0458 -0.4244
 6486SOL    HW130917   3.098   2.733   7.435 -1.2946 -0.5204 -0.6874
 6486SOL    HW230918   3.091   2.600   7.479  1.6870 -0.8089  0.2291
 6487SOL     OW30919   0.539   2.386  14.041 -0.9660  0.2627 -0.0380
 6487SOL    HW130920   0.499   2.352  13.961 -1.2611 -1.0209  0.6567
 6487SOL    HW230921   0.593   2.311  14.065 -0.9843 -0.5594 -2.5458
 6488SOL     OW30922   4.412   0.589  13.892 -0.1021 -0.0597 -0.1922
 6488SOL    HW130923   4.344   0.644  13.853 -2.1127 -1.8184  0.8588
 6488SOL    HW230924   4.463   0.564  13.815 -1.3342  0.7198 -1.2727
 6489SOL     OW30925   3.310   3.523   6.037  0.2784  0.9762  0.0694
 6489SOL    HW130926   3.387   3.466   6.041 -1.2021 -1.0388 -0.2706
 6489SOL    HW230927   3.340   3.595   6.093 -0.7668  1.7957 -0.4463
 6490SOL     OW30928   3.072   2.849   9.387 -0.2002  0.2447  0.3824
 6490SOL    HW130929   3.115   2.791   9.450 -1.5263  0.3059  1.3195
 6490SOL    HW230930   2.978   2.832   9.389  0.1155 -1.5549  0.2811
 6491SOL     OW30931   1.794   4.725   5.486  0.3427 -0.0240 -0.0601
 6491SOL    HW130932   1.823   4.688   5.403 -1.7592 -0.2911 -0.6722
 6491SOL    HW230933   1.798   4.648   5.543  1.4852  1.9575  2.5253
 6492SOL     OW30934   3.355   0.402   4.486 -0.0329  0.0489  0.2171
 6492SOL    HW130935   3.286   0.345   4.521 -1.9539  1.4906 -1.1815
 6492SOL    HW230936   3.388   0.354   4.410 -1.0861 -0.1433 -0.1255
 6493SOL     OW30937   3.265   4.211   2.083 -0.1837 -0.0845  0.6343
 6493SOL    HW130938   3.316   4.222   2.003 -0.0124  0.4068  0.8118
 6493SOL    HW230939   3.187   4.261   2.062 -0.0533  0.3154  1.1017
 6494SOL     OW30940   3.619   0.382   2.454  0.2559  0.2043  0.6084
 6494SOL    HW130941   3.599   0.444   2.524 -0.8216  0.3796  0.1379
 6494SOL    HW230942   3.591   0.422   2.372  2.2939  0.1782 -0.1089
 6495SOL     OW30943   4.375   3.645  10.027  0.6655 -0.3124  0.0244
 6495SOL    HW130944   4.306   3.594  10.068  1.6798 -0.0750  2.0345
 6495SOL    HW230945   4.410   3.578   9.969 -0.9568  0.3722 -1.7826
 6496SOL     OW30946   3.112   1.462   8.229  0.0580 -0.1565  0.1044
 6496SOL    HW130947   3.077   1.401   8.165  0.8137  0.7493 -1.1760
 6496SOL    HW230948   3.155   1.402   8.289  0.1051 -0.5808 -0.3550
 6497SOL     OW30949   2.340   0.601   9.589 -0.0852 -0.4924  0.1087
 6497SOL    HW130950   2.379   0.514   9.577  0.0351 -0.1944 -1.6643
 6497SOL    HW230951   2.399   0.636   9.656  0.5894  0.6674 -1.0922
 6498SOL     OW30952   3.589   1.728   1.631  0.0563 -0.3274 -0.2548
 6498SOL    HW130953   3.679   1.726   1.662 -0.4919 -1.9994  1.2542
 6498SOL    HW230954   3.561   1.780   1.707  2.6681 -1.3479  1.3855
 6499SOL     OW30955   4.042   4.590   6.229  0.2412  0.0545  0.0443
 6499SOL    HW130956   4.095   4.592   6.309 -0.9685  1.4230  0.8120
 6499SOL    HW230957   4.051   4.497   6.209  3.0255  0.7129 -1.6493
 6500SOL     OW30958   2.684   1.425   9.364 -0.0380  0.4585 -0.4127
 6500SOL    HW130959   2.593   1.438   9.391 -0.3753 -1.1217 -0.7557
 6500SOL    HW230960   2.686   1.502   9.308 -0.7151  2.1961  1.9656
 6501SOL     OW30961   0.007   0.356   5.738  0.1294 -0.2702  0.2003
 6501SOL    HW130962   0.077   0.319   5.685  0.7711  1.7856 -0.4001
 6501SOL    HW230963   4.657   0.306   5.706 -2.2707  1.8618  2.5409
 6502SOL     OW30964   2.687   2.177  14.130  0.0373  0.4611  0.0518
 6502SOL    HW130965   2.745   2.124  14.075  0.9081  0.6732  0.7552
 6502SOL    HW230966   2.718   2.267  14.119  1.1704 -0.1016 -1.2713
 6503SOL     OW30967   0.098   0.583  16.985  0.2687  0.0180  0.1111
 6503SOL    HW130968   0.016   0.629  17.004 -0.8552 -1.7627 -0.3659
 6503SOL    HW230969   0.130   0.639  16.914 -2.4794  1.9058  0.3700
 6504SOL     OW30970   3.765   1.040   2.836  0.0386  0.5343 -0.1820
 6504SOL    HW130971   3.858   1.052   2.856  0.6066 -1.9224 -1.4197
 6504SOL    HW230972   3.774   0.995   2.752 -1.8757 -1.6434  0.7771
 6505SOL     OW30973   3.248   0.878   7.356 -0.2630  0.2607 -0.3310
 6505SOL    HW130974   3.270   0.787   7.374  1.5403  0.7460 -0.1074
 6505SOL    HW230975   3.300   0.891   7.277 -0.6780  0.0816 -0.6296
 6506SOL     OW30976   1.122   2.199  10.135 -0.7590  0.7169  0.5773
 6506SOL    HW130977   1.187   2.135  10.106 -0.6744  1.4847 -0.9091
 6506SOL    HW230978   1.061   2.146  10.186 -0.6154 -0.8510 -0.8852
 6507SOL     OW30979   2.955   0.522   3.955  0.3352  0.0172 -0.4420
 6507SOL    HW130980   2.893   0.590   3.930 -0.7319  0.0613  2.4127
 6507SOL    HW230981   3.042   0.563   3.955 -0.1836  1.1214 -0.8771
 6508SOL     OW30982   3.926   2.167   7.188  0.0994  0.1064  0.1376
 6508SOL    HW130983   3.987   2.161   7.115  0.4942  0.1478  0.4617
 6508SOL    HW230984   3.979   2.233   7.234  0.1221 -1.4467  2.3269
 6509SOL     OW30985   3.500   0.167   6.655  0.3700 -0.0192  0.0751
 6509SOL    HW130986   3.520   0.075   6.670 -0.1834 -0.0492  0.6093
 6509SOL    HW230987   3.407   0.171   6.633 -0.0612  0.5668  2.0525
 6510SOL     OW30988   1.067   2.982   6.230 -0.0143 -0.0669 -0.0834
 6510SOL    HW130989   1.094   2.893   6.252 -1.0033 -0.7791 -1.7520
 6510SOL    HW230990   1.126   3.034   6.285 -0.7370  0.4000  0.2430
 6511SOL     OW30991   1.229   4.353   9.526  0.6916 -0.2159 -0.7546
 6511SOL    HW130992   1.135   4.345   9.507  0.2114 -0.5785  1.7280
 6511SOL    HW230993   1.234   4.375   9.619 -0.0630  0.1063 -0.7922
 6512SOL     OW30994   0.515   1.654  10.661 -0.2483  0.9469 -0.1231
 6512SOL    HW130995   0.531   1.688  10.749 -0.4868 -1.2146  0.7601
 6512SOL    HW230996   0.484   1.565  10.682  3.1928 -0.1382  0.3190
 6513SOL     OW30997   1.911   0.682   6.909  0.2316  0.3390 -0.2807
 6513SOL    HW130998   1.894   0.746   6.841  3.7595  1.7994  0.2173
 6513SOL    HW230999   1.957   0.610   6.865 -0.6642  0.4327 -1.3499
 6514SOL     OW31000   4.211   4.239  17.441  0.3171 -0.4181 -0.3502
 6514SOL    HW131001   4.218   4.145  17.422  0.8086  0.1323 -2.9130
 6514SOL    HW231002   4.144   4.243  17.509  0.5336  2.4954 -0.3139
 6515SOL     OW31003   2.612   1.985  13.470 -0.0867 -0.2063  0.5378
 6515SOL    HW131004   2.539   1.995  13.410  0.2836  1.4898  0.3642
 6515SOL    HW231005   2.573   2.013  13.553  0.6277  0.3632  0.6791
 6516SOL     OW31006   1.151   1.404   6.534  0.0380  0.1585 -0.0087
 6516SOL    HW131007   1.239   1.374   6.556 -0.3093 -0.1756  0.9539
 6516SOL    HW231008   1.104   1.327   6.568 -0.7031  0.0482 -1.2799
 6517SOL     OW31009   3.293   3.854   8.577  0.3621  0.2645 -0.2389
 6517SOL    HW131010   3.271   3.942   8.547  2.4347  0.5771 -0.8269
 6517SOL    HW231011   3.388   3.863   8.587  0.1057 -0.3904  2.8113
 6518SOL     OW31012   0.230   1.204   9.229 -0.0778 -0.3874  0.3398
 6518SOL    HW131013   0.272   1.131   9.185  0.5728 -0.3750  0.9345
 6518SOL    HW231014   0.187   1.166   9.306  0.3604 -0.2875  0.6323
 6519SOL     OW31015   2.688   1.649  16.091 -0.7646 -0.7395  0.0059
 6519SOL    HW131016   2.647   1.702  16.023  1.0385 -1.3811 -1.5942
 6519SOL    HW231017   2.775   1.643  16.052 -0.6860 -0.2383  0.1001
 6520SOL     OW31018   3.980   0.870   3.384 -0.5224 -0.1915 -0.4148
 6520SOL    HW131019   3.920   0.837   3.317 -1.8318  0.1232  0.5846
 6520SOL    HW231020   4.002   0.790   3.430  0.0331  0.4158  0.3812
 6521SOL     OW31021   2.051   2.059   4.240  0.0402  0.7826  0.0079
 6521SOL    HW131022   1.999   1.991   4.197 -0.4016  2.1733 -1.6465
 6521SOL    HW231023   2.032   2.129   4.178  1.0813 -0.1568 -1.3767
 6522SOL     OW31024   0.515   3.217   4.262 -0.2191  0.4962 -0.4279
 6522SOL    HW131025   0.466   3.285   4.217 -1.5373 -0.7441 -0.8579
 6522SOL    HW231026   0.592   3.192   4.211 -0.0781  0.3309 -0.1385
 6523SOL     OW31027   1.744   3.338  16.783  0.0877 -0.2072  0.0701
 6523SOL    HW131028   1.732   3.417  16.730 -0.7649 -0.5853 -0.3046
 6523SOL    HW231029   1.738   3.270  16.717 -2.2270 -1.0275  1.1090
 6524SOL     OW31030   1.649   0.606   9.882  0.1311 -0.1796 -0.3981
 6524SOL    HW131031   1.651   0.585   9.975 -1.6587 -0.1308 -0.3429
 6524SOL    HW231032   1.622   0.698   9.878 -0.5134 -0.4057 -1.2604
 6525SOL     OW31033   2.309   0.864   4.636 -0.2591  0.4126  0.0056
 6525SOL    HW131034   2.340   0.887   4.723 -1.8215 -1.0904  0.9530
 6525SOL    HW231035   2.250   0.791   4.654 -0.4370  0.7781  0.8875
 6526SOL     OW31036   0.707   0.643   6.692 -0.1224 -0.0694  0.3049
 6526SOL    HW131037   0.798   0.652   6.721 -0.5802  1.7751  1.1932
 6526SOL    HW231038   0.665   0.591   6.761 -0.8092  0.5920  0.3848
 6527SOL     OW31039   3.791   2.550  12.578  0.4130  0.4014 -0.0898
 6527SOL    HW131040   3.770   2.623  12.521  2.1771 -2.5209 -4.4734
 6527SOL    HW231041   3.714   2.522  12.628  1.1207  1.5369  1.6185
 6528SOL     OW31042   1.141   3.564   9.333  0.2923 -0.3121 -0.9628
 6528SOL    HW131043   1.147   3.521   9.247 -2.2766 -0.2539 -1.1893
 6528SOL    HW231044   1.118   3.654   9.310 -0.7166 -0.1293  0.7599
 6529SOL     OW31045   4.084   1.911   7.221 -0.0974 -0.1074 -1.0432
 6529SOL    HW131046   3.994   1.887   7.200 -1.6096  2.8924  1.8599
 6529SOL    HW231047   4.074   1.958   7.304 -0.0905 -1.4967 -0.2449
 6530SOL     OW31048   1.615   2.598  13.618  0.0469 -0.3374 -0.4969
 6530SOL    HW131049   1.599   2.674  13.674  0.5498  1.0848 -2.2868
 6530SOL    HW231050   1.590   2.629  13.531  3.2654 -0.0641 -1.2966
 6531SOL     OW31051   2.434   2.181   2.070 -0.2482  0.5028 -0.0320
 6531SOL    HW131052   2.418   2.203   2.162 -2.0688 -3.4297  0.5856
 6531SOL    HW231053   2.378   2.250   2.034 -0.4272 -0.3835 -1.4412
 6532SOL     OW31054   2.413   4.069  11.274 -0.4192  0.5448  0.3196
 6532SOL    HW131055   2.398   4.035  11.185  1.0062 -3.4017  1.5994
 6532SOL    HW231056   2.382   3.996  11.327  1.9424  0.8546  2.0807
 6533SOL     OW31057   3.508   3.659   5.497  0.2099 -0.2891 -0.2068
 6533SOL    HW131058   3.496   3.638   5.590  2.4015 -0.2908  0.0777
 6533SOL    HW231059   3.434   3.718   5.485  1.1633  0.8897 -0.4132
 6534SOL     OW31060   2.376   0.426   3.947  0.8594  0.1086  0.6893
 6534SOL    HW131061   2.324   0.503   3.924  0.0342 -0.7742 -0.4128
 6534SOL    HW231062   2.332   0.390   4.024 -2.0464  0.9686 -0.5789
 6535SOL     OW31063   0.888   2.056  17.498  0.2662  0.3050 -0.0005
 6535SOL    HW131064   0.855   1.986  17.556  0.1009  0.4245  0.0488
 6535SOL    HW231065   0.813   2.064  17.439 -1.4749 -1.7005  1.9249
 6536SOL     OW31066   0.252   3.992   3.317 -0.4616 -0.1613 -0.2929
 6536SOL    HW131067   0.345   3.996   3.337 -0.1874  0.8411 -1.7795
 6536SOL    HW231068   0.255   3.917   3.258 -3.6900 -1.3593  1.0626
 6537SOL     OW31069   2.358   0.730   3.077 -0.1374 -0.0493  0.6827
 6537SOL    HW131070   2.306   0.688   3.145 -3.2863  1.4910 -0.7286
 6537SOL    HW231071   2.375   0.658   3.016  1.8035  1.4507 -0.5368
 6538SOL     OW31072   1.036   4.258  16.654  0.2430 -0.2701 -0.2853
 6538SOL    HW131073   1.092   4.181  16.642  1.6444  0.3535  2.3670
 6538SOL    HW231074   0.999   4.263  16.565  0.4863  1.2375 -0.3052
 6539SOL     OW31075   0.011   3.734  12.892  0.0324 -0.3080  0.2610
 6539SOL    HW131076   0.101   3.704  12.906 -0.1649 -1.4735 -0.9311
 6539SOL    HW231077   0.003   3.813  12.945 -1.8141  0.7237 -1.5787
 6540SOL     OW31078   1.229   1.818  16.571  0.4238 -0.8682 -0.2835
 6540SOL    HW131079   1.219   1.912  16.585  3.0384 -0.6335 -0.0652
 6540SOL    HW231080   1.142   1.788  16.542  0.9528 -1.6481 -1.0718
 6541SOL     OW31081   1.269   3.568  16.429  0.1575 -0.1732 -0.0014
 6541SOL    HW131082   1.199   3.504  16.413 -0.7922  1.0110 -0.5052
 6541SOL    HW231083   1.244   3.599  16.516 -2.1950 -1.2034 -0.3072
 6542SOL     OW31084   4.383   2.983   2.025  0.2629  0.2419  0.0517
 6542SOL    HW131085   4.363   2.934   1.945  1.3191 -1.7891  1.0200
 6542SOL    HW231086   4.468   2.949   2.055 -0.1874 -0.4529  0.5321
 6543SOL     OW31087   2.142   0.193   2.714 -0.0890  0.1565 -0.0796
 6543SOL    HW131088   2.060   0.167   2.672  1.4614 -2.5148 -1.4525
 6543SOL    HW231089   2.118   0.286   2.717  1.1763  0.6175 -4.5428
 6544SOL     OW31090   1.104   0.602   1.038 -0.1410  0.4156  0.3638
 6544SOL    HW131091   1.169   0.668   1.015 -1.4783  1.0426 -1.6160
 6544SOL    HW231092   1.033   0.664   1.052  0.4625  1.2072 -0.1247
 6545SOL     OW31093   2.507   0.511   6.605  0.0786 -0.3414  0.3215
 6545SOL    HW131094   2.558   0.505   6.685 -0.1340  0.4903  0.5155
 6545SOL    HW231095   2.426   0.461   6.621 -1.6877  2.4390  0.1088
 6546SOL     OW31096   1.175   2.071   8.978 -0.3650  0.3589 -0.5567
 6546SOL    HW131097   1.142   1.988   8.945 -1.0031  0.5392 -0.3944
 6546SOL    HW231098   1.169   2.120   8.896 -0.4813  0.3344 -0.5632
 6547SOL     OW31099   4.171   2.746   6.582 -0.0411 -0.0582 -0.2169
 6547SOL    HW131100   4.168   2.842   6.579  2.0416  0.0901  2.1529
 6547SOL    HW231101   4.178   2.737   6.487  0.1668  0.1354 -0.2212
 6548SOL     OW31102   2.567   1.911   3.311 -0.0748 -0.0437  0.0749
 6548SOL    HW131103   2.599   1.890   3.399  2.4966 -2.0733 -1.3686
 6548SOL    HW231104   2.493   1.851   3.311 -1.7934  2.0679  0.8576
 6549SOL     OW31105   1.849   1.074   9.335  0.3656 -0.0576  0.0621
 6549SOL    HW131106   1.911   1.054   9.265  0.2776  0.9942 -0.3108
 6549SOL    HW231107   1.766   1.060   9.292  0.3861  0.3023 -0.0970
 6550SOL     OW31108   2.380   2.344   2.314  0.7744 -0.1199 -0.1183
 6550SOL    HW131109   2.465   2.362   2.353  0.4531  0.9387  0.0929
 6550SOL    HW231110   2.349   2.431   2.290  4.8326  0.9890 -1.2101
 6551SOL     OW31111   3.236   1.742   0.541 -0.2101 -0.0944  0.3239
 6551SOL    HW131112   3.166   1.762   0.602 -0.1539 -1.9873  1.0202
 6551SOL    HW231113   3.279   1.826   0.528 -0.1910 -0.1348  0.1206
 6552SOL     OW31114   2.352   3.669   8.338 -0.0811  0.1997  0.3910
 6552SOL    HW131115   2.363   3.720   8.258 -0.3277  0.3004  0.4237
 6552SOL    HW231116   2.444   3.644   8.349  0.2110  0.9090 -0.4830
 6553SOL     OW31117   2.806   4.585   3.822 -0.8556 -0.0507 -0.3022
 6553SOL    HW131118   2.725   4.635   3.811 -1.0492 -0.5141 -1.0243
 6553SOL    HW231119   2.853   4.618   3.746  0.7627 -1.9521 -0.1132
 6554SOL     OW31120   3.768   0.832   1.084 -0.1961  0.1160  0.1601
 6554SOL    HW131121   3.720   0.779   1.020  1.2318 -0.0192 -0.7979
 6554SOL    HW231122   3.714   0.834   1.163 -0.6817 -0.3962 -0.1582
 6555SOL     OW31123   4.713   1.017  11.598 -0.2671  0.2859  0.1007
 6555SOL    HW131124   4.655   1.059  11.661  0.7612  1.1342  0.4783
 6555SOL    HW231125   4.652   0.977  11.537  0.7375 -2.6396  1.0112
 6556SOL     OW31126   4.324   0.163   2.269 -0.3351 -0.1442 -0.2268
 6556SOL    HW131127   4.262   0.235   2.264 -0.8443 -0.7657 -2.7615
 6556SOL    HW231128   4.321   0.150   2.364 -0.5941  1.4970 -0.0170
 6557SOL     OW31129   0.505   3.908   1.585 -0.1602  0.1755  0.3001
 6557SOL    HW131130   0.581   3.870   1.542 -0.3933  1.3187 -1.1092
 6557SOL    HW231131   0.494   3.850   1.661 -0.0021  1.2557  1.1417
 6558SOL     OW31132   3.162   1.020  13.143 -0.5665  0.7235  0.2413
 6558SOL    HW131133   3.147   0.939  13.094  1.1902  0.0547  0.8120
 6558SOL    HW231134   3.074   1.058  13.144 -0.9025 -0.0448 -0.4074
 6559SOL     OW31135   1.720   2.392   8.410 -0.3850 -0.5664 -0.3304
 6559SOL    HW131136   1.695   2.440   8.489 -3.3353 -0.8322 -1.1200
 6559SOL    HW231137   1.632   2.377   8.375 -0.0978  1.5057 -1.9706
 6560SOL     OW31138   4.117   1.370   0.558 -0.3457  0.2004  0.2560
 6560SOL    HW131139   4.181   1.388   0.490 -0.2373  0.2900  0.3834
 6560SOL    HW231140   4.127   1.436   0.626 -0.8907  0.9150 -0.3486
 6561SOL     OW31141   3.838   4.365  14.335 -0.2804  0.2320  0.3554
 6561SOL    HW131142   3.852   4.295  14.399  2.9901 -0.1218 -0.7033
 6561SOL    HW231143   3.753   4.400  14.361 -0.4995 -0.7379  0.9595
 6562SOL     OW31144   3.822   0.674   9.072 -0.0447 -0.5890 -0.6272
 6562SOL    HW131145   3.843   0.623   8.994  2.4140  0.3779 -0.5973
 6562SOL    HW231146   3.821   0.758   9.027  1.4579 -1.3603 -2.0656
 6563SOL     OW31147   2.056   1.320   1.144  0.2144 -0.1150 -0.2276
 6563SOL    HW131148   1.977   1.374   1.145 -0.3280 -0.9090 -0.5283
 6563SOL    HW231149   2.059   1.306   1.239  0.9182 -0.7465 -0.3428
 6564SOL     OW31150   3.443   3.135   4.563 -0.3534 -0.3116  1.0004
 6564SOL    HW131151   3.452   3.229   4.578 -0.7387 -0.2428  0.8150
 6564SOL    HW231152   3.408   3.109   4.649 -1.0684  2.2139  1.4623
 6565SOL     OW31153   1.523   2.749  14.145  0.0823  0.0292 -0.2650
 6565SOL    HW131154   1.451   2.691  14.170 -1.0900  2.0024  0.8712
 6565SOL    HW231155   1.479   2.834  14.146  0.2886  0.1502 -1.2717
 6566SOL     OW31156   2.074   1.874  13.814  0.2468 -0.2033  0.0410
 6566SOL    HW131157   2.028   1.837  13.889 -1.3231  0.6488 -0.4950
 6566SOL    HW231158   2.037   1.962  13.810 -1.6368 -0.9751  0.4129
 6567SOL     OW31159   2.932   0.001   3.622 -0.1446 -0.2310 -0.1029
 6567SOL    HW131160   2.985   0.081   3.623  0.4582 -0.6209 -1.3075
 6567SOL    HW231161   3.004   4.664   3.626  0.1780  0.1661  0.5450
 6568SOL     OW31162   3.971   3.164   5.682  0.6587  0.2060 -0.3408
 6568SOL    HW131163   3.948   3.255   5.666 -1.8109 -0.5534 -1.2226
 6568SOL    HW231164   3.911   3.150   5.756 -1.8416  0.8539 -2.2601
 6569SOL     OW31165   3.715   4.509   3.504 -0.9662  0.2813  0.6654
 6569SOL    HW131166   3.626   4.518   3.471 -0.6951 -3.1834 -0.8947
 6569SOL    HW231167   3.706   4.421   3.540 -0.2083 -0.2159 -0.3407
 6570SOL     OW31168   1.821   0.771   3.487  0.3673  0.3449  0.3029
 6570SOL    HW131169   1.778   0.689   3.465  0.3538  0.3354  0.3669
 6570SOL    HW231170   1.765   0.805   3.556  0.5599  0.4432  0.4116
 6571SOL     OW31171   3.866   0.294   5.218 -0.1710  0.0568 -0.1846
 6571SOL    HW131172   3.892   0.385   5.234  0.4249 -0.0111 -0.7800
 6571SOL    HW231173   3.938   0.251   5.265 -1.5274 -1.4749  0.4896
 6572SOL     OW31174   2.637   4.446  11.070  0.2478 -0.4755  0.6986
 6572SOL    HW131175   2.579   4.410  11.138  1.1119 -0.3757  1.4913
 6572SOL    HW231176   2.720   4.444  11.118 -0.1305  2.8706  1.4979
 6573SOL     OW31177   0.564   4.401   0.380 -0.0105 -0.0730 -0.3313
 6573SOL    HW131178   0.632   4.466   0.364 -0.1950  0.2693  0.2818
 6573SOL    HW231179   0.509   4.390   0.302 -0.8541 -0.7285  0.3566
 6574SOL     OW31180   1.825   3.041   5.260  0.2678 -0.2223 -0.3743
 6574SOL    HW131181   1.910   3.062   5.297 -0.1247 -0.9974  0.9707
 6574SOL    HW231182   1.830   2.945   5.253 -2.2349 -0.5774  2.5334
 6575SOL     OW31183   0.930   2.673   1.377  0.1252  0.0239 -0.2162
 6575SOL    HW131184   0.914   2.682   1.471  0.2695  1.4537 -0.3227
 6575SOL    HW231185   1.025   2.666   1.368  0.0187 -0.2901 -1.0609
 6576SOL     OW31186   2.710   4.346  17.126  0.2573 -0.3526 -0.7903
 6576SOL    HW131187   2.705   4.296  17.207  1.1164 -0.1567 -0.6092
 6576SOL    HW231188   2.622   4.382  17.127  0.1652 -0.5321 -2.1007
 6577SOL     OW31189   2.707   0.950   2.634 -0.2334 -0.3541  0.2557
 6577SOL    HW131190   2.698   1.035   2.592  0.9788  0.7545  2.2242
 6577SOL    HW231191   2.670   0.889   2.570 -0.3155  0.3809 -0.3874
 6578SOL     OW31192   3.183   1.391  15.541  0.0735  0.1183 -0.0426
 6578SOL    HW131193   3.136   1.445  15.477 -0.0622  1.3601  1.0917
 6578SOL    HW231194   3.257   1.346  15.501 -1.0801 -1.6738 -0.1714
 6579SOL     OW31195   1.641   0.940   8.017 -0.4492 -0.7605 -0.0070
 6579SOL    HW131196   1.732   0.930   8.047  0.2648 -0.5352 -2.0813
 6579SOL    HW231197   1.609   1.016   8.066  1.2066  0.7691 -1.3137
 6580SOL     OW31198   4.034   1.497   7.164 -0.1186 -0.1781 -1.0862
 6580SOL    HW131199   4.073   1.580   7.137  0.2194  0.9461  2.9251
 6580SOL    HW231200   4.114   1.444   7.164 -0.9181 -1.3827 -1.9468
 6581SOL     OW31201   3.545   1.257   5.226  0.3604 -0.4593 -0.0879
 6581SOL    HW131202   3.594   1.256   5.308  0.2224 -2.3554 -0.0119
 6581SOL    HW231203   3.605   1.210   5.168 -0.4422  0.0757 -1.3461
 6582SOL     OW31204   0.681   1.619   2.938 -0.4487 -0.4454  0.4320
 6582SOL    HW131205   0.752   1.603   2.876  0.6384  1.0027  1.3105
 6582SOL    HW231206   0.714   1.678   3.006  0.3799 -0.8265  0.3556
 6583SOL     OW31207   4.268   1.858  10.943  0.1957  0.2943  0.1102
 6583SOL    HW131208   4.228   1.851  10.856  1.7551 -0.7811 -0.5293
 6583SOL    HW231209   4.194   1.908  10.977  0.3577  0.2930  0.4686
 6584SOL     OW31210   4.300   0.396   5.532 -0.3034 -0.0654  0.2198
 6584SOL    HW131211   4.280   0.489   5.546 -0.5016  0.1592 -1.6330
 6584SOL    HW231212   4.390   0.415   5.505 -0.3205 -1.0463 -0.5075
 6585SOL     OW31213   4.309   0.859   6.550 -0.7702 -0.0177 -0.6803
 6585SOL    HW131214   4.283   0.917   6.478  0.2669 -0.4778 -1.4363
 6585SOL    HW231215   4.236   0.882   6.607  0.0945 -0.6745  0.6887
 6586SOL     OW31216   1.295   1.585  15.390 -0.1907 -0.4375  0.3377
 6586SOL    HW131217   1.291   1.679  15.372  1.8393 -0.3342  0.4085
 6586SOL    HW231218   1.207   1.550  15.379 -0.3751  0.0281  0.3292
 6587SOL     OW31219   1.130   0.897   8.688 -0.4936 -0.4522  0.0145
 6587SOL    HW131220   1.178   0.978   8.667 -1.5344  0.4706  1.1866
 6587SOL    HW231221   1.070   0.898   8.613 -0.0503  2.9194 -0.2927
 6588SOL     OW31222   4.557   4.541   6.577  0.7417  0.0075 -0.3573
 6588SOL    HW131223   4.535   4.491   6.656 -0.8474 -1.0507 -1.4599
 6588SOL    HW231224   4.539   4.628   6.611 -0.3003 -0.1243 -0.5737
 6589SOL     OW31225   4.590   3.421   9.186 -0.2838 -0.2322 -0.1691
 6589SOL    HW131226   4.524   3.411   9.255 -0.6401  1.5320 -0.2738
 6589SOL    HW231227   4.605   3.332   9.153  2.0552  1.3318 -3.2613
 6590SOL     OW31228   1.926   4.463   9.200  0.3220 -0.1759  0.3040
 6590SOL    HW131229   1.914   4.558   9.200 -0.9443 -0.3306 -0.4626
 6590SOL    HW231230   1.837   4.433   9.182 -0.2034 -0.1571  2.9818
 6591SOL     OW31231   3.758   1.748  10.367 -0.0782  0.0995  0.1579
 6591SOL    HW131232   3.808   1.751  10.286 -0.7320  2.3146 -0.1568
 6591SOL    HW231233   3.817   1.780  10.435 -0.3351 -1.2323  1.0100
 6592SOL     OW31234   3.233   0.426   0.109 -0.1446 -0.2275 -0.4251
 6592SOL    HW131235   3.262   0.418   0.199 -0.5714  0.1938 -0.2475
 6592SOL    HW231236   3.166   0.493   0.124  0.7301  1.0874 -2.3595
 6593SOL     OW31237   1.632   0.286  15.071 -0.0390 -0.4470  0.5980
 6593SOL    HW131238   1.634   0.212  15.132  0.8143  0.5521  1.7624
 6593SOL    HW231239   1.582   0.248  14.998  0.4442 -0.3310  0.2099
 6594SOL     OW31240   0.339   4.244   9.637  0.1658 -0.2747 -0.1291
 6594SOL    HW131241   0.273   4.307   9.667 -0.9313  0.2073 -3.5484
 6594SOL    HW231242   0.416   4.300   9.641 -0.1257  0.0909  0.3529
 6595SOL     OW31243   1.859   1.049   3.842 -0.4193 -0.6674 -0.1479
 6595SOL    HW131244   1.819   1.136   3.851  0.2615 -0.4284  0.4963
 6595SOL    HW231245   1.818   1.028   3.758 -1.9334 -0.5164  0.5482
 6596SOL     OW31246   3.357   3.177   7.846 -0.0949 -0.2154 -0.0501
 6596SOL    HW131247   3.441   3.219   7.832  0.6110 -1.2147  1.1781
 6596SOL    HW231248   3.341   3.201   7.937  2.8475 -2.0796  0.9364
 6597SOL     OW31249   0.509   0.979   4.083  0.1895  0.2197 -0.4064
 6597SOL    HW131250   0.514   1.068   4.049  0.4490  0.3417 -0.0487
 6597SOL    HW231251   0.537   0.997   4.172  2.3581 -2.3132 -0.5863
 6598SOL     OW31252   2.508   4.139   9.063 -0.5817 -0.5112  0.2756
 6598SOL    HW131253   2.418   4.136   9.031  0.0602  2.0551 -1.8393
 6598SOL    HW231254   2.501   4.218   9.117  0.0637 -0.7657  0.7271
 6599SOL     OW31255   4.643   0.245  14.191 -0.4468  0.4084 -0.2883
 6599SOL    HW131256   4.683   0.213  14.110  0.1565  2.4314 -0.7900
 6599SOL    HW231257   4.561   0.282  14.160 -0.3377 -0.8119 -2.0646
 6600SOL     OW31258   2.177   3.603   9.972 -0.4523 -0.4385  0.2207
 6600SOL    HW131259   2.234   3.680   9.975 -2.3593  1.0420 -1.5921
 6600SOL    HW231260   2.113   3.642   9.912 -1.2768 -1.3392  0.5242
 6601SOL     OW31261   2.842   1.919   8.784 -0.5845  0.2044  0.3529
 6601SOL    HW131262   2.753   1.903   8.753  0.3576 -2.5531 -1.0135
 6601SOL    HW231263   2.858   2.012   8.768 -1.7387  0.1572 -1.0744
 6602SOL     OW31264   1.013   3.313   5.742  0.6757  0.1728 -0.1376
 6602SOL    HW131265   1.103   3.330   5.712  0.9544 -0.1489  0.5203
 6602SOL    HW231266   1.030   3.307   5.836  0.7554 -1.5369 -0.2580
 6603SOL     OW31267   1.177   0.230   8.293  0.1597 -0.3459 -0.4228
 6603SOL    HW131268   1.181   0.247   8.199  2.5299 -0.4354 -0.3273
 6603SOL    HW231269   1.261   0.260   8.327 -1.0968  2.1146  0.5056
 6604SOL     OW31270   0.451   3.169  12.720 -0.1056  0.2263  0.5892
 6604SOL    HW131271   0.364   3.208  12.722 -0.3644 -0.3273 -0.0345
 6604SOL    HW231272   0.430   3.077  12.703  1.6503 -0.6277  3.0157
 6605SOL     OW31273   4.192   4.322  12.089  0.8514  0.3638 -0.3314
 6605SOL    HW131274   4.194   4.366  12.174 -0.5610 -1.5566  0.6783
 6605SOL    HW231275   4.183   4.397  12.031  0.1914  0.9399  0.5235
 6606SOL     OW31276   3.294   0.300   1.751 -0.0543  0.0753  0.3382
 6606SOL    HW131277   3.286   0.293   1.846 -0.2150 -1.9678  0.1687
 6606SOL    HW231278   3.202   0.280   1.732 -0.0034 -1.8247  2.1054
 6607SOL     OW31279   1.416   1.569   3.409 -0.5759  0.2580  0.0293
 6607SOL    HW131280   1.501   1.588   3.370 -1.0197  0.1142 -1.0114
 6607SOL    HW231281   1.412   1.474   3.407  1.4068  0.2178 -1.9217
 6608SOL     OW31282   1.847   1.691   4.986  0.2946 -0.3896 -0.5195
 6608SOL    HW131283   1.768   1.674   4.935  1.5450  1.8087 -3.1794
 6608SOL    HW231284   1.899   1.738   4.921 -0.6456 -1.1912 -1.8351
 6609SOL     OW31285   3.231   3.940   4.103 -0.0361 -0.2276  0.1533
 6609SOL    HW131286   3.258   4.009   4.042 -0.3849 -0.3389 -0.1276
 6609SOL    HW231287   3.319   3.904   4.097 -1.3524 -3.1284 -1.5938
 6610SOL     OW31288   2.068   1.265   8.952 -0.6257 -0.4311 -0.0792
 6610SOL    HW131289   2.151   1.310   8.933 -0.4055 -0.1360  1.5253
 6610SOL    HW231290   2.027   1.330   9.010  0.7344  2.2095 -2.0575
 6611SOL     OW31291   3.275   3.338   3.835 -0.6103  0.2303  0.1380
 6611SOL    HW131292   3.308   3.414   3.884  0.8764 -0.2358 -0.1427
 6611SOL    HW231293   3.228   3.293   3.905  1.0154 -2.2219 -0.3692
 6612SOL     OW31294   2.299   0.797   7.805 -0.2730  0.0579 -0.2447
 6612SOL    HW131295   2.235   0.734   7.773 -0.3694  0.1073 -0.1507
 6612SOL    HW231296   2.292   0.859   7.733  1.5687 -0.3440 -0.7670
 6613SOL     OW31297   2.354   2.640   8.258  0.1464 -0.3725 -0.5681
 6613SOL    HW131298   2.263   2.670   8.270 -0.4741 -2.4041 -0.2907
 6613SOL    HW231299   2.390   2.701   8.193 -0.8914  1.8731  0.9520
 6614SOL     OW31300   4.611   3.334  13.709 -0.1354 -0.7672  0.3794
 6614SOL    HW131301   4.645   3.277  13.777 -2.8969 -0.4687  1.9840
 6614SOL    HW231302   4.589   3.417  13.750 -1.1381 -0.1248 -1.4434
 6615SOL     OW31303   4.661   2.314   7.887  0.4522 -0.3105 -0.3768
 6615SOL    HW131304   4.710   2.263   7.951 -3.1915 -0.6466  2.1184
 6615SOL    HW231305   4.577   2.318   7.933  1.0901  0.0947  0.7600
 6616SOL     OW31306   4.412   4.673  13.086  0.2375  0.0404 -0.0930
 6616SOL    HW131307   4.388   4.681  13.178  0.7157 -0.5740  0.0834
 6616SOL    HW231308   4.383   0.033  13.055  0.5818 -0.2828 -1.3293
 6617SOL     OW31309   3.067   3.860   5.970 -0.0790  0.4275 -0.2911
 6617SOL    HW131310   3.043   3.899   5.886 -1.5247 -0.1900 -0.1736
 6617SOL    HW231311   3.161   3.877   5.966 -0.5849  2.7214 -2.2753
 6618SOL     OW31312   3.543   0.760   5.385  0.1827  0.2835  0.3310
 6618SOL    HW131313   3.462   0.810   5.380  0.5604  0.8879  0.2367
 6618SOL    HW231314   3.577   0.797   5.467  0.4302 -1.2675  0.9263
 6619SOL     OW31315   0.928   2.146   8.102  0.2931 -0.2678  0.3874
 6619SOL    HW131316   0.911   2.139   8.196  0.4888 -0.5017  0.4038
 6619SOL    HW231317   0.933   2.056   8.070  1.1652  1.1113 -3.3422
 6620SOL     OW31318   3.864   4.439   9.998 -0.1989 -0.3396 -0.1074
 6620SOL    HW131319   3.933   4.492   9.958 -1.7741  0.4954 -1.7365
 6620SOL    HW231320   3.814   4.409   9.922 -1.1072  0.7029  0.0872
 6621SOL     OW31321   1.134   2.954   0.303  0.1613  0.1033 -0.1509
 6621SOL    HW131322   1.154   3.017   0.372 -0.3024  0.2746 -0.1717
 6621SOL    HW231323   1.202   2.889   0.321  1.5976  1.7687  0.4440
 6622SOL     OW31324   1.517   2.407   2.514 -0.3470 -0.2489  0.0020
 6622SOL    HW131325   1.506   2.476   2.579  0.3396  1.8870 -2.1540
 6622SOL    HW231326   1.612   2.408   2.506 -0.4093  2.6612 -0.0768
 6623SOL     OW31327   0.287   2.213   5.037  0.0559 -0.2954  0.1906
 6623SOL    HW131328   0.288   2.129   4.992  1.0214 -0.4548  0.5104
 6623SOL    HW231329   0.311   2.183   5.124 -1.7556 -0.6946  0.5504
 6624SOL     OW31330   1.348   3.634   7.485 -0.6605  0.3717  0.2088
 6624SOL    HW131331   1.289   3.698   7.445 -1.3825 -0.9290 -0.8035
 6624SOL    HW231332   1.373   3.682   7.564 -0.0429 -1.0738  0.8742
 6625SOL     OW31333   0.439   2.556   7.013 -0.2156  0.1375  0.3071
 6625SOL    HW131334   0.415   2.553   7.106  0.4379  0.8666  0.5057
 6625SOL    HW231335   0.506   2.625   7.016 -0.5661  0.5360 -1.1886
 6626SOL     OW31336   1.474   3.028   7.150  0.4058 -0.0744 -0.0800
 6626SOL    HW131337   1.477   3.109   7.099 -3.1572 -0.8867 -1.5377
 6626SOL    HW231338   1.409   3.049   7.217 -1.2661 -0.8670 -1.4627
 6627SOL     OW31339   2.491   2.610   8.509  0.5006 -0.0914  0.0389
 6627SOL    HW131340   2.417   2.622   8.449  1.0510  0.2906 -0.5529
 6627SOL    HW231341   2.500   2.516   8.524 -3.8032 -0.5174  0.0094
 6628SOL     OW31342   3.986   4.392  10.313  0.0794  0.2098  0.1536
 6628SOL    HW131343   4.038   4.323  10.272  1.4542  1.0441  0.5058
 6628SOL    HW231344   3.918   4.345  10.362 -0.5799  1.1759  0.1728
 6629SOL     OW31345   4.137   3.314  12.492  0.3187 -0.6376  0.0954
 6629SOL    HW131346   4.084   3.242  12.527 -0.4717  0.0456  0.2940
 6629SOL    HW231347   4.066   3.374  12.472  1.4322 -0.0467 -2.0733
 6630SOL     OW31348   2.439   2.921   5.869 -0.0423  0.3962  0.4067
 6630SOL    HW131349   2.365   2.877   5.827  1.0102 -0.2414 -0.7831
 6630SOL    HW231350   2.441   3.006   5.825  2.8469  0.6775  1.1088
 6631SOL     OW31351   0.065   1.833   5.229 -0.2044  0.5439  0.8313
 6631SOL    HW131352   4.719   1.876   5.182  0.5016  0.6962 -0.1192
 6631SOL    HW231353   0.079   1.894   5.301 -1.0924  2.2396 -0.4251
 6632SOL     OW31354   2.544   2.320   0.651  0.5550  0.0088  0.7444
 6632SOL    HW131355   2.583   2.273   0.577 -0.4197  0.1207  0.1547
 6632SOL    HW231356   2.471   2.259   0.658  0.0033  0.6455  0.5438
 6633SOL     OW31357   2.087   0.437   2.568 -0.1139 -0.0102 -0.2744
 6633SOL    HW131358   2.005   0.458   2.524  0.5837  2.5631 -0.3149
 6633SOL    HW231359   2.121   0.367   2.512 -1.8298 -0.8217 -0.2837
 6634SOL     OW31360   0.555   0.012   3.744 -0.3085 -0.1418  0.2458
 6634SOL    HW131361   0.628   4.677   3.758  0.9460  0.6743 -2.5550
 6634SOL    HW231362   0.552   0.024   3.649  1.3909  1.3351  0.3824
 6635SOL     OW31363   4.148   0.045   9.184  0.5379 -0.8211 -0.0044
 6635SOL    HW131364   4.093   0.050   9.106  1.1436 -1.2724 -0.4692
 6635SOL    HW231365   4.233   0.070   9.147 -1.5081  0.6958 -3.5851
 6636SOL     OW31366   1.602   3.456   2.159  0.3265  0.2612  0.3169
 6636SOL    HW131367   1.590   3.550   2.147 -0.7272  0.0838 -0.0718
 6636SOL    HW231368   1.570   3.424   2.074  2.8090  0.5873 -0.7310
 6637SOL     OW31369   3.773   3.013  12.453  0.0957  0.0860  0.3310
 6637SOL    HW131370   3.722   3.049  12.381 -0.5272  2.3185  1.9105
 6637SOL    HW231371   3.806   2.929  12.420 -2.6130 -1.1421  0.7518
 6638SOL     OW31372   1.399   1.722  16.373  0.0734  0.7758  0.7033
 6638SOL    HW131373   1.380   1.770  16.453 -1.6336  0.2351  0.6154
 6638SOL    HW231374   1.471   1.778  16.342 -1.1721  1.2291 -1.4170
 6639SOL     OW31375   2.109   1.161   2.593  0.4457  0.3754  0.2234
 6639SOL    HW131376   2.088   1.235   2.536 -1.3991  0.0813  0.5104
 6639SOL    HW231377   2.033   1.163   2.652  1.3995 -0.5825  1.4904
 6640SOL     OW31378   0.474   1.441   2.826 -0.0637  0.1786 -0.1514
 6640SOL    HW131379   0.567   1.465   2.831  0.4039 -1.6993  0.2323
 6640SOL    HW231380   0.480   1.346   2.836  0.6822  0.4941  2.3303
 6641SOL     OW31381   4.613   0.677   2.177 -0.2756 -0.8069 -0.1341
 6641SOL    HW131382   4.634   0.657   2.086 -0.6831 -2.5126  0.1607
 6641SOL    HW231383   4.522   0.703   2.166  0.1150  0.4052 -0.5094
 6642SOL     OW31384   2.416   1.949   5.267 -0.5664  0.0066 -0.7257
 6642SOL    HW131385   2.500   1.993   5.256 -0.7669  0.1366 -1.8137
 6642SOL    HW231386   2.432   1.916   5.355 -3.2199  2.2042  0.5769
 6643SOL     OW31387   4.131   1.400   1.374 -0.5411  0.1529 -0.2531
 6643SOL    HW131388   4.149   1.312   1.408 -1.3272  0.1704  0.2150
 6643SOL    HW231389   4.070   1.436   1.438 -1.9491 -1.8647 -0.4603
 6644SOL     OW31390   2.221   3.561   7.171 -0.4029  0.0366  0.0234
 6644SOL    HW131391   2.200   3.654   7.176 -1.4210 -0.2873  1.5851
 6644SOL    HW231392   2.152   3.528   7.113 -0.0234 -0.6449 -0.0459
 6645SOL     OW31393   1.281   1.012   9.738 -0.1774  0.5330  0.0693
 6645SOL    HW131394   1.309   1.016   9.829  0.5131 -0.1360 -0.1129
 6645SOL    HW231395   1.319   1.091   9.698  0.0385 -0.6286 -2.0195
 6646SOL     OW31396   3.100   3.313  15.565  0.5886  0.0665  0.2686
 6646SOL    HW131397   3.045   3.369  15.620  0.9015 -1.3351  2.0063
 6646SOL    HW231398   3.185   3.341  15.598  0.6967  1.2907 -1.0216
 6647SOL     OW31399   0.515   3.354   8.463  0.3584 -0.0271  0.3167
 6647SOL    HW131400   0.570   3.291   8.509  1.5011  0.3934 -0.4466
 6647SOL    HW231401   0.555   3.430   8.506  3.1169 -1.1563 -0.2562
 6648SOL     OW31402   0.903   2.075   8.370  0.2681  0.3030 -0.1528
 6648SOL    HW131403   0.850   1.994   8.373  0.6027  0.1142  0.6845
 6648SOL    HW231404   0.879   2.106   8.457  1.2800 -0.9857  0.5935
 6649SOL     OW31405   4.682   2.433   5.765 -0.1370  0.5654 -0.5345
 6649SOL    HW131406   4.599   2.478   5.750 -1.1847 -1.2214 -0.0868
 6649SOL    HW231407   0.007   2.456   5.688 -0.4202  3.1698  0.0448
 6650SOL     OW31408   0.650   3.714   9.549  0.4862 -0.2512  0.2597
 6650SOL    HW131409   0.730   3.716   9.601  1.1610  0.4426 -0.7950
 6650SOL    HW231410   0.596   3.652   9.598  1.5792 -0.3083  1.3735
 6651SOL     OW31411   1.276   2.020   7.984 -0.0709  0.1107 -0.1822
 6651SOL    HW131412   1.251   2.031   7.892  0.1825  0.6855 -0.1865
 6651SOL    HW231413   1.192   2.010   8.028 -0.2346 -0.9758 -0.7424
 6652SOL     OW31414   2.753   0.672   9.609 -0.2113 -0.0555  0.0724
 6652SOL    HW131415   2.840   0.644   9.638 -0.0904  0.2597  0.0096
 6652SOL    HW231416   2.769   0.711   9.524 -0.3772 -0.7117 -0.2621
 6653SOL     OW31417   1.678   2.920   1.177 -0.1252 -0.3036 -0.2342
 6653SOL    HW131418   1.720   2.910   1.091  0.1308 -1.0454 -0.0163
 6653SOL    HW231419   1.666   2.828   1.200 -0.6999 -0.8999 -2.9274
 6654SOL     OW31420   1.746   2.609  12.991  0.7496  0.7064 -0.4985
 6654SOL    HW131421   1.737   2.516  13.014 -3.8634  1.1521 -0.4889
 6654SOL    HW231422   1.695   2.614  12.911  0.7337  0.4524 -0.5043
 6655SOL     OW31423   2.691   0.440   5.482  0.1013  0.0122  0.1555
 6655SOL    HW131424   2.780   0.405   5.476  0.6676  1.7127 -1.4918
 6655SOL    HW231425   2.647   0.363   5.448  0.9108 -0.1533 -0.5259
 6656SOL     OW31426   2.714   1.023   4.885  0.4517 -0.5259  0.2078
 6656SOL    HW131427   2.789   1.078   4.906  1.9090 -3.0156  1.5328
 6656SOL    HW231428   2.682   1.004   4.973 -0.9229 -3.1335 -0.8610
 6657SOL     OW31429   2.276   2.758   2.818  0.7175  0.4976 -0.1162
 6657SOL    HW131430   2.365   2.736   2.844  0.5647  0.0813  0.0598
 6657SOL    HW231431   2.278   2.852   2.832 -3.0820  0.5503  0.2252
 6658SOL     OW31432   1.996   0.567   9.551 -0.0267 -0.4421  0.0486
 6658SOL    HW131433   2.064   0.634   9.552 -1.2533  0.7425  3.2420
 6658SOL    HW231434   1.937   0.598   9.619  1.3022 -2.8438  2.3347
 6659SOL     OW31435   3.103   4.571   4.037 -0.0720 -0.3278 -0.0175
 6659SOL    HW131436   3.159   4.531   4.103  1.0554  2.2415  0.6113
 6659SOL    HW231437   3.095   4.496   3.979  1.1822 -0.9365  0.6239
 6660SOL     OW31438   0.237   0.725   4.175 -0.2765  0.1583  0.2635
 6660SOL    HW131439   0.232   0.630   4.166  0.3310 -0.0871  2.4420
 6660SOL    HW231440   0.331   0.741   4.185 -0.5489  2.9263 -1.4215
 6661SOL     OW31441   4.487   3.623  16.323  0.7078  0.1020  0.0892
 6661SOL    HW131442   4.519   3.643  16.412 -1.1670 -0.2828  0.8436
 6661SOL    HW231443   4.503   3.704  16.275  1.2159  0.1350  0.3063
 6662SOL     OW31444   1.670   0.287  11.160  0.0697  0.1250  0.3035
 6662SOL    HW131445   1.712   0.205  11.183  0.4647  0.2751  0.1223
 6662SOL    HW231446   1.581   0.258  11.141  0.3451 -0.6183  0.1729
 6663SOL     OW31447   4.305   1.436   2.469 -0.1063  0.3305  0.6907
 6663SOL    HW131448   4.346   1.393   2.394 -4.2587 -0.8330 -0.9587
 6663SOL    HW231449   4.382   1.479   2.504  0.2102  0.5370 -0.2571
 6664SOL     OW31450   0.864   1.951  11.033  0.4407  0.2024  0.3744
 6664SOL    HW131451   0.795   2.002  11.075  2.0994  2.7606 -0.0540
 6664SOL    HW231452   0.829   1.866  11.061  1.4664 -0.5481 -0.6192
 6665SOL     OW31453   4.074   4.485   3.793 -0.1095  0.0838 -0.3284
 6665SOL    HW131454   4.147   4.544   3.812  0.0340  0.4153 -1.8621
 6665SOL    HW231455   3.998   4.534   3.825  0.1215  0.3570 -0.1997
 6666SOL     OW31456   1.502   2.738  12.073 -0.4667 -0.3804 -0.2556
 6666SOL    HW131457   1.437   2.800  12.039 -0.1895  0.7220  1.2468
 6666SOL    HW231458   1.499   2.670  12.006 -1.9497  0.3158 -0.9016
 6667SOL     OW31459   0.922   0.482   6.341 -0.3390 -0.5591  0.2477
 6667SOL    HW131460   0.979   0.493   6.417  0.4029 -0.0456 -0.3754
 6667SOL    HW231461   0.970   0.426   6.281 -0.9527 -3.0270  2.0696
 6668SOL     OW31462   1.831   1.682   8.849 -0.0714  0.2871  0.0931
 6668SOL    HW131463   1.832   1.695   8.754  0.0018  3.2717  0.4942
 6668SOL    HW231464   1.921   1.652   8.859  0.0288  0.4156 -0.4084
 6669SOL     OW31465   1.134   1.558   7.538 -0.0780  1.0122  0.5419
 6669SOL    HW131466   1.110   1.483   7.484 -0.5043  1.7392 -0.2674
 6669SOL    HW231467   1.164   1.510   7.615  0.1871  0.3334  0.0217
 6670SOL     OW31468   0.593   0.472   3.609 -0.0113  0.4444 -0.3299
 6670SOL    HW131469   0.617   0.476   3.517 -2.3510  0.1698 -0.9333
 6670SOL    HW231470   0.624   0.384   3.630  2.0831  0.9682 -1.2412
 6671SOL     OW31471   1.907   0.631   3.753 -0.0353 -0.2551 -0.6672
 6671SOL    HW131472   1.894   0.550   3.703  0.5691 -1.2410  0.7624
 6671SOL    HW231473   1.964   0.686   3.700  0.5766 -1.2662 -1.0583
 6672SOL     OW31474   2.423   3.072   7.048 -0.5164  0.6980  0.0140
 6672SOL    HW131475   2.481   3.082   7.123  3.1388 -1.6162 -2.5129
 6672SOL    HW231476   2.363   3.146   7.057 -1.0200  0.3367 -0.3637
 6673SOL     OW31477   0.822   3.465   7.342 -0.2815  0.1698  0.0024
 6673SOL    HW131478   0.794   3.385   7.297  0.5528  0.1647 -0.5155
 6673SOL    HW231479   0.895   3.507   7.295 -0.0198 -1.0862 -0.7152
 6674SOL     OW31480   1.154   3.198   2.666 -0.0587  0.1162  0.2386
 6674SOL    HW131481   1.234   3.147   2.682 -0.7837 -1.1754 -0.2761
 6674SOL    HW231482   1.180   3.231   2.580  1.5310 -0.8794  0.3297
 6675SOL     OW31483   0.669   4.031  13.888  0.2983 -0.0565 -0.2619
 6675SOL    HW131484   0.604   3.961  13.901  0.5648 -0.1246  0.6971
 6675SOL    HW231485   0.669   4.062  13.797  0.0231  0.2729 -0.1492
 6676SOL     OW31486   3.608   1.435  17.173 -0.2610 -0.0590  0.0932
 6676SOL    HW131487   3.576   1.394  17.254 -1.3737  1.2877  0.3467
 6676SOL    HW231488   3.638   1.359  17.124 -1.0554  0.2809 -0.9098
 6677SOL     OW31489   1.777   0.484  16.307 -0.0530  0.2190  0.3610
 6677SOL    HW131490   1.760   0.513  16.396 -0.6962  1.2966 -0.1010
 6677SOL    HW231491   1.707   0.531  16.261 -0.8888 -0.7778  0.6155
 6678SOL     OW31492   1.651   1.286   8.831  0.0243  0.6600 -0.1163
 6678SOL    HW131493   1.716   1.308   8.764 -0.4911 -0.4400 -0.9737
 6678SOL    HW231494   1.687   1.340   8.902 -0.1913  0.1628  0.3699
 6679SOL     OW31495   2.165   0.545   3.598 -0.1375 -0.3563 -0.2028
 6679SOL    HW131496   2.174   0.572   3.506  2.1691  0.2359  0.1963
 6679SOL    HW231497   2.097   0.478   3.604 -0.5352  0.1221  0.6041
 6680SOL     OW31498   0.714   1.951   2.765 -0.1814  0.6515 -0.0425
 6680SOL    HW131499   0.643   1.891   2.789  2.0789 -1.4377  1.3915
 6680SOL    HW231500   0.776   1.884   2.738  2.4368  2.7278  0.8313
 6681SOL     OW31501   0.030   0.826  12.294 -0.0406 -0.4898  0.0765
 6681SOL    HW131502   0.087   0.900  12.312 -0.6791 -0.1944  0.8642
 6681SOL    HW231503   4.719   0.802  12.379  1.4697  0.0792  0.8813
 6682SOL     OW31504   2.815   0.327  10.956  0.5080  0.2177 -0.1277
 6682SOL    HW131505   2.789   0.356  11.043 -2.3530  1.6809 -1.4716
 6682SOL    HW231506   2.728   0.295  10.928  0.7640  0.0494 -0.7354
 6683SOL     OW31507   4.696   3.825   9.614 -0.3878  0.1472 -0.3927
 6683SOL    HW131508   4.703   3.752   9.553 -0.3666 -0.6216  0.5440
 6683SOL    HW231509   0.038   3.884   9.581 -2.6039  2.7589 -0.3722
 6684SOL     OW31510   2.099   0.026   0.766 -0.2527  0.3187 -0.5012
 6684SOL    HW131511   2.187   0.060   0.753 -0.6738  1.7970  0.5569
 6684SOL    HW231512   2.047   0.085   0.711  0.1753 -0.4101 -1.6896
 6685SOL     OW31513   4.415   0.220   7.606 -0.4784  0.1150  0.8551
 6685SOL    HW131514   4.395   0.306   7.643 -1.8201  1.0062 -1.8955
 6685SOL    HW231515   4.509   0.220   7.622 -0.1722 -0.0451 -0.9426
 6686SOL     OW31516   3.043   2.125   5.990 -0.4873 -0.0792 -0.7522
 6686SOL    HW131517   3.007   2.069   6.059  1.2402  0.7657  0.8412
 6686SOL    HW231518   3.013   2.206   6.032  0.0901  0.1672 -0.8199
 6687SOL     OW31519   0.536   1.274  13.020  0.9268 -0.4973  0.1964
 6687SOL    HW131520   0.589   1.353  13.011 -0.9927  0.7443 -0.1192
 6687SOL    HW231521   0.466   1.287  13.084  0.2253 -0.9009 -0.4858
 6688SOL     OW31522   0.676   4.363   3.895 -0.2127  0.7008 -0.4678
 6688SOL    HW131523   0.715   4.424   3.831  1.8899  0.3075  0.4528
 6688SOL    HW231524   0.729   4.286   3.877 -2.7830 -1.2211  0.1813
 6689SOL     OW31525   2.457   3.204   9.035 -0.0225 -0.3232  0.3288
 6689SOL    HW131526   2.421   3.292   9.023  0.5968  0.0326  1.0716
 6689SOL    HW231527   2.521   3.219   9.105 -0.2940  0.5791  0.3795
 6690SOL     OW31528   1.880   2.455   1.556  0.1080 -0.3744  0.1473
 6690SOL    HW131529   1.935   2.452   1.477 -2.2417 -0.9603 -1.4672
 6690SOL    HW231530   1.835   2.372   1.542  0.2818 -0.3293 -0.6877
 6691SOL     OW31531   4.705   1.129   6.442  0.2654 -0.0942  0.2139
 6691SOL    HW131532   0.047   1.196   6.446  0.6782 -0.5560  1.0233
 6691SOL    HW231533   4.707   1.103   6.534  0.2945  1.8429  0.7602
 6692SOL     OW31534   1.098   4.600   3.547  0.3634 -0.0583 -0.3680
 6692SOL    HW131535   1.131   4.513   3.522 -0.9285 -0.0114 -2.2231
 6692SOL    HW231536   1.094   4.650   3.466  2.7323  0.3486 -0.2282
 6693SOL     OW31537   2.797   0.900  17.214  0.4091  0.7520 -0.5350
 6693SOL    HW131538   2.745   0.908  17.294  0.1910 -2.5584 -0.3556
 6693SOL    HW231539   2.887   0.890  17.246 -0.6380 -2.0561  1.4701
 6694SOL     OW31540   4.698   3.217   6.638  0.1100  0.3605  0.1835
 6694SOL    HW131541   4.661   3.282   6.579  0.6627 -0.1928 -0.7871
 6694SOL    HW231542   0.051   3.263   6.666  1.0326  0.2718 -2.2391
 6695SOL     OW31543   1.492   0.569   5.286 -0.1614 -0.0113  0.2439
 6695SOL    HW131544   1.576   0.614   5.288 -0.1368 -0.1237  1.7572
 6695SOL    HW231545   1.434   0.637   5.319 -2.7861 -1.8461 -0.5633
 6696SOL     OW31546   2.541   3.382   2.062 -0.0160 -0.5509 -0.0140
 6696SOL    HW131547   2.614   3.390   2.000  0.5090  0.4278  0.7187
 6696SOL    HW231548   2.485   3.452   2.029  0.2380  0.7958  2.3473
 6697SOL     OW31549   3.745   1.655   4.091  0.0958  0.0334  0.0763
 6697SOL    HW131550   3.717   1.714   4.160  1.4886 -0.5746  1.1543
 6697SOL    HW231551   3.755   1.709   4.013 -3.0407  0.4487 -0.0626
 6698SOL     OW31552   3.608   1.029   2.409  0.3389  0.0060  0.3378
 6698SOL    HW131553   3.679   1.051   2.348 -1.4133  0.7936 -1.4133
 6698SOL    HW231554   3.615   1.092   2.481  1.5503 -2.3505  2.2696
 6699SOL     OW31555   3.073   3.199   1.586  0.5571  0.2520 -0.6722
 6699SOL    HW131556   3.120   3.266   1.535  0.4783  0.5214 -0.3941
 6699SOL    HW231557   3.135   3.194   1.659  0.1879 -1.6362 -0.5091
 6700SOL     OW31558   3.133   4.640   7.226  0.2733 -0.1030 -0.0579
 6700SOL    HW131559   3.221   4.673   7.243 -0.1001  0.7466  0.2348
 6700SOL    HW231560   3.084   4.693   7.288 -0.2751 -1.4274  0.6530
 6701SOL     OW31561   3.811   4.343  12.934 -0.4162 -0.0887 -0.4231
 6701SOL    HW131562   3.836   4.384  13.017  1.6083 -2.8045  0.3147
 6701SOL    HW231563   3.721   4.374  12.922  0.0488  0.6072 -2.1868
 6702SOL     OW31564   4.432   3.506   3.711 -0.4502  1.2665  0.2697
 6702SOL    HW131565   4.437   3.443   3.639 -0.9793 -0.2892  1.6062
 6702SOL    HW231566   4.517   3.508   3.755 -0.5776  1.3263  0.5130
 6703SOL     OW31567   1.539   3.853   3.185  0.0528 -0.1210  0.1180
 6703SOL    HW131568   1.583   3.887   3.107  0.8190 -2.1430 -0.3004
 6703SOL    HW231569   1.577   3.766   3.187 -0.1491 -0.2031  0.3511
 6704SOL     OW31570   2.731   2.428   2.050  0.0852  0.4704 -0.6970
 6704SOL    HW131571   2.693   2.354   2.097  1.4195  0.0232 -0.3383
 6704SOL    HW231572   2.702   2.414   1.959  0.5778 -2.2255 -0.4211
 6705SOL     OW31573   0.335   0.928   1.930 -0.7963 -0.0063  0.2489
 6705SOL    HW131574   0.327   1.023   1.917 -0.6637 -0.0418 -0.1012
 6705SOL    HW231575   0.370   0.905   1.844  0.5657 -1.4195  1.1867
 6706SOL     OW31576   3.643   4.581  13.250 -0.0540  0.2234 -0.2113
 6706SOL    HW131577   3.691   4.637  13.188 -0.3645 -0.0139 -0.6596
 6706SOL    HW231578   3.599   4.655  13.293  0.2059 -0.1704  0.7383
 6707SOL     OW31579   4.211   2.286   2.983 -0.1363 -0.1562  0.3030
 6707SOL    HW131580   4.306   2.290   2.972 -0.2655  1.5914 -0.0838
 6707SOL    HW231581   4.208   2.201   2.938  0.6860 -0.4122  0.7348
 6708SOL     OW31582   3.136   1.046   2.086  0.8345 -0.0350  0.2302
 6708SOL    HW131583   3.074   1.100   2.135 -1.1042 -2.0889  0.0612
 6708SOL    HW231584   3.081   0.970   2.066 -0.0413  1.1623 -2.0325
 6709SOL     OW31585   4.396   0.276   8.864  0.4275  0.5085 -0.4663
 6709SOL    HW131586   4.426   0.196   8.821  1.6984  0.0520  1.2697
 6709SOL    HW231587   4.395   0.239   8.952 -1.4262  0.4486 -0.5180
 6710SOL     OW31588   1.028   4.273   8.598 -0.0569  0.6427  0.7601
 6710SOL    HW131589   0.992   4.215   8.532  0.4102  2.2125 -0.8911
 6710SOL    HW231590   0.951   4.328   8.612 -0.7815 -0.2399  0.1746
 6711SOL     OW31591   0.145   1.195   5.248 -0.0222  0.2172 -0.5164
 6711SOL    HW131592   0.188   1.118   5.284  0.3191  0.3168 -0.7116
 6711SOL    HW231593   0.120   1.234   5.332  1.2877  0.2753 -0.1561
 6712SOL     OW31594   2.939   4.127   3.098 -0.3550 -0.4503 -0.6914
 6712SOL    HW131595   2.959   4.095   3.010  0.0314 -1.8351 -0.1091
 6712SOL    HW231596   2.846   4.147   3.087 -0.5208 -0.3319  0.8721
 6713SOL     OW31597   4.068   2.624  15.159 -0.2091  0.6982 -0.2601
 6713SOL    HW131598   4.138   2.683  15.135  0.5580 -0.4224 -0.7810
 6713SOL    HW231599   4.129   2.550  15.161  0.7146  1.4946  0.9131
 6714SOL     OW31600   1.181   1.513   4.365 -0.4084  0.1539 -0.1138
 6714SOL    HW131601   1.226   1.541   4.445  0.3615  1.2589 -0.9325
 6714SOL    HW231602   1.241   1.543   4.296 -0.5636  0.4628 -0.1146
 6715SOL     OW31603   1.012   3.442   2.673 -0.5566 -0.3580  0.0700
 6715SOL    HW131604   1.052   3.355   2.664 -0.5067 -0.2846 -0.4010
 6715SOL    HW231605   0.939   3.440   2.611 -1.6196  1.2895  1.2509
 6716SOL     OW31606   4.513   3.718   4.723 -0.0252  0.6612 -0.2650
 6716SOL    HW131607   4.540   3.642   4.774  0.1944  0.4644 -0.6845
 6716SOL    HW231608   4.488   3.687   4.636  0.2367 -0.2721 -0.0070
 6717SOL     OW31609   1.144   3.545   0.637  0.1000 -0.3040 -0.2916
 6717SOL    HW131610   1.108   3.457   0.653  0.1507 -0.2524  0.1125
 6717SOL    HW231611   1.070   3.590   0.677  1.8557  0.4453  2.1171
 6718SOL     OW31612   1.385   0.781   7.851 -0.0164 -0.4333  0.4669
 6718SOL    HW131613   1.470   0.795   7.892  1.7136 -2.2241 -2.5548
 6718SOL    HW231614   1.409   0.795   7.760 -0.8473  1.4305  0.5240
 6719SOL     OW31615   2.901   2.100   4.574  0.1831 -0.6142 -0.2748
 6719SOL    HW131616   2.913   2.099   4.479 -0.1539 -0.6481 -0.3177
 6719SOL    HW231617   2.880   2.007   4.583  2.3660 -1.0839 -0.0050
 6720SOL     OW31618   1.503   2.413   7.855 -0.0403 -0.7872 -0.1000
 6720SOL    HW131619   1.515   2.331   7.902  1.6514 -0.4637  0.0574
 6720SOL    HW231620   1.524   2.483   7.917 -2.6236 -0.4469  0.3758
 6721SOL     OW31621   3.983   4.173   7.546 -0.7585  0.2384 -0.4316
 6721SOL    HW131622   3.920   4.118   7.593 -0.4027 -1.7360 -2.2377
 6721SOL    HW231623   4.001   4.125   7.465 -1.5516  0.5473 -0.7808
 6722SOL     OW31624   1.492   2.839   9.573 -0.0579  0.5302 -0.0147
 6722SOL    HW131625   1.459   2.775   9.636 -0.7926  0.8316 -0.0868
 6722SOL    HW231626   1.554   2.784   9.526 -0.3737 -0.7118  1.0205
 6723SOL     OW31627   2.012   0.891   6.223 -0.0227  0.3389 -0.3501
 6723SOL    HW131628   1.943   0.952   6.194  0.2921  0.7821 -0.1686
 6723SOL    HW231629   2.048   0.852   6.144 -1.2621  1.5449 -1.5265
 6724SOL     OW31630   2.663   3.482  13.537 -0.1880  0.4467  0.7777
 6724SOL    HW131631   2.719   3.455  13.465  1.0228 -2.3178  2.7317
 6724SOL    HW231632   2.638   3.564  13.495 -2.6949 -1.5876 -1.7197
 6725SOL     OW31633   0.533   0.677   7.353  0.5190  0.7077 -0.5066
 6725SOL    HW131634   0.508   0.768   7.368  1.5870  0.8318  0.5460
 6725SOL    HW231635   0.458   0.645   7.304  0.3045 -0.7397  0.7888
 6726SOL     OW31636   2.451   1.358   6.827  0.0763  0.0390  0.3810
 6726SOL    HW131637   2.421   1.383   6.914 -2.1413 -0.4248 -0.2621
 6726SOL    HW231638   2.437   1.439   6.777  0.3513  0.3191  0.7609
 6727SOL     OW31639   1.048   1.495  10.935  0.5024 -0.4664  0.1958
 6727SOL    HW131640   1.061   1.486  11.030  2.9428 -2.3209 -0.3245
 6727SOL    HW231641   1.083   1.416  10.895 -1.3691 -2.5981  2.7314
 6728SOL     OW31642   1.904   4.624   8.899 -0.1255 -0.0826 -1.0807
 6728SOL    HW131643   1.857   4.707   8.892 -1.3949 -0.5481  2.1180
 6728SOL    HW231644   1.858   4.576   8.968 -0.8458  1.5593 -0.3888
 6729SOL     OW31645   3.904   0.671  10.284 -0.5457  0.7217 -0.1906
 6729SOL    HW131646   3.936   0.635  10.367 -1.2782  0.4245 -0.0317
 6729SOL    HW231647   3.819   0.629  10.269 -0.4032 -0.5615  2.6392
 6730SOL     OW31648   2.958   0.922   5.793  0.2200 -0.0128 -0.3583
 6730SOL    HW131649   2.952   0.946   5.701 -0.5528  0.7626 -0.1097
 6730SOL    HW231650   2.869   0.895   5.816  0.4981 -0.9914 -0.4681
 6731SOL     OW31651   4.195   3.215   3.606  0.2499  0.7188  0.1928
 6731SOL    HW131652   4.161   3.126   3.608  1.4105  0.3007  1.3361
 6731SOL    HW231653   4.282   3.193   3.571 -0.5235 -0.9394 -0.6925
 6732SOL     OW31654   3.795   1.543   8.554 -0.6138  0.2749  0.0985
 6732SOL    HW131655   3.733   1.593   8.607  1.8735  1.2166  2.1180
 6732SOL    HW231656   3.874   1.593   8.572  0.2378 -1.6119  1.6264
 6733SOL     OW31657   2.369   3.668   3.797  0.5330  0.0249 -0.2274
 6733SOL    HW131658   2.285   3.627   3.774 -0.6162  1.4580  1.4139
 6733SOL    HW231659   2.404   3.691   3.711  0.6405  0.3361 -0.0974
 6734SOL     OW31660   1.705   3.512  13.743 -0.7152 -0.6966  0.4424
 6734SOL    HW131661   1.668   3.454  13.809 -0.1612 -1.6539 -0.0846
 6734SOL    HW231662   1.742   3.447  13.684 -0.5754  1.3628 -1.7828
 6735SOL     OW31663   1.405   3.974   8.582 -0.0820 -0.5264 -0.1871
 6735SOL    HW131664   1.403   3.952   8.488 -0.0610 -0.4890 -0.1964
 6735SOL    HW231665   1.311   3.983   8.597  0.1833  0.5719  0.7584
 6736SOL     OW31666   3.283   2.914   0.982  0.0691 -0.8623  0.8515
 6736SOL    HW131667   3.274   3.009   0.971  1.9043 -0.9590 -1.3928
 6736SOL    HW231668   3.344   2.914   1.056  3.1642 -0.3965 -1.7178
 6737SOL     OW31669   3.864   1.612   6.494 -0.1814 -0.0731 -0.3356
 6737SOL    HW131670   3.776   1.626   6.529  0.1516 -1.0789  0.8873
 6737SOL    HW231671   3.845   1.540   6.433 -1.4605 -0.0614  0.0421
 6738SOL     OW31672   1.506   2.538   6.178 -0.3506 -0.0262  0.1198
 6738SOL    HW131673   1.490   2.544   6.083  0.8967  0.6392 -0.0523
 6738SOL    HW231674   1.421   2.500   6.199 -0.9700  2.2456  1.6088
 6739SOL     OW31675   0.648   0.766   5.971 -0.3725  0.7641 -0.2728
 6739SOL    HW131676   0.698   0.727   6.042 -2.2064 -2.3048 -0.6480
 6739SOL    HW231677   0.702   0.842   5.950  1.4061 -0.0766  1.3217
 6740SOL     OW31678   2.950   2.152   8.374  0.2699 -0.0251  0.1432
 6740SOL    HW131679   2.912   2.064   8.378 -1.6792  0.8287  0.6935
 6740SOL    HW231680   2.958   2.169   8.281  0.6534 -4.0147 -0.5509
 6741SOL     OW31681   4.086   0.356   6.029 -0.5256  0.5688 -0.0394
 6741SOL    HW131682   4.063   0.275   6.076  1.7212 -1.0359 -1.6498
 6741SOL    HW231683   4.057   0.415   6.098 -0.5733 -0.8062  1.1169
 6742SOL     OW31684   2.408   1.780   7.007 -0.3998 -0.6331  0.3765
 6742SOL    HW131685   2.468   1.727   6.954  0.2703  0.2786  0.2170
 6742SOL    HW231686   2.325   1.781   6.961  0.0590 -2.3980 -0.4957
 6743SOL     OW31687   3.577   2.986  17.133 -0.1177  0.5712  0.2969
 6743SOL    HW131688   3.564   3.009  17.225  1.0791 -3.0240  1.3472
 6743SOL    HW231689   3.666   2.952  17.144  0.6726  1.9850 -1.8793
 6744SOL     OW31690   0.763   0.212   6.492 -0.1552 -0.0731 -0.3517
 6744SOL    HW131691   0.799   0.194   6.405 -1.8624 -1.3996 -0.7906
 6744SOL    HW231692   0.833   0.193   6.554 -0.7226 -1.5935 -0.1649
 6745SOL     OW31693   3.592   0.515  13.365 -0.1220 -0.4893  0.4590
 6745SOL    HW131694   3.605   0.607  13.343 -0.6321 -0.9352 -1.6233
 6745SOL    HW231695   3.559   0.530  13.454 -1.6560  0.9008 -0.3430
 6746SOL     OW31696   0.029   1.208   9.017  0.0013  0.6872  0.2495
 6746SOL    HW131697   0.096   1.240   9.077 -0.0706  0.7664  0.2865
 6746SOL    HW231698   0.003   1.133   9.071 -0.3394 -0.6285 -1.7257
 6747SOL     OW31699   0.354   3.118   5.700 -0.0765  0.4747  0.0972
 6747SOL    HW131700   0.425   3.165   5.657  1.8885 -1.0170  1.7042
 6747SOL    HW231701   0.275   3.134   5.647 -1.8019 -1.0360  2.1901
 6748SOL     OW31702   3.463   2.154   7.100 -0.3577 -0.0747 -0.6441
 6748SOL    HW131703   3.439   2.062   7.108  0.9833 -0.2309  1.5533
 6748SOL    HW231704   3.427   2.192   7.180  2.7367  1.4958  0.0094
 6749SOL     OW31705   4.629   4.292  11.290  0.3134  0.0354 -0.1920
 6749SOL    HW131706   4.612   4.336  11.373  3.4617 -1.4159  1.1898
 6749SOL    HW231707   4.588   4.208  11.309 -0.8069  0.1384 -2.1318
 6750SOL     OW31708   4.496   3.628   7.171 -0.8945 -0.3571  0.2603
 6750SOL    HW131709   4.532   3.696   7.227 -2.2926  0.5709  0.0217
 6750SOL    HW231710   4.415   3.669   7.140 -1.5037 -1.6395  0.1145
 6751SOL     OW31711   3.616   1.979   5.730  0.2290 -0.8956  0.2997
 6751SOL    HW131712   3.548   1.934   5.681  0.7522 -0.5306 -0.7468
 6751SOL    HW231713   3.667   2.029   5.666 -2.7720 -0.0089 -1.3593
 6752SOL     OW31714   1.426   0.392   6.263  0.1877 -0.8396 -0.3306
 6752SOL    HW131715   1.490   0.344   6.210  0.9380 -2.0533  1.6773
 6752SOL    HW231716   1.389   0.326   6.322 -1.0192 -0.6814 -0.9043
 6753SOL     OW31717   0.410   2.880   5.036  0.2865  0.4489  0.1697
 6753SOL    HW131718   0.466   2.849   4.964 -2.9355  1.4245 -2.7561
 6753SOL    HW231719   0.389   2.972   5.024 -0.7364  0.0075 -1.5362
 6754SOL     OW31720   2.392   0.680   3.700 -0.5180 -0.4731  0.4602
 6754SOL    HW131721   2.317   0.642   3.655 -1.5612  1.8717  0.2082
 6754SOL    HW231722   2.453   0.687   3.626  0.1028 -3.3211  0.6789
 6755SOL     OW31723   3.994   0.881   0.909 -0.3702 -0.2722 -0.0365
 6755SOL    HW131724   3.921   0.886   0.970 -1.0291  0.0606 -0.8467
 6755SOL    HW231725   3.937   0.828   0.853  0.4112 -0.2079 -0.8866
 6756SOL     OW31726   4.398   3.981   4.944  0.6693  0.8814  0.5194
 6756SOL    HW131727   4.457   3.919   4.901  0.7490  1.2602  0.0879
 6756SOL    HW231728   4.415   4.062   4.896 -0.6737  0.2521 -1.0096
 6757SOL     OW31729   3.612   0.446   4.046  0.4570 -0.2330 -0.3585
 6757SOL    HW131730   3.535   0.495   4.078  0.4706  0.7798 -1.8854
 6757SOL    HW231731   3.622   0.464   3.953  1.2393 -0.8057 -0.3838
 6758SOL     OW31732   2.560   4.461   1.113 -0.0331 -0.0400 -0.0704
 6758SOL    HW131733   2.592   4.542   1.073 -1.1164  1.0361  1.2749
 6758SOL    HW231734   2.511   4.500   1.185  0.3323 -0.7332  0.5525
 6759SOL     OW31735   2.304   0.610  16.031  0.2368  0.1497  0.6511
 6759SOL    HW131736   2.230   0.637  16.086 -0.3183  1.6456 -0.8320
 6759SOL    HW231737   2.273   0.648  15.949 -0.5902 -0.3836  0.7154
 6760SOL     OW31738   4.494   0.385   9.328 -0.2899 -0.1849 -0.1369
 6760SOL    HW131739   4.519   0.358   9.417  2.0671 -2.0902 -1.3686
 6760SOL    HW231740   4.566   0.352   9.274 -0.7041 -0.5036 -0.4851
 6761SOL     OW31741   3.711   0.787  13.427  0.1918 -0.1113  0.7040
 6761SOL    HW131742   3.741   0.766  13.515  2.4775  0.9832  0.1840
 6761SOL    HW231743   3.637   0.843  13.449  1.1959  1.1533  0.8927
 6762SOL     OW31744   2.400   2.239   7.951  0.2061 -0.4036 -0.8070
 6762SOL    HW131745   2.472   2.192   7.911  0.3455 -1.0807  0.2241
 6762SOL    HW231746   2.441   2.322   7.977  2.2109 -0.9739 -2.2189
 6763SOL     OW31747   4.340   4.210   3.170  0.1891  0.5107  0.0189
 6763SOL    HW131748   4.306   4.164   3.247  1.0191 -1.5196 -0.8363
 6763SOL    HW231749   4.273   4.275   3.147 -1.5027 -0.4343  2.2287
 6764SOL     OW31750   0.054   1.484   4.156  0.0110  0.0921 -0.0425
 6764SOL    HW131751   0.080   1.431   4.232  1.5998  0.6266 -0.2357
 6764SOL    HW231752   0.068   1.424   4.083 -0.1224  0.7404 -0.6002
 6765SOL     OW31753   1.523   2.465  10.903 -0.2440  0.4018 -0.0671
 6765SOL    HW131754   1.590   2.397  10.899 -1.6781 -1.1559  2.2046
 6765SOL    HW231755   1.452   2.420  10.950  2.2557  0.7621  4.0982
 6766SOL     OW31756   4.277   4.454   0.729  0.3397  0.2225  0.1182
 6766SOL    HW131757   4.318   4.515   0.790 -1.8338 -1.4494  3.2286
 6766SOL    HW231758   4.193   4.497   0.714  0.9329  1.4965  0.4449
 6767SOL     OW31759   3.328   4.076  17.518 -0.4799  0.0376 -0.2736
 6767SOL    HW131760   3.354   4.121  17.438 -3.3195  0.9160 -0.6831
 6767SOL    HW231761   3.412   4.058  17.561  0.4523  0.1292 -2.0425
 6768SOL     OW31762   2.427   3.959   0.905 -0.0566  0.2633 -0.5462
 6768SOL    HW131763   2.415   3.864   0.917 -0.0419  0.5508  1.9248
 6768SOL    HW231764   2.425   3.949   0.810 -1.8899 -1.7084 -0.3116
 6769SOL     OW31765   4.538   3.971   8.700  0.6318  0.6335  0.1392
 6769SOL    HW131766   4.553   3.982   8.606  2.4058  0.5901  0.4160
 6769SOL    HW231767   4.444   3.982   8.707  0.0556 -2.0813 -3.3606
 6770SOL     OW31768   3.305   3.692   7.090  0.4878 -0.3974 -0.0008
 6770SOL    HW131769   3.310   3.700   6.995 -1.2410  1.9742  0.0997
 6770SOL    HW231770   3.211   3.706   7.102  0.7467  1.1461  0.1998
 6771SOL     OW31771   2.976   3.836   7.347  0.3634  0.2496  0.2357
 6771SOL    HW131772   2.942   3.921   7.374 -1.7918 -0.2474 -0.9726
 6771SOL    HW231773   3.045   3.824   7.412 -1.1471 -0.2143  1.7248
 6772SOL     OW31774   2.795   3.902   2.251  0.1686 -0.4181 -0.4157
 6772SOL    HW131775   2.889   3.896   2.271 -0.1700 -1.3001  0.9198
 6772SOL    HW231776   2.789   3.828   2.190  2.4951 -0.4968 -0.5531
 6773SOL     OW31777   4.697   4.171   2.544 -0.1910 -0.4739 -0.5587
 6773SOL    HW131778   4.665   4.205   2.628  0.5587 -0.1620 -0.3983
 6773SOL    HW231779   4.623   4.124   2.507  0.2581 -0.0567 -1.9901
 6774SOL     OW31780   3.490   2.311   7.337 -0.7441 -0.0420 -0.4380
 6774SOL    HW131781   3.530   2.238   7.384 -3.2196 -0.3547  1.2002
 6774SOL    HW231782   3.403   2.302   7.376 -0.8816 -0.6610 -0.8795
 6775SOL     OW31783   2.414   0.581   5.664  0.1463 -0.2855  0.8035
 6775SOL    HW131784   2.431   0.492   5.633  1.9771  1.6446 -3.7890
 6775SOL    HW231785   2.422   0.562   5.757 -0.3065  1.6188  1.2326
 6776SOL     OW31786   1.900   2.804   5.022 -0.2930 -0.3273 -0.0965
 6776SOL    HW131787   1.875   2.713   5.040  2.2234 -0.7505  1.2420
 6776SOL    HW231788   1.930   2.798   4.931 -2.1818 -0.1929 -0.7422
 6777SOL     OW31789   2.195   3.675   6.147  0.5446  0.4608 -0.0935
 6777SOL    HW131790   2.250   3.610   6.190  0.4204 -0.3530 -1.1557
 6777SOL    HW231791   2.254   3.750   6.145 -1.1703  1.7884 -1.4461
 6778SOL     OW31792   4.426   1.663   1.077 -0.0787  0.4663 -0.1919
 6778SOL    HW131793   4.350   1.673   1.134  0.5704  2.2202  0.3439
 6778SOL    HW231794   4.430   1.568   1.091  1.1870  0.5910  0.3222
 6779SOL     OW31795   2.926   1.052   2.824  0.3260 -0.2191 -0.0285
 6779SOL    HW131796   2.901   0.983   2.763  1.2369 -0.8602  0.3183
 6779SOL    HW231797   2.848   1.107   2.822 -0.6708 -1.6067  0.6287
 6780SOL     OW31798   1.003   1.705  12.178 -0.2584 -0.5321 -0.1136
 6780SOL    HW131799   1.059   1.679  12.105 -2.8190 -2.3112 -1.4599
 6780SOL    HW231800   1.060   1.776  12.207  0.4655 -1.7356  1.4508
 6781SOL     OW31801   3.953   3.578   5.834  0.1506  0.2246 -0.1182
 6781SOL    HW131802   3.936   3.558   5.926  3.0884 -0.5391  0.2673
 6781SOL    HW231803   4.032   3.629   5.856  1.1749 -2.9322  3.4617
 6782SOL     OW31804   4.611   4.013   0.062  0.6762 -0.2256  0.3260
 6782SOL    HW131805   4.663   3.937   0.087 -0.9687 -0.9558  1.4860
 6782SOL    HW231806   4.536   3.970   0.021 -2.3493  3.7546  1.7415
 6783SOL     OW31807   0.344   3.424   1.607  0.8790  0.2668  0.0153
 6783SOL    HW131808   0.379   3.475   1.534 -0.4553 -1.9067 -2.1080
 6783SOL    HW231809   0.271   3.382   1.563  1.6398 -1.8689  0.8012
 6784SOL     OW31810   4.276   1.715   3.694 -0.0103  0.0990  0.0659
 6784SOL    HW131811   4.185   1.706   3.722 -0.0177  0.0908  0.0394
 6784SOL    HW231812   4.288   1.659   3.616  1.7483  0.8550 -0.2201
 6785SOL     OW31813   3.031   1.534   5.028 -0.0950  0.0948  0.0102
 6785SOL    HW131814   3.034   1.609   4.967  0.7634  0.8835  1.0200
 6785SOL    HW231815   2.947   1.497   5.003 -0.9444  0.8670  1.7122
 6786SOL     OW31816   1.371   2.727   6.732 -0.2663 -0.3723  0.2046
 6786SOL    HW131817   1.446   2.784   6.748 -0.0965  0.6552 -4.2139
 6786SOL    HW231818   1.362   2.669   6.807  3.1475 -0.5552  0.4784
 6787SOL     OW31819   1.707   3.388   9.502  0.0546  0.2359 -0.2517
 6787SOL    HW131820   1.637   3.397   9.566 -0.3386  2.8484 -1.0449
 6787SOL    HW231821   1.700   3.294   9.485  1.7261  0.2736 -1.1785
 6788SOL     OW31822   0.165   2.027   9.485 -0.4724  0.3995 -0.2087
 6788SOL    HW131823   0.187   1.971   9.411 -1.4057 -2.1036  1.4394
 6788SOL    HW231824   0.239   2.088   9.487 -0.1901 -0.0323  2.4118
 6789SOL     OW31825   1.957   0.775   8.039  0.0411  0.1297 -0.3213
 6789SOL    HW131826   1.993   0.703   8.091 -0.7884 -0.5750 -0.6985
 6789SOL    HW231827   2.006   0.851   8.068  2.3152 -2.2009  1.9037
 6790SOL     OW31828   2.346   3.799  10.007 -0.1520 -0.1821 -0.5310
 6790SOL    HW131829   2.414   3.751  10.053 -0.8048 -0.4860  0.1214
 6790SOL    HW231830   2.390   3.833   9.929  0.5188 -1.2041 -0.6073
 6791SOL     OW31831   0.729   0.002  14.052 -0.3517 -0.3184 -0.4617
 6791SOL    HW131832   0.806   4.691  14.009 -0.1296  1.4101 -1.5780
 6791SOL    HW231833   0.670   4.658  14.078  2.1496 -1.6714  1.5319
 6792SOL     OW31834   4.115   2.886   3.627  0.5774 -0.6782  0.5046
 6792SOL    HW131835   4.197   2.927   3.599  0.1966 -0.6590 -0.6039
 6792SOL    HW231836   4.053   2.909   3.557  1.4705 -0.6116 -0.2568
 6793SOL     OW31837   3.916   1.977  10.811  0.6136  0.0186 -0.0425
 6793SOL    HW131838   3.947   1.955  10.899  1.6130  0.1183 -0.3618
 6793SOL    HW231839   3.940   2.070  10.816 -1.1507  0.4360  0.7424
 6794SOL     OW31840   2.478   1.897  10.752  0.9012 -0.2278 -0.0026
 6794SOL    HW131841   2.556   1.952  10.749  0.6383  0.1404 -0.0430
 6794SOL    HW231842   2.419   1.938  10.689 -0.7376 -0.9201  1.1028
 6795SOL     OW31843   3.344   1.933   9.198  0.8074 -0.0255  0.0491
 6795SOL    HW131844   3.341   1.964   9.108 -1.9188  1.8034  0.7836
 6795SOL    HW231845   3.405   1.861   9.180  0.0396 -0.5604 -0.4198
 6796SOL     OW31846   1.852   3.478   8.050 -0.6518 -0.5602  0.2086
 6796SOL    HW131847   1.880   3.557   8.097  2.3069 -1.6138  0.1546
 6796SOL    HW231848   1.790   3.441   8.113 -1.6684 -0.0149 -0.4689
 6797SOL     OW31849   1.617   0.050   8.202 -0.6351 -0.0353 -0.4944
 6797SOL    HW131850   1.624   4.684   8.176 -0.2930 -0.0948 -0.1845
 6797SOL    HW231851   1.549   0.075   8.139  0.2238  2.0122 -0.6100
 6798SOL     OW31852   2.510   2.294   3.683 -0.3997  0.0643  0.1094
 6798SOL    HW131853   2.418   2.319   3.688 -0.8828 -1.8657  0.9856
 6798SOL    HW231854   2.511   2.261   3.593 -1.8942  1.0974 -0.2792
 6799SOL     OW31855   3.946   0.065  12.337  0.4390 -0.9457  0.0829
 6799SOL    HW131856   4.019   0.098  12.285 -0.5801  0.9536 -0.1601
 6799SOL    HW231857   3.887   0.138  12.319  0.0668 -0.8549  1.7074
 6800SOL     OW31858   4.136   1.233  11.821 -0.6699 -0.1925  0.7950
 6800SOL    HW131859   4.123   1.318  11.778  0.8531  0.7686  2.2768
 6800SOL    HW231860   4.194   1.191  11.757 -3.0303  1.4405 -2.4149
 6801SOL     OW31861   2.591   4.035   5.092  0.8917  0.9445 -0.5351
 6801SOL    HW131862   2.675   4.079   5.074  0.8387  0.8455 -1.0275
 6801SOL    HW231863   2.588   4.040   5.187  2.5432 -2.1553 -0.3350
 6802SOL     OW31864   1.472   0.706  10.278 -0.1540  0.2368  0.2189
 6802SOL    HW131865   1.478   0.696  10.373  0.0457 -0.4983  0.1270
 6802SOL    HW231866   1.510   0.624  10.246 -1.0382 -0.0666 -0.0687
 6803SOL     OW31867   1.333   4.671  11.000  0.3603 -0.2013  0.2752
 6803SOL    HW131868   1.265   4.655  10.934 -0.5068  0.9390  0.8840
 6803SOL    HW231869   1.317   4.618  11.078 -1.0018  1.4349  1.1098
 6804SOL     OW31870   3.670   1.606   2.267  0.4572  0.2589 -0.4371
 6804SOL    HW131871   3.625   1.592   2.184  0.2901  0.5374 -0.3950
 6804SOL    HW231872   3.614   1.669   2.313  0.0801 -0.3936 -0.0059
 6805SOL     OW31873   4.074   3.158   6.913  0.3037  0.1770 -0.0616
 6805SOL    HW131874   4.114   3.099   6.849  0.1422  1.5766 -1.4693
 6805SOL    HW231875   3.980   3.150   6.896  0.6136  1.0143 -2.2638
 6806SOL     OW31876   3.185   1.371   7.852 -0.6274  0.0199  0.1208
 6806SOL    HW131877   3.251   1.428   7.813  0.5196  1.2328  3.8015
 6806SOL    HW231878   3.241   1.351   7.928  1.3501 -4.3713 -2.4514
 6807SOL     OW31879   2.642   2.383  15.931 -0.7387  0.2217 -0.7244
 6807SOL    HW131880   2.632   2.477  15.945  1.9638  0.3391  0.4745
 6807SOL    HW231881   2.704   2.363  16.001 -1.5139  0.4059  0.0089
 6808SOL     OW31882   1.935   3.761   6.233 -0.2895  0.2553  0.1107
 6808SOL    HW131883   1.962   3.787   6.144 -0.5701 -1.6869 -0.5392
 6808SOL    HW231884   2.020   3.724   6.257 -0.9384 -1.6009 -0.4919
 6809SOL     OW31885   1.152   2.851  17.258 -0.2493 -0.5261 -0.3264
 6809SOL    HW131886   1.230   2.803  17.286  0.6446 -0.2300 -2.3117
 6809SOL    HW231887   1.191   2.877  17.175  0.8134 -0.1502  0.2959
 6810SOL     OW31888   1.509   3.356   9.680 -0.2399  0.8005 -0.6276
 6810SOL    HW131889   1.439   3.421   9.678  0.6802  1.7786 -1.1295
 6810SOL    HW231890   1.473   3.289   9.738 -0.3478 -1.5502 -3.4041
 6811SOL     OW31891   0.285   3.324   5.188  0.4256 -0.3306 -0.7800
 6811SOL    HW131892   0.333   3.258   5.237  1.1584 -0.7030 -2.0022
 6811SOL    HW231893   0.289   3.403   5.241 -0.9679 -1.1512  0.5563
 6812SOL     OW31894   2.628   2.864   7.300  0.8831  0.9555  0.2731
 6812SOL    HW131895   2.619   2.786   7.246 -0.9151  1.6200 -0.3969
 6812SOL    HW231896   2.535   2.876   7.319  1.6345  2.4745  3.0357
 6813SOL     OW31897   2.326   1.686  16.155  0.1747 -0.2364 -0.4518
 6813SOL    HW131898   2.393   1.665  16.221  0.3534  1.7172 -0.0201
 6813SOL    HW231899   2.265   1.617  16.181 -0.4139  0.8413  1.0077
 6814SOL     OW31900   0.282   3.833   7.567  0.0892 -0.1009  0.2523
 6814SOL    HW131901   0.333   3.827   7.486  0.6172  1.5144  0.4533
 6814SOL    HW231902   0.279   3.929   7.574  2.7919 -0.1105  1.7879
 6815SOL     OW31903   1.168   2.103  10.683 -0.6246  0.3306  0.2034
 6815SOL    HW131904   1.215   2.142  10.757  1.7840  1.9549 -2.1695
 6815SOL    HW231905   1.097   2.055  10.724  1.5461 -1.8996  1.3266
 6816SOL     OW31906   3.796   3.745  12.595 -0.3373 -0.3105  0.6562
 6816SOL    HW131907   3.704   3.723  12.610 -0.0697 -1.1721  1.1170
 6816SOL    HW231908   3.784   3.808  12.525 -0.7878 -0.0441  0.9806
 6817SOL     OW31909   1.961   2.854   5.896 -0.5737 -1.0170  0.0143
 6817SOL    HW131910   1.917   2.882   5.816  0.3278 -1.5013 -0.6493
 6817SOL    HW231911   2.048   2.834   5.862 -1.4016 -1.5995 -1.7612
 6818SOL     OW31912   4.234   2.386  15.142  0.1352 -0.4962 -0.2004
 6818SOL    HW131913   4.238   2.390  15.047  0.3024 -1.2725 -0.2211
 6818SOL    HW231914   4.285   2.306  15.154  0.5353  0.1081  2.2265
 6819SOL     OW31915   0.941   3.814   3.375  0.0195 -0.2414  0.3279
 6819SOL    HW131916   1.034   3.835   3.385  0.7865 -4.0216  0.8464
 6819SOL    HW231917   0.949   3.724   3.405 -0.8621 -0.2948  0.3892
 6820SOL     OW31918   0.025   0.471   8.656  0.3043 -0.3964 -0.3795
 6820SOL    HW131919   4.671   0.465   8.708  0.1993  1.0129 -0.3838
 6820SOL    HW231920   4.723   0.460   8.565  0.6175 -0.4070 -0.4748
 6821SOL     OW31921   2.032   0.970  12.255  0.6768 -0.2331  0.5989
 6821SOL    HW131922   2.062   0.925  12.176  0.4481 -1.6181  1.3052
 6821SOL    HW231923   2.112   1.017  12.280  0.0197  0.1085  2.0207
 6822SOL     OW31924   3.203   1.318   8.698  0.1418 -0.2338  0.7669
 6822SOL    HW131925   3.146   1.298   8.772 -1.1872  2.7541  0.5526
 6822SOL    HW231926   3.148   1.304   8.621  0.1957  3.6024  0.0303
 6823SOL     OW31927   4.320   1.145   5.984 -0.2494 -0.2420  0.4719
 6823SOL    HW131928   4.233   1.124   5.951  0.8987  0.1821 -2.9127
 6823SOL    HW231929   4.346   1.075   6.043  1.8344  0.3625  0.2946
 6824SOL     OW31930   0.215   4.521   3.692  0.6981 -0.3267 -0.4945
 6824SOL    HW131931   0.183   4.443   3.738 -0.7143  0.8588  0.5329
 6824SOL    HW231932   0.186   4.591   3.749 -1.0813 -0.5987 -1.0587
 6825SOL     OW31933   1.576   1.890   6.366 -0.3276  0.2454  0.5741
 6825SOL    HW131934   1.486   1.905   6.394  0.3578  0.8516  2.4464
 6825SOL    HW231935   1.567   1.801   6.331  2.9608 -0.0900  0.5564
 6826SOL     OW31936   3.802   2.711   8.960 -0.2067 -0.0401 -0.1271
 6826SOL    HW131937   3.877   2.662   8.992 -0.7349 -1.7426 -1.5150
 6826SOL    HW231938   3.744   2.638   8.940  0.0365  0.4118 -2.5421
 6827SOL     OW31939   3.660   0.139   3.055 -0.0784 -0.0773 -0.1195
 6827SOL    HW131940   3.716   0.083   3.002  0.7885 -0.3107  1.0443
 6827SOL    HW231941   3.669   0.095   3.140 -3.1061  0.2499  0.3893
 6828SOL     OW31942   4.003   3.853   5.039 -0.0957 -0.2295 -0.2477
 6828SOL    HW131943   4.032   3.835   5.129 -1.4694 -0.8774  0.0686
 6828SOL    HW231944   4.079   3.822   4.992 -0.7889 -0.7174 -1.0440
 6829SOL     OW31945   0.904   0.124   3.408  0.1837 -0.3839  0.7909
 6829SOL    HW131946   0.825   0.152   3.361  1.3005  0.8711 -0.2962
 6829SOL    HW231947   0.879   0.031   3.413  0.8855 -0.7147 -2.2315
 6830SOL     OW31948   2.945   4.006   3.337  0.2310 -0.5131  0.0792
 6830SOL    HW131949   2.954   3.912   3.321 -0.0263 -0.6322  0.6366
 6830SOL    HW231950   2.958   4.049   3.253 -2.3670  0.5363  0.2281
 6831SOL     OW31951   0.179   2.779   5.157 -0.5179 -0.0891 -0.0601
 6831SOL    HW131952   0.255   2.807   5.106  1.3240 -0.5850  2.4096
 6831SOL    HW231953   0.174   2.849   5.222  1.7107  0.6326 -0.6666
 6832SOL     OW31954   0.112   3.482   8.607  0.1588 -0.0283  0.0264
 6832SOL    HW131955   0.158   3.547   8.554 -0.8357  1.2882  0.7785
 6832SOL    HW231956   0.023   3.478   8.572  0.4803  3.3361 -1.1678
 6833SOL     OW31957   0.523   1.211  11.661 -0.0436  0.2992 -0.2437
 6833SOL    HW131958   0.490   1.139  11.607  0.3251 -0.1622  0.1338
 6833SOL    HW231959   0.514   1.285  11.602  0.5689 -0.1350 -0.8834
 6834SOL     OW31960   3.156   3.921   3.103  0.1740 -0.7867 -0.1378
 6834SOL    HW131961   3.219   3.853   3.083  2.4802  1.3210 -0.0354
 6834SOL    HW231962   3.084   3.903   3.042 -0.9364  0.3183  0.8241
 6835SOL     OW31963   4.685   3.089   3.643  0.8282 -0.3371  0.8091
 6835SOL    HW131964   0.026   3.143   3.685  1.4366 -1.4548  1.2442
 6835SOL    HW231965   0.015   3.025   3.600  0.8181 -0.3020  0.7428
 6836SOL     OW31966   2.342   2.220   6.247 -0.0713  0.3122 -0.2678
 6836SOL    HW131967   2.252   2.206   6.274 -0.0225  2.0464  0.7685
 6836SOL    HW231968   2.355   2.313   6.263  2.6385  0.2192 -1.8092
 6837SOL     OW31969   4.661   3.807  15.922  0.2155 -0.2988 -0.1281
 6837SOL    HW131970   4.603   3.796  15.847  0.4365 -0.0203 -0.3385
 6837SOL    HW231971   4.600   3.767  15.984 -1.5222  0.6655 -1.2430
 6838SOL     OW31972   3.918   2.702   6.774 -0.0881  0.2609  0.9787
 6838SOL    HW131973   3.899   2.609   6.764 -0.2750  0.3026  0.9494
 6838SOL    HW231974   3.994   2.697   6.715 -1.3699 -1.5156 -0.5399
 6839SOL     OW31975   3.911   2.622   7.683 -0.2635 -0.2698  0.4372
 6839SOL    HW131976   3.869   2.709   7.686  1.6830  0.7062 -0.6031
 6839SOL    HW231977   3.965   2.624   7.604 -2.0736 -1.8849 -0.8290
 6840SOL     OW31978   4.121   0.579   0.494  0.5722  0.0729  0.2326
 6840SOL    HW131979   4.143   0.488   0.473  1.1150  0.4621 -0.9054
 6840SOL    HW231980   4.039   0.566   0.541  0.2858 -1.7800 -0.7662
 6841SOL     OW31981   1.165   0.100   4.525 -0.1735  0.2026 -0.2800
 6841SOL    HW131982   1.205   0.176   4.483 -1.5156  0.9313 -0.2484
 6841SOL    HW231983   1.136   0.135   4.609  1.2667  3.0056 -0.9480
 6842SOL     OW31984   3.126   2.044   4.862 -0.4379  0.2675 -0.0125
 6842SOL    HW131985   3.219   2.037   4.881 -0.4773  0.5085  0.2669
 6842SOL    HW231986   3.111   2.133   4.830  0.4573  0.0734 -0.9354
 6843SOL     OW31987   0.264   3.557   7.101  0.2671 -0.3497  0.3900
 6843SOL    HW131988   0.173   3.536   7.124  0.2207 -0.5962 -0.0070
 6843SOL    HW231989   0.262   3.652   7.089 -3.3461 -0.4167  0.3255
 6844SOL     OW31990   3.856   2.967   5.106  0.1862  0.4674  0.8806
 6844SOL    HW131991   3.762   2.978   5.117 -0.2833 -2.5471 -0.1156
 6844SOL    HW231992   3.867   2.968   5.011 -1.1282  0.2819  0.7292
 6845SOL     OW31993   3.516   4.124   1.436  0.4309  0.2919  0.1243
 6845SOL    HW131994   3.574   4.110   1.361 -0.0083  1.2765 -0.4033
 6845SOL    HW231995   3.471   4.039   1.446 -0.4916  0.8354  0.6088
 6846SOL     OW31996   3.564   3.430  11.219 -0.0814 -0.5861  0.1732
 6846SOL    HW131997   3.616   3.349  11.215  0.2701 -0.4772  2.5135
 6846SOL    HW231998   3.621   3.498  11.255 -0.5271  0.0849 -0.4166
 6847SOL     OW31999   3.929   1.243   4.905  0.0138 -0.4355 -0.0361
 6847SOL    HW132000   3.854   1.205   4.951  0.6141 -1.2902  0.2435
 6847SOL    HW232001   3.895   1.265   4.818  0.7395  4.8098  0.9765
 6848SOL     OW32002   2.581   1.252   4.258 -0.5207  0.6221  0.4754
 6848SOL    HW132003   2.534   1.295   4.187  0.6721  0.2900 -0.5012
 6848SOL    HW232004   2.654   1.311   4.275 -0.3981  1.2754 -2.3112
 6849SOL     OW32005   3.173   2.753   2.710  0.6206  0.4006  0.2595
 6849SOL    HW132006   3.121   2.723   2.785  0.0345 -0.3693 -0.4483
 6849SOL    HW232007   3.250   2.696   2.719  1.7636  1.9297  0.1258
 6850SOL     OW32008   3.109   3.448   6.995 -0.4525 -0.1764  0.3770
 6850SOL    HW132009   3.174   3.428   7.063 -0.0250 -1.2766 -0.3605
 6850SOL    HW232010   3.051   3.517   7.028  1.0121  0.0220  2.5578
 6851SOL     OW32011   2.560   1.264   5.736 -0.5947 -0.3386 -0.1681
 6851SOL    HW132012   2.484   1.300   5.689 -1.0286  0.4846  1.1613
 6851SOL    HW232013   2.624   1.267   5.665 -0.8606 -0.4801 -0.4187
 6852SOL     OW32014   1.978   3.067   4.559  0.2013  0.2379  0.0310
 6852SOL    HW132015   1.883   3.076   4.567  0.0651 -0.1229 -1.1091
 6852SOL    HW232016   2.012   3.115   4.634 -2.5111  0.6222  1.0149
 6853SOL     OW32017   3.711   0.750   3.785  0.8605  0.0080  0.0585
 6853SOL    HW132018   3.798   0.758   3.747  0.4654 -0.9597 -1.0665
 6853SOL    HW232019   3.701   0.828   3.839  2.1825  0.5709 -0.5177
 6854SOL     OW32020   3.392   1.062  15.589  0.1170 -0.3412 -0.1437
 6854SOL    HW132021   3.345   1.090  15.511  0.1090  0.2413  0.0696
 6854SOL    HW232022   3.407   1.146  15.634  0.8916 -1.9457  2.6038
 6855SOL     OW32023   3.565   4.057   6.458 -0.3952  0.7253  0.1464
 6855SOL    HW132024   3.591   3.971   6.490  0.0449  1.4867  1.8637
 6855SOL    HW232025   3.648   4.105   6.457 -0.5633  1.0315  1.1006
 6856SOL     OW32026   0.193   2.041   3.297 -0.1594  0.2284 -0.3561
 6856SOL    HW132027   0.106   2.077   3.315  0.6815  1.9275  0.3142
 6856SOL    HW232028   0.238   2.125   3.294  1.8514 -0.8708 -0.4210
 6857SOL     OW32029   3.079   2.548  10.133 -0.0685 -0.3984 -0.1479
 6857SOL    HW132030   3.092   2.602  10.055 -0.3260  0.0581  0.1231
 6857SOL    HW232031   3.167   2.555  10.170 -0.1197 -1.7057  0.2080
 6858SOL     OW32032   2.709   1.125   1.703  0.1252  0.3532 -0.0276
 6858SOL    HW132033   2.770   1.110   1.776 -0.3714 -0.5652  0.1941
 6858SOL    HW232034   2.751   1.079   1.631  1.5621 -0.5510  1.4050
 6859SOL     OW32035   1.587   2.668   1.775 -0.1278 -0.5377 -0.1814
 6859SOL    HW132036   1.505   2.696   1.734  0.2032  0.0161 -0.4576
 6859SOL    HW232037   1.564   2.619   1.854 -0.5794 -0.5373 -0.3100
 6860SOL     OW32038   1.051   2.075  16.140 -0.5845  0.3568 -0.3013
 6860SOL    HW132039   1.036   2.065  16.234 -0.2648 -0.3306 -0.3269
 6860SOL    HW232040   1.088   2.162  16.124  0.1860 -0.2121 -1.5869
 6861SOL     OW32041   0.089   0.699   3.496  0.2963  0.2352 -0.1685
 6861SOL    HW132042   0.060   0.737   3.413  2.8140  1.1695 -0.6082
 6861SOL    HW232043   0.152   0.638   3.458 -1.1403 -0.2374 -1.7970
 6862SOL     OW32044   4.590   4.211  10.256 -0.0679 -0.4641 -0.1697
 6862SOL    HW132045   4.563   4.139  10.314  0.1373 -0.8512 -0.5576
 6862SOL    HW232046   4.613   4.171  10.173 -1.5978 -0.7883 -0.4421
 6863SOL     OW32047   2.610   3.561   3.832 -0.2362 -0.2008 -0.1889
 6863SOL    HW132048   2.578   3.472   3.819 -2.6870  0.6224  0.1405
 6863SOL    HW232049   2.529   3.612   3.822  0.5296  0.8954 -0.8663
 6864SOL     OW32050   4.171   0.575   3.160 -0.1164  0.2777 -0.0512
 6864SOL    HW132051   4.134   0.488   3.143 -0.4663  0.2389  0.9038
 6864SOL    HW232052   4.188   0.599   3.069 -0.2464  1.9560  0.3688
 6865SOL     OW32053   0.324   0.951   3.628 -0.5844  0.6630 -0.4292
 6865SOL    HW132054   0.378   0.993   3.562  2.1633  0.6469  1.7743
 6865SOL    HW232055   0.387   0.945   3.700 -2.0532 -0.3577  0.7752
 6866SOL     OW32056   2.233   3.270  10.220 -0.0900 -0.0779  0.2391
 6866SOL    HW132057   2.274   3.247  10.137  1.1567 -0.2776  0.9071
 6866SOL    HW232058   2.267   3.198  10.273 -1.7911 -1.5636 -0.6742
 6867SOL     OW32059   2.514   2.821  12.541  0.0253 -0.7006 -0.4915
 6867SOL    HW132060   2.437   2.828  12.484  0.2538  0.3151 -0.6723
 6867SOL    HW232061   2.465   2.841  12.621  1.8184  1.4075  0.0670
 6868SOL     OW32062   2.389   0.645   0.926 -0.1275 -0.2161  0.3331
 6868SOL    HW132063   2.422   0.642   1.016 -2.3982 -0.8871  1.1395
 6868SOL    HW232064   2.337   0.725   0.926  0.5880  0.2486 -1.9695
 6869SOL     OW32065   2.516   3.909   6.719 -0.3989  0.3768 -0.5445
 6869SOL    HW132066   2.544   3.831   6.767 -1.6043  1.6552  2.2174
 6869SOL    HW232067   2.558   3.977   6.771  0.4864 -0.4437 -0.1839
 6870SOL     OW32068   1.406   3.439   3.167  0.0194 -0.1586  0.9652
 6870SOL    HW132069   1.454   3.380   3.109  0.8500  0.7376  0.7314
 6870SOL    HW232070   1.345   3.485   3.109 -0.3132 -0.9652  0.6799
 6871SOL     OW32071   3.868   4.116  11.107  0.3897 -0.3414 -0.1956
 6871SOL    HW132072   3.819   4.143  11.185  1.0975 -0.3878  0.2613
 6871SOL    HW232073   3.801   4.085  11.046 -1.5095 -0.3420  1.8788
 6872SOL     OW32074   3.331   3.427   5.240  0.1746  0.5337 -0.2230
 6872SOL    HW132075   3.252   3.417   5.293 -1.1582 -0.2831 -2.3614
 6872SOL    HW232076   3.320   3.518   5.212 -1.4852  0.9723  1.8806
 6873SOL     OW32077   0.350   4.457   8.704 -0.4189  0.3651 -0.3212
 6873SOL    HW132078   0.406   4.505   8.644 -0.4734 -0.2863 -0.8891
 6873SOL    HW232079   0.298   4.523   8.750  2.9399  1.7165  1.5240
 6874SOL     OW32080   4.356   2.858  16.241 -0.2483  0.0426 -0.1531
 6874SOL    HW132081   4.431   2.829  16.293 -0.5244  3.0084  1.9345
 6874SOL    HW232082   4.370   2.950  16.265 -0.4729  0.3752 -1.3309
 6875SOL     OW32083   1.641   3.049   2.631  0.1247  0.1191  0.6045
 6875SOL    HW132084   1.641   2.985   2.560  1.7160  1.0593 -0.2347
 6875SOL    HW232085   1.557   3.026   2.671 -0.4080  3.1344  1.2464
 6876SOL     OW32086   1.119   4.306  14.880  0.0960 -0.5539  0.6810
 6876SOL    HW132087   1.098   4.266  14.965  0.0883 -1.0959  0.4235
 6876SOL    HW232088   1.190   4.366  14.901 -1.0440  0.7718  0.7855
 6877SOL     OW32089   4.509   0.193   5.699 -0.4273  0.6126 -0.1348
 6877SOL    HW132090   4.443   0.181   5.767  0.2672  3.9106  1.1378
 6877SOL    HW232091   4.451   0.160   5.630  1.2877 -3.1305  0.2275
 6878SOL     OW32092   0.653   0.743  16.438  0.1108 -0.4830  0.3167
 6878SOL    HW132093   0.660   0.742  16.342  1.4871  1.2002  0.4136
 6878SOL    HW232094   0.599   0.670  16.471 -2.4916  2.0691  1.7356
 6879SOL     OW32095   1.884   1.723   5.776  0.1394 -0.2622  0.2677
 6879SOL    HW132096   1.848   1.808   5.801  0.1110 -0.6407  1.5327
 6879SOL    HW232097   1.970   1.720   5.818  0.2240  1.3009  0.2170
 6880SOL     OW32098   2.213   1.574   1.612 -0.6540  0.0772  0.2962
 6880SOL    HW132099   2.159   1.561   1.690 -1.5417 -1.6973 -0.5937
 6880SOL    HW232100   2.218   1.669   1.598  0.8504  0.2763  2.2316
 6881SOL     OW32101   4.527   4.180  14.770  0.0655  0.1752  0.5736
 6881SOL    HW132102   4.533   4.103  14.826 -1.2797  1.2175  2.1427
 6881SOL    HW232103   4.507   4.252  14.830 -1.8626  1.4353 -1.5587
 6882SOL     OW32104   3.461   3.208   2.615  0.1317 -0.3456 -0.3284
 6882SOL    HW132105   3.366   3.195   2.612 -0.3002  2.3966  1.7453
 6882SOL    HW232106   3.461   3.304   2.617 -1.4510 -0.3992  2.0639
 6883SOL     OW32107   3.332   2.458   5.965  0.7652 -0.4387 -0.3629
 6883SOL    HW132108   3.359   2.371   5.934  2.1631 -0.0342 -0.2751
 6883SOL    HW232109   3.279   2.428   6.038  0.6278 -0.1091 -0.3303
 6884SOL     OW32110   0.966   1.052   4.689  0.5462  0.1947  0.0173
 6884SOL    HW132111   0.919   0.973   4.663 -0.8084  0.8821  0.3414
 6884SOL    HW232112   1.042   1.011   4.729  1.6233 -0.0437 -2.2958
 6885SOL     OW32113   1.165   1.455  17.259 -0.1575  0.3165  0.0682
 6885SOL    HW132114   1.193   1.541  17.230 -1.0054  0.1509 -1.2389
 6885SOL    HW232115   1.196   1.405  17.183 -1.2148  0.8533 -0.7003
 6886SOL     OW32116   4.241   1.330   7.181  0.1099 -0.0329  0.3077
 6886SOL    HW132117   4.325   1.363   7.214 -0.4564  0.0007  1.6851
 6886SOL    HW232118   4.208   1.288   7.260  1.0266  0.1983  0.8099
 6887SOL     OW32119   2.163   1.205   7.888  0.4938 -0.0309  0.1626
 6887SOL    HW132120   2.114   1.285   7.868  1.4879 -0.0361 -2.2605
 6887SOL    HW232121   2.085   1.165   7.927 -0.6883  0.0401 -2.1165
 6888SOL     OW32122   3.296   0.899   4.648 -0.4069  0.0461 -0.3707
 6888SOL    HW132123   3.218   0.949   4.623 -0.6296  0.2037  0.6280
 6888SOL    HW232124   3.270   0.808   4.634  1.9142 -0.7359  0.4178
 6889SOL     OW32125   3.383   1.818   1.859 -0.8477  0.6684  0.2987
 6889SOL    HW132126   3.289   1.808   1.846 -0.9445  1.2790  0.4993
 6889SOL    HW232127   3.403   1.777   1.943 -1.9086  0.0343  0.2282
 6890SOL     OW32128   0.552   1.294   2.403 -0.1087 -0.7007  0.0169
 6890SOL    HW132129   0.565   1.335   2.318 -0.1600 -0.4962  0.1067
 6890SOL    HW232130   0.641   1.295   2.440 -0.3825  0.1313  0.6711
 6891SOL     OW32131   3.266   4.586   7.961 -0.1131  0.1161 -0.5460
 6891SOL    HW132132   3.318   4.649   7.912 -1.0763 -0.0766 -1.8413
 6891SOL    HW232133   3.213   4.650   8.009 -1.0179 -0.0228 -1.3572
 6892SOL     OW32134   3.943   0.875  10.701  0.4326 -0.3193 -0.3293
 6892SOL    HW132135   3.866   0.870  10.758 -0.7749  2.3489 -1.7192
 6892SOL    HW232136   3.942   0.789  10.659  1.9979  0.0166 -1.0289
 6893SOL     OW32137   2.734   2.547   7.666 -0.5862 -0.5386 -0.6448
 6893SOL    HW132138   2.683   2.470   7.640 -1.1944 -0.2126 -0.4188
 6893SOL    HW232139   2.749   2.532   7.760 -0.7655  2.6464 -0.1129
 6894SOL     OW32140   1.657   2.082   6.152 -0.3737  0.1526 -0.1497
 6894SOL    HW132141   1.617   2.052   6.234 -2.7512  0.4797 -1.1904
 6894SOL    HW232142   1.725   2.139   6.188  0.6705 -1.3120  0.2039
 6895SOL     OW32143   0.140   1.399   2.130 -0.0094  0.3377  0.5256
 6895SOL    HW132144   0.130   1.456   2.053  1.4460  0.7465  0.6487
 6895SOL    HW232145   0.147   1.453   2.208 -0.0620 -0.3404  0.9967
 6896SOL     OW32146   0.333   2.151   4.417 -0.0525 -0.2152  0.0936
 6896SOL    HW132147   0.249   2.132   4.376 -0.8481  2.1636  0.6277
 6896SOL    HW232148   0.315   2.242   4.438  0.2526 -0.1114 -0.0948
 6897SOL     OW32149   3.353   1.662  11.645  0.0871  0.6014 -0.1657
 6897SOL    HW132150   3.353   1.566  11.648 -1.5533  0.6054 -0.1671
 6897SOL    HW232151   3.441   1.679  11.679  0.2743  1.6810 -1.1910
 6898SOL     OW32152   4.513   2.057  14.427  0.1857  0.2720  0.1644
 6898SOL    HW132153   4.441   2.115  14.453 -0.1544 -0.2176  0.3154
 6898SOL    HW232154   4.462   1.986  14.389  1.0168 -0.1486 -0.1641
 6899SOL     OW32155   2.346   4.695   7.742 -0.1646  0.1483  0.0545
 6899SOL    HW132156   2.317   4.723   7.828  2.4206 -1.9085  1.6051
 6899SOL    HW232157   2.266   4.702   7.690 -0.6155  1.4541  0.9339
 6900SOL     OW32158   3.757   3.367   2.291  0.4045  0.1867  0.1331
 6900SOL    HW132159   3.845   3.330   2.279  0.2605 -0.1377  0.0734
 6900SOL    HW232160   3.722   3.307   2.358 -0.2300  0.3199 -0.0785
 6901SOL     OW32161   2.912   2.297   0.241  0.1048  0.3057  0.3550
 6901SOL    HW132162   2.952   2.382   0.256  0.5458  0.4722 -1.8345
 6901SOL    HW232163   2.835   2.294   0.298  0.2854 -1.5373  0.5032
 6902SOL     OW32164   1.276   2.071   5.587 -0.3797 -0.8195 -0.1418
 6902SOL    HW132165   1.234   2.009   5.648 -2.6297  0.4495 -0.4018
 6902SOL    HW232166   1.285   2.146   5.645  1.6879 -0.7873 -0.5079
 6903SOL     OW32167   1.023   3.563   5.921  0.3581 -0.5785 -0.0203
 6903SOL    HW132168   1.051   3.628   5.985 -0.6703  2.4438 -2.6781
 6903SOL    HW232169   0.964   3.507   5.972  0.2496 -0.5723 -0.1401
 6904SOL     OW32170   2.387   2.555   5.107 -0.3489 -0.3732 -0.2349
 6904SOL    HW132171   2.308   2.610   5.105  0.2360  0.4158 -1.9931
 6904SOL    HW232172   2.354   2.502   5.179  0.9486  0.2854  0.8351
 6905SOL     OW32173   3.682   3.970   8.438  0.6990  0.6545  0.2889
 6905SOL    HW132174   3.657   3.931   8.354  2.3707  1.4053 -0.5518
 6905SOL    HW232175   3.777   3.954   8.432  0.9476  2.6909 -1.0700
 6906SOL     OW32176   1.204   3.589   7.868 -0.1154  0.0115  0.2425
 6906SOL    HW132177   1.128   3.618   7.817  0.9811  2.6224  0.1006
 6906SOL    HW232178   1.192   3.494   7.873  1.3265 -0.2946 -2.0318
 6907SOL     OW32179   0.644   1.500   6.605 -0.4480 -0.1638  0.4139
 6907SOL    HW132180   0.666   1.523   6.515  1.0651 -1.7417  0.3674
 6907SOL    HW232181   0.686   1.562   6.665  0.9713 -0.0738 -0.6675
 6908SOL     OW32182   2.702   4.241   8.088 -0.1536 -0.1703  0.7417
 6908SOL    HW132183   2.754   4.319   8.107 -0.1025 -0.1092  0.3461
 6908SOL    HW232184   2.772   4.176   8.083  0.8182  0.9340  0.1013
 6909SOL     OW32185   3.430   2.216   9.502  0.3860 -0.3205 -0.6145
 6909SOL    HW132186   3.498   2.196   9.438  1.2106 -1.4863  0.6075
 6909SOL    HW232187   3.372   2.142   9.483 -0.2387 -0.0875  0.3847
 6910SOL     OW32188   2.890   3.224  10.849 -0.2007  0.0802 -0.0401
 6910SOL    HW132189   2.896   3.301  10.792  1.5336  0.3542  0.5349
 6910SOL    HW232190   2.904   3.151  10.789 -1.2165  0.3441 -0.6097
 6911SOL     OW32191   3.476   3.398   1.157  0.4866 -0.4608 -0.5432
 6911SOL    HW132192   3.404   3.436   1.207  1.3733  0.8218 -0.2405
 6911SOL    HW232193   3.547   3.459   1.176  0.9792 -0.8183 -1.2245
 6912SOL     OW32194   3.538   2.105   2.007 -0.0153  0.3113 -0.4156
 6912SOL    HW132195   3.480   2.181   2.003 -1.3241 -0.7547 -1.8547
 6912SOL    HW232196   3.614   2.149   2.045  0.2014 -0.7501  0.3819
 6913SOL     OW32197   4.068   1.002  10.184 -0.0950 -0.0298  0.0543
 6913SOL    HW132198   4.049   0.927  10.128 -2.1201  0.1630  0.4813
 6913SOL    HW232199   4.051   1.078  10.129  1.2123 -0.3627 -0.8417
 6914SOL     OW32200   0.538   4.539   1.448  0.1962  0.9564 -0.8710
 6914SOL    HW132201   0.484   4.585   1.513 -2.0063 -1.0702 -1.2530
 6914SOL    HW232202   0.480   4.480   1.399  2.2988 -0.5670 -1.5160
 6915SOL     OW32203   2.045   3.094   9.962  0.5483  0.4645 -0.3995
 6915SOL    HW132204   2.096   3.030  10.012  1.8648  0.6156 -1.5531
 6915SOL    HW232205   2.108   3.158   9.928  1.0886 -0.3398 -0.9128
 6916SOL     OW32206   4.467   3.553   6.510  0.1504  0.1877  0.4169
 6916SOL    HW132207   4.560   3.565   6.530 -0.2962  0.4686  2.3401
 6916SOL    HW232208   4.462   3.458   6.519 -1.5314  0.4423  2.1901
 6917SOL     OW32209   3.922   3.320   7.730  0.3465  0.1517 -0.1662
 6917SOL    HW132210   3.947   3.345   7.819  1.3190  1.2428 -0.7385
 6917SOL    HW232211   3.997   3.353   7.679  0.9440 -0.9904 -0.0410
 6918SOL     OW32212   1.965   1.550   4.593 -0.4858  0.0520  0.0597
 6918SOL    HW132213   1.957   1.603   4.673 -1.8827  0.9471 -0.6836
 6918SOL    HW232214   2.060   1.557   4.597 -0.5646  1.3255 -0.1449
 6919SOL     OW32215   3.540   2.377   4.782 -0.2231  0.1391  0.0717
 6919SOL    HW132216   3.580   2.390   4.696 -0.6090 -0.3788 -0.1875
 6919SOL    HW232217   3.548   2.468   4.810  1.2552  0.5753 -1.7251
 6920SOL     OW32218   0.887   3.012  12.837  0.0681  0.3762  0.5019
 6920SOL    HW132219   0.878   3.097  12.794  3.1626  0.7994  0.6708
 6920SOL    HW232220   0.840   2.954  12.777 -0.9734  1.2310  0.5068
 6921SOL     OW32221   4.201   4.622  14.173  0.0431 -0.1458  0.0874
 6921SOL    HW132222   4.277   4.645  14.227  0.1683 -1.0364  0.2843
 6921SOL    HW232223   4.139   4.689  14.201  1.9955  0.4720  2.8995
 6922SOL     OW32224   0.196   4.516   8.246 -0.3820  0.3128  0.8941
 6922SOL    HW132225   0.180   4.437   8.193  1.1310  0.6691 -0.0862
 6922SOL    HW232226   0.191   4.483   8.336 -1.7192 -1.7914  0.0607
 6923SOL     OW32227   0.624   4.598   5.794  0.0782 -0.0929  0.0481
 6923SOL    HW132228   0.575   4.657   5.737  1.1920 -0.0332 -0.8460
 6923SOL    HW232229   0.606   4.518   5.744 -0.6132 -0.0751  0.2703
 6924SOL     OW32230   0.733   1.808   0.728 -0.1510 -0.4394  0.7499
 6924SOL    HW132231   0.818   1.839   0.758  0.1949  0.9743 -1.6332
 6924SOL    HW232232   0.731   1.714   0.746  0.0470 -0.9113 -1.7233
 6925SOL     OW32233   3.473   0.649  14.909 -0.3166  0.2405 -0.3553
 6925SOL    HW132234   3.440   0.659  14.820 -1.5586  0.2736  0.1144
 6925SOL    HW232235   3.469   0.743  14.927 -0.9691 -0.1244  1.4070
 6926SOL     OW32236   3.733   0.445   1.592 -0.1402 -0.0895 -0.3705
 6926SOL    HW132237   3.772   0.368   1.551 -0.7203  0.6325 -2.2462
 6926SOL    HW232238   3.667   0.469   1.527 -0.5663  0.4859  0.2637
 6927SOL     OW32239   0.612   0.504   3.327 -0.2459  0.1043  0.0674
 6927SOL    HW132240   0.558   0.583   3.335  0.8069  1.0311 -1.9766
 6927SOL    HW232241   0.667   0.534   3.254  0.4947  0.2002  0.6535
 6928SOL     OW32242   4.096   1.859   6.839  0.3524 -0.6017 -0.6613
 6928SOL    HW132243   4.055   1.936   6.878 -0.0816 -0.8484 -0.6389
 6928SOL    HW232244   4.114   1.888   6.750  0.5802 -0.6871 -0.6454
 6929SOL     OW32245   1.625   2.746   2.573  0.1853 -0.4399  0.4250
 6929SOL    HW132246   1.589   2.737   2.484 -0.0869 -0.8447  0.5730
 6929SOL    HW232247   1.551   2.704   2.618 -1.0431  0.3508 -0.8407
 6930SOL     OW32248   1.089   2.599  11.762  0.4059 -0.7086  0.6589
 6930SOL    HW132249   1.158   2.574  11.700 -0.1981 -0.7290  0.0014
 6930SOL    HW232250   1.137   2.570  11.840 -1.6464 -2.9496  1.0967
 6931SOL     OW32251   1.691   3.981   2.635 -0.6071  0.1332 -0.1491
 6931SOL    HW132252   1.629   4.027   2.690 -1.3929 -0.5687 -0.4575
 6931SOL    HW232253   1.751   4.053   2.614  2.3967 -1.5693  2.4580
 6932SOL     OW32254   1.806   4.268  12.438 -0.0987  0.6477  0.1129
 6932SOL    HW132255   1.781   4.251  12.347 -0.8586  1.5670  0.1528
 6932SOL    HW232256   1.763   4.352  12.449 -2.7677 -0.6220 -0.5187
 6933SOL     OW32257   3.726   1.918   1.889 -0.6038 -0.1529 -0.2841
 6933SOL    HW132258   3.651   1.944   1.941  0.9503  0.5127  1.6053
 6933SOL    HW232259   3.728   1.991   1.827  1.8510 -0.5283 -0.6573
 6934SOL     OW32260   4.506   3.278   3.562  0.0257 -0.1796  0.3153
 6934SOL    HW132261   4.563   3.204   3.583  0.9159  0.6877  0.9974
 6934SOL    HW232262   4.558   3.334   3.503  0.8835  0.1442  1.3761
 6935SOL     OW32263   4.512   2.132   8.302 -0.7353  0.2282 -0.0489
 6935SOL    HW132264   4.564   2.207   8.330  1.8580 -2.2851  1.7775
 6935SOL    HW232265   4.505   2.141   8.207  1.4549 -1.8759 -0.4073
 6936SOL     OW32266   3.470   1.869   5.220  0.0260  0.0200 -0.3373
 6936SOL    HW132267   3.480   1.952   5.173  0.9001 -0.1547 -0.4571
 6936SOL    HW232268   3.391   1.874   5.274 -1.2859 -1.8493 -2.1027
 6937SOL     OW32269   1.553   0.425   3.735  0.3901 -0.6386 -0.1374
 6937SOL    HW132270   1.569   0.367   3.809 -1.1647  1.8159  2.1177
 6937SOL    HW232271   1.475   0.378   3.706  0.1906 -0.2905 -0.1780
 6938SOL     OW32272   2.568   2.814   7.607  0.2906  0.7559 -0.1541
 6938SOL    HW132273   2.566   2.844   7.516 -0.8285  0.3138 -0.2720
 6938SOL    HW232274   2.614   2.732   7.596 -0.8007  0.0190  0.7487
 6939SOL     OW32275   1.407   2.595   4.675 -0.0078 -0.1714 -0.4768
 6939SOL    HW132276   1.413   2.575   4.768  0.2791 -1.4898 -0.7716
 6939SOL    HW232277   1.314   2.574   4.665 -0.3437  1.8290 -1.4829
 6940SOL     OW32278   4.721   2.448   6.025 -0.3938  0.0941  0.2680
 6940SOL    HW132279   4.724   2.469   5.932  1.5712  0.6910  0.4672
 6940SOL    HW232280   0.059   2.377   6.024  0.0166  0.4366  1.6363
 6941SOL     OW32281   2.872   3.568   2.521  0.2276  0.2707  0.6983
 6941SOL    HW132282   2.922   3.511   2.581  0.3578 -0.3790 -0.0252
 6941SOL    HW232283   2.863   3.519   2.439  0.4635 -1.1390  1.5108
 6942SOL     OW32284   1.587   1.303   7.028  0.8329  0.7258 -0.1516
 6942SOL    HW132285   1.531   1.351   6.967 -2.2193 -0.8361  1.4139
 6942SOL    HW232286   1.639   1.377   7.061 -0.9354  0.7109  2.7182
 6943SOL     OW32287   0.148   0.558   6.000  0.7415  0.2782 -0.0124
 6943SOL    HW132288   0.059   0.535   5.974  0.2392  0.1283  1.7822
 6943SOL    HW232289   0.130   0.581   6.092  1.2025  0.3808  0.0533
 6944SOL     OW32290   4.299   3.519   7.996  0.2700 -0.4105 -0.2036
 6944SOL    HW132291   4.220   3.534   8.047 -0.6363  0.5530 -1.8958
 6944SOL    HW232292   4.347   3.492   8.074 -1.3556 -0.9074  0.6260
 6945SOL     OW32293   3.913   4.667  11.308  0.1579  0.2758  0.2085
 6945SOL    HW132294   3.877   4.596  11.255  0.8791 -1.6330  2.2653
 6945SOL    HW232295   3.845   4.682  11.374 -0.2938 -1.9646  0.2713
 6946SOL     OW32296   1.574   2.687  15.824 -0.1081 -0.0442 -0.2965
 6946SOL    HW132297   1.626   2.750  15.874  0.6501 -0.1218 -0.9835
 6946SOL    HW232298   1.640   2.618  15.832 -1.9170 -1.9422 -1.7158
 6947SOL     OW32299   1.979   1.260   7.613  0.2556  0.3602  0.4780
 6947SOL    HW132300   1.993   1.320   7.687  3.7652 -0.3498  0.4255
 6947SOL    HW232301   2.012   1.314   7.541 -1.9088 -1.3557 -1.7440
 6948SOL     OW32302   0.513   1.910  17.555  0.1274 -0.3273 -0.1394
 6948SOL    HW132303   0.552   1.823  17.542 -2.8522 -1.7897  0.6907
 6948SOL    HW232304   0.505   1.919  17.650  1.9512  0.5009 -0.0583
 6949SOL     OW32305   3.119   2.290   0.863 -0.4258  0.0128  0.3051
 6949SOL    HW132306   3.068   2.209   0.862  0.3620 -0.4810 -0.7220
 6949SOL    HW232307   3.077   2.329   0.786 -1.6217  1.3267  1.6299
 6950SOL     OW32308   2.594   0.093   2.628  0.2416 -0.5486  0.0681
 6950SOL    HW132309   2.501   0.074   2.642 -0.0949  0.0805 -1.2909
 6950SOL    HW232310   2.614   0.008   2.589 -0.7176 -0.4931 -0.5638
 6951SOL     OW32311   4.124   4.399   6.736  0.5451  0.0675 -0.3391
 6951SOL    HW132312   4.199   4.342   6.717  1.2245  0.0492  2.2931
 6951SOL    HW232313   4.084   4.374   6.820  2.0015 -0.5004  0.1936
 6952SOL     OW32314   0.773   0.483   4.276  1.0159 -0.4420  0.1304
 6952SOL    HW132315   0.809   0.500   4.189  1.3238  0.5860  0.4486
 6952SOL    HW232316   0.709   0.413   4.261  0.4201 -0.3742  2.2832
 6953SOL     OW32317   4.266   2.877   8.241 -0.3997 -0.3046 -0.3277
 6953SOL    HW132318   4.184   2.868   8.290  0.2630 -1.2870  0.6126
 6953SOL    HW232319   4.234   2.891   8.152  0.4638  1.8885 -0.2778
 6954SOL     OW32320   3.433   3.968   5.289  0.2973  0.0915 -0.0620
 6954SOL    HW132321   3.524   3.989   5.310  0.7001 -0.2548 -1.4646
 6954SOL    HW232322   3.440   3.964   5.194 -1.4406 -3.0936 -0.0591
 6955SOL     OW32323   0.230   3.106   8.130 -0.0247 -0.3627 -0.3214
 6955SOL    HW132324   0.254   3.140   8.216 -0.2103 -1.6690  0.2533
 6955SOL    HW232325   0.176   3.031   8.155  1.9923 -2.0374 -0.9714
 6956SOL     OW32326   0.854   2.592  10.947 -0.2298 -0.1792  0.0383
 6956SOL    HW132327   0.826   2.551  11.029  0.1622  2.3125  1.4275
 6956SOL    HW232328   0.918   2.528  10.917 -0.0771  0.2229 -0.4754
 6957SOL     OW32329   0.141   1.030   7.237  0.3624  0.0518 -0.2350
 6957SOL    HW132330   0.170   0.996   7.321 -1.1425 -3.1261 -0.9943
 6957SOL    HW232331   0.054   1.061   7.260 -0.3407 -2.3270  0.3305
 6958SOL     OW32332   2.846   3.315  17.381 -0.0204  0.0840 -0.5383
 6958SOL    HW132333   2.780   3.288  17.444 -0.0868  0.6756 -0.3578
 6958SOL    HW232334   2.835   3.262  17.302 -1.7605 -1.6368  0.8437
 6959SOL     OW32335   4.508   4.096   6.221 -0.0292 -0.0997 -0.6160
 6959SOL    HW132336   4.443   4.130   6.159  0.6915 -1.1111 -1.9474
 6959SOL    HW232337   4.581   4.071   6.164 -0.9687 -1.1252 -1.3881
 6960SOL     OW32338   4.686   4.665   3.227  0.5393 -0.3962 -0.1207
 6960SOL    HW132339   4.627   0.007   3.259  1.3753  0.5354 -0.5158
 6960SOL    HW232340   4.687   4.598   3.295 -3.2638 -0.0618  0.2134
 6961SOL     OW32341   4.350   0.596   8.284 -0.4024 -0.2110 -0.1481
 6961SOL    HW132342   4.272   0.554   8.322 -1.7508 -0.3160 -3.0596
 6961SOL    HW232343   4.414   0.596   8.355 -1.2362 -1.2927  0.6239
 6962SOL     OW32344   4.268   1.853   4.913  0.3718 -0.1972  0.2109
 6962SOL    HW132345   4.316   1.770   4.905  0.7739  0.3115 -2.7059
 6962SOL    HW232346   4.264   1.891   4.825  1.7893 -3.1471 -1.1416
 6963SOL     OW32347   1.986   3.366   1.793  0.2521 -0.4631 -0.3129
 6963SOL    HW132348   1.939   3.296   1.838 -2.3170  1.9578  0.7993
 6963SOL    HW232349   1.922   3.395   1.728  0.8165  0.0456 -0.6412
 6964SOL     OW32350   1.148   1.316   7.718  0.3421 -0.2930 -0.5448
 6964SOL    HW132351   1.135   1.239   7.774  0.3927 -0.1805 -0.3756
 6964SOL    HW232352   1.235   1.289   7.688 -0.5123 -0.1384 -3.1276
 6965SOL     OW32353   2.204   2.812   2.287  0.1161  0.0915  0.6666
 6965SOL    HW132354   2.227   2.897   2.250  2.7813 -0.1801  1.6649
 6965SOL    HW232355   2.242   2.822   2.374 -0.7992  1.2804  0.9155
 6966SOL     OW32356   4.061   1.978   8.199 -0.3899 -0.2163  0.3979
 6966SOL    HW132357   4.036   1.905   8.255 -0.3097 -1.9519 -1.8704
 6966SOL    HW232358   3.980   2.030   8.200 -0.4533 -0.3064 -0.3197
 6967SOL     OW32359   1.337   0.288   5.900 -0.7057  0.2456  0.8540
 6967SOL    HW132360   1.273   0.269   5.831 -1.8900  0.1293  1.9794
 6967SOL    HW232361   1.305   0.372   5.933 -0.7770  1.0396 -1.2117
 6968SOL     OW32362   3.959   0.104   7.244 -0.0920  0.1558 -0.1238
 6968SOL    HW132363   3.879   0.130   7.290 -1.6762 -3.3418 -0.9364
 6968SOL    HW232364   3.921   0.049   7.176 -0.4658 -1.1564  1.1386
 6969SOL     OW32365   1.599   1.448   2.533  0.2732 -0.2426  0.4043
 6969SOL    HW132366   1.663   1.408   2.475 -0.6884 -0.9896 -0.1348
 6969SOL    HW232367   1.534   1.466   2.465  0.4643  1.3150  0.6144
 6970SOL     OW32368   3.780   3.697   0.476 -0.1740  0.5204  0.1659
 6970SOL    HW132369   3.817   3.696   0.564 -0.5198 -1.4956  0.2884
 6970SOL    HW232370   3.822   3.617   0.444 -2.3516 -1.6231  2.6662
 6971SOL     OW32371   4.568   3.030   4.982  0.5816 -0.5186  0.2629
 6971SOL    HW132372   4.589   2.937   4.991  0.7708 -0.4866  0.1627
 6971SOL    HW232373   4.519   3.059   5.058 -1.2483  1.9266 -1.8460
 6972SOL     OW32374   1.076   4.029  11.536  0.1540  0.0827  0.0083
 6972SOL    HW132375   1.167   4.003  11.548  0.2104  1.0398  1.7290
 6972SOL    HW232376   1.021   3.951  11.547 -0.2658  0.1977 -1.2848
 6973SOL     OW32377   2.212   0.040   5.718  0.2688  0.7866 -0.0646
 6973SOL    HW132378   2.287   0.014   5.664  0.1907  1.9557 -0.7407
 6973SOL    HW232379   2.154   0.065   5.646 -0.0484  1.5624  0.4681
 6974SOL     OW32380   3.446   1.345   2.144  0.3345  0.0713 -0.0776
 6974SOL    HW132381   3.539   1.342   2.124 -0.1899 -0.3876 -2.4713
 6974SOL    HW232382   3.423   1.261   2.103 -1.0514  1.1486 -1.4780
 6975SOL     OW32383   4.538   2.767  17.268 -0.0279  0.2002 -0.2240
 6975SOL    HW132384   4.469   2.777  17.334 -1.0502  1.8068 -1.5209
 6975SOL    HW232385   4.540   2.851  17.221  0.4279  0.4114  0.1711
 6976SOL     OW32386   3.651   0.592   7.315 -0.4445 -0.0265 -0.0000
 6976SOL    HW132387   3.654   0.587   7.411 -0.0905  1.8745  0.1031
 6976SOL    HW232388   3.556   0.591   7.311 -0.3954 -0.4614 -0.9497
 6977SOL     OW32389   1.195   0.490   6.012 -0.0875 -0.0155 -0.3964
 6977SOL    HW132390   1.207   0.573   6.059 -1.5191 -1.5340  2.5977
 6977SOL    HW232391   1.149   0.437   6.076  0.5645 -0.0435  0.0501
 6978SOL     OW32392   3.249   4.397  17.111  0.4123 -0.0865  0.0130
 6978SOL    HW132393   3.164   4.421  17.149  0.1496  0.6897 -1.0414
 6978SOL    HW232394   3.261   4.479  17.062 -1.9426  1.1645  1.5392
 6979SOL     OW32395   0.502   3.994   3.448  0.0333 -0.2814  0.3903
 6979SOL    HW132396   0.596   4.010   3.441  0.1055 -0.0711  1.7518
 6979SOL    HW232397   0.494   3.901   3.468  1.5730 -1.1171 -2.8906
 6980SOL     OW32398   1.704   1.634   2.113 -0.2649  0.4874 -0.1376
 6980SOL    HW132399   1.643   1.705   2.092  0.7659  1.1160 -0.9890
 6980SOL    HW232400   1.702   1.578   2.036  0.2565 -1.6211  1.3681
 6981SOL     OW32401   3.906   3.571   4.645 -0.0802  0.6219  0.1209
 6981SOL    HW132402   3.869   3.495   4.599 -1.2332  0.9790  0.4405
 6981SOL    HW232403   3.863   3.557   4.730  0.4283  2.0758  0.6028
 6982SOL     OW32404   2.515   0.363   0.434  0.1943 -0.0920  0.8340
 6982SOL    HW132405   2.527   0.270   0.418  2.4603  0.2938  0.2263
 6982SOL    HW232406   2.603   0.382   0.401 -1.4680  0.6159 -3.2601
 6983SOL     OW32407   1.109   3.413   8.680 -0.2808 -0.2132 -0.1203
 6983SOL    HW132408   1.183   3.386   8.735 -0.0438  3.1642  1.2484
 6983SOL    HW232409   1.084   3.338   8.627  0.8532  0.2786 -1.3391
 6984SOL     OW32410   2.292   4.617  11.935 -0.1257  0.1475  0.6150
 6984SOL    HW132411   2.311   4.523  11.928  1.2420  0.6201 -2.2372
 6984SOL    HW232412   2.369   4.668  11.908 -0.1797 -0.3392 -0.4596
 6985SOL     OW32413   3.580   1.794   0.380 -0.3358 -0.6333  0.1994
 6985SOL    HW132414   3.661   1.800   0.330  0.9832  1.2068  2.5476
 6985SOL    HW232415   3.613   1.751   0.459  2.5382  0.3504 -0.4629
 6986SOL     OW32416   0.270   1.370   4.747  0.3167  0.1015  0.0840
 6986SOL    HW132417   0.274   1.389   4.840  0.8947  0.4597 -0.0182
 6986SOL    HW232418   0.219   1.289   4.750 -1.1053  0.9624 -0.6538
 6987SOL     OW32419   3.756   1.894   1.232  0.2062 -0.1338  0.6171
 6987SOL    HW132420   3.812   1.880   1.309  1.0446  1.3717  0.2898
 6987SOL    HW232421   3.761   1.989   1.241 -0.2471 -0.0476 -0.0512
 6988SOL     OW32422   1.446   3.796   8.376 -0.3759  0.1108 -0.0848
 6988SOL    HW132423   1.520   3.771   8.320  0.2518  1.5116  0.1371
 6988SOL    HW232424   1.384   3.723   8.371 -0.3040  0.1245 -1.2336
 6989SOL     OW32425   1.386   2.471   8.597 -0.3750  0.1211  0.2931
 6989SOL    HW132426   1.477   2.450   8.576 -0.6805 -1.7861  0.9597
 6989SOL    HW232427   1.379   2.438   8.686 -0.2014  0.4123  0.4162
 6990SOL     OW32428   0.713   0.809   1.857  0.1656 -0.1640  0.1665
 6990SOL    HW132429   0.653   0.735   1.854 -1.4214  1.1916 -1.1762
 6990SOL    HW232430   0.764   0.786   1.779  1.2719  0.7950  0.6179
 6991SOL     OW32431   0.431   1.573   8.899 -0.0284 -0.2731  0.2910
 6991SOL    HW132432   0.445   1.502   8.836  1.3503  0.0857  0.2128
 6991SOL    HW232433   0.445   1.532   8.985 -0.7690  0.3812  0.7237
 6992SOL     OW32434   2.999   4.243   5.461 -0.3461 -0.4419 -0.1257
 6992SOL    HW132435   3.050   4.299   5.402 -1.0532 -0.3841 -0.6712
 6992SOL    HW232436   2.988   4.168   5.403  2.8806 -1.6590  0.8077
 6993SOL     OW32437   0.046   0.295   4.199 -0.5025  0.8856 -0.0805
 6993SOL    HW132438   0.107   0.225   4.222  0.3160  1.6342  0.0416
 6993SOL    HW232439   0.110   0.367   4.198  0.5764 -0.0658  3.0060
 6994SOL     OW32440   1.206   2.546   2.853  0.8067  0.1172 -0.0258
 6994SOL    HW132441   1.245   2.480   2.910  0.7978  0.4030  0.3104
 6994SOL    HW232442   1.146   2.590   2.914  0.8954  0.4732 -0.1963
 6995SOL     OW32443   3.630   4.410   3.190  0.3275  0.1177 -0.6777
 6995SOL    HW132444   3.670   4.338   3.239 -0.3543  0.5689  0.5593
 6995SOL    HW232445   3.627   4.379   3.100  1.8814 -1.8532 -0.0512
 6996SOL     OW32446   4.673   2.768   5.014  0.0123 -0.1251 -0.0062
 6996SOL    HW132447   0.035   2.799   5.036  0.4635 -1.1498 -0.3697
 6996SOL    HW232448   4.679   2.675   5.034  2.8566 -0.0725 -0.6199
 6997SOL     OW32449   0.096   0.764   2.674 -0.0538 -0.4504  0.0938
 6997SOL    HW132450   0.019   0.807   2.636  0.5713 -0.4948 -1.2255
 6997SOL    HW232451   0.161   0.772   2.605 -0.4836  1.0185 -0.1513
 6998SOL     OW32452   4.364   2.978   3.505 -0.2116 -0.6750  0.4910
 6998SOL    HW132453   4.451   3.003   3.476 -1.2712  0.8009 -1.4065
 6998SOL    HW232454   4.318   2.934   3.433 -2.3543  1.1506  0.7298
 6999SOL     OW32455   3.330   4.014   9.222  0.3310  0.0306 -0.2287
 6999SOL    HW132456   3.265   4.083   9.210  0.4470 -0.0056 -1.0311
 6999SOL    HW232457   3.278   3.934   9.223 -0.0913  0.3002 -0.5354
 7000SOL     OW32458   4.133   3.003   9.510  0.2675 -0.2012  0.6963
 7000SOL    HW132459   4.104   2.943   9.579 -0.6990  0.5121  0.9076
 7000SOL    HW232460   4.071   2.986   9.439  0.1933  0.0262  0.7065
 7001SOL     OW32461   0.706   1.360   3.080 -0.4522  0.4668  0.4145
 7001SOL    HW132462   0.765   1.384   3.152 -0.8737  0.0616  0.8943
 7001SOL    HW232463   0.718   1.438   3.026  3.1377 -0.1116  0.3526
 7002SOL     OW32464   0.337   4.516   7.172 -0.1089  0.4903 -1.0034
 7002SOL    HW132465   0.390   4.460   7.116  1.3842  0.4939  0.4114
 7002SOL    HW232466   0.405   4.538   7.236  0.1246  0.5106 -1.2595
 7003SOL     OW32467   1.120   4.565   7.674 -0.4939 -0.6708 -0.1171
 7003SOL    HW132468   1.045   4.505   7.672 -0.2121 -0.9962 -1.1175
 7003SOL    HW232469   1.181   4.530   7.738  0.4842 -0.6091 -1.0093
 7004SOL     OW32470   0.920   2.907   7.145  0.2185 -0.1878 -0.7474
 7004SOL    HW132471   0.894   2.826   7.188  0.8066  0.2158  0.3684
 7004SOL    HW232472   0.838   2.952   7.123 -0.1574  0.2252  1.4333
 7005SOL     OW32473   0.187   0.697   6.918  0.1386 -0.0902  0.3906
 7005SOL    HW132474   0.169   0.661   6.831 -0.5000  2.7405 -0.6496
 7005SOL    HW232475   0.142   0.637   6.977 -1.6394  0.6842 -0.1701
 7006SOL     OW32476   1.525   0.199  13.261 -0.2151  0.5813  0.2856
 7006SOL    HW132477   1.443   0.216  13.307 -1.3805  1.0691 -1.9651
 7006SOL    HW232478   1.502   0.191  13.168 -0.6894 -3.1618  0.7401
 7007SOL     OW32479   0.387   1.037   6.730  0.4412  0.6933  0.0482
 7007SOL    HW132480   0.433   1.117   6.704  0.9117  0.4557  0.1399
 7007SOL    HW232481   0.455   0.972   6.748  0.4449  1.0197  1.2299
 7008SOL     OW32482   4.339   2.826   7.587 -0.1527 -0.1482  0.3465
 7008SOL    HW132483   4.328   2.759   7.520 -1.3187  0.2891  0.0938
 7008SOL    HW232484   4.285   2.899   7.557  3.0827  2.4436  0.7224
 7009SOL     OW32485   1.624   2.786   5.845  0.1742 -0.2969  0.2718
 7009SOL    HW132486   1.536   2.808   5.812  0.5437  1.8302  0.6760
 7009SOL    HW232487   1.678   2.858   5.812  1.2621 -1.1137  0.2852
 7010SOL     OW32488   0.378   4.523   3.463 -0.4079  0.4035 -0.0681
 7010SOL    HW132489   0.397   4.429   3.465  2.0820  0.9169 -0.0019
 7010SOL    HW232490   0.354   4.523   3.556  0.7770  1.3094  0.2373
 7011SOL     OW32491   2.134   4.410   7.121  0.7691  0.0052 -0.2438
 7011SOL    HW132492   2.172   4.491   7.087  2.6788 -1.1406 -0.7936
 7011SOL    HW232493   2.099   4.438   7.206  3.8253 -2.6564  1.9001
 7012SOL     OW32494   4.261   1.965   7.473  0.6524  0.3906 -0.4585
 7012SOL    HW132495   4.266   2.055   7.443 -2.4549  0.2377 -1.4589
 7012SOL    HW232496   4.232   1.974   7.564  1.8143 -0.8356  0.0400
 7013SOL     OW32497   1.722   2.434  15.885  0.6013 -0.3385  0.3948
 7013SOL    HW132498   1.786   2.368  15.911  1.7665 -0.1012 -1.8250
 7013SOL    HW232499   1.717   2.496  15.958 -0.0382  0.8112 -0.6291
 7014SOL     OW32500   2.125   1.662   7.401  0.6983  0.2448 -0.0096
 7014SOL    HW132501   2.205   1.691   7.358  1.1419  0.0991  0.7079
 7014SOL    HW232502   2.088   1.607   7.331  0.6050 -2.1248  1.8884
 7015SOL     OW32503   1.162   3.481  13.864  0.1446 -0.2133  0.1402
 7015SOL    HW132504   1.097   3.520  13.922 -0.0496  0.4092 -0.4886
 7015SOL    HW232505   1.235   3.543  13.861 -0.2835  0.2343 -1.3584
 7016SOL     OW32506   0.190   3.493   9.012  0.2995  0.1343 -0.0770
 7016SOL    HW132507   0.211   3.401   8.998 -0.5774 -0.3072  1.5770
 7016SOL    HW232508   0.234   3.537   8.939  2.7572 -1.3299  0.5057
 7017SOL     OW32509   0.602   0.570   1.807  0.2353  0.0276 -0.2398
 7017SOL    HW132510   0.663   0.524   1.751 -0.3020  0.9463 -1.5933
 7017SOL    HW232511   0.517   0.551   1.767  1.1912 -1.9520 -1.3074
 7018SOL     OW32512   3.157   2.797   0.774 -0.2954 -0.3028  0.2724
 7018SOL    HW132513   3.084   2.748   0.811 -1.1061 -1.3876 -2.7507
 7018SOL    HW232514   3.193   2.843   0.850  0.5248 -1.1817  0.4154
 7019SOL     OW32515   0.939   0.909   6.565 -0.0412  0.3010 -0.0465
 7019SOL    HW132516   0.991   0.839   6.526 -2.3696 -0.6974 -1.3725
 7019SOL    HW232517   0.937   0.885   6.657 -0.9286 -0.9432 -0.3881
 7020SOL     OW32518   1.646   3.952   1.511 -0.4081 -0.4425 -0.2380
 7020SOL    HW132519   1.585   4.024   1.494 -0.9338 -0.3276  2.2118
 7020SOL    HW232520   1.721   4.002   1.542 -0.5829 -1.1374  1.3113
 7021SOL     OW32521   1.379   3.951   7.112  0.0575 -0.3525  0.0521
 7021SOL    HW132522   1.368   4.045   7.102  1.0451 -0.0760  1.4768
 7021SOL    HW232523   1.418   3.952   7.200 -0.7171 -1.2909  0.4179
 7022SOL     OW32524   2.000   2.039   4.518 -0.3294  0.4570 -0.1686
 7022SOL    HW132525   1.905   2.033   4.509 -0.2553  0.4037 -0.9513
 7022SOL    HW232526   2.025   2.052   4.426  0.3636  0.7734  0.0667
 7023SOL     OW32527   0.475   3.797   5.927  0.5627 -0.2296 -0.2152
 7023SOL    HW132528   0.515   3.715   5.955 -2.5308 -1.7234 -0.1401
 7023SOL    HW232529   0.439   3.777   5.841 -2.3106  1.3834  0.6008
 7024SOL     OW32530   1.789   1.275   2.419  0.2182  0.0462 -0.8409
 7024SOL    HW132531   1.883   1.296   2.421 -0.3279  2.2798  1.6559
 7024SOL    HW232532   1.785   1.188   2.459  2.0602 -0.6464 -2.1540
 7025SOL     OW32533   2.402   4.624   4.521  0.3676 -0.0662  0.3374
 7025SOL    HW132534   2.428   4.685   4.452 -0.9824 -0.0242 -0.1315
 7025SOL    HW232535   2.451   4.545   4.498  2.1004  1.1415 -0.1618
 7026SOL     OW32536   2.373   2.357   6.968 -0.0963  0.0316  0.6882
 7026SOL    HW132537   2.424   2.384   7.044  0.7898 -1.7667  0.7287
 7026SOL    HW232538   2.399   2.265   6.956  2.6315  1.2955 -2.7904
 7027SOL     OW32539   3.532   0.258   7.124  0.0761 -0.4642  0.5701
 7027SOL    HW132540   3.576   0.242   7.040  0.8272  0.8093  0.7133
 7027SOL    HW232541   3.453   0.305   7.099  1.3462  0.0532 -2.4998
 7028SOL     OW32542   3.211   0.941  15.777 -0.3999  0.3127 -0.8714
 7028SOL    HW132543   3.258   0.988  15.708 -0.7350 -0.1492 -1.4144
 7028SOL    HW232544   3.268   0.863  15.780  0.8006  1.2516  0.7778
 7029SOL     OW32545   1.052   3.360   7.075 -0.1977 -0.3362  0.0778
 7029SOL    HW132546   1.103   3.321   7.146  0.2161  0.3178  0.1458
 7029SOL    HW232547   1.067   3.451   7.101  2.9646 -0.4917 -1.2093
 7030SOL     OW32548   3.971   2.584   5.400 -0.1337  0.7791  0.8265
 7030SOL    HW132549   3.934   2.501   5.367  0.7345  0.7982 -0.1768
 7030SOL    HW232550   3.912   2.645   5.355  0.0269 -0.6794 -1.3696
 7031SOL     OW32551   0.553   1.855   6.863 -0.0907 -0.0255  0.1677
 7031SOL    HW132552   0.500   1.776   6.865  0.8985 -0.6873  0.1566
 7031SOL    HW232553   0.610   1.833   6.937 -0.6660 -2.4789 -0.1297
 7032SOL     OW32554   1.176   1.444   9.251  0.2719  0.1259 -0.1276
 7032SOL    HW132555   1.257   1.492   9.233  0.1283  0.4544  0.0828
 7032SOL    HW232556   1.106   1.504   9.276  1.0222  0.6789  0.6597
 7033SOL     OW32557   0.464   2.112   6.886  0.1216  0.3646 -0.3586
 7033SOL    HW132558   0.549   2.156   6.894 -0.1756  0.5087  2.1817
 7033SOL    HW232559   0.488   2.021   6.867 -1.2202 -0.2108  0.6980
 7034SOL     OW32560   2.020   1.537  12.196  0.5888 -0.5467  0.3488
 7034SOL    HW132561   2.077   1.614  12.188  1.2508 -0.9541  1.0584
 7034SOL    HW232562   2.034   1.521  12.290 -1.4867 -3.6682  0.1194
 7035SOL     OW32563   0.088   3.916   4.309 -0.3278  0.0554  0.0647
 7035SOL    HW132564   0.035   3.956   4.240 -0.7544  1.4311  1.1888
 7035SOL    HW232565   0.067   3.975   4.382 -0.2373 -1.7409  1.5255
 7036SOL     OW32566   2.566   0.211   9.323  0.3269 -0.0041  0.1907
 7036SOL    HW132567   2.661   0.203   9.329  0.4907  0.9457 -1.1998
 7036SOL    HW232568   2.547   0.304   9.337 -1.6406 -0.2374 -0.8841
 7037SOL     OW32569   4.448   0.383  14.072  0.4551 -0.2855 -0.0434
 7037SOL    HW132570   4.439   0.448  14.002 -0.5608 -0.4527 -0.0698
 7037SOL    HW232571   4.399   0.425  14.143  0.1519  2.5163 -1.8746
 7038SOL     OW32572   0.354   2.718   5.825  0.4542 -0.2036  0.1210
 7038SOL    HW132573   0.340   2.703   5.918 -0.0104 -1.2624 -0.1276
 7038SOL    HW232574   0.275   2.772   5.814 -0.1572 -1.0754  0.2861
 7039SOL     OW32575   0.859   1.795   3.055  0.1559  0.2021  0.4517
 7039SOL    HW132576   0.796   1.866   3.040  1.1223  0.8608 -0.4173
 7039SOL    HW232577   0.933   1.844   3.019 -2.7455  2.8704 -1.9239
 7040SOL     OW32578   3.127   3.606  17.590 -0.8244  0.1426  0.3546
 7040SOL    HW132579   3.147   3.556  17.511 -0.5306  1.0836 -0.1655
 7040SOL    HW232580   3.150   3.691  17.552 -0.3273  0.0494  0.4411
 7041SOL     OW32581   2.105   2.841   1.193  0.1209  0.3657 -0.3215
 7041SOL    HW132582   2.080   2.928   1.223 -0.7020 -0.8760  2.6124
 7041SOL    HW232583   2.044   2.799   1.254  1.4581  0.2335  0.9329
 7042SOL     OW32584   3.084   0.742   8.880 -0.4943  0.1241  0.1780
 7042SOL    HW132585   3.088   0.648   8.897 -2.2262  0.0894  0.4056
 7042SOL    HW232586   3.022   0.753   8.808 -0.0772 -1.2611 -0.3976
 7043SOL     OW32587   1.811   3.849   5.010 -0.4909 -0.2365  0.1916
 7043SOL    HW132588   1.752   3.803   4.950 -0.5224 -2.3093  1.8367
 7043SOL    HW232589   1.803   3.801   5.092 -0.7935  0.9450  0.8403
 7044SOL     OW32590   4.672   1.044  13.484  0.4935 -0.2928  0.5222
 7044SOL    HW132591   4.721   1.087  13.415 -1.8623  0.0297 -0.9364
 7044SOL    HW232592   4.582   1.068  13.462  0.0087 -2.8761 -0.3320
 7045SOL     OW32593   1.155   4.099  15.317  0.0357 -0.1102 -0.1254
 7045SOL    HW132594   1.114   4.077  15.233 -1.8336  0.3225  0.6748
 7045SOL    HW232595   1.247   4.078  15.304 -0.4401  0.1860 -4.1177
 7046SOL     OW32596   1.020   2.281   2.811 -0.8338 -0.4955 -0.3137
 7046SOL    HW132597   1.111   2.256   2.824 -0.7905  0.4942  1.2610
 7046SOL    HW232598   0.994   2.322   2.893  0.1597  1.5563 -1.0481
 7047SOL     OW32599   4.047   0.110   5.309  0.1787 -0.3246 -0.0030
 7047SOL    HW132600   3.985   0.043   5.281  0.9383 -0.0956 -2.2138
 7047SOL    HW232601   4.126   0.087   5.260  0.3267  0.5928 -0.2034
 7048SOL     OW32602   0.272   0.851   6.036 -0.0607  0.0806 -0.2750
 7048SOL    HW132603   0.333   0.921   6.058 -1.2888  1.6237 -1.7448
 7048SOL    HW232604   0.277   0.812   6.123 -0.6964 -0.4290 -0.4661
 7049SOL     OW32605   4.717   3.168  13.123 -0.1903 -0.3509  0.1122
 7049SOL    HW132606   4.647   3.104  13.137 -1.7853  1.9031  2.6059
 7049SOL    HW232607   4.675   3.222  13.057 -0.0759  0.0823  0.3903
 7050SOL     OW32608   2.854   2.996   6.678  0.2053 -0.1629 -0.2682
 7050SOL    HW132609   2.849   2.993   6.773  1.3929 -0.4942 -0.2163
 7050SOL    HW232610   2.947   3.019   6.673 -1.2359  5.2517 -1.6496
 7051SOL     OW32611   1.845   0.767  13.031 -0.1966  0.4330 -0.0065
 7051SOL    HW132612   1.796   0.705  12.977  0.9141 -0.6407  0.2067
 7051SOL    HW232613   1.881   0.824  12.963  0.8174  0.1612  0.3020
 7052SOL     OW32614   2.289   4.163   0.622  0.5044  0.4274 -0.8097
 7052SOL    HW132615   2.234   4.175   0.699  1.3711 -0.9189  0.0060
 7052SOL    HW232616   2.266   4.077   0.587  3.3872 -0.8519  0.4982
 7053SOL     OW32617   0.222   3.647   8.391  0.2595  0.1244 -0.3026
 7053SOL    HW132618   0.308   3.665   8.353  0.2073 -0.3152 -0.6315
 7053SOL    HW232619   0.165   3.671   8.318 -2.3665  0.6782  1.9079
 7054SOL     OW32620   1.983   1.223  13.364 -0.1140  0.0062  0.1326
 7054SOL    HW132621   2.025   1.275  13.296  0.0162 -0.8952 -0.4805
 7054SOL    HW232622   1.946   1.152  13.311 -0.2385  0.6617 -0.6506
 7055SOL     OW32623   4.404   1.004   2.224 -0.2059 -0.5981  0.0278
 7055SOL    HW132624   4.419   0.948   2.148 -0.1231 -2.0751  1.1318
 7055SOL    HW232625   4.494   1.033   2.238 -0.0654 -0.7769 -0.4864
 7056SOL     OW32626   3.323   3.344   2.996  0.0099 -0.0365 -0.3093
 7056SOL    HW132627   3.328   3.250   3.014 -0.6157  0.0340  0.2330
 7056SOL    HW232628   3.250   3.356   3.057 -1.5374  0.5413 -2.2907
 7057SOL     OW32629   3.058   2.912   9.105  0.3811 -0.0177 -0.1140
 7057SOL    HW132630   3.073   2.881   9.194  0.7348  0.2397 -0.0852
 7057SOL    HW232631   3.089   2.837   9.054  3.1778  0.2127  1.2115
 7058SOL     OW32632   3.866   2.879   3.837 -0.2316 -0.1416  0.3885
 7058SOL    HW132633   3.811   2.824   3.894 -0.2421 -0.2973  0.2276
 7058SOL    HW232634   3.809   2.952   3.811 -1.0215  0.0174  2.5679
 7059SOL     OW32635   3.531   0.584   6.862  0.3575  0.8084 -0.2384
 7059SOL    HW132636   3.462   0.546   6.917 -0.2243  0.9604 -0.8620
 7059SOL    HW232637   3.609   0.563   6.913  1.4287  1.8619 -1.4457
 7060SOL     OW32638   0.032   0.308   4.672 -0.1539  0.3804 -0.1049
 7060SOL    HW132639   0.041   0.217   4.701  1.1304  0.7577  0.6649
 7060SOL    HW232640   0.115   0.344   4.704 -0.2824 -1.0195  1.8530
 7061SOL     OW32641   1.043   0.937   2.621 -0.0479  0.1652  0.6936
 7061SOL    HW132642   1.090   0.903   2.544  0.1502  0.3263  0.7436
 7061SOL    HW232643   1.045   1.029   2.596  1.1606 -0.0047  0.1414
 7062SOL     OW32644   3.813   2.481  17.693  0.7339 -0.2604 -0.4201
 7062SOL    HW132645   3.752   2.407  17.694 -0.0661  0.4011 -0.7416
 7062SOL    HW232646   3.768   2.545   0.043  0.4565 -0.4163 -0.4642
 7063SOL     OW32647   4.082   1.711   1.956 -0.2168 -0.0208 -0.0905
 7063SOL    HW132648   4.018   1.687   1.889 -0.4475 -1.3078  0.5800
 7063SOL    HW232649   4.063   1.802   1.979 -0.4371  0.0888 -0.7166
 7064SOL     OW32650   3.342   1.112   5.809 -0.0737 -0.6263 -0.0643
 7064SOL    HW132651   3.339   1.203   5.837  0.4818 -0.7009  0.2293
 7064SOL    HW232652   3.277   1.065   5.860 -2.0185  0.3215 -1.6636
 7065SOL     OW32653   3.389   2.147   1.227 -0.2948  0.3773 -0.0755
 7065SOL    HW132654   3.447   2.073   1.248  0.2333  1.2635  1.5293
 7065SOL    HW232655   3.365   2.138   1.134  3.0137  1.2944 -1.0299
 7066SOL     OW32656   4.490   3.569  13.834 -0.1497 -0.3982  0.1987
 7066SOL    HW132657   4.501   3.546  13.926 -0.9704 -0.4863  0.2723
 7066SOL    HW232658   4.494   3.664  13.839 -0.0280 -0.4133  0.3766
 7067SOL     OW32659   1.173   1.267   3.066 -0.0396 -0.6085  0.0002
 7067SOL    HW132660   1.100   1.290   3.124  2.1840  0.0389  2.5360
 7067SOL    HW232661   1.145   1.205   2.999 -2.4186 -0.9590  1.3156
 7068SOL     OW32662   1.637   2.170   5.557 -0.5871 -0.2478  0.1196
 7068SOL    HW132663   1.593   2.237   5.609 -1.1527 -0.2424 -0.3617
 7068SOL    HW232664   1.580   2.185   5.482 -0.1463 -0.7136 -0.3041
 7069SOL     OW32665   3.152   0.273  14.858  0.3506  0.3055 -0.1531
 7069SOL    HW132666   3.127   0.342  14.797  0.2638  0.9520  0.6202
 7069SOL    HW232667   3.223   0.309  14.911  0.0661  0.7183 -0.0484
 7070SOL     OW32668   3.969   4.008   0.172 -0.0728 -0.2284 -0.0648
 7070SOL    HW132669   3.925   4.076   0.222 -0.5702 -0.2260 -0.5020
 7070SOL    HW232670   3.979   4.066   0.096 -1.9254 -0.7807 -0.7383
 7071SOL     OW32671   3.554   2.402   3.921 -0.2875  0.3182 -0.2778
 7071SOL    HW132672   3.632   2.450   3.895 -0.0920  0.9956  1.6064
 7071SOL    HW232673   3.521   2.465   3.984  2.1238 -0.5772  1.8623
 7072SOL     OW32674   4.198   0.675  13.713 -0.1675 -0.0987 -0.2232
 7072SOL    HW132675   4.166   0.629  13.635  0.5967  0.8203 -1.0930
 7072SOL    HW232676   4.270   0.727  13.676  1.5258 -1.3055  1.4257
 7073SOL     OW32677   1.001   2.519   6.299  0.5542 -0.1605 -0.2380
 7073SOL    HW132678   0.926   2.576   6.285  0.6943  0.6150  2.1851
 7073SOL    HW232679   0.960   2.438   6.268  1.0530 -0.5678  0.1483
 7074SOL     OW32680   1.579   2.030  10.901 -0.0931 -0.5163  0.2405
 7074SOL    HW132681   1.550   1.978  10.825 -1.9362 -0.6099  1.0140
 7074SOL    HW232682   1.499   2.018  10.952 -1.3576  0.6089 -1.5091
 7075SOL     OW32683   1.739   3.319   0.609  0.2505 -0.0648  0.2319
 7075SOL    HW132684   1.827   3.283   0.622  0.5311 -0.2915 -2.2882
 7075SOL    HW232685   1.704   3.253   0.549  1.0102 -1.5899  1.4837
 7076SOL     OW32686   0.043   2.788   9.127  0.4339  0.4471 -0.6646
 7076SOL    HW132687   0.136   2.776   9.107  0.4850 -1.3083  0.6213
 7076SOL    HW232688   0.021   2.843   9.052  3.2221 -0.6459 -2.3040
 7077SOL     OW32689   4.039   2.437  10.666 -0.1512  0.1156  0.1031
 7077SOL    HW132690   3.970   2.452  10.731  2.1755  0.3234  2.5557
 7077SOL    HW232691   4.037   2.344  10.645 -0.2319  0.7121 -2.4495
 7078SOL     OW32692   1.608   4.277   6.610  0.0713  0.0126  0.1108
 7078SOL    HW132693   1.665   4.204   6.634  1.3602  0.5760 -1.2566
 7078SOL    HW232694   1.635   4.282   6.518 -0.4307  0.8073  0.0079
 7079SOL     OW32695   1.670   3.371   2.956 -0.3791 -0.3856  0.4563
 7079SOL    HW132696   1.740   3.334   2.902 -1.0000 -1.4987  0.4159
 7079SOL    HW232697   1.613   3.407   2.889 -0.6382 -1.1954  0.2492
 7080SOL     OW32698   1.782   2.706   7.206 -0.0249 -0.5027 -0.4601
 7080SOL    HW132699   1.864   2.755   7.205 -0.0841 -0.4063 -0.5886
 7080SOL    HW232700   1.814   2.622   7.173  1.1308 -0.6051  0.9596
 7081SOL     OW32701   0.181   0.397   1.921  0.2331 -0.1249 -0.2777
 7081SOL    HW132702   0.197   0.418   1.828 -2.2969  0.2938 -0.6076
 7081SOL    HW232703   0.091   0.365   1.921 -0.3146  1.3879  4.4871
 7082SOL     OW32704   3.014   0.165  14.154  0.1200  0.0823 -0.5276
 7082SOL    HW132705   2.945   0.153  14.220  1.7445  0.8807  1.3017
 7082SOL    HW232706   2.969   0.153  14.070 -0.2494 -2.5636  0.0193
 7083SOL     OW32707   3.396   2.896  13.790  0.2452  0.7658 -0.1615
 7083SOL    HW132708   3.464   2.938  13.843  0.7801  0.5579 -0.6790
 7083SOL    HW232709   3.404   2.802  13.807  1.9589  0.7155 -1.2448
 7084SOL     OW32710   2.460   3.710   3.546  0.1068  0.6848 -0.1148
 7084SOL    HW132711   2.535   3.652   3.539 -1.8867 -1.8934 -0.3141
 7084SOL    HW232712   2.475   3.765   3.469  0.5415  1.2847  0.4036
 7085SOL     OW32713   0.238   2.366   2.768 -0.7542  0.4315  0.5387
 7085SOL    HW132714   0.258   2.338   2.679  0.8188  0.4625  0.8967
 7085SOL    HW232715   0.325   2.384   2.802 -0.4121 -0.8801  0.3567
 7086SOL     OW32716   4.560   0.524  17.197 -0.2553  0.6509 -0.1412
 7086SOL    HW132717   4.540   0.456  17.132 -0.2075  0.1366  0.3864
 7086SOL    HW232718   4.573   0.599  17.139 -2.4464  3.2864  2.8046
 7087SOL     OW32719   4.100   1.218   0.977 -0.1767 -0.4883  0.2696
 7087SOL    HW132720   4.086   1.294   1.033 -0.5927 -0.6624  0.4012
 7087SOL    HW232721   4.012   1.199   0.943 -0.4186  0.0885  0.5784
 7088SOL     OW32722   3.735   3.720   4.229 -0.4087 -0.0374 -0.6454
 7088SOL    HW132723   3.742   3.680   4.142  3.0222  3.2029 -1.8817
 7088SOL    HW232724   3.779   3.804   4.217 -0.6719  0.0805 -0.7868
 7089SOL     OW32725   4.300   0.052   6.119 -0.3265  0.1926  0.0239
 7089SOL    HW132726   4.391   0.062   6.145 -0.2791  0.0426 -0.0800
 7089SOL    HW232727   4.257   0.035   6.203  1.9128 -2.1585  0.7026
 7090SOL     OW32728   1.723   4.580   7.345  0.2776  0.0207  0.4079
 7090SOL    HW132729   1.775   4.587   7.265 -0.7427 -0.8026 -0.3278
 7090SOL    HW232730   1.772   4.514   7.394 -0.4354 -0.0913  0.9695
 7091SOL     OW32731   2.891   1.874  11.177 -0.0759  0.0160 -0.4804
 7091SOL    HW132732   2.867   1.810  11.243  0.6392 -2.3272 -2.4885
 7091SOL    HW232733   2.981   1.901  11.192  0.1879 -2.0257  1.4573
 7092SOL     OW32734   3.158   1.982  11.211  0.1164  0.1138  0.4900
 7092SOL    HW132735   3.195   2.018  11.130 -2.1450  1.5479  0.0979
 7092SOL    HW232736   3.208   1.900  11.213 -1.0536 -0.6606 -1.8874
 7093SOL     OW32737   4.205   0.334  16.883  0.4983  0.1825  0.2327
 7093SOL    HW132738   4.298   0.356  16.872  1.2298 -2.8701  0.4076
 7093SOL    HW232739   4.198   0.293  16.969  1.6509 -0.3682  0.0645
 7094SOL     OW32740   1.444   2.847   6.455 -0.1455  0.1064 -0.0791
 7094SOL    HW132741   1.493   2.870   6.534 -0.5341  1.9671 -0.3988
 7094SOL    HW232742   1.516   2.827   6.395 -0.7717  0.6863 -1.0169
 7095SOL     OW32743   0.262   2.072   4.045 -0.0703  0.5813 -0.1359
 7095SOL    HW132744   0.213   2.114   3.974  0.3191  0.7562 -0.2987
 7095SOL    HW232745   0.333   2.026   4.000  0.0217 -1.8293  2.4723
 7096SOL     OW32746   4.496   1.794   5.268 -0.4525 -0.1489  0.3846
 7096SOL    HW132747   4.460   1.883   5.260 -2.2131 -0.8528  0.6050
 7096SOL    HW232748   4.458   1.766   5.351 -0.2187 -1.4583  0.0421
 7097SOL     OW32749   3.461   4.435   2.132 -0.0167 -0.2366  0.4187
 7097SOL    HW132750   3.419   4.495   2.193  1.4598  1.1798  0.0591
 7097SOL    HW232751   3.394   4.386   2.085  0.2536  0.2617 -0.4712
 7098SOL     OW32752   2.099   4.717   7.595 -0.2801 -0.0970 -0.1493
 7098SOL    HW132753   2.076   4.691   7.684 -0.3482  0.0911 -0.1127
 7098SOL    HW232754   2.046   0.070   7.592 -1.0754 -0.6057  0.4210
 7099SOL     OW32755   4.013   1.664   3.716 -0.0681 -0.4673 -0.5315
 7099SOL    HW132756   3.937   1.720   3.732  0.1570 -0.6395  1.1211
 7099SOL    HW232757   3.980   1.602   3.651  2.8132  0.1387 -2.5351
 7100SOL     OW32758   3.025   3.830  15.748 -0.6703  0.0086 -0.4329
 7100SOL    HW132759   3.001   3.791  15.832 -3.0199 -1.1884 -1.6488
 7100SOL    HW232760   2.948   3.807  15.696 -0.5861 -0.3063 -0.4219
 7101SOL     OW32761   0.267   4.322   8.464  0.2036 -0.1381 -0.5724
 7101SOL    HW132762   0.293   4.233   8.485  0.6299  0.4720  1.4417
 7101SOL    HW232763   0.312   4.370   8.533  2.3482 -2.7654 -0.1739
 7102SOL     OW32764   4.257   3.988   6.607 -0.0749 -0.2903  0.1583
 7102SOL    HW132765   4.265   3.902   6.565 -0.5176 -0.1314 -0.2536
 7102SOL    HW232766   4.166   3.993   6.635 -0.1831  0.0282 -0.2479
 7103SOL     OW32767   0.842   3.127   5.578  0.0351 -0.4048 -0.2905
 7103SOL    HW132768   0.908   3.072   5.536  0.2979 -0.7380  0.5518
 7103SOL    HW232769   0.882   3.170   5.653  0.7391  0.4874 -1.1724
 7104SOL     OW32770   0.822   1.475  16.582 -0.1595 -0.1489  0.2078
 7104SOL    HW132771   0.907   1.516  16.566 -0.2626 -0.0412 -0.0660
 7104SOL    HW232772   0.843   1.390  16.542 -0.6780  0.8909 -2.2334
 7105SOL     OW32773   0.406   0.079   4.886  0.0458  0.0955 -0.4243
 7105SOL    HW132774   0.400   0.013   4.816 -0.8726 -2.0912  1.7260
 7105SOL    HW232775   0.462   0.032   4.947 -0.4314 -0.8681 -0.7258
 7106SOL     OW32776   2.029   2.160  13.816 -0.4798 -0.1039 -0.3066
 7106SOL    HW132777   2.029   2.206  13.732 -0.2103  0.3462 -0.0591
 7106SOL    HW232778   1.958   2.201  13.865 -1.8472 -2.4122 -0.3131
 7107SOL     OW32779   3.815   1.904   5.102  0.3639 -0.7098  0.1856
 7107SOL    HW132780   3.849   1.902   5.192  1.9196  0.3926 -0.3678
 7107SOL    HW232781   3.797   1.811   5.093  1.3953 -0.8481 -0.4421
 7108SOL     OW32782   1.556   3.691   2.909 -0.3904  0.9720  0.1246
 7108SOL    HW132783   1.599   3.669   2.992 -0.4698 -0.4027 -0.1841
 7108SOL    HW232784   1.473   3.647   2.930 -0.4206  0.3244 -1.3266
 7109SOL     OW32785   3.816   1.835  16.284  0.3324 -0.1090  0.0226
 7109SOL    HW132786   3.808   1.833  16.379 -0.3722 -1.4982 -0.0557
 7109SOL    HW232787   3.780   1.752  16.250 -0.4449  0.3252 -0.2132
 7110SOL     OW32788   2.618   0.584  11.336  0.1778 -0.6902 -0.4232
 7110SOL    HW132789   2.585   0.601  11.424  2.7641 -1.1857  0.6432
 7110SOL    HW232790   2.635   0.676  11.315 -2.1209 -0.1149  0.2960
 7111SOL     OW32791   1.199   0.093  11.230  0.1493 -0.2248 -0.4582
 7111SOL    HW132792   1.176   0.012  11.183  2.6159 -0.6827 -0.8670
 7111SOL    HW232793   1.226   0.054  11.313  1.1053 -0.0540 -0.6862
 7112SOL     OW32794   1.008   3.253   4.933 -0.0999 -0.6656 -0.4269
 7112SOL    HW132795   0.978   3.205   5.010 -0.5828 -0.1411 -0.2949
 7112SOL    HW232796   1.055   3.183   4.887  1.1732  0.3521 -0.6843
 7113SOL     OW32797   0.039   0.684  11.499  0.0386  0.0846 -0.4517
 7113SOL    HW132798   4.673   0.660  11.508  0.1504 -0.4066 -0.5997
 7113SOL    HW232799   0.055   0.687  11.405  0.8806 -0.1456 -0.3183
 7114SOL     OW32800   3.456   1.116   0.423  0.3539  0.0294 -0.3782
 7114SOL    HW132801   3.464   1.038   0.477 -1.9511  0.1246  0.1258
 7114SOL    HW232802   3.521   1.091   0.358 -0.4197 -2.0915 -0.3179
 7115SOL     OW32803   0.374   1.225   7.263  0.3115 -0.1335  0.4504
 7115SOL    HW132804   0.385   1.216   7.169  0.0998  0.2565  0.3844
 7115SOL    HW232805   0.281   1.202   7.271  0.4163 -1.9079 -3.5942
 7116SOL     OW32806   2.439   0.860   4.148  0.6865 -0.4451 -0.3100
 7116SOL    HW132807   2.502   0.894   4.211  0.0932 -2.9977  1.6467
 7116SOL    HW232808   2.487   0.844   4.066  1.2416  1.3611 -0.3286
 7117SOL     OW32809   0.362   1.760   2.054  0.0257  0.1530  0.7516
 7117SOL    HW132810   0.326   1.676   2.027  1.9684 -0.8004  1.1081
 7117SOL    HW232811   0.451   1.758   2.020  0.0947 -0.2611  0.9592
 7118SOL     OW32812   3.303   0.848   2.537  0.0802  0.6793 -0.2402
 7118SOL    HW132813   3.363   0.844   2.463 -1.9443 -1.4700 -1.8025
 7118SOL    HW232814   3.350   0.904   2.599 -0.8526  0.3935  0.7392
 7119SOL     OW32815   0.139   2.960   7.433  0.3540 -0.1574 -0.9697
 7119SOL    HW132816   0.095   2.951   7.348 -0.5551  1.1157 -0.6308
 7119SOL    HW232817   0.070   2.956   7.499 -0.5920  0.7610 -1.8840
 7120SOL     OW32818   1.225   0.447   5.541 -0.0907 -0.2201 -0.1919
 7120SOL    HW132819   1.295   0.498   5.581 -0.5112 -0.9010  1.4177
 7120SOL    HW232820   1.248   0.366   5.587 -1.3259  0.8008  2.2587
 7121SOL     OW32821   2.970   1.956   9.558  0.1184 -0.2503  0.4005
 7121SOL    HW132822   3.009   1.888   9.613  1.1263  0.2803  0.3266
 7121SOL    HW232823   2.881   1.922   9.570  0.3625 -1.2563 -0.6695
 7122SOL     OW32824   4.027   3.495   6.092  0.2167  0.0720  0.0630
 7122SOL    HW132825   4.054   3.478   6.183 -0.4089  0.0348  0.2396
 7122SOL    HW232826   4.073   3.422   6.051 -0.4146 -0.4951  0.3610
 7123SOL     OW32827   0.755   1.129   7.856 -0.5706 -0.7106  0.8082
 7123SOL    HW132828   0.670   1.165   7.881 -0.3684  0.3039  0.0448
 7123SOL    HW232829   0.739   1.093   7.769  0.7444  1.5126 -0.3710
 7124SOL     OW32830   4.703   1.554   6.415 -0.2067  0.0746  0.2086
 7124SOL    HW132831   0.017   1.638   6.393  0.8605 -0.2936  0.7184
 7124SOL    HW232832   4.682   1.565   6.508  0.6003 -1.9206  0.6295
 7125SOL     OW32833   2.941   2.945   0.958  0.5363  0.1521 -0.2374
 7125SOL    HW132834   2.928   2.995   0.878  0.5737 -3.0102 -2.2061
 7125SOL    HW232835   2.913   2.858   0.930  2.4860 -0.5590  0.0189
 7126SOL     OW32836   3.690   0.930   4.141  0.7054 -0.1476 -0.0466
 7126SOL    HW132837   3.733   0.947   4.225  1.5636  1.5270 -0.8234
 7126SOL    HW232838   3.758   0.962   4.081 -0.6108 -0.6214 -1.7916
 7127SOL     OW32839   0.323   2.339   6.819  0.3895  0.0362  0.1492
 7127SOL    HW132840   0.355   2.257   6.856 -1.5496 -0.5032  0.6221
 7127SOL    HW232841   0.361   2.401   6.882 -0.4997  1.3313 -0.5843
 7128SOL     OW32842   4.046   4.340   0.253  0.1861 -0.3629  0.4038
 7128SOL    HW132843   3.956   4.312   0.270 -0.5977  1.2775 -1.0927
 7128SOL    HW232844   4.052   4.435   0.263  2.2032 -0.6381  1.8586
 7129SOL     OW32845   0.297   0.247   6.162  0.1258 -0.1873 -0.6557
 7129SOL    HW132846   0.263   0.250   6.072  0.3470  0.7782 -0.7116
 7129SOL    HW232847   0.354   0.324   6.161  0.0785 -0.1553 -0.9571
 7130SOL     OW32848   2.508   1.823   6.647  0.4387  0.8310 -0.3006
 7130SOL    HW132849   2.573   1.870   6.700  0.0481  0.8952  0.1176
 7130SOL    HW232850   2.565   1.814   6.571 -1.1146  0.9204 -1.4550
 7131SOL     OW32851   0.735   1.630   6.840 -0.1821  0.4080  0.4055
 7131SOL    HW132852   0.791   1.552   6.844 -2.1064 -0.9816  0.8003
 7131SOL    HW232853   0.705   1.636   6.931 -1.6952  1.1127 -0.1309
 7132SOL     OW32854   4.234   2.819   1.610 -0.0360  0.3223  0.1034
 7132SOL    HW132855   4.316   2.779   1.582  0.4906  0.5752  1.3079
 7132SOL    HW232856   4.190   2.806   1.526 -0.1340  1.8343 -0.0643
 7133SOL     OW32857   2.587   2.750   5.166 -0.0274  0.0322  0.6485
 7133SOL    HW132858   2.579   2.813   5.237  0.3888  1.5583 -0.6558
 7133SOL    HW232859   2.520   2.684   5.186 -1.9913  2.0536  0.6822
 7134SOL     OW32860   1.402   1.393   1.003 -0.4337  0.3702  0.1118
 7134SOL    HW132861   1.439   1.465   0.953 -1.8111  1.3904  0.5780
 7134SOL    HW232862   1.338   1.352   0.944 -0.0290  0.2623 -0.2584
 7135SOL     OW32863   1.110   1.064   1.992 -0.3448 -0.2431 -0.0022
 7135SOL    HW132864   1.116   0.969   1.985  0.5376 -0.0723 -1.6353
 7135SOL    HW232865   1.041   1.075   2.056 -0.4566 -1.6110  0.1097
 7136SOL     OW32866   0.918   0.614   2.904  0.1415 -0.3312 -0.0679
 7136SOL    HW132867   1.003   0.659   2.906  0.1247 -0.2812 -0.5821
 7136SOL    HW232868   0.949   0.534   2.862  0.0145  1.2635 -3.1794
 7137SOL     OW32869   1.800   3.498   1.647  0.7676  0.1364 -0.0111
 7137SOL    HW132870   1.761   3.567   1.593  1.2265 -0.5065 -1.1699
 7137SOL    HW232871   1.726   3.484   1.706  0.5785  0.6956 -0.1107
 7138SOL     OW32872   0.155   1.539  12.739  0.1272 -0.7191 -0.3278
 7138SOL    HW132873   0.223   1.606  12.743 -0.8764  0.3962 -1.8001
 7138SOL    HW232874   0.192   1.473  12.796 -1.5810 -0.0742  1.5405
 7139SOL     OW32875   3.415   3.755  17.043 -0.4682 -0.2699 -0.4185
 7139SOL    HW132876   3.446   3.739  17.132  0.4528  0.7004 -0.5686
 7139SOL    HW232877   3.484   3.806  17.002 -0.4811 -0.4991 -0.7191
 7140SOL     OW32878   3.510   2.815   6.246  0.3219 -0.4418 -1.0194
 7140SOL    HW132879   3.449   2.765   6.192 -2.1318  0.2300  1.1320
 7140SOL    HW232880   3.595   2.772   6.241  0.8456  0.2673  1.6296
 7141SOL     OW32881   2.381   0.080   0.742  0.0040  0.6868 -0.4665
 7141SOL    HW132882   2.374   0.015   0.812  3.4832 -0.3192 -1.0781
 7141SOL    HW232883   2.473   0.065   0.720  0.0161 -0.7799  0.5652
 7142SOL     OW32884   4.290   1.877   0.636 -0.0599 -0.0304 -0.2229
 7142SOL    HW132885   4.296   1.814   0.707  0.9040  1.6020  1.1367
 7142SOL    HW232886   4.253   1.953   0.680 -0.3586 -0.3205  0.0219
 7143SOL     OW32887   2.108   0.181   1.972  0.4594  0.0703  0.2756
 7143SOL    HW132888   2.064   0.179   1.887  0.8265 -0.3754  0.0973
 7143SOL    HW232889   2.043   0.134   2.023  1.3052 -2.2235 -0.7637
 7144SOL     OW32890   4.549   2.199   7.388 -0.0917 -0.3021  0.4476
 7144SOL    HW132891   4.578   2.289   7.369  0.3817 -0.3863  0.7911
 7144SOL    HW232892   4.603   2.184   7.466  2.2107 -1.2101 -1.3179
 7145SOL     OW32893   2.352   3.898   2.525 -0.0485  0.5280  0.1890
 7145SOL    HW132894   2.421   3.879   2.461  2.0530  2.3748  1.9003
 7145SOL    HW232895   2.334   3.989   2.503 -0.6237  0.8095  1.8035
 7146SOL     OW32896   2.457   4.025  12.901  0.3057  0.1523  0.0573
 7146SOL    HW132897   2.462   4.050  12.993  0.7053  2.7423 -0.6783
 7146SOL    HW232898   2.548   4.015  12.874  0.5212 -0.2316  0.9243
 7147SOL     OW32899   4.723   2.738   5.565 -0.1351  0.4050  0.4582
 7147SOL    HW132900   0.072   2.725   5.506 -0.2463  2.5404 -0.1799
 7147SOL    HW232901   0.045   2.773   5.640 -1.6832 -0.6745  1.9437
 7148SOL     OW32902   2.172   1.650   7.683  0.2877  0.4647  0.0633
 7148SOL    HW132903   2.114   1.630   7.757  0.7272 -0.8447  0.0618
 7148SOL    HW232904   2.117   1.699   7.623  0.4768 -0.3050 -0.7491
 7149SOL     OW32905   0.732   3.929   8.635  0.1886  0.2033 -0.7639
 7149SOL    HW132906   0.682   3.882   8.567 -1.7092 -0.8112  1.3207
 7149SOL    HW232907   0.817   3.934   8.591  0.8557 -2.7687  0.1853
 7150SOL     OW32908   1.858   0.061   8.602 -0.2077 -0.7802 -0.2735
 7150SOL    HW132909   1.831   0.109   8.524  1.0502  1.6095  0.7735
 7150SOL    HW232910   1.777   0.064   8.654 -1.3813 -2.2170 -2.0296
 7151SOL     OW32911   1.749   2.138  12.932 -0.0716 -0.4795 -0.0150
 7151SOL    HW132912   1.838   2.106  12.942  0.3444  0.8473  0.3990
 7151SOL    HW232913   1.745   2.159  12.838  0.6252  0.0692  0.0767
 7152SOL     OW32914   1.559   1.252   6.182  0.0994  0.2302  0.2473
 7152SOL    HW132915   1.556   1.310   6.106  1.2150  0.7273  0.5735
 7152SOL    HW232916   1.469   1.223   6.198 -0.6676  2.8768  0.6668
 7153SOL     OW32917   3.417   0.572   9.414 -0.1393 -0.0431 -0.5427
 7153SOL    HW132918   3.483   0.633   9.449 -0.5143 -0.2623  0.5528
 7153SOL    HW232919   3.344   0.633   9.406  0.2965  0.2514 -2.3134
 7154SOL     OW32920   4.354   1.697   0.820  0.6076 -0.1413 -0.3127
 7154SOL    HW132921   4.305   1.618   0.796 -1.5320  1.3694 -0.9104
 7154SOL    HW232922   4.374   1.681   0.913  1.0006  0.2160 -0.3401
 7155SOL     OW32923   2.075   3.971   9.270 -0.3004 -0.5290  0.2335
 7155SOL    HW132924   2.031   3.996   9.351 -0.7193  0.5657 -0.3326
 7155SOL    HW232925   2.025   4.011   9.199 -0.1349 -0.6911  0.0237
 7156SOL     OW32926   4.180   1.038  13.313  0.4446 -0.0877  0.0285
 7156SOL    HW132927   4.171   0.945  13.330  0.7889 -0.4906 -1.9840
 7156SOL    HW232928   4.132   1.077  13.386 -0.0845  2.4649 -1.6655
 7157SOL     OW32929   0.841   3.387   2.064 -0.3989  0.3146 -0.0694
 7157SOL    HW132930   0.806   3.463   2.017  1.4513 -0.0192 -1.9707
 7157SOL    HW232931   0.763   3.337   2.089 -1.4720  1.0612 -1.9565
 7158SOL     OW32932   4.152   0.610   1.318  0.1302  0.1674 -0.2314
 7158SOL    HW132933   4.062   0.633   1.338  0.2200  0.4195 -0.1099
 7158SOL    HW232934   4.158   0.662   1.238  0.5614 -0.3715 -0.5497
 7159SOL     OW32935   1.414   3.970   6.527 -0.2602 -0.6742 -0.2270
 7159SOL    HW132936   1.458   4.048   6.493  1.0618 -1.1903  0.3233
 7159SOL    HW232937   1.484   3.911   6.554  1.7792  2.4037  1.0962
 7160SOL     OW32938   4.470   3.766  15.713  0.1476  0.4999  0.2584
 7160SOL    HW132939   4.511   3.737  15.632 -3.2098 -3.8722  0.1364
 7160SOL    HW232940   4.436   3.850  15.684  0.7626  0.6872  0.0827
 7161SOL     OW32941   1.786   3.116   4.039  0.3515 -0.1734 -0.4330
 7161SOL    HW132942   1.702   3.144   4.002 -0.4145 -0.8571  0.7912
 7161SOL    HW232943   1.848   3.182   4.009  1.9377 -1.7415 -0.5964
 7162SOL     OW32944   2.745   1.185  10.107  0.1114 -0.0065  0.1705
 7162SOL    HW132945   2.760   1.226  10.192 -1.1785 -0.8619  0.8164
 7162SOL    HW232946   2.777   1.260  10.056 -0.5180 -1.3719 -2.2468
 7163SOL     OW32947   2.539   4.237  16.073  0.1000 -0.2720  0.2899
 7163SOL    HW132948   2.484   4.222  16.150 -0.2730 -1.0960 -0.1384
 7163SOL    HW232949   2.629   4.248  16.106  0.1691  0.7239 -0.2327
 7164SOL     OW32950   4.602   0.027   4.560 -0.0665 -0.2605 -0.2311
 7164SOL    HW132951   4.627   0.002   4.471 -1.1123 -1.4487 -0.1862
 7164SOL    HW232952   4.683   0.018   4.611  0.7508  1.3990 -1.2322
 7165SOL     OW32953   1.714   3.009   3.657 -0.2768 -0.3594  0.7149
 7165SOL    HW132954   1.754   2.958   3.728  1.9843  1.1289  0.5101
 7165SOL    HW232955   1.697   3.096   3.694 -0.3057 -0.1868  0.2957
 7166SOL     OW32956   2.226   4.698  11.465 -0.0731  0.5319 -0.0436
 7166SOL    HW132957   2.267   0.039  11.520 -0.4470 -1.0075  2.1465
 7166SOL    HW232958   2.245   4.724  11.375  0.7763  0.7203  0.1925
 7167SOL     OW32959   2.885   0.466   7.100  0.0941  0.1035  0.1404
 7167SOL    HW132960   2.839   0.520   7.165  0.2673 -1.6872  1.7457
 7167SOL    HW232961   2.861   0.376   7.121  0.0753  0.1804  0.4619
 7168SOL     OW32962   4.220   1.834   5.454 -0.6384 -0.6382  0.0826
 7168SOL    HW132963   4.198   1.921   5.486  1.2840  0.1013 -0.6209
 7168SOL    HW232964   4.180   1.837   5.367 -0.8210 -1.5212  0.1372
 7169SOL     OW32965   1.355   3.150  16.402 -0.1403  0.1245 -0.3272
 7169SOL    HW132966   1.358   3.108  16.488  2.0784  1.2590  0.1485
 7169SOL    HW232967   1.382   3.242  16.414 -1.7496  0.5813 -0.2016
 7170SOL     OW32968   0.558   3.855   0.053  0.1323 -0.0929 -0.2036
 7170SOL    HW132969   0.606   3.837  17.678  2.1658 -2.5432  1.5480
 7170SOL    HW232970   0.607   3.930   0.085 -0.5890  1.2602 -2.2783
 7171SOL     OW32971   2.632   1.267  15.971  0.3155 -0.0283 -0.1109
 7171SOL    HW132972   2.569   1.321  15.924 -0.5385 -1.2835 -0.3893
 7171SOL    HW232973   2.584   1.186  15.983 -0.6628  0.4661 -0.6875
 7172SOL     OW32974   4.472   3.704  12.810 -0.6026 -0.3608 -0.0764
 7172SOL    HW132975   4.454   3.685  12.903 -1.4640  1.1331  0.0585
 7172SOL    HW232976   4.564   3.729  12.821 -0.6008 -0.3089 -0.2163
 7173SOL     OW32977   3.762   1.639   3.072 -0.4148  0.1275  0.4326
 7173SOL    HW132978   3.844   1.635   3.022 -1.4902  0.4443 -1.3611
 7173SOL    HW232979   3.795   1.639   3.162  3.5340 -2.5591 -0.9914
 7174SOL     OW32980   0.311   1.503   5.840  0.1756  0.8558 -0.1093
 7174SOL    HW132981   0.375   1.538   5.902  0.5343 -0.3001  0.1779
 7174SOL    HW232982   0.307   1.571   5.772 -0.0452  2.0806  1.1400
 7175SOL     OW32983   1.144   1.967   3.386 -0.0257 -0.2814  0.2539
 7175SOL    HW132984   1.151   1.873   3.369  0.8126  0.2384 -2.3955
 7175SOL    HW232985   1.192   1.983   3.466  0.7650 -0.0829 -0.2599
 7176SOL     OW32986   3.539   0.568   2.637  0.2351 -0.3722  0.0952
 7176SOL    HW132987   3.483   0.636   2.600 -2.8624 -1.3676  3.0149
 7176SOL    HW232988   3.519   0.580   2.730  0.4887 -0.4134  0.1578
 7177SOL     OW32989   3.231   4.447   7.688 -0.3454  0.1801  0.2454
 7177SOL    HW132990   3.243   4.513   7.756 -0.7716  0.6597 -0.1438
 7177SOL    HW232991   3.297   4.381   7.707 -1.4364 -1.0644 -0.3109
 7178SOL     OW32992   1.939   0.451   2.842  0.1421 -0.0901 -0.0144
 7178SOL    HW132993   1.955   0.475   2.751 -2.5673 -0.4712 -0.5939
 7178SOL    HW232994   2.017   0.481   2.890  0.1279  1.7446 -1.1317
 7179SOL     OW32995   1.484   0.718   4.781 -0.1861 -1.0394 -0.4661
 7179SOL    HW132996   1.538   0.732   4.703 -0.2743 -1.0663 -0.5326
 7179SOL    HW232997   1.508   0.630   4.811  1.3095 -0.9247 -1.3480
 7180SOL     OW32998   4.555   1.896  12.223 -0.0165  0.1348 -0.1503
 7180SOL    HW132999   4.496   1.826  12.251 -1.2375  1.1272 -0.2203
 7180SOL    HW233000   4.585   1.933  12.306 -2.3500  1.9984 -0.1279
 7181SOL     OW33001   4.304   1.843  14.936 -0.2976 -0.0711 -0.1093
 7181SOL    HW133002   4.333   1.857  14.846  0.2133  2.1841  0.4069
 7181SOL    HW233003   4.347   1.760  14.957 -0.2207  0.2220  0.8854
 7182SOL     OW33004   1.059   3.326  10.059  0.3169  0.4357  0.3131
 7182SOL    HW133005   0.999   3.258  10.088  2.4207 -1.6100 -0.1813
 7182SOL    HW233006   1.041   3.389  10.129  2.4249 -0.7103  1.9003
 7183SOL     OW33007   2.263   4.657  10.032 -0.0314  0.0128  0.1342
 7183SOL    HW133008   2.197   4.665  10.101 -1.8965 -3.7357 -1.2285
 7183SOL    HW233009   2.336   4.642  10.092 -0.8515  0.4944  1.2604
 7184SOL     OW33010   1.873   3.732   8.188 -0.2445  0.1175 -0.3015
 7184SOL    HW133011   1.857   3.783   8.267 -1.4273  1.0138 -1.1118
 7184SOL    HW233012   1.964   3.754   8.172  0.1279 -0.3382  1.2236
 7185SOL     OW33013   2.972   4.032  10.016 -0.3454 -0.3187 -0.2749
 7185SOL    HW133014   3.005   4.121  10.006 -1.0042  0.3888  3.6568
 7185SOL    HW233015   2.879   4.050  10.025 -0.3586 -1.4474  1.9835
 7186SOL     OW33016   0.956   4.001   2.763 -0.7578 -0.2241  0.6098
 7186SOL    HW133017   0.877   4.052   2.746  0.2688  0.3048 -2.7430
 7186SOL    HW233018   0.923   3.924   2.808  1.0594 -0.5117  1.4420
 7187SOL     OW33019   1.525   1.224   9.681 -0.1827  0.1611  0.2317
 7187SOL    HW133020   1.539   1.214   9.775  1.2860  1.3296  0.1428
 7187SOL    HW233021   1.610   1.197   9.644  0.5146  0.0604  1.9057
 7188SOL     OW33022   4.035   4.511   7.746 -0.5385 -0.0688 -0.4607
 7188SOL    HW133023   4.046   4.479   7.656  0.7195 -0.9996  0.0166
 7188SOL    HW233024   4.028   4.606   7.740 -0.9209 -0.0549  0.2642
 7189SOL     OW33025   1.363   3.049   6.875 -0.2404 -0.2682 -0.0944
 7189SOL    HW133026   1.274   3.031   6.906 -1.0938  1.1011 -1.6874
 7189SOL    HW233027   1.411   2.987   6.929  0.3294  1.3642  1.2649
 7190SOL     OW33028   3.572   0.893   3.359  0.4474  0.2739 -0.0301
 7190SOL    HW133029   3.592   0.937   3.276  1.0042 -0.3417 -0.2146
 7190SOL    HW233030   3.543   0.971   3.408 -0.8443 -1.1605  1.4752
 7191SOL     OW33031   0.606   2.494   6.807 -0.0841  0.3666  0.0655
 7191SOL    HW133032   0.598   2.580   6.766  0.0661 -0.2259 -1.1749
 7191SOL    HW233033   0.530   2.502   6.864 -1.6038 -0.7564 -1.8264
 7192SOL     OW33034   3.006   2.275  14.320  0.5224  1.0040  0.3159
 7192SOL    HW133035   2.980   2.257  14.230 -0.9136  2.2218  0.4822
 7192SOL    HW233036   3.034   2.365  14.335 -0.2479  0.9454  2.1161
 7193SOL     OW33037   1.533   3.546   4.444 -0.1336 -0.0219 -0.0105
 7193SOL    HW133038   1.614   3.496   4.435 -0.3222 -0.5209  1.1892
 7193SOL    HW233039   1.492   3.513   4.524 -1.5251 -0.1223 -0.7737
 7194SOL     OW33040   1.722   0.306   9.580  0.1889  0.4815 -0.3493
 7194SOL    HW133041   1.782   0.328   9.652 -0.9377 -0.8246  1.0067
 7194SOL    HW233042   1.643   0.307   9.635  0.1685 -1.9460 -0.3222
 7195SOL     OW33043   4.557   0.411   3.730 -0.3111 -0.1626 -1.0682
 7195SOL    HW133044   4.506   0.468   3.673 -0.3637  0.0687 -0.7890
 7195SOL    HW233045   4.627   0.474   3.747 -1.7592  0.7168  1.5705
 7196SOL     OW33046   0.380   1.027  15.910 -0.2644  0.1927  0.2996
 7196SOL    HW133047   0.355   1.073  15.830  0.1380  0.3087  0.2408
 7196SOL    HW233048   0.468   1.058  15.930 -0.5474  2.2760 -1.7860
 7197SOL     OW33049   4.407   2.920   9.443 -0.2175 -0.0407  0.2908
 7197SOL    HW133050   4.336   2.903   9.505  0.4625  0.1797  1.1208
 7197SOL    HW233051   4.358   2.931   9.361 -2.3776 -2.1472  1.2930
 7198SOL     OW33052   3.383   2.854   0.599 -0.4910  0.1320  0.3647
 7198SOL    HW133053   3.450   2.885   0.660 -0.8254 -2.5643  2.0752
 7198SOL    HW233054   3.312   2.817   0.652  1.4854 -2.6247  1.0517
 7199SOL     OW33055   2.646   4.383   1.448  0.6449 -0.3904 -1.0139
 7199SOL    HW133056   2.581   4.405   1.381 -0.5494  0.6327  0.4751
 7199SOL    HW233057   2.713   4.353   1.387 -0.8631  3.2922 -4.5507
 7200SOL     OW33058   0.403   4.329  17.471 -0.1647  0.6704 -0.2708
 7200SOL    HW133059   0.409   4.236  17.492  0.9785  0.7293 -0.3435
 7200SOL    HW233060   0.480   4.362  17.518  0.1198 -1.2537  0.6024
 7201SOL     OW33061   2.213   4.217   6.298 -0.4965  0.1782 -0.0436
 7201SOL    HW133062   2.198   4.131   6.339 -0.3088  1.3352  2.4808
 7201SOL    HW233063   2.276   4.265   6.353 -0.4776  0.0877  0.0140
 7202SOL     OW33064   1.666   1.781   2.827 -0.2285  0.3248 -0.0455
 7202SOL    HW133065   1.749   1.814   2.861 -0.1579 -0.3905  0.4793
 7202SOL    HW233066   1.678   1.783   2.732  1.9712  2.2354  0.2762
 7203SOL     OW33067   3.544   0.748   8.772  0.2698 -0.3388  0.0570
 7203SOL    HW133068   3.617   0.807   8.790  1.4209 -1.9911  0.8756
 7203SOL    HW233069   3.518   0.769   8.682 -1.0136 -1.6769  0.1054
 7204SOL     OW33070   3.418   2.971   5.655 -0.5093  0.2738 -0.2564
 7204SOL    HW133071   3.330   2.944   5.682 -0.5099  1.2244  0.7207
 7204SOL    HW233072   3.472   2.897   5.683 -0.1900  0.8562  0.6932
 7205SOL     OW33073   1.807   3.903   4.555  0.6335  0.2846  0.0300
 7205SOL    HW133074   1.881   3.921   4.498 -0.9267 -0.5756 -2.2934
 7205SOL    HW233075   1.780   3.817   4.523  2.0896 -0.8876  1.9855
 7206SOL     OW33076   4.612   4.637   4.311 -0.1257  0.2871 -0.5594
 7206SOL    HW133077   4.686   4.589   4.273 -0.2928  0.3368 -0.9458
 7206SOL    HW233078   4.600   4.691   4.234  0.3363 -3.6976 -3.4203
 7207SOL     OW33079   3.721   1.668   0.986  0.1966 -0.1423 -0.1508
 7207SOL    HW133080   3.682   1.680   0.899 -0.5237  1.4153  0.3752
 7207SOL    HW233081   3.794   1.730   0.979 -0.3794  0.4192 -1.2203
 7208SOL     OW33082   2.301   3.062  10.340  0.0714 -0.2199  0.2995
 7208SOL    HW133083   2.274   3.039  10.429  3.6452 -1.1070  1.1500
 7208SOL    HW233084   2.393   3.041  10.351  0.4475  0.0251 -2.3991
 7209SOL     OW33085   3.064   4.188  17.563  0.3647 -0.3223  0.7925
 7209SOL    HW133086   3.146   4.149  17.533  0.9699  0.6232  1.2079
 7209SOL    HW233087   3.061   4.173  17.658  1.3702 -2.2655  0.5352
 7210SOL     OW33088   2.082   2.540   2.699 -0.2725 -0.5625 -0.1614
 7210SOL    HW133089   2.078   2.632   2.728  0.5459 -0.4660 -0.3676
 7210SOL    HW233090   2.176   2.527   2.705  0.0895  1.9038 -0.2061
 7211SOL     OW33091   2.991   4.192   4.877  0.1223  0.1282 -0.2891
 7211SOL    HW133092   3.045   4.270   4.876  0.2586  0.0303 -0.6182
 7211SOL    HW233093   3.007   4.163   4.787  0.4513  1.4039 -0.6385
 7212SOL     OW33094   4.421   4.142   3.573  0.2448 -0.4534  0.5361
 7212SOL    HW133095   4.411   4.083   3.648 -1.7777  2.1880  2.3695
 7212SOL    HW233096   4.334   4.157   3.536  0.0632 -0.0536  1.1249
 7213SOL     OW33097   2.567   3.138   2.639  1.0112  0.0869 -0.3715
 7213SOL    HW133098   2.535   3.169   2.724  2.5211 -2.9971  1.3534
 7213SOL    HW233099   2.507   3.180   2.578  0.4985 -0.7674 -0.4517
 7214SOL     OW33100   0.989   0.829  12.413  0.3176  0.0278 -0.1385
 7214SOL    HW133101   1.057   0.817  12.479  2.2305  0.5758 -2.0354
 7214SOL    HW233102   0.943   0.900  12.459 -2.1581 -1.4085 -0.3800
 7215SOL     OW33103   1.156   1.185   6.047  0.4137  0.0956  0.4616
 7215SOL    HW133104   1.184   1.094   6.033  3.3857  1.0314  0.2743
 7215SOL    HW233105   1.104   1.174   6.127  0.5571 -0.2831  0.5072
 7216SOL     OW33106   0.370   3.646  10.703 -0.5263  0.2411 -0.2240
 7216SOL    HW133107   0.345   3.629  10.611 -0.2136 -0.4989 -0.1756
 7216SOL    HW233108   0.296   3.603  10.745 -3.2270  3.9630 -1.1918
 7217SOL     OW33109   3.484   2.176   2.970  0.2865 -0.6913 -0.1819
 7217SOL    HW133110   3.521   2.118   3.037  1.4316 -0.3033 -0.4793
 7217SOL    HW233111   3.561   2.225   2.941 -0.2839 -0.2549 -0.9556
 7218SOL     OW33112   0.710   3.514   8.122 -0.0199 -0.3235  0.5978
 7218SOL    HW133113   0.799   3.480   8.127  0.2838  0.4803  0.5613
 7218SOL    HW233114   0.725   3.605   8.148 -0.8472  0.0035 -0.0842
 7219SOL     OW33115   3.963   2.510   7.931 -0.4221 -0.4548 -0.5918
 7219SOL    HW133116   3.972   2.539   7.840 -0.3755  1.8720  0.1633
 7219SOL    HW233117   3.868   2.500   7.933 -0.3294 -0.8991  1.4656
 7220SOL     OW33118   4.711   1.048  10.027  0.1100  0.3969  0.5860
 7220SOL    HW133119   4.635   1.043  10.085  0.4430  0.5749  1.0362
 7220SOL    HW233120   0.011   0.960  10.053 -0.0023  0.9519  2.5706
 7221SOL     OW33121   4.420   4.647   9.168  0.0948 -0.3777 -0.7088
 7221SOL    HW133122   4.497   4.700   9.190 -0.8147  1.1974 -1.3935
 7221SOL    HW233123   4.373   4.641   9.250 -1.2272  0.2357 -1.4343
 7222SOL     OW33124   4.561   1.955   4.233 -0.0428  0.1630  0.8067
 7222SOL    HW133125   4.501   1.966   4.307  0.2592  0.5105  1.0069
 7222SOL    HW233126   4.504   1.996   4.168  0.5371 -2.5712 -1.3839
 7223SOL     OW33127   4.447   3.389  10.240  0.3539 -0.2507  0.3105
 7223SOL    HW133128   4.356   3.390  10.209  0.3295  1.8006  0.4583
 7223SOL    HW233129   4.495   3.401  10.158  1.0143  1.1943  0.9176
 7224SOL     OW33130   1.545   2.452   4.468  0.0374 -0.0923  0.6261
 7224SOL    HW133131   1.480   2.468   4.536  0.5751  1.0519  0.8629
 7224SOL    HW233132   1.495   2.398   4.406  0.3244  0.9229 -0.4954
 7225SOL     OW33133   2.897   1.275  15.875 -0.6840  0.2399  0.1118
 7225SOL    HW133134   2.950   1.327  15.936 -0.1942  0.6234 -0.6415
 7225SOL    HW233135   2.805   1.302  15.870 -1.1307 -1.2483  0.4002
 7226SOL     OW33136   2.272   4.613   4.009 -0.4209 -0.3415 -0.1492
 7226SOL    HW133137   2.351   4.642   4.055 -0.9714  1.6478 -0.4729
 7226SOL    HW233138   2.224   4.578   4.085  1.3899  0.9773  1.6061
 7227SOL     OW33139   2.629   1.771  11.434 -0.6910  0.3986 -0.5742
 7227SOL    HW133140   2.680   1.718  11.496 -2.5061  1.5369  1.9163
 7227SOL    HW233141   2.542   1.780  11.473 -0.8103  1.2453 -1.0382
 7228SOL     OW33142   0.191   4.212   5.881 -0.5126 -0.0449 -0.6839
 7228SOL    HW133143   0.256   4.183   5.818  0.8864 -2.1684  1.7403
 7228SOL    HW233144   0.155   4.290   5.838 -1.2829  0.2486  0.4802
 7229SOL     OW33145   3.760   4.230   6.314 -0.1922 -0.4238 -0.6960
 7229SOL    HW133146   3.725   4.200   6.230 -1.0513  0.5143 -0.6714
 7229SOL    HW233147   3.841   4.179   6.315  1.3185  2.0288  0.6357
 7230SOL     OW33148   1.234   4.510  17.554 -0.8888 -0.6526 -0.3263
 7230SOL    HW133149   1.179   4.491  17.478 -1.4247  0.0295 -0.1058
 7230SOL    HW233150   1.172   4.562  17.605  0.9327  1.1017  0.0915
 7231SOL     OW33151   4.087   3.293   2.941 -0.9341  0.3066 -0.3253
 7231SOL    HW133152   4.091   3.388   2.932  0.5191  0.3334  0.5936
 7231SOL    HW233153   4.062   3.269   2.852  0.5851 -0.5610 -0.5257
 7232SOL     OW33154   2.444   1.165   2.409 -0.2445 -0.4719 -0.6266
 7232SOL    HW133155   2.405   1.223   2.474 -0.0878 -1.5468  0.4438
 7232SOL    HW233156   2.506   1.227   2.372 -0.2650  1.8644  3.1880
 7233SOL     OW33157   2.917   3.093   2.936  0.1123  0.0342 -0.2954
 7233SOL    HW133158   2.920   3.181   2.972 -0.4121 -0.1349  0.1563
 7233SOL    HW233159   2.991   3.051   2.979  1.6017  2.5152 -0.4282
 7234SOL     OW33160   1.493   3.512   3.679 -0.6186  0.2852 -0.3072
 7234SOL    HW133161   1.583   3.534   3.703  0.1809 -1.5281 -1.6120
 7234SOL    HW233162   1.507   3.499   3.585 -2.6763 -1.0089 -0.4320
 7235SOL     OW33163   1.450   1.417   7.529 -0.4151  0.0587 -0.0507
 7235SOL    HW133164   1.530   1.431   7.479  1.3141 -1.4148  2.3445
 7235SOL    HW233165   1.390   1.404   7.455 -0.2087 -0.3451 -0.1413
 7236SOL     OW33166   0.613   3.814  17.488 -0.2060 -0.1446  0.1454
 7236SOL    HW133167   0.591   3.785  17.400 -1.8063  0.1793  0.4464
 7236SOL    HW233168   0.665   3.894  17.477  1.9538 -1.4389  0.7519
 7237SOL     OW33169   0.706   4.026   3.732  0.4407 -0.1131 -0.1251
 7237SOL    HW133170   0.716   4.043   3.638  2.2675 -2.5060 -0.3429
 7237SOL    HW233171   0.796   4.048   3.753  1.6147 -3.7617 -1.4496
 7238SOL     OW33172   1.502   2.356   8.222 -0.5129  0.1377  0.4499
 7238SOL    HW133173   1.486   2.420   8.152  1.9935  2.2317  1.7807
 7238SOL    HW233174   1.411   2.331   8.237  0.2643 -2.6581  0.5007
 7239SOL     OW33175   1.258   0.960   6.526  0.2124  0.0131 -0.2758
 7239SOL    HW133176   1.197   0.887   6.511  1.4556 -1.7224  3.1256
 7239SOL    HW233177   1.294   0.946   6.613  0.4119 -1.4276 -0.5853
 7240SOL     OW33178   0.213   1.268  12.796  0.3930 -0.6850  0.0825
 7240SOL    HW133179   0.228   1.258  12.890 -0.0820 -0.0239  0.2271
 7240SOL    HW233180   0.127   1.232  12.775 -0.1547  0.7813 -0.1321
 7241SOL     OW33181   2.225   2.700   9.438  0.4917 -0.7562 -0.1681
 7241SOL    HW133182   2.193   2.750   9.514 -0.2225 -0.2824 -0.7738
 7241SOL    HW233183   2.298   2.754   9.410  0.2329  0.4616  1.4923
 7242SOL     OW33184   0.080   4.683   6.789 -0.6083 -0.0702  0.1218
 7242SOL    HW133185   0.055   0.032   6.843  0.3523  0.5385 -0.2760
 7242SOL    HW233186   0.002   4.627   6.790 -1.3482  1.0536  4.9292
 7243SOL     OW33187   3.058   1.439   3.179  0.0210 -0.0476  0.9403
 7243SOL    HW133188   3.057   1.344   3.189  0.3581 -0.1168  0.3402
 7243SOL    HW233189   3.132   1.442   3.119  0.2374 -1.4794  1.1443
 7244SOL     OW33190   1.805   0.268   2.987 -0.2153 -0.0191  0.2462
 7244SOL    HW133191   1.859   0.265   3.066  1.9996 -2.8761 -1.3614
 7244SOL    HW233192   1.843   0.332   2.927  1.0106  0.2585  1.3131
 7245SOL     OW33193   0.606   3.672   8.993 -0.3241  0.0218 -0.1683
 7245SOL    HW133194   0.616   3.590   8.944 -0.7046 -0.2505  0.2062
 7245SOL    HW233195   0.676   3.661   9.058 -1.5205  0.1306  1.1307
 7246SOL     OW33196   4.644   1.500   8.957 -0.5842 -0.1945  0.0468
 7246SOL    HW133197   4.703   1.428   8.936  0.3693  0.8500 -0.8660
 7246SOL    HW233198   4.706   1.573   8.957 -0.9000  0.0671 -1.5216
 7247SOL     OW33199   0.317   4.286   4.991 -1.1225 -0.4624 -0.7565
 7247SOL    HW133200   0.233   4.248   4.963 -1.4136 -2.1065  2.3362
 7247SOL    HW233201   0.333   4.224   5.062  1.6309  2.3699  1.0818
 7248SOL     OW33202   2.311   0.671   6.415 -0.0825 -0.1794  0.2554
 7248SOL    HW133203   2.395   0.663   6.460  0.5435  1.7697 -0.5875
 7248SOL    HW233204   2.307   0.586   6.372  2.0626 -0.4934  0.6446
 7249SOL     OW33205   0.965   3.506   7.716  0.1506  0.0391  0.0112
 7249SOL    HW133206   1.017   3.428   7.695  1.1605  0.7086 -0.0094
 7249SOL    HW233207   0.954   3.548   7.631  1.9436  1.1367  0.2993
 7250SOL     OW33208   0.828   4.400  12.046 -0.0363  0.3035  0.2276
 7250SOL    HW133209   0.830   4.386  11.951 -1.8027 -0.2320  0.2557
 7250SOL    HW233210   0.883   4.330  12.081 -0.8778 -1.0105 -1.0855
 7251SOL     OW33211   3.591   3.828   1.946  0.7730  0.7594 -0.3341
 7251SOL    HW133212   3.638   3.885   2.007  0.4424  0.1486  0.4904
 7251SOL    HW233213   3.648   3.751   1.942 -0.6481 -0.1380 -2.9933
 7252SOL     OW33214   3.322   2.878  17.598  0.3435  0.1966 -0.3258
 7252SOL    HW133215   3.234   2.858  17.632  0.7550 -0.5752  0.2935
 7252SOL    HW233216   3.373   2.868  17.678  0.5220  0.4882 -0.4040
 7253SOL     OW33217   3.109   4.236   6.406 -0.3449  0.5497 -0.4205
 7253SOL    HW133218   3.030   4.283   6.380 -0.3484 -0.8170 -2.8716
 7253SOL    HW233219   3.169   4.255   6.334 -0.3314 -0.2616 -0.6253
 7254SOL     OW33220   0.886   4.380   8.090 -0.1316 -0.1405  1.1067
 7254SOL    HW133221   0.949   4.421   8.150 -1.0379 -0.5349  2.3196
 7254SOL    HW233222   0.824   4.452   8.077  0.7631  0.2733 -0.9711
 7255SOL     OW33223   0.697   2.054  16.669 -0.1699  0.0902 -0.1443
 7255SOL    HW133224   0.694   2.090  16.580  4.1078  4.4971  1.4937
 7255SOL    HW233225   0.695   1.961  16.648 -1.7019  0.3486 -1.2145
 7256SOL     OW33226   4.084   2.754   3.977 -0.4638 -0.1474  0.2067
 7256SOL    HW133227   4.009   2.744   4.036 -0.6073 -0.9589 -0.1177
 7256SOL    HW233228   4.049   2.818   3.915 -1.8363 -0.0573  1.0707
 7257SOL     OW33229   3.388   3.652   4.895  1.0461 -0.0717  0.8020
 7257SOL    HW133230   3.439   3.729   4.874  1.7823 -1.0254 -0.9193
 7257SOL    HW233231   3.417   3.636   4.984 -2.5513 -0.7535  1.8452
 7258SOL     OW33232   3.287   4.228   4.715 -0.1488  0.5020 -0.2024
 7258SOL    HW133233   3.353   4.256   4.778 -0.9619  0.8130  0.5239
 7258SOL    HW233234   3.299   4.297   4.651  0.3046  1.3051  0.7492
 7259SOL     OW33235   4.622   2.023   0.600  0.4151  0.0037  0.4576
 7259SOL    HW133236   4.649   2.038   0.509 -2.2393  0.7908 -0.2119
 7259SOL    HW233237   4.530   2.018   0.575  0.8272 -1.5759 -0.7262
 7260SOL     OW33238   0.422   2.881   4.339  0.1207  0.0310  0.5670
 7260SOL    HW133239   0.356   2.862   4.406 -0.9764 -0.2008 -0.5935
 7260SOL    HW233240   0.372   2.940   4.283  1.5084  1.1007  0.4699
 7261SOL     OW33241   2.721   4.270   2.004 -0.2754  0.4414  0.1011
 7261SOL    HW133242   2.691   4.190   2.047  0.7650 -0.2147 -0.3776
 7261SOL    HW233243   2.800   4.247   1.953 -0.7941  0.2089 -0.5979
 7262SOL     OW33244   1.870   2.929   3.137  0.2793 -0.2824  0.6860
 7262SOL    HW133245   1.912   2.978   3.208  0.9266  1.2666 -0.7603
 7262SOL    HW233246   1.779   2.960   3.136  0.3440 -0.0910  0.6570
 7263SOL     OW33247   1.940   1.278   8.229 -0.1904 -0.8279  0.0470
 7263SOL    HW133248   1.994   1.286   8.308  0.1976  0.8365 -0.3760
 7263SOL    HW233249   1.883   1.352   8.251 -1.3111 -1.4934 -0.6062
 7264SOL     OW33250   1.912   1.578  13.507  0.3395  0.6280 -0.2807
 7264SOL    HW133251   1.943   1.595  13.596 -0.4625  1.0938 -0.0926
 7264SOL    HW233252   1.826   1.539  13.524  0.0868  1.0052 -0.6847
 7265SOL     OW33253   2.606   0.382   8.212 -0.3014 -0.5681  0.3283
 7265SOL    HW133254   2.578   0.309   8.268  0.4263 -2.1961 -1.4209
 7265SOL    HW233255   2.687   0.353   8.171 -1.4706 -1.2137 -1.5347
 7266SOL     OW33256   4.267   0.284   6.669  0.0650  1.0881 -0.1720
 7266SOL    HW133257   4.205   0.318   6.733  0.9307  0.2613  1.1121
 7266SOL    HW233258   4.330   0.248   6.733 -1.6347 -1.5441 -0.0112
 7267SOL     OW33259   4.492   2.722   0.808 -0.6045 -0.1434 -0.0931
 7267SOL    HW133260   4.478   2.633   0.839 -3.7314  0.0153 -1.1102
 7267SOL    HW233261   4.588   2.725   0.815 -0.4880  1.3134 -2.1613
 7268SOL     OW33262   2.618   4.220  15.769 -0.6240 -0.0510  0.0977
 7268SOL    HW133263   2.572   4.264  15.841 -1.2327 -0.6388  0.0657
 7268SOL    HW233264   2.691   4.185  15.820  1.1190  1.7663 -1.1204
 7269SOL     OW33265   2.453   1.189   9.330 -0.0327  0.1814  0.2359
 7269SOL    HW133266   2.442   1.180   9.425 -1.4081 -0.2125  0.0347
 7269SOL    HW233267   2.472   1.283   9.321 -0.0116  0.0793 -0.8246
 7270SOL     OW33268   2.402   0.539   1.715  0.7530  0.0090  0.3876
 7270SOL    HW133269   2.450   0.590   1.650 -1.4930  0.6293 -0.7757
 7270SOL    HW233270   2.317   0.582   1.710 -0.3591 -2.2503 -0.4469
 7271SOL     OW33271   0.738   2.682   8.976  0.2820 -0.3598 -0.0003
 7271SOL    HW133272   0.694   2.744   8.918  1.6664 -1.2396 -1.9872
 7271SOL    HW233273   0.815   2.731   9.004  0.5714  0.0139 -1.4574
 7272SOL     OW33274   0.007   3.097   5.342 -0.2058  0.0968  1.1225
 7272SOL    HW133275   4.642   3.068   5.345 -0.3187  0.4268  0.9904
 7272SOL    HW233276   0.003   3.183   5.299  0.0962 -1.1910 -1.4850
 7273SOL     OW33277   3.113   2.413   6.127  0.3480  0.0522 -0.1940
 7273SOL    HW133278   3.148   2.371   6.205  3.3472  1.4464 -0.7921
 7273SOL    HW233279   3.027   2.371   6.126  0.0054  0.7831 -1.5449
 7274SOL     OW33280   0.420   0.808   1.152 -0.4406 -0.1809  0.0414
 7274SOL    HW133281   0.356   0.854   1.207 -0.3087 -1.0014  0.8857
 7274SOL    HW233282   0.417   0.856   1.069  1.6920  0.4096  0.2963
 7275SOL     OW33283   0.151   3.216   8.585 -0.9361 -0.1278  0.1919
 7275SOL    HW133284   0.134   3.306   8.613  1.0993 -0.0802  1.2411
 7275SOL    HW233285   0.076   3.182   8.536 -0.6274 -0.5510  0.0178
 7276SOL     OW33286   3.466   4.622   0.436  0.1902 -0.6324  0.1739
 7276SOL    HW133287   3.383   4.668   0.438 -0.2878 -1.3982 -2.9746
 7276SOL    HW233288   3.484   4.594   0.526  0.2224 -0.4809  0.2138
 7277SOL     OW33289   4.448   1.069   6.695 -0.0763  0.0638  0.2020
 7277SOL    HW133290   4.433   1.145   6.638 -2.0406 -2.2260 -2.3634
 7277SOL    HW233291   4.443   1.002   6.626  0.0045 -1.5147  1.7473
 7278SOL     OW33292   2.513   2.874   1.444  1.0655 -0.0010  0.1657
 7278SOL    HW133293   2.604   2.887   1.473  0.4446  1.2750  1.5098
 7278SOL    HW233294   2.456   2.906   1.513  2.4435 -0.7069  1.6211
 7279SOL     OW33295   0.408   3.057   3.771  0.3662  0.5786 -0.4210
 7279SOL    HW133296   0.458   3.093   3.697  0.6514  0.5350 -0.2499
 7279SOL    HW233297   0.467   3.055   3.846  0.0961 -3.3849 -0.3282
 7280SOL     OW33298   0.519   4.691  16.626  0.1051 -0.2467  0.3266
 7280SOL    HW133299   0.506   4.633  16.701 -0.9929  2.0787  1.9247
 7280SOL    HW233300   0.466   0.042  16.647 -2.6425 -2.1007  0.1644
 7281SOL     OW33301   0.516   1.965   5.458 -0.3080 -0.0520  0.4314
 7281SOL    HW133302   0.522   1.872   5.477  0.9256  0.2095  1.3010
 7281SOL    HW233303   0.589   1.972   5.397 -1.1796 -1.4995 -0.7676
 7282SOL     OW33304   4.302   2.001   0.369  0.1962  0.5217  0.2086
 7282SOL    HW133305   4.304   1.918   0.321  0.8710  0.1845  0.8301
 7282SOL    HW233306   4.284   1.969   0.457 -0.3531  0.6203  0.1304
 7283SOL     OW33307   1.071   4.632  10.885 -0.0393 -0.4595  0.0743
 7283SOL    HW133308   0.997   4.656  10.942 -0.5080  0.9385 -1.1279
 7283SOL    HW233309   1.079   4.709  10.828  1.9321 -0.8892 -0.2231
 7284SOL     OW33310   0.315   3.040   4.144  0.4824 -0.0861 -0.8073
 7284SOL    HW133311   0.271   3.085   4.072 -0.3082 -1.8671 -1.4506
 7284SOL    HW233312   0.392   3.017   4.092  1.0675 -0.5155  0.2419
 7285SOL     OW33313   4.610   2.125  17.170  0.5877 -0.1411 -0.3698
 7285SOL    HW133314   4.560   2.162  17.243  1.0742  1.3747 -0.8107
 7285SOL    HW233315   4.660   2.203  17.146  0.6620 -0.1924 -0.3812
 7286SOL     OW33316   3.369   4.199   7.100  0.8914  0.2098 -0.1823
 7286SOL    HW133317   3.453   4.163   7.129 -0.3184 -0.4272  2.5276
 7286SOL    HW233318   3.394   4.205   7.008 -2.0734 -1.3617 -1.0949
 7287SOL     OW33319   1.757   0.281   7.682  0.7358 -0.7323  0.4511
 7287SOL    HW133320   1.727   0.212   7.742  1.2660 -0.4211  1.0712
 7287SOL    HW233321   1.754   0.229   7.602  0.1538  1.1625 -0.7446
 7288SOL     OW33322   0.178   4.169   2.740 -0.4519 -0.1789 -0.5778
 7288SOL    HW133323   0.149   4.202   2.654 -0.4706 -1.1690 -0.9483
 7288SOL    HW233324   0.147   4.246   2.788  1.5975  0.1692  0.1706
 7289SOL     OW33325   2.889   1.050   7.991  0.3271  0.0205  0.0867
 7289SOL    HW133326   2.950   1.084   8.056  0.8255 -0.9359  0.1170
 7289SOL    HW233327   2.914   1.087   7.906 -0.2098  2.2989  0.9366
 7290SOL     OW33328   4.221   0.756  12.259  0.1543  0.3638 -0.0627
 7290SOL    HW133329   4.199   0.674  12.215  2.5829 -1.4403  2.1069
 7290SOL    HW233330   4.280   0.788  12.192  0.4833 -0.1839 -0.0295
 7291SOL     OW33331   2.292   0.432   9.208  0.1476  0.3249  0.1848
 7291SOL    HW133332   2.229   0.402   9.143  0.0746  1.2976 -0.1946
 7291SOL    HW233333   2.258   0.397   9.291  1.4340 -1.0497  0.1477
 7292SOL     OW33334   3.102   3.276   4.477  0.3702 -0.1362  0.3201
 7292SOL    HW133335   3.150   3.351   4.515  1.8547 -0.4398 -0.9493
 7292SOL    HW233336   3.054   3.248   4.555 -0.9674  1.0959 -0.0779
 7293SOL     OW33337   0.994   1.511   2.748 -0.2575  0.1843  0.0381
 7293SOL    HW133338   0.915   1.475   2.707  1.4762 -1.6820 -1.6303
 7293SOL    HW233339   1.055   1.485   2.679 -0.2694  0.7180 -0.1792
 7294SOL     OW33340   3.602   3.777  13.009  0.8529 -0.6711 -0.1780
 7294SOL    HW133341   3.542   3.841  13.046  0.7027 -0.4064 -0.8721
 7294SOL    HW233342   3.566   3.779  12.920  0.4830 -0.8051 -0.0273
 7295SOL     OW33343   3.583   4.103   2.727 -0.4252  0.1412  0.3789
 7295SOL    HW133344   3.540   4.022   2.754  1.0552 -0.1707  1.8035
 7295SOL    HW233345   3.659   4.064   2.684  0.4406  1.8213  0.4090
 7296SOL     OW33346   4.036   0.035   5.843  0.4036  0.1696 -0.2041
 7296SOL    HW133347   4.078   0.106   5.795  0.7000 -0.1162 -0.3680
 7296SOL    HW233348   4.082   0.026   5.927 -1.6920  2.1286  1.1510
 7297SOL     OW33349   3.317   1.139   3.038  0.1727  0.2415 -0.2687
 7297SOL    HW133350   3.412   1.149   3.036  0.1940 -0.3281 -1.9146
 7297SOL    HW233351   3.303   1.052   3.074  1.9534  0.5824  1.2343
 7298SOL     OW33352   0.212   0.209   5.915  0.3457  0.0047  0.4244
 7298SOL    HW133353   0.151   0.139   5.893  1.3105 -1.8620  3.6832
 7298SOL    HW233354   0.179   0.277   5.857  0.2600 -0.1323  0.3127
 7299SOL     OW33355   0.733   2.375  17.461  0.0323  0.4398  0.3902
 7299SOL    HW133356   0.727   2.281  17.442  0.3229  0.5545 -0.2687
 7299SOL    HW233357   0.649   2.416  17.441 -0.1750 -1.0537 -1.7944
 7300SOL     OW33358   0.502   0.904  11.103  0.6382 -0.2396 -0.5388
 7300SOL    HW133359   0.416   0.909  11.145  0.3727 -0.3376 -1.0734
 7300SOL    HW233360   0.544   0.965  11.164  0.2987 -0.0874 -0.4604
 7301SOL     OW33361   2.755   2.040   6.412 -0.1036  0.2170  0.3630
 7301SOL    HW133362   2.692   1.971   6.393 -1.9798  1.4369  2.3091
 7301SOL    HW233363   2.839   2.006   6.381 -0.1119 -1.4762  2.2772
 7302SOL     OW33364   1.145   3.632   0.377  0.0970 -0.4137 -0.0683
 7302SOL    HW133365   1.224   3.586   0.349  2.0987  1.4841  2.4267
 7302SOL    HW233366   1.136   3.600   0.466 -1.4600 -0.5513 -0.2793
 7303SOL     OW33367   1.238   0.137   6.275 -0.2057  0.0531 -0.0922
 7303SOL    HW133368   1.262   0.054   6.316 -2.9705 -1.5287 -1.6418
 7303SOL    HW233369   1.272   0.116   6.189  0.0726  1.9154 -0.4299
 7304SOL     OW33370   2.672   1.364   3.040 -0.6313 -0.6192  0.5039
 7304SOL    HW133371   2.704   1.329   3.123 -2.5382  0.5851  1.7210
 7304SOL    HW233372   2.720   1.446   3.031  1.0562 -1.6927 -0.3640
 7305SOL     OW33373   4.514   3.611   5.192  0.3167 -0.1740 -0.3415
 7305SOL    HW133374   4.441   3.566   5.236  1.4591 -0.3957  1.3274
 7305SOL    HW233375   4.493   3.601   5.099 -1.6888 -4.4804  0.5449
 7306SOL     OW33376   2.430   2.146   5.999  0.3881  0.1423  0.0607
 7306SOL    HW133377   2.391   2.162   6.085  0.9888 -1.3245  0.6130
 7306SOL    HW233378   2.520   2.133   6.028  0.2446 -1.2676 -0.0851
 7307SOL     OW33379   2.667   3.450   6.442 -0.2355  0.4891  0.5909
 7307SOL    HW133380   2.717   3.382   6.397 -1.3967 -1.1947  1.8374
 7307SOL    HW233381   2.720   3.463   6.521 -2.7070  1.7962  2.0293
 7308SOL     OW33382   3.482   0.870   9.276  0.4646 -0.3121  0.2823
 7308SOL    HW133383   3.486   0.852   9.370 -1.1963  2.3059  0.8463
 7308SOL    HW233384   3.556   0.929   9.266  0.0709 -0.0063 -0.8164
 7309SOL     OW33385   4.574   1.270   7.762  0.4887 -0.3162  0.5011
 7309SOL    HW133386   4.664   1.295   7.742 -0.2579  0.0680 -2.4174
 7309SOL    HW233387   4.552   1.192   7.711  2.1674  0.4943 -1.4870
 7310SOL     OW33388   3.338   3.198   1.026  0.1400  0.0402  0.1332
 7310SOL    HW133389   3.283   3.191   1.104  0.4257 -2.0555  0.1603
 7310SOL    HW233390   3.400   3.266   1.050 -2.2399  1.8193  1.1980
 7311SOL     OW33391   4.258   4.507   5.409 -0.5750  0.2806 -0.3835
 7311SOL    HW133392   4.334   4.555   5.441  0.0141  0.7602 -2.5216
 7311SOL    HW233393   4.268   4.509   5.314  0.4765  0.3304 -0.2689
 7312SOL     OW33394   3.430   3.627   1.453  0.4722  0.1628 -1.1963
 7312SOL    HW133395   3.469   3.700   1.404  2.6670  0.1121  0.4772
 7312SOL    HW233396   3.367   3.593   1.390 -0.1359  0.8250 -0.9441
 7313SOL     OW33397   2.018   1.449   1.420  0.1702  0.7130 -0.3342
 7313SOL    HW133398   2.045   1.521   1.478  1.5715 -2.2119  2.6734
 7313SOL    HW233399   1.923   1.441   1.433  0.7762  0.4134  4.0493
 7314SOL     OW33400   1.619   4.523   7.812  0.1350  0.4649  0.1226
 7314SOL    HW133401   1.704   4.480   7.803  0.3759  0.7986  0.8111
 7314SOL    HW233402   1.603   4.528   7.718 -1.0477  5.2526  0.6107
 7315SOL     OW33403   3.385   3.730  11.885  0.0515  0.4356 -0.0297
 7315SOL    HW133404   3.339   3.656  11.844  1.2698  0.3154 -1.1994
 7315SOL    HW233405   3.441   3.673  11.939  0.5877  0.1510 -0.8697
 7316SOL     OW33406   0.668   2.181   4.680 -0.6166  0.2482 -0.3348
 7316SOL    HW133407   0.754   2.158   4.646 -0.1835 -0.3787  1.1815
 7316SOL    HW233408   0.628   2.243   4.619  0.4148  0.9578 -0.2892
 7317SOL     OW33409   0.860   3.989   6.388  0.0747 -0.6097  0.0844
 7317SOL    HW133410   0.770   3.961   6.403  0.0127  0.1513  1.1864
 7317SOL    HW233411   0.912   3.935   6.448  0.8146  0.7765  0.6840
 7318SOL     OW33412   2.642   2.238   7.806 -0.3290 -0.6908  0.3174
 7318SOL    HW133413   2.697   2.304   7.849 -2.7780  0.3961  1.7298
 7318SOL    HW233414   2.668   2.153   7.842 -0.8792 -1.3444 -0.8434
 7319SOL     OW33415   0.670   3.787   5.188 -0.0901  0.5913  0.1855
 7319SOL    HW133416   0.574   3.785   5.190 -0.1077  1.6464  0.0293
 7319SOL    HW233417   0.688   3.706   5.237  1.0311  0.3999 -0.5467
 7320SOL     OW33418   1.785   3.543   6.429  0.0295  0.3639  0.2900
 7320SOL    HW133419   1.724   3.485   6.383  1.5323  0.1176 -1.4095
 7320SOL    HW233420   1.788   3.622   6.376 -0.3692  0.3082  0.1851
 7321SOL     OW33421   0.697   0.643   8.020  0.0153  0.1198  0.5000
 7321SOL    HW133422   0.736   0.557   8.037  1.0927  0.6318  0.5858
 7321SOL    HW233423   0.768   0.706   8.026 -0.4853  0.7008  0.3270
 7322SOL     OW33424   3.493   2.717   5.066 -0.2039 -0.1987  0.6808
 7322SOL    HW133425   3.511   2.672   5.148  0.4836 -0.7959  0.2052
 7322SOL    HW233426   3.580   2.696   5.032 -0.5370 -1.2625  0.4724
 7323SOL     OW33427   4.492   0.375   2.949 -0.2755 -0.2917  0.0042
 7323SOL    HW133428   4.477   0.382   2.855 -0.5404 -2.3233 -0.0992
 7323SOL    HW233429   4.476   0.467   2.971 -1.2241 -0.3597 -0.3916
 7324SOL     OW33430   3.340   4.713   6.281  0.6315 -0.4776 -1.0686
 7324SOL    HW133431   3.272   0.053   6.298  0.4989 -0.9607  0.2513
 7324SOL    HW233432   3.349   0.002   6.187 -1.4947  0.2260 -1.1533
 7325SOL     OW33433   3.307   1.543   3.616  0.2406  0.7884 -0.0355
 7325SOL    HW133434   3.385   1.521   3.565  0.8267 -0.6035  1.4743
 7325SOL    HW233435   3.245   1.558   3.544  1.4387 -0.0394 -1.2415
 7326SOL     OW33436   2.482   4.437   9.132 -0.1731  0.2598 -0.2079
 7326SOL    HW133437   2.514   4.510   9.079  2.7870  0.2102  1.5249
 7326SOL    HW233438   2.390   4.438   9.104  0.2387  3.7246 -1.3790
 7327SOL     OW33439   1.926   2.832  13.036 -0.2131  0.1808  0.0022
 7327SOL    HW133440   1.883   2.753  13.004  1.3139 -1.7888  2.8027
 7327SOL    HW233441   1.968   2.862  12.956  1.0924  0.8788  0.9594
 7328SOL     OW33442   0.473   0.450   1.337  0.2866 -0.2495 -0.2047
 7328SOL    HW133443   0.410   0.518   1.315  3.2428  2.3544 -0.5370
 7328SOL    HW233444   0.419   0.375   1.310 -0.3577 -0.1035  0.6806
 7329SOL     OW33445   0.804   4.544   5.110 -0.4085 -0.2730 -0.3032
 7329SOL    HW133446   0.851   4.604   5.051  3.7837 -0.5863  2.7141
 7329SOL    HW233447   0.725   4.594   5.128 -0.3724 -0.1710 -0.4232
 7330SOL     OW33448   0.891   4.699   2.602  0.0605 -0.9178 -0.1560
 7330SOL    HW133449   0.848   4.616   2.581  1.1257 -1.6657  0.6450
 7330SOL    HW233450   0.976   4.674   2.638  0.1461 -2.0870 -1.1501
 7331SOL     OW33451   3.993   2.174  10.628  0.0212  0.2108 -0.6198
 7331SOL    HW133452   4.030   2.087  10.645  0.1020  0.3644  0.0002
 7331SOL    HW233453   3.901   2.156  10.613  0.4398 -1.4225 -1.1985
 7332SOL     OW33454   3.480   1.665   3.989  0.2485 -0.4946 -0.2075
 7332SOL    HW133455   3.557   1.646   4.042 -0.6834 -2.4323  0.4197
 7332SOL    HW233456   3.467   1.587   3.936 -0.4401 -1.4267  1.3304
 7333SOL     OW33457   2.158   3.549   2.211 -0.1565 -0.2292  0.3445
 7333SOL    HW133458   2.153   3.466   2.163  1.3627  0.5942 -1.2577
 7333SOL    HW233459   2.154   3.518   2.301  0.2809 -1.4436 -0.0412
 7334SOL     OW33460   3.320   4.044   8.257  0.1748 -0.0017 -0.5030
 7334SOL    HW133461   3.391   4.105   8.274  0.1060 -0.9727  3.2784
 7334SOL    HW233462   3.248   4.095   8.221  1.1354  1.8382  0.2118
 7335SOL     OW33463   4.373   2.478  15.934  0.3315 -0.5095  0.3174
 7335SOL    HW133464   4.343   2.389  15.913  1.0159 -1.2438  2.5239
 7335SOL    HW233465   4.330   2.498  16.017  0.7911 -0.9038  0.6494
 7336SOL     OW33466   3.863   3.065   4.087  0.0952  0.3826 -0.5482
 7336SOL    HW133467   3.877   3.141   4.031  0.7388  0.6933  0.0433
 7336SOL    HW233468   3.930   3.007   4.050  0.3069  1.3090 -1.6067
 7337SOL     OW33469   2.599   3.070   3.076 -0.0622 -0.0535  0.9912
 7337SOL    HW133470   2.549   3.011   3.133  0.5963 -1.4785  0.1169
 7337SOL    HW233471   2.654   3.114   3.140 -2.3028  0.7925  2.3160
 7338SOL     OW33472   0.692   1.884   3.469  0.0268 -0.2513 -0.2715
 7338SOL    HW133473   0.651   1.810   3.515 -2.6496  0.6879 -1.1067
 7338SOL    HW233474   0.776   1.839   3.462 -1.1001 -1.8588 -3.8669
 7339SOL     OW33475   4.713   4.186   9.944 -0.2375 -0.4112 -0.3763
 7339SOL    HW133476   4.675   4.271   9.966 -0.7419 -1.1332  1.5404
 7339SOL    HW233477   0.026   4.210   9.860  0.9042  1.0251  0.5704
 7340SOL     OW33478   1.349   1.683  11.103 -0.4368 -0.4881  0.1925
 7340SOL    HW133479   1.379   1.769  11.073  0.3182 -1.1158 -0.8503
 7340SOL    HW233480   1.293   1.711  11.175 -3.5084 -2.1333 -1.5975
 7341SOL     OW33481   4.064   1.750   8.404  0.4538  0.2393  0.0458
 7341SOL    HW133482   4.072   1.820   8.469  2.5294 -1.4290  1.6028
 7341SOL    HW233483   4.078   1.674   8.460  1.4174  1.1508  1.0394
 7342SOL     OW33484   1.375   3.388   9.996  0.1882 -0.7574 -0.4677
 7342SOL    HW133485   1.336   3.336  10.067 -2.3018 -0.0157 -1.2844
 7342SOL    HW233486   1.405   3.313   9.945  1.8664 -0.4648  0.0726
 7343SOL     OW33487   2.374   1.608  16.990  0.3710  0.0310 -0.0872
 7343SOL    HW133488   2.318   1.675  17.028 -0.6309 -2.1644  2.4015
 7343SOL    HW233489   2.382   1.635  16.899  0.8008  2.5908  0.7125
 7344SOL     OW33490   0.257   2.681   4.752  0.3382 -0.0800  0.2110
 7344SOL    HW133491   0.353   2.680   4.755  0.2901 -0.4905  1.7508
 7344SOL    HW233492   0.238   2.595   4.787  4.1197 -0.6613  0.8537
 7345SOL     OW33493   2.891   0.444  10.274  0.6234  0.0364  0.4285
 7345SOL    HW133494   2.924   0.409  10.357  1.3833  1.2528  0.6367
 7345SOL    HW233495   2.811   0.488  10.304 -0.3640  0.0733 -2.2978
 7346SOL     OW33496   2.380   2.052   1.177  0.1762 -0.0834  0.1596
 7346SOL    HW133497   2.406   2.123   1.236  0.9502 -0.0159 -0.2647
 7346SOL    HW233498   2.294   2.036   1.216 -0.7342  1.2726 -1.2937
 7347SOL     OW33499   1.588   0.952  12.666 -0.0055  0.0937  0.3184
 7347SOL    HW133500   1.651   0.989  12.728 -1.5657  0.8751  1.4575
 7347SOL    HW233501   1.646   0.881  12.639 -2.3789 -1.9934  0.6850
 7348SOL     OW33502   1.940   4.548   5.063 -0.3708 -0.8920  0.3831
 7348SOL    HW133503   1.906   4.464   5.035 -1.6880 -0.5489  0.9773
 7348SOL    HW233504   2.012   4.552   5.000 -2.0329  1.9064 -1.3411
 7349SOL     OW33505   4.418   2.228   8.041  0.4435  0.2175  0.3481
 7349SOL    HW133506   4.355   2.301   8.046 -0.7193 -0.6384 -1.8413
 7349SOL    HW233507   4.371   2.165   7.986  1.1606 -0.1921  0.2127
 7350SOL     OW33508   2.400   0.213  11.505  0.0553 -0.2174  0.4607
 7350SOL    HW133509   2.403   0.260  11.422 -1.7716  0.1750  0.6157
 7350SOL    HW233510   2.478   0.257  11.540 -0.3611  2.2936 -1.8303
 7351SOL     OW33511   4.456   2.058   5.161  0.2462  0.6174 -0.2694
 7351SOL    HW133512   4.369   2.094   5.147 -1.1913 -2.9834 -0.7292
 7351SOL    HW233513   4.499   2.131   5.205 -2.1027  1.3344  0.8195
 7352SOL     OW33514   0.188   1.886   1.857  0.0773 -0.2907  0.6273
 7352SOL    HW133515   0.231   1.805   1.883  2.2448  0.0778 -1.8244
 7352SOL    HW233516   0.257   1.944   1.825 -1.6463  0.1680 -2.3157
 7353SOL     OW33517   4.206   0.591   2.884  0.4456  0.0724 -0.7211
 7353SOL    HW133518   4.215   0.527   2.814 -0.7696 -0.0624 -0.7548
 7353SOL    HW233519   4.297   0.618   2.895  0.9882 -1.5270 -1.2182
 7354SOL     OW33520   1.282   3.680  11.977  0.6425 -0.3847 -0.2887
 7354SOL    HW133521   1.239   3.765  11.985 -0.6206 -1.0677  0.2062
 7354SOL    HW233522   1.343   3.701  11.906 -0.4296 -0.0702 -1.1173
 7355SOL     OW33523   3.355   2.743   7.634 -1.1105  0.6146  0.3190
 7355SOL    HW133524   3.284   2.682   7.653 -1.3533  0.3164 -1.5312
 7355SOL    HW233525   3.412   2.688   7.581  0.9300  0.6206  2.4902
 7356SOL     OW33526   4.151   0.683   5.360  0.5093 -0.1420  0.1247
 7356SOL    HW133527   4.206   0.758   5.381  0.8917 -1.0035  2.2096
 7356SOL    HW233528   4.179   0.673   5.269 -2.5497 -1.6865 -0.6464
 7357SOL     OW33529   3.890   2.714   5.638 -0.1020  0.9303 -0.1684
 7357SOL    HW133530   3.949   2.789   5.634  0.9423  0.0880 -0.4148
 7357SOL    HW233531   3.918   2.658   5.566 -0.3652 -0.2774  0.6701
 7358SOL     OW33532   4.700   1.481   6.754  0.1528 -0.6192  0.3572
 7358SOL    HW133533   4.699   1.385   6.749 -1.1879 -0.6804  1.8616
 7358SOL    HW233534   4.652   1.495   6.835  0.3548  1.1753  0.1569
 7359SOL     OW33535   4.143   2.547   3.374  0.6082 -0.0195  0.0002
 7359SOL    HW133536   4.072   2.489   3.402  1.7159 -1.1060  0.5281
 7359SOL    HW233537   4.129   2.535   3.280  1.5798 -0.3621 -0.0954
 7360SOL     OW33538   4.289   4.213   8.892  0.0569  0.0605  0.5037
 7360SOL    HW133539   4.336   4.153   8.950  2.9750  0.8655 -1.0426
 7360SOL    HW233540   4.326   4.291   8.934 -0.9346  1.2667 -0.8808
 7361SOL     OW33541   0.753   1.974   2.298  0.2649  0.1193  0.3597
 7361SOL    HW133542   0.780   1.921   2.373  2.5850  3.2150  1.6915
 7361SOL    HW233543   0.811   1.948   2.226  1.7550 -0.3143  1.7169
 7362SOL     OW33544   2.619   0.436   4.867  0.5134 -0.0089 -0.2995
 7362SOL    HW133545   2.632   0.370   4.935  4.5617  0.7599 -0.3279
 7362SOL    HW233546   2.681   0.503   4.896 -0.3385  0.1191  1.2468
 7363SOL     OW33547   1.291   3.281   8.847 -0.6240  0.4701 -0.0023
 7363SOL    HW133548   1.338   3.295   8.929 -2.3355 -0.1827  1.0998
 7363SOL    HW233549   1.358   3.246   8.788  0.4441 -0.6531  1.8832
 7364SOL     OW33550   2.128   2.598  14.511 -0.0843 -0.1186 -0.0077
 7364SOL    HW133551   2.126   2.523  14.570 -2.2511 -0.2645 -0.2604
 7364SOL    HW233552   2.055   2.569  14.456  1.6665  1.0861 -2.9663
 7365SOL     OW33553   4.230   0.016   4.939 -0.1464  0.2801 -0.3036
 7365SOL    HW133554   4.228   4.702   4.852 -2.1908  1.9447 -1.0264
 7365SOL    HW233555   4.146   0.063   4.937 -0.7200 -0.7305  0.0480
 7366SOL     OW33556   0.507   1.784   2.807  0.2188  0.2691 -0.7776
 7366SOL    HW133557   0.459   1.847   2.861  1.5946 -0.4821  1.3066
 7366SOL    HW233558   0.498   1.709   2.866  0.9292  1.0210  0.2773
 7367SOL     OW33559   4.445   0.379  10.025 -0.1858 -0.0240  0.0135
 7367SOL    HW133560   4.530   0.333  10.028 -0.1037  0.2057  1.7371
 7367SOL    HW233561   4.395   0.317  10.078 -0.7785  1.1739  0.8583
 7368SOL     OW33562   2.929   2.644   4.110  0.1854 -0.1793  0.0594
 7368SOL    HW133563   3.022   2.665   4.120  0.8722 -3.3068  0.4524
 7368SOL    HW233564   2.901   2.610   4.195 -1.7675 -1.0486 -0.9364
 7369SOL     OW33565   0.761   4.484   6.910  0.1567 -0.3924 -0.1315
 7369SOL    HW133566   0.730   4.551   6.849  1.7656  1.7085  1.3355
 7369SOL    HW233567   0.758   4.410   6.850 -0.0066  2.2251 -3.3499
 7370SOL     OW33568   3.726   1.748   2.584 -0.8851  0.0999 -0.3473
 7370SOL    HW133569   3.727   1.709   2.671 -1.1293 -0.3386 -0.5410
 7370SOL    HW233570   3.648   1.707   2.547  1.1348 -3.2640 -0.8465
 7371SOL     OW33571   4.633   3.626  17.327  0.0648 -0.3077  0.2303
 7371SOL    HW133572   4.704   3.591  17.273 -0.5638 -0.9469 -0.1892
 7371SOL    HW233573   4.582   3.546  17.342  2.9735 -2.1012  0.5215
 7372SOL     OW33574   3.668   3.981  12.779 -0.2778 -0.2322  0.4325
 7372SOL    HW133575   3.666   4.063  12.730  0.9156 -0.3488  0.2041
 7372SOL    HW233576   3.576   3.954  12.774  0.6696 -3.2957 -0.7108
 7373SOL     OW33577   1.638   2.627   3.746  0.3543  0.5501  0.0519
 7373SOL    HW133578   1.716   2.573   3.735  0.5745  1.5852 -3.7018
 7373SOL    HW233579   1.655   2.633   3.840  1.6398  2.6316 -0.2946
 7374SOL     OW33580   1.079   2.212  17.371  0.7567  0.4655 -0.3725
 7374SOL    HW133581   1.024   2.221  17.293 -1.0361 -1.2164  0.7071
 7374SOL    HW233582   1.021   2.150  17.414  0.5618 -0.0548 -1.4058
 7375SOL     OW33583   2.748   1.256   8.359  0.1071  0.2212 -0.2137
 7375SOL    HW133584   2.746   1.349   8.380 -0.9882  0.3811 -1.0184
 7375SOL    HW233585   2.728   1.258   8.265  1.5229 -0.0474 -0.5160
 7376SOL     OW33586   2.153   3.248   2.051 -0.0704 -0.3494 -0.2733
 7376SOL    HW133587   2.079   3.308   2.043  0.2558  0.3784  2.2432
 7376SOL    HW233588   2.140   3.185   1.980 -1.3480 -0.4235  0.0232
 7377SOL     OW33589   0.029   0.586   3.921  0.1446  0.2576  0.2608
 7377SOL    HW133590   0.111   0.571   3.966 -0.6033 -1.6830  0.9480
 7377SOL    HW233591   0.062   0.637   3.847 -1.1852 -1.1903 -1.3267
 7378SOL     OW33592   0.762   1.238   8.399  0.1502  0.4467 -0.0739
 7378SOL    HW133593   0.707   1.221   8.475  0.9176 -0.7244  0.2141
 7378SOL    HW233594   0.709   1.198   8.330  3.5706 -0.6937 -2.0246
 7379SOL     OW33595   1.418   1.663   9.718 -0.0484  0.6229  0.1756
 7379SOL    HW133596   1.476   1.728   9.680  1.2941 -0.2075  0.7972
 7379SOL    HW233597   1.417   1.597   9.649 -1.3387 -0.2742  1.0277
 7380SOL     OW33598   4.658   1.542   2.935 -0.0801 -0.8187 -0.2076
 7380SOL    HW133599   4.570   1.505   2.945 -1.6708  2.2277 -2.9574
 7380SOL    HW233600   4.700   1.518   3.018  3.1132 -0.3687 -1.7058
 7381SOL     OW33601   3.678   1.048   8.744  0.3308  0.0213 -0.3703
 7381SOL    HW133602   3.609   1.091   8.694  0.2714  2.1637  1.5307
 7381SOL    HW233603   3.629   1.033   8.825  1.3332 -1.2854 -0.0105
 7382SOL     OW33604   0.480   3.728   1.795 -0.0738  0.2855 -0.1243
 7382SOL    HW133605   0.497   3.634   1.798  0.8904  0.4887  1.0958
 7382SOL    HW233606   0.510   3.743   1.885 -1.7868  1.9992  0.1611
 7383SOL     OW33607   2.711   4.646   1.793  0.5007  0.2632 -0.2686
 7383SOL    HW133608   2.717   0.015   1.799  3.2323  0.1976 -1.8740
 7383SOL    HW233609   2.801   4.624   1.818  0.2896 -1.0781 -0.7225
 7384SOL     OW33610   2.398   0.608   4.281  0.0414  0.1279 -0.1950
 7384SOL    HW133611   2.386   0.681   4.220  1.0107  0.3275 -0.1399
 7384SOL    HW233612   2.492   0.594   4.290  0.1067  0.5903 -0.1873
 7385SOL     OW33613   4.367   2.364   2.557  0.0333 -0.3089  0.3351
 7385SOL    HW133614   4.414   2.443   2.532  0.7154 -0.9726 -0.4719
 7385SOL    HW233615   4.427   2.304   2.513  0.1752 -0.2640  0.4667
 7386SOL     OW33616   1.664   3.934  17.034 -0.2111 -0.5194 -0.3569
 7386SOL    HW133617   1.691   3.847  17.005 -1.9315 -1.4098  0.6777
 7386SOL    HW233618   1.740   3.989  17.013  0.1641 -0.3193  1.5141
 7387SOL     OW33619   4.615   0.621   1.850 -0.5389  0.0451 -0.1890
 7387SOL    HW133620   4.605   0.526   1.862 -0.2827 -0.0292 -0.5736
 7387SOL    HW233621   4.561   0.633   1.772 -2.3633 -0.1310  1.0528
 7388SOL     OW33622   3.388   3.696  13.811 -0.3452 -0.3407  0.5548
 7388SOL    HW133623   3.401   3.791  13.800 -0.2612 -0.3507  0.5698
 7388SOL    HW233624   3.312   3.702  13.869 -1.1282 -1.7644 -0.3281
 7389SOL     OW33625   0.877   3.619   4.193 -0.0873  0.0365  0.0304
 7389SOL    HW133626   0.951   3.613   4.254 -0.6145  0.5563  0.7179
 7389SOL    HW233627   0.808   3.576   4.242  0.8199 -1.5986 -0.1285
 7390SOL     OW33628   0.662   4.168   7.311  0.2408  0.0602  0.0727
 7390SOL    HW133629   0.581   4.189   7.357  1.5464  0.7598  2.0479
 7390SOL    HW233630   0.716   4.183   7.389  0.2991  0.2059  0.0035
 7391SOL     OW33631   1.063   1.994  11.291  0.2169 -0.2919 -0.3917
 7391SOL    HW133632   1.123   2.043  11.234  0.5569 -1.3238 -0.9179
 7391SOL    HW233633   1.085   1.902  11.276  0.1869 -0.3956  0.1876
 7392SOL     OW33634   2.622   2.404   5.100  0.3688 -0.5028  0.1649
 7392SOL    HW133635   2.544   2.458   5.090  0.1855 -0.6403  0.8391
 7392SOL    HW233636   2.685   2.457   5.052 -0.8795 -0.3360 -1.2867
 7393SOL     OW33637   3.756   4.156   7.327 -0.1653  0.1580  0.2548
 7393SOL    HW133638   3.758   4.211   7.405  1.3033  0.7393 -0.1962
 7393SOL    HW233639   3.764   4.073   7.375 -0.2511 -0.1290 -0.2225
 7394SOL     OW33640   4.006   0.136   3.796  0.4610  0.5480 -0.2451
 7394SOL    HW133641   4.043   0.108   3.712  0.2042 -0.4785 -0.0136
 7394SOL    HW233642   3.938   0.072   3.816  1.6117 -0.5856  0.0479
 7395SOL     OW33643   3.349   2.120   5.057  0.1478  0.1659  0.2563
 7395SOL    HW133644   3.403   2.190   5.093 -0.6070  0.5618  0.6374
 7395SOL    HW233645   3.265   2.143   5.098  0.0809  2.0418 -0.9675
 7396SOL     OW33646   4.057   3.808   3.308 -0.2803  0.0991 -0.5046
 7396SOL    HW133647   4.084   3.720   3.283  1.9419  0.8486 -0.7799
 7396SOL    HW233648   4.007   3.831   3.229 -1.0817 -0.4792 -0.1675
 7397SOL     OW33649   4.007   0.537   5.840 -0.2356 -0.0725  0.0990
 7397SOL    HW133650   4.065   0.480   5.890  1.0076 -0.3225 -1.6458
 7397SOL    HW233651   3.947   0.479   5.793 -0.7711 -0.8726  1.7831
 7398SOL     OW33652   1.664   0.520  15.492  0.6209  0.1323 -0.2292
 7398SOL    HW133653   1.627   0.529  15.580 -0.9650 -0.0145 -0.8702
 7398SOL    HW233654   1.758   0.527  15.505  0.8413  0.5019 -2.0995
 7399SOL     OW33655   2.329   2.793   6.527  0.1091 -0.1598  0.1010
 7399SOL    HW133656   2.272   2.785   6.604  1.7977 -3.5524  0.9982
 7399SOL    HW233657   2.264   2.799   6.456 -0.9285 -2.6848  0.8110
 7400SOL     OW33658   1.983   3.916   2.996  0.3294  0.4728  0.4320
 7400SOL    HW133659   2.026   3.990   2.953  0.6129 -0.2322 -0.4912
 7400SOL    HW233660   2.006   3.923   3.089  0.4920  1.0093  0.3532
 7401SOL     OW33661   2.907   4.038   9.553  0.0973  0.0353  0.0772
 7401SOL    HW133662   2.865   3.979   9.491  0.9087 -0.0879 -0.3460
 7401SOL    HW233663   2.832   4.052   9.611  2.1180  0.2780  2.6553
 7402SOL     OW33664   2.619   0.361  11.569 -0.1833 -0.1300 -0.5037
 7402SOL    HW133665   2.604   0.445  11.611 -1.4628 -0.1520 -0.9133
 7402SOL    HW233666   2.709   0.329  11.569 -0.9376 -2.3043 -0.5929
 7403SOL     OW33667   3.988   1.593   1.550 -0.5658 -0.0108  0.2543
 7403SOL    HW133668   3.943   1.593   1.635  0.0319  1.3704  0.5781
 7403SOL    HW233669   4.071   1.630   1.581 -1.1572  2.2839 -0.8928
 7404SOL     OW33670   3.822   1.384   6.970  0.5358  0.3811  0.1042
 7404SOL    HW133671   3.868   1.436   7.036  1.8103  2.3481 -2.3449
 7404SOL    HW233672   3.861   1.410   6.886  0.1794 -1.0236 -0.4889
 7405SOL     OW33673   1.356   4.254  11.475  0.7146  0.5622  0.0978
 7405SOL    HW133674   1.412   4.323  11.511  0.0320  2.3900 -2.2715
 7405SOL    HW233675   1.314   4.220  11.554 -0.4585 -2.1545 -1.7191
 7406SOL     OW33676   3.826   1.040   5.986 -0.1204  0.4950 -0.0098
 7406SOL    HW133677   3.779   1.011   5.908 -0.6162  2.2703 -0.3898
 7406SOL    HW233678   3.808   0.963   6.039 -1.0750 -0.8313 -2.2721
 7407SOL     OW33679   1.064   0.894   8.416  1.3147 -0.2360 -0.3111
 7407SOL    HW133680   1.069   0.798   8.409 -0.5887 -0.5291  2.8164
 7407SOL    HW233681   0.993   0.922   8.359  0.1311  1.0625  1.8466
 7408SOL     OW33682   2.914   3.674   4.581 -0.0191 -0.3956  0.2057
 7408SOL    HW133683   2.902   3.637   4.494 -2.7430 -1.4729  1.0412
 7408SOL    HW233684   2.889   3.602   4.639 -0.8878 -0.1100  0.1946
 7409SOL     OW33685   1.127   1.741   4.061 -0.1119 -0.2899  0.8952
 7409SOL    HW133686   1.207   1.692   4.083 -0.5945 -1.7303 -0.4830
 7409SOL    HW233687   1.153   1.825   4.097  0.0791  0.3239 -0.6648
 7410SOL     OW33688   1.703   2.697   1.549  0.4054  0.3218  0.0184
 7410SOL    HW133689   1.674   2.678   1.637  1.3594  0.8096  0.4429
 7410SOL    HW233690   1.748   2.614   1.529 -0.4838  0.4384 -2.5449
 7411SOL     OW33691   1.819   0.407   5.448 -0.7472 -0.2802  0.5804
 7411SOL    HW133692   1.736   0.359   5.438 -2.1111  2.5143 -1.6339
 7411SOL    HW233693   1.789   0.494   5.420 -1.3090 -0.5568  0.3010
 7412SOL     OW33694   2.581   3.054   5.116  0.1470  0.1535 -0.0548
 7412SOL    HW133695   2.546   2.999   5.186 -0.3417 -1.6324 -1.6984
 7412SOL    HW233696   2.591   3.136   5.164  0.5831 -0.7424  1.3836
 7413SOL     OW33697   2.290   0.491   8.018  0.0793  0.3717  0.6081
 7413SOL    HW133698   2.289   0.565   7.957 -0.4389 -0.7592 -0.7799
 7413SOL    HW233699   2.231   0.515   8.089 -0.3562 -1.0906  0.7418
 7414SOL     OW33700   4.723   4.269   8.405 -0.5174  0.1476  0.2988
 7414SOL    HW133701   4.666   4.314   8.467 -0.0301 -1.0788  1.6468
 7414SOL    HW233702   0.075   4.320   8.429  0.5209 -1.4503  0.3189
 7415SOL     OW33703   0.852   2.355   4.900  0.0267 -0.1414 -0.0367
 7415SOL    HW133704   0.761   2.345   4.874 -0.5803  2.5729  1.0258
 7415SOL    HW233705   0.879   2.392   4.816 -0.1130  2.5923  1.1073
 7416SOL     OW33706   0.697   3.537   3.387  0.1207 -0.0930 -0.0324
 7416SOL    HW133707   0.752   3.471   3.430  0.5163 -0.5944 -1.2798
 7416SOL    HW233708   0.608   3.516   3.414  0.1822  1.1364  1.1031
 7417SOL     OW33709   3.399   0.048   4.224  0.4636 -0.0910  0.5948
 7417SOL    HW133710   3.328   0.058   4.160  0.9303  0.3020  0.1343
 7417SOL    HW233711   3.473   0.023   4.168  0.3704 -0.6722  0.7400
 7418SOL     OW33712   1.856   2.942  15.744 -0.5910  0.0490 -0.4471
 7418SOL    HW133713   1.787   3.003  15.717 -0.4589  0.3132 -0.1891
 7418SOL    HW233714   1.818   2.906  15.823 -1.3799 -0.2299 -0.9509
 7419SOL     OW33715   4.587   0.598  13.359  0.4206  0.7335  0.0714
 7419SOL    HW133716   4.559   0.528  13.301  0.0698 -0.0588  1.2039
 7419SOL    HW233717   4.523   0.667  13.340 -1.8569 -1.5830 -0.5781
 7420SOL     OW33718   2.719   3.534   7.807  0.0179  0.7547 -0.3855
 7420SOL    HW133719   2.743   3.582   7.728 -3.0742  5.1325  1.3510
 7420SOL    HW233720   2.749   3.589   7.880 -1.5165  2.5929 -1.1556
 7421SOL     OW33721   3.114   4.165   8.119 -0.3697 -0.1067 -0.8084
 7421SOL    HW133722   3.152   4.252   8.125  0.3621 -0.6721  2.8078
 7421SOL    HW233723   3.150   4.136   8.035 -1.7617 -2.4277 -0.6157
 7422SOL     OW33724   3.963   3.575   2.064 -0.3422  0.5361 -0.5884
 7422SOL    HW133725   3.993   3.519   2.135  0.4435  1.7760  0.0588
 7422SOL    HW233726   3.894   3.627   2.106  2.2732  3.5480 -0.0356
 7423SOL     OW33727   0.083   4.269  13.440 -0.3463 -0.3467 -0.1762
 7423SOL    HW133728   0.135   4.340  13.479 -1.0502  0.1514 -0.1408
 7423SOL    HW233729   4.723   4.307  13.459 -0.0389 -0.2027  0.9769
 7424SOL     OW33730   3.545   0.283  15.093 -0.0210 -0.0805  0.5502
 7424SOL    HW133731   3.638   0.276  15.073  0.6472  1.1797  3.1217
 7424SOL    HW233732   3.523   0.190  15.089  0.6870 -0.1704 -1.0522
 7425SOL     OW33733   2.825   0.203   2.418 -0.5961  0.1925 -0.6493
 7425SOL    HW133734   2.877   0.274   2.454 -0.1327  0.2107 -1.3539
 7425SOL    HW233735   2.744   0.252   2.428 -0.0108  0.5620  2.5125
 7426SOL     OW33736   2.327   2.338  11.077 -0.6177  0.2017  0.1980
 7426SOL    HW133737   2.365   2.284  11.009  1.5543  0.8911  0.8810
 7426SOL    HW233738   2.363   2.423  11.051  0.3526 -0.4607 -0.5841
 7427SOL     OW33739   0.573   2.682   6.102 -0.4244 -0.3264  0.1533
 7427SOL    HW133740   0.613   2.713   6.021 -1.1454 -0.4861 -0.2718
 7427SOL    HW233741   0.575   2.588   6.085  0.7485 -0.3060  0.1889
 7428SOL     OW33742   0.403   3.501   3.180  0.5311  0.0676 -0.6910
 7428SOL    HW133743   0.400   3.453   3.097 -1.1135 -1.0305  0.0243
 7428SOL    HW233744   0.497   3.497   3.199  0.1334  2.8785  1.7992
 7429SOL     OW33745   0.504   1.412  15.256  0.6396 -0.1866  0.1558
 7429SOL    HW133746   0.521   1.473  15.328 -1.6526 -0.7215  1.1335
 7429SOL    HW233747   0.512   1.478  15.186  0.1634 -2.3646 -1.9679
 7430SOL     OW33748   2.253   3.741  12.679  0.4102  0.3137 -0.0862
 7430SOL    HW133749   2.325   3.733  12.741  0.3582 -1.2683 -0.2459
 7430SOL    HW233750   2.291   3.793  12.608  0.5237 -1.0653 -1.0284
 7431SOL     OW33751   0.933   1.517   2.316 -0.4032 -0.0319 -0.2660
 7431SOL    HW133752   0.850   1.537   2.272 -1.0626 -0.3994  0.8234
 7431SOL    HW233753   0.991   1.508   2.240  1.1911  3.3019  0.5664
 7432SOL     OW33754   0.424   1.408  11.882 -0.0540 -0.3924  0.1163
 7432SOL    HW133755   0.455   1.472  11.818 -0.9746 -0.6623 -0.5902
 7432SOL    HW233756   0.376   1.350  11.824 -2.8344  0.9769  1.0284
 7433SOL     OW33757   1.511   0.964   4.937 -0.4751 -0.4904 -0.0641
 7433SOL    HW133758   1.492   0.873   4.916 -2.6812 -0.3730  1.4260
 7433SOL    HW233759   1.468   1.017   4.870 -1.3028  0.2143  1.0208
 7434SOL     OW33760   1.936   2.636  17.452 -0.1964  0.3479 -1.0425
 7434SOL    HW133761   1.880   2.701  17.409 -1.4484  0.1325  0.2407
 7434SOL    HW233762   1.935   2.671  17.541  1.3341  1.5953 -1.5113
 7435SOL     OW33763   3.831   1.893   7.874  0.2057 -0.3419  0.4632
 7435SOL    HW133764   3.858   1.983   7.856 -0.0581 -0.1051  1.2512
 7435SOL    HW233765   3.882   1.884   7.954  0.1585 -2.1066  0.3028
 7436SOL     OW33766   4.231   4.212   9.230  0.4720 -0.1445 -0.1472
 7436SOL    HW133767   4.173   4.289   9.230  0.1612 -0.3657 -2.3956
 7436SOL    HW233768   4.187   4.151   9.171  0.6716 -0.6916  0.2776
 7437SOL     OW33769   1.474   4.355  11.214 -0.2180  0.7317 -0.0017
 7437SOL    HW133770   1.393   4.406  11.213 -0.6269  0.0981  1.0027
 7437SOL    HW233771   1.536   4.408  11.164 -0.2679 -0.1395 -0.9963
 7438SOL     OW33772   2.931   3.119   1.987 -0.1362 -0.8376 -0.3552
 7438SOL    HW133773   2.940   3.073   1.903  0.9314  0.2941 -0.8532
 7438SOL    HW233774   3.021   3.132   2.016  0.2354  0.6628 -2.1894
 7439SOL     OW33775   0.244   3.980   8.126  0.4499  0.0185 -0.3909
 7439SOL    HW133776   0.260   3.951   8.036 -3.0138  1.6782 -1.5660
 7439SOL    HW233777   0.184   3.914   8.160 -0.3536  1.5720  1.2311
 7440SOL     OW33778   0.766   1.120   8.779  0.8405  0.3666  0.7517
 7440SOL    HW133779   0.707   1.056   8.818  1.1083  0.4073  1.2219
 7440SOL    HW233780   0.839   1.069   8.745 -0.5215 -0.4224 -0.9874
 7441SOL     OW33781   3.944   4.540  12.233 -0.1914 -0.2630 -0.2606
 7441SOL    HW133782   3.917   4.614  12.287 -0.6944 -0.9686  0.4539
 7441SOL    HW233783   4.033   4.518  12.261  0.1060  1.0972 -0.1539
 7442SOL     OW33784   0.009   2.162  17.580 -0.4546 -0.1170 -0.0827
 7442SOL    HW133785   4.677   2.128  17.511 -1.6518 -1.0738  1.3896
 7442SOL    HW233786   0.080   2.098  17.575 -0.6471 -0.2840 -0.7586
 7443SOL     OW33787   3.682   0.533  12.330  0.3915 -0.0761  0.9877
 7443SOL    HW133788   3.629   0.582  12.267  0.5809 -1.4488 -0.2364
 7443SOL    HW233789   3.738   0.602  12.366  0.6955  0.0843  0.2161
 7444SOL     OW33790   4.270   3.772   7.144  0.0910 -0.1760 -0.5819
 7444SOL    HW133791   4.214   3.792   7.069 -0.3059 -0.1998 -0.2896
 7444SOL    HW233792   4.207   3.788   7.214 -0.0057 -2.1485 -0.2164
 7445SOL     OW33793   2.230   3.846  10.348 -0.0549 -0.3074 -0.4039
 7445SOL    HW133794   2.261   3.801  10.427 -0.2480 -0.5601 -0.4700
 7445SOL    HW233795   2.201   3.763  10.309 -2.8239 -0.6465  2.3676
 7446SOL     OW33796   4.489   3.012   7.096  0.1841  0.0025 -0.0470
 7446SOL    HW133797   4.580   3.016   7.066 -0.4023 -0.1849 -1.8866
 7446SOL    HW233798   4.495   2.970   7.182  0.7296 -1.3082 -0.7253
 7447SOL     OW33799   2.268   4.633   9.660 -0.6781  0.3930  0.1183
 7447SOL    HW133800   2.356   4.623   9.622  0.2788  0.2643  2.4032
 7447SOL    HW233801   2.222   4.657   9.579  0.6423 -1.7299 -1.2920
 7448SOL     OW33802   1.878   4.404   7.497 -1.1504  0.1735  0.2478
 7448SOL    HW133803   1.888   4.309   7.496 -0.7964  0.2129 -0.6608
 7448SOL    HW233804   1.969   4.435   7.496 -0.6539 -1.2710  1.2475
 7449SOL     OW33805   1.114   3.376   3.280 -0.0345 -0.6342 -0.2550
 7449SOL    HW133806   1.199   3.408   3.251  0.2798 -1.0117  0.2327
 7449SOL    HW233807   1.062   3.431   3.222  0.3453 -0.2478 -0.2313
 7450SOL     OW33808   1.068   3.636   3.539 -0.0808  0.1391  0.2912
 7450SOL    HW133809   1.156   3.673   3.538 -0.4554  1.0957  2.4577
 7450SOL    HW233810   1.059   3.609   3.631 -1.8877 -0.5742 -0.0962
 7451SOL     OW33811   1.842   1.188  17.102 -0.0826  0.0926 -0.3901
 7451SOL    HW133812   1.832   1.114  17.042  0.9120  0.2559 -0.7592
 7451SOL    HW233813   1.920   1.159  17.149  0.2297  2.2488  0.3857
 7452SOL     OW33814   0.203   0.217   7.387  0.4107 -0.2056  0.4424
 7452SOL    HW133815   0.229   0.174   7.306 -0.3407 -1.5056  0.8992
 7452SOL    HW233816   0.129   0.264   7.349  1.3600  0.8670 -0.0966
 7453SOL     OW33817   4.491   1.766  15.246 -0.5612  0.1040  0.1339
 7453SOL    HW133818   4.514   1.858  15.231 -0.1142  0.2854  1.9467
 7453SOL    HW233819   4.578   1.727  15.240 -0.4108  0.7016 -1.5386
 7454SOL     OW33820   0.033   0.385   6.241 -0.0952 -0.0957  0.1766
 7454SOL    HW133821   0.012   0.293   6.223  0.6763 -0.3546  0.5954
 7454SOL    HW233822   0.126   0.381   6.262  0.2728  1.9475 -1.0810
 7455SOL     OW33823   3.194   3.139   5.885 -0.3203  0.2187 -0.6596
 7455SOL    HW133824   3.143   3.218   5.902 -0.6455 -0.3301  0.8528
 7455SOL    HW233825   3.128   3.084   5.843 -0.6424 -0.9025  1.3313
 7456SOL     OW33826   1.017   0.061   0.494 -0.7173 -0.3423  0.1129
 7456SOL    HW133827   0.987   4.701   0.525  1.4072 -1.0199  0.2948
 7456SOL    HW233828   0.990   0.114   0.569 -0.3514 -0.1438  0.1051
 7457SOL     OW33829   2.587   0.098  16.092 -0.2538  0.2120  0.1815
 7457SOL    HW133830   2.654   0.034  16.118  1.2031  0.8842 -1.9042
 7457SOL    HW233831   2.539   0.107  16.174  0.9829 -0.7645  1.0256
 7458SOL     OW33832   1.464   1.905   7.003  0.2881  0.0257 -0.1823
 7458SOL    HW133833   1.373   1.886   7.026  1.0605 -1.5294  1.5934
 7458SOL    HW233834   1.496   1.959   7.074  1.0302 -0.7051  0.0386
 7459SOL     OW33835   4.351   3.047   6.368  0.7380  0.4011 -0.5241
 7459SOL    HW133836   4.276   2.991   6.349 -0.5782  2.4617 -1.3583
 7459SOL    HW233837   4.433   2.999   6.359  0.9368  0.6545 -0.0932
 7460SOL     OW33838   3.150   1.458  10.555  0.1269 -0.0092  0.0318
 7460SOL    HW133839   3.154   1.549  10.526 -1.2993  0.0468 -0.0370
 7460SOL    HW233840   3.055   1.448  10.570 -0.0331  0.5034 -0.6325
 7461SOL     OW33841   2.224   3.401   1.020  0.0578  0.1194 -0.1643
 7461SOL    HW133842   2.187   3.489   1.029  0.1644  0.1631 -0.1572
 7461SOL    HW233843   2.159   3.344   0.978  0.4033  0.7483 -1.5476
 7462SOL     OW33844   3.247   3.084   0.499  0.0105 -0.3445  0.2948
 7462SOL    HW133845   3.285   3.002   0.532 -2.7941 -1.5012  0.6880
 7462SOL    HW233846   3.284   3.093   0.411 -0.0547  2.3311  0.5570
 7463SOL     OW33847   3.855   2.424  16.317 -0.1399  0.3396 -0.6504
 7463SOL    HW133848   3.929   2.371  16.287 -2.1838 -1.3308 -2.6458
 7463SOL    HW233849   3.779   2.369  16.300  1.0586 -1.1004 -1.3168
 7464SOL     OW33850   1.294   1.993   6.098  0.4058  0.0728  0.3407
 7464SOL    HW133851   1.281   1.978   6.191  3.7237 -1.5069  0.5426
 7464SOL    HW233852   1.222   1.940   6.066  0.1545  0.8366 -0.3637
 7465SOL     OW33853   1.114   0.968  11.288  0.4232  0.8153  0.3384
 7465SOL    HW133854   1.194   0.916  11.287 -0.6892 -0.9197 -0.1438
 7465SOL    HW233855   1.144   1.053  11.256 -2.9581  1.8648 -0.0562
 7466SOL     OW33856   3.000   0.823   3.451 -0.2781  0.4535  0.8441
 7466SOL    HW133857   2.921   0.868   3.420 -0.2918 -0.1184  0.0748
 7466SOL    HW233858   3.043   0.902   3.486  0.7392 -1.2851  3.5075
 7467SOL     OW33859   2.702   3.054   6.459  0.4930 -0.1067  0.1175
 7467SOL    HW133860   2.726   2.987   6.395  1.5044 -0.3259  0.7236
 7467SOL    HW233861   2.746   3.018   6.536  1.4412  1.3872  0.2828
 7468SOL     OW33862   0.597   3.323   3.895  0.5964 -0.0296  0.3879
 7468SOL    HW133863   0.579   3.346   3.986 -1.4277  2.3393 -0.6284
 7468SOL    HW233864   0.507   3.332   3.864  0.4180  0.8092  1.1621
 7469SOL     OW33865   4.026   0.190   4.939  0.1243  0.0353  0.3774
 7469SOL    HW133866   4.081   0.267   4.928  0.8972 -0.2848  2.0495
 7469SOL    HW233867   3.949   0.216   4.887  0.8862  1.5880  0.0233
 7470SOL     OW33868   1.472   0.391   8.905 -0.1954 -0.0956  0.1619
 7470SOL    HW133869   1.559   0.431   8.899 -0.0917 -0.6190 -2.1349
 7470SOL    HW233870   1.435   0.469   8.862 -1.2312  0.8506  2.7841
 7471SOL     OW33871   0.145   1.318   4.364  0.2414  0.0296  0.3936
 7471SOL    HW133872   0.163   1.241   4.310  1.3830 -0.2619  1.1999
 7471SOL    HW233873   0.215   1.309   4.429 -1.0478 -0.0447  1.7676
 7472SOL     OW33874   0.536   2.410   5.356 -0.3375 -0.1019  0.3354
 7472SOL    HW133875   0.482   2.459   5.418 -0.3121  1.5365 -0.9227
 7472SOL    HW233876   0.542   2.471   5.282 -2.6646  1.4802  1.4293
 7473SOL     OW33877   3.674   4.633  12.764  0.3605  0.3435 -0.4619
 7473SOL    HW133878   3.641   4.673  12.684  1.4814 -1.6313 -1.9307
 7473SOL    HW233879   3.755   4.599  12.727  0.0956 -0.5944 -0.1835
 7474SOL     OW33880   1.494   4.201  12.017 -0.4427  0.4978 -0.1787
 7474SOL    HW133881   1.452   4.287  12.024 -1.1214  0.2549 -1.2114
 7474SOL    HW233882   1.497   4.179  11.924  0.0643 -1.8447  0.4149
 7475SOL     OW33883   0.344   0.122  10.642  0.4119 -0.0981 -0.0723
 7475SOL    HW133884   0.344   0.027  10.649 -2.9194 -0.1934 -1.2977
 7475SOL    HW233885   0.362   0.146  10.733  2.2450 -1.9534  0.0456
 7476SOL     OW33886   2.540   0.294   5.303 -0.1213  0.6485 -0.1357
 7476SOL    HW133887   2.470   0.309   5.239 -0.2166 -0.7965 -0.3808
 7476SOL    HW233888   2.605   0.244   5.254  0.9216  0.7604  1.1232
 7477SOL     OW33889   3.174   0.613  14.945  0.3240 -0.3989 -0.0021
 7477SOL    HW133890   3.190   0.661  15.026 -0.3986  1.5561 -1.0069
 7477SOL    HW233891   3.239   0.543  14.946  0.4628 -0.2798 -0.3968
 7478SOL     OW33892   3.737   4.078   4.772 -0.5794 -0.3486 -0.2987
 7478SOL    HW133893   3.793   4.000   4.774  0.3059  0.2765 -0.4630
 7478SOL    HW233894   3.784   4.140   4.829  0.7300 -2.3631  0.8384
 7479SOL     OW33895   4.207   2.363   7.925  0.0730 -0.1079 -0.5672
 7479SOL    HW133896   4.118   2.398   7.927  0.3655  0.5547  1.0517
 7479SOL    HW233897   4.252   2.444   7.947  2.2821 -1.6694  0.6445
 7480SOL     OW33898   1.195   4.339   1.460 -0.0163  0.1595  0.0294
 7480SOL    HW133899   1.155   4.386   1.533  1.0566  0.3755  0.4659
 7480SOL    HW233900   1.278   4.325   1.505  0.9697  2.3411 -1.1009
 7481SOL     OW33901   2.896   3.214  10.221 -0.1396  0.1167  1.0430
 7481SOL    HW133902   2.922   3.228  10.312 -0.4787  0.1652  1.1342
 7481SOL    HW233903   2.894   3.118  10.212  0.8486  0.0804  1.2927
 7482SOL     OW33904   2.434   4.540   8.653  0.1346 -0.0181 -0.2584
 7482SOL    HW133905   2.384   4.512   8.730 -0.0876  0.6084 -0.1760
 7482SOL    HW233906   2.368   4.573   8.592  0.5682  0.0014 -0.7130
 7483SOL     OW33907   4.666   4.307   1.740 -0.0978 -0.3243  0.0271
 7483SOL    HW133908   4.610   4.257   1.681 -0.0712  0.4164 -0.6240
 7483SOL    HW233909   4.710   4.237   1.789 -0.0966  0.2036  0.7884
 7484SOL     OW33910   0.241   0.159  14.969 -0.1549  0.1889 -0.1567
 7484SOL    HW133911   0.206   0.072  14.950 -0.7761 -0.0090  1.8029
 7484SOL    HW233912   0.166   0.215  14.989  0.3705 -0.1161  2.6780
 7485SOL     OW33913   3.218   0.660   5.687  0.3316  0.0695  0.3162
 7485SOL    HW133914   3.150   0.610   5.732  1.0165  1.2148  2.6258
 7485SOL    HW233915   3.191   0.650   5.596 -1.3814 -3.2310  1.1824
 7486SOL     OW33916   0.779   4.036   3.449 -0.2081 -0.2652 -0.7923
 7486SOL    HW133917   0.836   3.959   3.449 -1.9902 -1.5750  0.4355
 7486SOL    HW233918   0.847   4.097   3.421 -0.1457  0.8627  1.7944
 7487SOL     OW33919   1.380   4.009   1.300 -0.0557 -0.2919  0.6947
 7487SOL    HW133920   1.426   4.086   1.265 -1.9422  0.6645  0.2801
 7487SOL    HW233921   1.404   4.015   1.392 -0.5425  1.1642  0.7290
 7488SOL     OW33922   0.422   3.663   3.942  0.1575  0.0367 -0.3006
 7488SOL    HW133923   0.369   3.710   4.006  0.7494  0.4524 -0.1189
 7488SOL    HW233924   0.496   3.723   3.951  0.4770 -0.0443 -2.2552
 7489SOL     OW33925   4.187   3.602   4.007 -0.0466  0.3495 -0.3377
 7489SOL    HW133926   4.217   3.537   3.944 -3.7294  0.6079 -2.3152
 7489SOL    HW233927   4.115   3.558   4.052  1.1041 -0.1962  0.9620
 7490SOL     OW33928   2.713   3.470   6.846  0.0770  0.1118 -0.1179
 7490SOL    HW133929   2.775   3.478   6.773 -1.4239  0.9195 -1.3092
 7490SOL    HW233930   2.751   3.397   6.894  2.3087 -0.0280 -2.0747
 7491SOL     OW33931   3.507   2.705   0.977  0.5726 -0.7667 -0.0758
 7491SOL    HW133932   3.479   2.744   1.060  1.8677 -2.8015  1.3068
 7491SOL    HW233933   3.594   2.671   0.995  0.4076 -0.6903  0.9136
 7492SOL     OW33934   2.308   2.366   7.604 -0.1204  0.3438 -0.3570
 7492SOL    HW133935   2.263   2.450   7.607 -1.0753 -0.1874  0.7336
 7492SOL    HW233936   2.266   2.319   7.677  0.4123 -0.2417 -0.4242
 7493SOL     OW33937   2.528   3.006   6.131  0.1546  0.1035 -0.0930
 7493SOL    HW133938   2.607   2.977   6.177 -1.6525 -0.9614  2.3678
 7493SOL    HW233939   2.509   2.933   6.072 -2.4574  0.6887  0.0352
 7494SOL     OW33940   3.156   2.231   5.219  0.1354 -0.0947  0.1656
 7494SOL    HW133941   3.106   2.233   5.301 -0.0130 -0.5247  0.0890
 7494SOL    HW233942   3.151   2.324   5.200  1.2394  0.7383  3.9994
 7495SOL     OW33943   0.414   4.522   3.908 -0.5305  0.1377 -0.1471
 7495SOL    HW133944   0.487   4.460   3.904 -0.0509  0.7329 -0.6987
 7495SOL    HW233945   0.432   4.578   3.832  2.4679 -1.8104 -0.8493
 7496SOL     OW33946   3.754   3.183   3.728 -0.7270  0.1385 -0.1928
 7496SOL    HW133947   3.815   3.207   3.658  0.7171 -0.5346  0.8429
 7496SOL    HW233948   3.669   3.184   3.683 -1.3568 -1.8301  0.9617
 7497SOL     OW33949   1.923   1.701   8.589 -0.1249 -0.1756  0.0673
 7497SOL    HW133950   1.933   1.791   8.620 -0.2792  0.1154 -0.7273
 7497SOL    HW233951   2.010   1.682   8.552  0.5940  1.1753  1.0462
 7498SOL     OW33952   0.018   2.409   0.758  0.0013 -0.4660  0.0779
 7498SOL    HW133953   4.687   2.431   0.832 -2.0195  1.0010 -1.8967
 7498SOL    HW233954   4.724   2.316   0.746  1.4837 -0.5904 -1.4305
 7499SOL     OW33955   3.540   2.006  15.927  0.1474  0.2156 -0.6558
 7499SOL    HW133956   3.628   1.968  15.927 -0.3027 -0.8419  0.3397
 7499SOL    HW233957   3.552   2.096  15.956 -1.7451  0.7934 -1.6567
 7500SOL     OW33958   0.173   0.592   1.412 -0.3330  0.9085  0.1069
 7500SOL    HW133959   0.157   0.515   1.466 -0.3479  0.5920 -0.3488
 7500SOL    HW233960   0.084   0.620   1.391 -1.2608 -0.2836  2.3588
 7501SOL     OW33961   3.064   4.694  16.944  0.2134  0.1294  0.1815
 7501SOL    HW133962   3.153   4.660  16.956  1.1369  2.1600 -0.9200
 7501SOL    HW233963   3.011   4.622  16.977 -1.9173  1.5041 -0.2391
 7502SOL     OW33964   2.372   0.179   6.200  0.2257  0.2484  0.5132
 7502SOL    HW133965   2.413   0.102   6.238  2.4101  0.8941 -0.5274
 7502SOL    HW233966   2.317   0.132   6.138 -1.5444  1.8616  0.8345
 7503SOL     OW33967   1.429   1.789   7.882 -0.0385  0.4643  0.0429
 7503SOL    HW133968   1.376   1.718   7.846 -0.9109  1.2314 -0.1813
 7503SOL    HW233969   1.391   1.824   7.962 -0.3105  0.1025  0.0699
 7504SOL     OW33970   3.838   2.871  13.824  0.7461  0.2037  0.4457
 7504SOL    HW133971   3.900   2.808  13.788 -0.0115 -0.6472  0.6297
 7504SOL    HW233972   3.891   2.920  13.887  0.4501  2.0055 -0.7163
 7505SOL     OW33973   0.146   4.667  12.135  0.1519 -0.4196  0.2124
 7505SOL    HW133974   0.139   0.028  12.173 -2.1556 -2.0584  3.5060
 7505SOL    HW233975   0.053   4.645  12.141  0.3100 -1.3828 -0.7043
 7506SOL     OW33976   3.327   3.091   3.063 -0.2913  0.2467 -0.0701
 7506SOL    HW133977   3.264   3.039   3.114  1.5386 -3.0113 -1.1161
 7506SOL    HW233978   3.344   3.036   2.987  1.1828 -0.5875  0.8670
 7507SOL     OW33979   3.849   4.580   5.310  0.5266  0.5060 -0.6256
 7507SOL    HW133980   3.913   4.510   5.297 -0.4215 -0.3785 -0.4591
 7507SOL    HW233981   3.858   4.629   5.228  0.8377 -1.5556 -1.8308
 7508SOL     OW33982   3.664   0.239  12.056  0.2482  0.2332 -0.4801
 7508SOL    HW133983   3.734   0.263  12.116  1.3459 -1.1959 -1.1811
 7508SOL    HW233984   3.638   0.154  12.091  0.3327 -0.6800 -2.6206
 7509SOL     OW33985   4.326   2.229   0.639  0.3656 -0.6290 -0.4067
 7509SOL    HW133986   4.234   2.243   0.659  0.7458 -2.7598  2.7265
 7509SOL    HW233987   4.356   2.307   0.593  1.1457 -1.5218 -1.4325
 7510SOL     OW33988   1.082   3.186   4.437  0.0601  0.1055  0.0854
 7510SOL    HW133989   1.007   3.227   4.393  0.9279  0.4968 -1.0059
 7510SOL    HW233990   1.140   3.261   4.450 -1.5055  1.3048  0.2204
 7511SOL     OW33991   1.458   1.115   7.179 -0.3423  0.0154 -0.5431
 7511SOL    HW133992   1.536   1.105   7.233  0.3430 -1.5061 -1.7970
 7511SOL    HW233993   1.498   1.179   7.120 -0.0031  0.2952 -0.0118
 7512SOL     OW33994   3.718   1.597  14.938 -0.5937 -0.3195  0.5937
 7512SOL    HW133995   3.669   1.654  14.878  3.3601  1.5760 -0.8426
 7512SOL    HW233996   3.675   1.512  14.938  2.3382 -1.8330 -0.9954
 7513SOL     OW33997   0.865   4.314  16.871 -0.6331 -0.8011 -0.0417
 7513SOL    HW133998   0.925   4.268  16.812  0.4177  2.0416 -1.2079
 7513SOL    HW233999   0.915   4.318  16.952 -1.3041 -1.2444  0.3889
 7514SOL     OW34000   0.102   1.515   8.113 -0.1962 -0.1864 -0.0672
 7514SOL    HW134001   0.130   1.433   8.072  1.4627  0.7248 -0.7361
 7514SOL    HW234002   0.027   1.540   8.059 -0.3863  1.6966  1.1041
 7515SOL     OW34003   2.873   2.833   2.255  0.1427  0.3635  0.3928
 7515SOL    HW134004   2.870   2.834   2.160  1.8190 -0.0344  0.3298
 7515SOL    HW234005   2.962   2.864   2.273  0.5179  0.2281 -1.2904
 7516SOL     OW34006   3.216   1.231  15.843  0.1638  0.4395 -0.4302
 7516SOL    HW134007   3.286   1.174  15.875 -0.4595  0.8268  1.5949
 7516SOL    HW234008   3.266   1.312  15.837  0.9686 -0.2592 -3.1555
 7517SOL     OW34009   3.071   0.994   6.271  0.0128  0.1252 -0.0306
 7517SOL    HW134010   3.063   0.916   6.217 -0.6367 -1.3312  2.1456
 7517SOL    HW234011   3.096   1.060   6.207 -2.3008  1.0526  0.0239
 7518SOL     OW34012   0.305   1.414   6.842  0.1016 -0.1828  0.2344
 7518SOL    HW134013   0.342   1.456   6.764  1.1235  1.9490  1.8602
 7518SOL    HW234014   0.271   1.496   6.877 -1.1303 -0.8710  0.6476
 7519SOL     OW34015   0.752   3.680   2.253  0.5446  0.3172 -0.1050
 7519SOL    HW134016   0.697   3.758   2.245 -1.9524 -1.1889  2.3666
 7519SOL    HW234017   0.800   3.706   2.332  0.5687  0.2210 -0.0889
 7520SOL     OW34018   2.853   1.005   3.831  0.4819 -0.0998 -0.1040
 7520SOL    HW134019   2.858   0.988   3.925 -1.1397 -0.4213 -0.0789
 7520SOL    HW234020   2.873   0.922   3.789 -0.4212 -0.0435 -0.6476
 7521SOL     OW34021   3.102   3.217  11.365 -0.8150 -0.8495 -0.2834
 7521SOL    HW134022   3.039   3.158  11.324 -2.0623  0.3743 -0.1304
 7521SOL    HW234023   3.150   3.151  11.413 -1.3335 -0.4396  0.7938
 7522SOL     OW34024   3.511   2.033  13.878  0.0022 -1.0705 -0.6973
 7522SOL    HW134025   3.478   2.061  13.792  2.1779 -0.2788 -1.2941
 7522SOL    HW234026   3.431   2.001  13.919  0.3998 -0.5596  0.4759
 7523SOL     OW34027   2.502   0.532  17.233  0.1912  0.1486 -0.5901
 7523SOL    HW134028   2.513   0.618  17.192 -0.3892 -0.7056 -2.5249
 7523SOL    HW234029   2.590   0.512  17.263  0.7927  2.5488 -0.7693
 7524SOL     OW34030   1.405   1.519   0.748 -0.8057 -0.0741  0.0014
 7524SOL    HW134031   1.355   1.440   0.730 -0.6682  0.2246 -1.6577
 7524SOL    HW234032   1.334   1.577   0.776 -0.6725  0.2528 -0.3327
 7525SOL     OW34033   1.106   4.377   9.167  0.5874  0.3260 -0.3042
 7525SOL    HW134034   1.038   4.325   9.125 -0.1728  0.0532  1.2683
 7525SOL    HW234035   1.065   4.461   9.188 -0.6998 -0.0132 -1.4788
 7526SOL     OW34036   1.690   3.264   3.731 -0.4273  0.3756  0.3962
 7526SOL    HW134037   1.659   3.340   3.781 -1.4670 -0.4965  1.0656
 7526SOL    HW234038   1.741   3.309   3.663 -2.7019 -0.3028 -1.7740
 7527SOL     OW34039   2.821   2.244  16.201  0.1546  0.4123 -0.1875
 7527SOL    HW134040   2.828   2.185  16.276  3.8610  0.2340 -0.6783
 7527SOL    HW234041   2.871   2.201  16.133 -1.1085 -0.9476 -0.2620
 7528SOL     OW34042   2.695   2.233   7.525  0.2232  0.3443 -1.1444
 7528SOL    HW134043   2.750   2.155   7.533  0.0749  0.5121  1.5264
 7528SOL    HW234044   2.668   2.252   7.615 -0.2587 -0.6337 -1.0791
 7529SOL     OW34045   0.122   0.522   0.883  0.7724  0.0531 -0.4222
 7529SOL    HW134046   0.197   0.529   0.824 -0.3050 -0.6807 -1.8592
 7529SOL    HW234047   0.146   0.567   0.964  2.0908 -0.4520 -0.5285
 7530SOL     OW34048   1.711   2.056  11.144  0.4002 -0.0408  0.1827
 7530SOL    HW134049   1.646   2.124  11.163  0.4621  0.1121 -0.1438
 7530SOL    HW234050   1.689   2.041  11.052 -0.7749  0.6587  0.3499
 7531SOL     OW34051   0.137   3.102  15.422  0.0873 -0.2754  0.1685
 7531SOL    HW134052   0.211   3.041  15.432  0.9927  0.6847 -0.6001
 7531SOL    HW234053   0.113   3.099  15.330 -0.0698 -2.3168  0.2743
 7532SOL     OW34054   0.654   1.043   8.188  0.1833 -0.0427 -0.5320
 7532SOL    HW134055   0.585   1.062   8.124 -1.2249 -0.5404  0.8298
 7532SOL    HW234056   0.613   0.969   8.233 -0.6230  1.1874  0.7686
 7533SOL     OW34057   4.061   3.197   6.146  0.3333  0.1994  0.9975
 7533SOL    HW134058   4.086   3.228   6.233 -0.0616 -0.3063  1.2941
 7533SOL    HW234059   3.982   3.143   6.154  0.1745  0.2639 -0.2775
 7534SOL     OW34060   3.001   0.914   3.104 -0.1304  0.2686  0.3981
 7534SOL    HW134061   2.987   0.840   3.162 -0.9961 -1.1296 -1.5946
 7534SOL    HW234062   2.914   0.909   3.064 -0.5693 -0.1291  1.3905
 7535SOL     OW34063   4.228   4.629   8.073  0.2326  0.3165 -0.5205
 7535SOL    HW134064   4.208   4.675   8.155 -0.6441 -0.3637 -0.3493
 7535SOL    HW234065   4.277   4.684   8.011  2.3150 -0.0055  0.8380
 7536SOL     OW34066   1.186   2.217   4.280  0.7990 -0.3022  0.0666
 7536SOL    HW134067   1.274   2.242   4.309  0.2362  0.9844  0.6661
 7536SOL    HW234068   1.152   2.303   4.255 -0.7646 -0.7512  0.6465
 7537SOL     OW34069   4.152   2.802   6.066 -0.3045 -0.8328 -0.1263
 7537SOL    HW134070   4.247   2.800   6.062 -0.2035  0.1084  1.8265
 7537SOL    HW234071   4.149   2.800   5.970 -1.4157 -0.5688 -0.0971
 7538SOL     OW34072   0.526   3.188   7.157  0.5962 -0.0841 -0.0340
 7538SOL    HW134073   0.608   3.215   7.116  0.1825  1.9554  0.4718
 7538SOL    HW234074   0.549   3.097   7.172  0.4999  0.5149  3.7325
 7539SOL     OW34075   0.080   4.058   4.536  0.2770 -0.0987  0.1450
 7539SOL    HW134076   0.009   3.995   4.547 -0.4917  0.7323 -0.0586
 7539SOL    HW234077   0.027   4.137   4.529  0.7707  0.1612 -0.6669
 7540SOL     OW34078   1.149   4.462   5.237 -0.0600  0.3369  0.0244
 7540SOL    HW134079   1.071   4.463   5.292 -0.9264 -2.3725 -1.1266
 7540SOL    HW234080   1.177   4.552   5.255  1.6471 -0.2522  0.2817
 7541SOL     OW34081   0.986   1.840  10.501  0.1624 -1.0796  0.1010
 7541SOL    HW134082   0.976   1.781  10.576 -2.2538 -0.9401 -0.1236
 7541SOL    HW234083   0.900   1.838  10.460 -0.4036 -2.9014  1.3540
 7542SOL     OW34084   2.447   2.744  10.041 -0.3009 -0.5308 -0.0791
 7542SOL    HW134085   2.423   2.715   9.953  2.5680 -1.0326 -0.7051
 7542SOL    HW234086   2.369   2.709  10.085 -0.1861  0.8067  1.1883
 7543SOL     OW34087   1.508   0.199   1.562 -0.3345  0.5287 -0.2681
 7543SOL    HW134088   1.466   0.233   1.483  0.5256  0.6498 -0.6688
 7543SOL    HW234089   1.586   0.158   1.525  1.1619  1.9692  1.3319
 7544SOL     OW34090   2.996   4.595   1.810  0.0448 -0.5997 -0.4966
 7544SOL    HW134091   2.992   4.688   1.785  1.6108 -0.1296  0.9891
 7544SOL    HW234092   3.000   4.552   1.725  2.1771  1.9636 -1.7335
 7545SOL     OW34093   3.865   3.593   5.178 -0.4883  0.0718 -0.4995
 7545SOL    HW134094   3.906   3.547   5.104  1.5045  1.8215 -0.4737
 7545SOL    HW234095   3.795   3.538   5.214  0.3593  0.3926  1.6652
 7546SOL     OW34096   2.243   1.564   5.732 -0.1347  0.5556  0.1236
 7546SOL    HW134097   2.326   1.569   5.684  0.5521 -1.3929  1.1032
 7546SOL    HW234098   2.184   1.511   5.679 -0.4025 -0.4293  1.4248
 7547SOL     OW34099   4.495   1.830   8.624  0.1791  0.2296  0.0988
 7547SOL    HW134100   4.486   1.827   8.528 -1.0398 -1.8985  0.2863
 7547SOL    HW234101   4.496   1.738   8.651  0.7398  1.0608  2.9061
 7548SOL     OW34102   1.716   2.831   3.452 -0.2625 -0.1651  0.0299
 7548SOL    HW134103   1.812   2.827   3.456 -0.5518 -3.5994  3.8761
 7548SOL    HW234104   1.702   2.902   3.514  1.5981 -0.6992  1.0863
 7549SOL     OW34105   3.857   3.281   3.941  0.4102 -0.0565  0.3663
 7549SOL    HW134106   3.878   3.369   3.909  2.2227 -0.8965 -0.8235
 7549SOL    HW234107   3.812   3.239   3.868 -1.8027 -2.0703  2.9022
 7550SOL     OW34108   2.385   0.853  16.676  0.4459  0.3639  0.3914
 7550SOL    HW134109   2.385   0.904  16.757  1.2471 -1.9904  1.9002
 7550SOL    HW234110   2.435   0.773  16.693 -1.0609 -0.0042  3.0897
 7551SOL     OW34111   3.592   3.803   2.344 -0.0399  0.1315  0.4796
 7551SOL    HW134112   3.526   3.806   2.275  0.8061 -1.7647 -0.4286
 7551SOL    HW234113   3.542   3.761   2.414  1.1425  1.1389  1.9157
 7552SOL     OW34114   0.233   2.409   7.492 -0.2646  0.0223 -0.1896
 7552SOL    HW134115   0.232   2.451   7.579  1.2711  1.4236 -0.8469
 7552SOL    HW234116   0.249   2.316   7.509 -0.9275  0.1867  1.4066
 7553SOL     OW34117   3.657   3.667   6.988 -0.2571  0.1913 -0.2955
 7553SOL    HW134118   3.612   3.583   6.973  2.0634 -1.0102 -0.5023
 7553SOL    HW234119   3.644   3.680   7.082  0.6293  0.7076 -0.2445
 7554SOL     OW34120   3.686   2.389   7.172 -0.3598  0.2625  0.3091
 7554SOL    HW134121   3.617   2.374   7.237 -1.5428 -1.9166 -1.4409
 7554SOL    HW234122   3.654   2.354   7.088  0.8798  0.6171 -0.2989
 7555SOL     OW34123   3.035   0.357   2.531 -0.0006 -0.2187 -0.0781
 7555SOL    HW134124   3.060   0.449   2.525  0.9631 -0.6049 -1.8167
 7555SOL    HW234125   3.001   0.348   2.620  0.2390  1.8140  0.2279
 7556SOL     OW34126   3.599   0.606   9.931  0.2589 -0.2460 -0.3061
 7556SOL    HW134127   3.657   0.681   9.917  2.9131 -2.0540  1.0175
 7556SOL    HW234128   3.611   0.562   9.847  2.2151 -0.0586 -0.1164
 7557SOL     OW34129   3.700   4.290   2.904  0.2108  0.3942 -0.0953
 7557SOL    HW134130   3.757   4.234   2.956 -0.3701  1.0447  1.2235
 7557SOL    HW234131   3.661   4.224   2.846 -0.6822  1.3711 -0.6019
 7558SOL     OW34132   0.388   4.346   0.585  0.5239  0.0379  0.6494
 7558SOL    HW134133   0.453   4.370   0.520 -1.3594  1.6324 -0.6515
 7558SOL    HW234134   0.315   4.314   0.532  1.2430 -0.1722 -0.1991
 7559SOL     OW34135   0.604   3.735  14.133  0.0970  0.3034 -0.2637
 7559SOL    HW134136   0.645   3.734  14.046 -0.6356  0.3893 -0.6121
 7559SOL    HW234137   0.541   3.801  14.104 -0.7159 -0.4301 -0.1613
 7560SOL     OW34138   3.528   3.558   0.418 -0.1723  0.1521  0.1421
 7560SOL    HW134139   3.598   3.622   0.406 -0.5967  0.0521 -2.7206
 7560SOL    HW234140   3.461   3.612   0.461 -0.2718  0.4559 -0.3933
 7561SOL     OW34141   2.075   4.665  10.291  0.4002 -0.2674  0.2916
 7561SOL    HW134142   2.100   4.620  10.372  0.8993  0.1995  0.4020
 7561SOL    HW234143   2.057   0.027  10.327 -1.0893 -0.4113 -0.1085
 7562SOL     OW34144   4.618   1.934   7.308 -0.0021 -0.1167 -0.6853
 7562SOL    HW134145   4.563   2.010   7.327  0.5951  0.0218  0.5225
 7562SOL    HW234146   4.571   1.881   7.244 -0.8899  0.4101 -0.4684
 7563SOL     OW34147   3.296   0.718   6.110 -0.2371  0.3091 -0.2903
 7563SOL    HW134148   3.300   0.795   6.167 -2.2317 -0.0739  0.3364
 7563SOL    HW234149   3.365   0.673   6.158 -2.2142 -2.4530 -0.0653
 7564SOL     OW34150   3.040   0.327   9.675 -0.0332  0.1101  0.0537
 7564SOL    HW134151   3.099   0.283   9.614 -2.1605 -0.6016 -1.5347
 7564SOL    HW234152   3.020   0.258   9.738 -1.3624 -0.3021 -0.8113
 7565SOL     OW34153   2.475   1.521  15.842 -0.8860  0.3464  0.1927
 7565SOL    HW134154   2.527   1.567  15.777 -0.6788  1.0756  0.8761
 7565SOL    HW234155   2.475   1.583  15.914  0.1090  0.5156  0.0408
 7566SOL     OW34156   1.401   1.424   9.533 -0.7603 -0.7701 -0.2157
 7566SOL    HW134157   1.314   1.384   9.522 -0.7753 -0.8539  0.2098
 7566SOL    HW234158   1.458   1.364   9.580  1.2596  1.1708 -0.1912
 7567SOL     OW34159   3.291   3.086  17.288 -0.3641  0.0465  0.2398
 7567SOL    HW134160   3.272   3.178  17.271  2.5289  0.7367  0.7030
 7567SOL    HW234161   3.358   3.069  17.222 -0.5620  1.7342 -0.3955
 7568SOL     OW34162   3.225   1.563   4.772  0.3469  0.0905  0.7597
 7568SOL    HW134163   3.308   1.546   4.728  1.7968 -0.6437  3.7804
 7568SOL    HW234164   3.251   1.631   4.834  1.1396 -0.2631  0.8075
 7569SOL     OW34165   0.795   0.887   9.287 -0.0489  0.1451  0.0167
 7569SOL    HW134166   0.829   0.888   9.197 -1.4230  2.4385 -0.4606
 7569SOL    HW234167   0.721   0.948   9.288 -0.1308  0.0547 -0.3177
 7570SOL     OW34168   1.842   0.579   7.150  0.2052  0.5821  0.0594
 7570SOL    HW134169   1.825   0.487   7.128 -0.6620  0.0452  3.0144
 7570SOL    HW234170   1.859   0.611   7.062 -1.7337  0.7822 -0.2412
 7571SOL     OW34171   4.662   1.842   8.888  0.0978  0.1992 -0.4256
 7571SOL    HW134172   0.015   1.789   8.875 -0.6337 -1.3965  1.5774
 7571SOL    HW234173   4.639   1.864   8.798  3.2057  1.1444 -0.9826
 7572SOL     OW34174   2.775   1.949   1.697  0.6768  0.4078  0.2218
 7572SOL    HW134175   2.716   1.971   1.769  0.9120  0.1944  0.4810
 7572SOL    HW234176   2.817   2.034   1.691  0.4916  0.5322  0.6371
 7573SOL     OW34177   4.000   4.235   2.700  0.2492  0.0706 -0.4005
 7573SOL    HW134178   4.049   4.277   2.630  2.1992 -0.3453  0.6896
 7573SOL    HW234179   3.913   4.266   2.677  0.7427  2.7234  1.2939
 7574SOL     OW34180   3.727   0.997  15.371  0.0334  0.0830  0.3174
 7574SOL    HW134181   3.727   0.929  15.304  1.3683  0.2934  0.0873
 7574SOL    HW234182   3.796   0.965  15.430  0.4726 -1.8280 -1.2363
 7575SOL     OW34183   4.641   0.728   7.991  0.0152 -0.2866  0.0346
 7575SOL    HW134184   4.551   0.760   7.996  0.1082 -0.0923  0.5334
 7575SOL    HW234185   4.694   0.807   7.984 -1.4069  0.8523  1.9397
 7576SOL     OW34186   1.317   3.864   2.806  0.4380  0.0303  0.1720
 7576SOL    HW134187   1.258   3.796   2.773 -0.4507  1.3512 -0.9502
 7576SOL    HW234188   1.399   3.816   2.794  0.0467 -0.2969 -1.0939
 7577SOL     OW34189   0.052   2.028   2.401 -0.2080 -0.3489 -0.1696
 7577SOL    HW134190   0.083   1.983   2.322 -0.1228  1.5256 -1.2003
 7577SOL    HW234191   0.135   2.029   2.448  1.4137  0.3822 -3.0359
 7578SOL     OW34192   4.001   4.047   5.957 -0.2354 -0.2173 -0.3697
 7578SOL    HW134193   3.997   3.997   5.875  0.9930 -2.7094  1.0929
 7578SOL    HW234194   3.909   4.036   5.983 -0.2607 -0.6407 -0.6350
 7579SOL     OW34195   1.056   3.191  11.031 -0.0105  0.5196  0.1912
 7579SOL    HW134196   1.021   3.104  11.049 -0.7602  0.1792 -2.9063
 7579SOL    HW234197   1.009   3.252  11.087  1.4294  0.2894  1.6636
 7580SOL     OW34198   1.587   4.320  13.972 -0.9191  0.0425 -0.1182
 7580SOL    HW134199   1.529   4.395  13.988 -0.3474  0.4385  0.0783
 7580SOL    HW234200   1.642   4.332  14.049  0.3006  2.0186 -1.3052
 7581SOL     OW34201   0.979   1.762   7.429 -0.2353 -0.3054 -0.3279
 7581SOL    HW134202   1.040   1.703   7.474  0.8051  0.6849 -0.4623
 7581SOL    HW234203   0.895   1.727   7.460 -0.6372  0.1303 -0.9379
 7582SOL     OW34204   4.478   1.290   2.358 -0.2828  0.0584  0.8676
 7582SOL    HW134205   4.494   1.197   2.341 -2.9286 -0.0088 -1.1797
 7582SOL    HW234206   4.530   1.291   2.439  1.5618 -1.9010 -0.3083
 7583SOL     OW34207   3.879   1.313   7.548 -0.6546 -0.2684  0.4358
 7583SOL    HW134208   3.824   1.367   7.492  0.9101 -0.6289 -1.4555
 7583SOL    HW234209   3.909   1.381   7.609  1.5703  0.7946 -1.8505
 7584SOL     OW34210   4.122   1.872   5.142  0.0104 -0.0419  0.6214
 7584SOL    HW134211   4.092   1.785   5.117  1.6419 -0.3063 -0.3945
 7584SOL    HW234212   4.195   1.868   5.080 -0.6289  2.4962 -0.3033
 7585SOL     OW34213   0.280   2.406   0.114 -0.3605 -0.7335 -0.1504
 7585SOL    HW134214   0.194   2.412   0.072 -0.1143  0.2885 -0.5192
 7585SOL    HW234215   0.341   2.410   0.040  1.0760  1.2506  1.1525
 7586SOL     OW34216   1.339   1.619   4.193  0.0264 -0.2421 -0.2577
 7586SOL    HW134217   1.381   1.680   4.255  1.3334  0.2848 -1.6600
 7586SOL    HW234218   1.392   1.630   4.114  1.1071  0.1377  0.5126
 7587SOL     OW34219   2.218   4.184   8.973  0.2216 -0.3829 -0.1826
 7587SOL    HW134220   2.242   4.276   8.961  0.5789 -0.3633  0.7081
 7587SOL    HW234221   2.147   4.190   9.036  2.0539 -0.9009  1.9266
 7588SOL     OW34222   3.682   3.334  15.497  0.3354 -0.0791 -0.2845
 7588SOL    HW134223   3.645   3.395  15.560 -2.5676 -1.6771 -0.3925
 7588SOL    HW234224   3.685   3.394  15.423 -2.6381 -0.9370 -1.1175
 7589SOL     OW34225   3.978   2.445  12.739 -0.2734  0.3055  0.0047
 7589SOL    HW134226   4.033   2.511  12.780 -0.3670 -0.2389  1.0244
 7589SOL    HW234227   3.924   2.508  12.691  1.2215  1.0628 -0.6547
 7590SOL     OW34228   0.816   1.195   6.160 -0.6669 -0.2422  0.0188
 7590SOL    HW134229   0.780   1.173   6.074 -0.6202  1.1027 -0.3315
 7590SOL    HW234230   0.735   1.202   6.211 -0.1385 -2.9561  1.2611
 7591SOL     OW34231   2.271   3.229   6.702  0.2492 -0.2787  0.3422
 7591SOL    HW134232   2.317   3.155   6.662 -0.7127  0.4741 -2.1139
 7591SOL    HW234233   2.341   3.283   6.740  0.5133  0.4927 -1.2388
 7592SOL     OW34234   3.392   0.435  15.611 -0.2118  0.3563 -0.7208
 7592SOL    HW134235   3.406   0.463  15.521 -0.5041  2.3935 -0.1228
 7592SOL    HW234236   3.313   0.480  15.640 -0.2774  0.0138 -0.3617
 7593SOL     OW34237   3.339   1.602  17.388  0.6470 -0.2139 -0.1863
 7593SOL    HW134238   3.294   1.551  17.455 -0.0090 -0.0593 -0.5037
 7593SOL    HW234239   3.407   1.542  17.358  1.6533  1.2568 -0.8552
 7594SOL     OW34240   1.024   4.189   2.431 -0.3392  0.1164  0.1047
 7594SOL    HW134241   0.929   4.203   2.428 -0.4024 -0.5412 -0.9321
 7594SOL    HW234242   1.059   4.239   2.357 -0.5880 -0.2958 -0.2846
 7595SOL     OW34243   3.019   0.024   1.474 -0.0625 -0.1275 -0.4233
 7595SOL    HW134244   3.019   0.084   1.400  2.6376  0.3930  0.0001
 7595SOL    HW234245   3.110   4.721   1.469  0.8408  2.5763  0.5283
 7596SOL     OW34246   3.358   0.868   4.165  0.4960  0.4411  0.5574
 7596SOL    HW134247   3.444   0.827   4.158  1.0734  1.9351 -1.0811
 7596SOL    HW234248   3.312   0.800   4.215 -0.8599 -1.0461 -2.7518
 7597SOL     OW34249   0.788   1.516  15.312  0.4329  0.4043  0.2617
 7597SOL    HW134250   0.706   1.473  15.336  0.5319 -0.2076 -0.4805
 7597SOL    HW234251   0.756   1.605  15.301 -1.7232 -0.5637 -1.3018
 7598SOL     OW34252   4.297   0.984   5.552 -0.5017  0.1552 -0.1593
 7598SOL    HW134253   4.320   0.939   5.471  1.5559  0.8373  0.0377
 7598SOL    HW234254   4.384   1.016   5.579  0.5666 -1.6994 -1.4301
 7599SOL     OW34255   0.515   3.582   0.832 -0.1386 -0.1076  0.0315
 7599SOL    HW134256   0.439   3.598   0.777 -0.4081  2.0072  1.0005
 7599SOL    HW234257   0.498   3.641   0.906  1.2475 -0.9922  1.0645
 7600SOL     OW34258   1.801   2.086   4.826  0.0386  0.1518 -0.5848
 7600SOL    HW134259   1.852   2.088   4.907 -0.6285  2.7517 -0.2066
 7600SOL    HW234260   1.868   2.087   4.758  0.7890 -0.1487  0.1534
 7601SOL     OW34261   0.411   0.718   7.044 -0.1274 -0.2567 -0.3441
 7601SOL    HW134262   0.454   0.803   7.043 -1.8216  0.6016 -0.4878
 7601SOL    HW234263   0.330   0.734   6.996 -0.2898  0.8454  0.3025
 7602SOL     OW34264   1.191   4.110   2.849  0.1182 -0.2332 -0.2307
 7602SOL    HW134265   1.248   4.037   2.875  2.2482  0.8553 -1.8245
 7602SOL    HW234266   1.112   4.072   2.812 -0.1720  0.8994 -0.7673
 7603SOL     OW34267   4.564   3.953  16.598  0.0150  0.5862  0.0650
 7603SOL    HW134268   4.572   3.972  16.692  2.4298  0.5238 -0.1372
 7603SOL    HW234269   4.492   3.890  16.598  1.3053 -0.8691  0.2142
 7604SOL     OW34270   2.089   2.709   4.687  0.1118  0.1172 -0.3757
 7604SOL    HW134271   2.115   2.627   4.729  0.1600  0.8907  1.0936
 7604SOL    HW234272   2.145   2.717   4.610 -0.4467  2.7836 -0.4908
 7605SOL     OW34273   3.590   3.789   6.480  0.0359  0.3207  0.2154
 7605SOL    HW134274   3.507   3.742   6.479  0.4090 -0.3472  1.2083
 7605SOL    HW234275   3.640   3.738   6.543 -1.4407  0.9473  1.9021
 7606SOL     OW34276   1.151   1.791   8.879  0.0874 -0.1260  0.2032
 7606SOL    HW134277   1.225   1.760   8.826  0.3485 -0.8599  0.9825
 7606SOL    HW234278   1.112   1.710   8.914  0.4209 -0.0040  0.8591
 7607SOL     OW34279   0.990   2.143   5.584  0.0101  0.1678  0.5211
 7607SOL    HW134280   0.958   2.123   5.672  0.1027  2.8449  1.1661
 7607SOL    HW234281   1.080   2.110   5.580 -0.6203 -1.4864 -0.2901
 7608SOL     OW34282   1.055   0.229   4.127  0.4538 -0.2686 -0.7843
 7608SOL    HW134283   1.133   0.237   4.182 -0.7227 -1.0769  1.0048
 7608SOL    HW234284   1.048   0.317   4.090  0.4501  0.6688  1.5011
 7609SOL     OW34285   0.573   1.298   5.090 -0.7108  0.0336  0.4597
 7609SOL    HW134286   0.556   1.216   5.136  2.4850 -0.5219  0.5993
 7609SOL    HW234287   0.661   1.317   5.122 -0.2205  0.7367 -1.2823
 7610SOL     OW34288   1.494   3.995   5.086 -0.3618  0.1001 -0.5310
 7610SOL    HW134289   1.508   3.906   5.120  1.1253  0.5008 -0.1088
 7610SOL    HW234290   1.502   4.055   5.161  0.2631  0.1668 -0.6481
 7611SOL     OW34291   2.091   0.058  11.992  0.7596 -0.2863 -0.3095
 7611SOL    HW134292   2.154   4.714  11.980  1.2811  0.2461 -0.6702
 7611SOL    HW234293   2.032   0.035  12.064  3.2609 -0.7786  1.5645
 7612SOL     OW34294   1.166   2.487   5.581  0.3961  0.1103  0.4891
 7612SOL    HW134295   1.172   2.415   5.643  1.7763 -0.0847  0.1255
 7612SOL    HW234296   1.172   2.431   5.503  1.4120 -1.4865  1.7282
 7613SOL     OW34297   3.552   0.363   8.422 -0.1437 -0.6239 -0.2531
 7613SOL    HW134298   3.462   0.392   8.414 -0.0612 -0.7983 -1.7276
 7613SOL    HW234299   3.576   0.357   8.330 -1.9843  0.2632 -0.7806
 7614SOL     OW34300   0.554   0.839   8.311 -0.0585 -0.5738 -0.1396
 7614SOL    HW134301   0.476   0.853   8.366  0.3369  0.6705  0.0919
 7614SOL    HW234302   0.583   0.759   8.355  1.0557 -0.1118 -0.0490
 7615SOL     OW34303   3.065   4.386   2.031 -0.8063  0.3688  0.7710
 7615SOL    HW134304   3.003   4.420   2.095  0.0736 -1.7437  2.7481
 7615SOL    HW234305   3.050   4.450   1.961  0.5529 -1.5482 -1.2592
 7616SOL     OW34306   0.974   1.766   5.619 -0.7251  0.2696  0.7037
 7616SOL    HW134307   0.922   1.692   5.649  0.1782 -0.6822 -0.0754
 7616SOL    HW234308   0.948   1.778   5.527 -0.5578  1.0403  0.7513
 7617SOL     OW34309   2.495   3.220   6.397  0.0874 -0.6715 -0.1942
 7617SOL    HW134310   2.580   3.178   6.412 -0.8494 -3.4229 -2.6646
 7617SOL    HW234311   2.516   3.305   6.435  1.1257 -1.1744  0.3726
 7618SOL     OW34312   1.249   3.641   6.870  0.0479  0.1851 -0.3031
 7618SOL    HW134313   1.193   3.570   6.839  0.5354  0.3865 -1.6314
 7618SOL    HW234314   1.329   3.588   6.871 -0.6739 -0.9607 -2.2840
 7619SOL     OW34315   3.637   4.603  12.309  0.6571  0.6680 -0.7558
 7619SOL    HW134316   3.604   4.662  12.377 -1.3486 -0.4635 -0.7458
 7619SOL    HW234317   3.656   4.527  12.364  1.3595  1.3742 -0.0272
 7620SOL     OW34318   2.864   4.675   9.022 -0.5956 -0.5988 -0.1312
 7620SOL    HW134319   2.927   4.643   9.087 -2.3886 -2.7559  0.5553
 7620SOL    HW234320   2.828   4.595   8.984 -1.9080 -0.1067  0.1000
 7621SOL     OW34321   3.894   4.599  14.197 -0.2755 -0.3221  0.2298
 7621SOL    HW134322   3.877   4.519  14.246 -1.3525  0.3793  1.0228
 7621SOL    HW234323   3.909   4.669  14.261  0.4808  0.7117 -1.0805
 7622SOL     OW34324   2.760   3.354   0.905  0.0801  0.0504  0.1461
 7622SOL    HW134325   2.780   3.415   0.834  0.3857 -1.3480 -0.9601
 7622SOL    HW234326   2.668   3.373   0.925  0.5458  1.2935  1.1740
 7623SOL     OW34327   2.366   3.513   6.317  0.1077 -0.5706  0.0150
 7623SOL    HW134328   2.309   3.503   6.394  1.0290 -1.7312  0.5537
 7623SOL    HW234329   2.431   3.576   6.348  0.0387 -0.6768  0.3754
 7624SOL     OW34330   1.785   0.090  11.939 -0.0975  0.6234  0.0766
 7624SOL    HW134331   1.769   0.089  11.845 -0.3886  0.4472  0.1291
 7624SOL    HW234332   1.802   0.183  11.956  1.4463  0.5744 -1.2339
 7625SOL     OW34333   0.531   1.899  15.751  0.3630 -0.1379 -0.4519
 7625SOL    HW134334   0.455   1.956  15.760  1.2274  1.0055 -0.4919
 7625SOL    HW234335   0.594   1.970  15.753 -1.9658  1.9442 -1.1194
 7626SOL     OW34336   3.971   4.251   9.715  0.5477  0.4846  0.1956
 7626SOL    HW134337   4.011   4.303   9.645 -1.6330  2.9581  0.7804
 7626SOL    HW234338   3.931   4.322   9.766 -1.9097  1.3403 -2.9456
 7627SOL     OW34339   0.511   3.784  13.804  0.3800  0.8470 -0.4355
 7627SOL    HW134340   0.452   3.717  13.838  0.7715  0.5833 -0.2774
 7627SOL    HW234341   0.465   3.827  13.732 -1.3144 -1.5682 -0.7993
 7628SOL     OW34342   3.828   0.277   2.649 -0.0940  0.1027 -0.8883
 7628SOL    HW134343   3.793   0.191   2.673  2.3295 -0.8823 -0.8920
 7628SOL    HW234344   3.778   0.280   2.567  0.3026 -0.7847 -1.1669
 7629SOL     OW34345   2.412   1.281   3.192 -0.3395  0.5223  0.1925
 7629SOL    HW134346   2.498   1.315   3.168 -1.3385  1.6069 -1.8338
 7629SOL    HW234347   2.346   1.347   3.174  0.2071  0.7059 -1.1740
 7630SOL     OW34348   0.912   1.220   7.579 -0.2621 -0.3776 -0.2167
 7630SOL    HW134349   0.931   1.306   7.542 -2.3805 -0.4803 -1.5678
 7630SOL    HW234350   0.992   1.194   7.624 -0.8178 -0.2611  0.8573
 7631SOL     OW34351   2.568   3.931   3.038  0.9280  0.3646 -0.1350
 7631SOL    HW134352   2.567   3.892   3.125  1.4509 -0.5463 -0.5412
 7631SOL    HW234353   2.556   4.023   3.062 -0.4216 -0.3001  1.7143
 7632SOL     OW34354   0.323   1.196   1.975 -0.4275  0.0655  0.7610
 7632SOL    HW134355   0.318   1.229   2.064 -0.6633  2.3351 -0.1115
 7632SOL    HW234356   0.337   1.279   1.930 -0.7056  0.5758  1.6233
 7633SOL     OW34357   2.003   2.520   5.123 -0.6220  0.0061  0.0126
 7633SOL    HW134358   1.969   2.470   5.197 -0.7716 -1.7586 -1.2651
 7633SOL    HW234359   2.019   2.446   5.065 -1.0775  0.0363 -0.1492
 7634SOL     OW34360   3.818   0.601   8.798 -0.7259  0.2142  0.0668
 7634SOL    HW134361   3.902   0.555   8.802 -0.7490  0.0514 -1.1807
 7634SOL    HW234362   3.792   0.578   8.708 -0.1611 -1.0069  0.2177
 7635SOL     OW34363   0.176   0.613   5.651  0.0379 -0.3652  0.0163
 7635SOL    HW134364   0.132   0.529   5.645  1.0612 -0.6817 -2.9695
 7635SOL    HW234365   0.103   0.668   5.624  0.4787  0.2900  0.1533
 7636SOL     OW34366   3.285   2.146   3.554 -0.1489  0.2380 -1.0879
 7636SOL    HW134367   3.335   2.210   3.605 -0.1081 -1.1832  0.6665
 7636SOL    HW234368   3.198   2.180   3.571 -0.5176  0.2413 -3.0055
 7637SOL     OW34369   3.136   1.791   0.954  0.1317  0.0659  0.3814
 7637SOL    HW134370   3.221   1.819   0.921 -0.2452  3.0198  1.9839
 7637SOL    HW234371   3.105   1.720   0.897 -0.4494  1.5690 -1.1788
 7638SOL     OW34372   0.398   3.259   9.846  0.0763  0.0592  0.4006
 7638SOL    HW134373   0.405   3.230   9.937  2.0418  0.6804  0.4533
 7638SOL    HW234374   0.491   3.254   9.824 -0.1402 -0.5704 -0.3589
 7639SOL     OW34375   4.681   4.280   6.974  0.1541  0.5358 -1.1284
 7639SOL    HW134376   0.009   4.237   6.907 -1.7066 -2.4574 -0.7147
 7639SOL    HW234377   0.021   4.341   7.007 -1.0336 -0.2638  2.6866
 7640SOL     OW34378   3.920   0.384  17.446 -0.0560  0.4247 -0.0809
 7640SOL    HW134379   3.864   0.311  17.474  0.9975  0.2443  1.4854
 7640SOL    HW234380   4.011   0.355  17.452 -0.0915 -0.0669 -1.9458
 7641SOL     OW34381   4.018   2.439  11.928 -0.1073  0.1396 -0.0877
 7641SOL    HW134382   4.003   2.389  12.008 -2.7944  3.8568  1.7694
 7641SOL    HW234383   3.930   2.465  11.903  0.0104 -0.0584 -0.6942
 7642SOL     OW34384   2.268   3.392  16.689 -0.2474 -0.1569 -0.2388
 7642SOL    HW134385   2.210   3.419  16.760 -0.0200  0.8375 -0.4397
 7642SOL    HW234386   2.230   3.311  16.655 -0.0877  0.8207 -2.7420
 7643SOL     OW34387   1.781   1.436   1.906  0.6615 -0.0011  0.7901
 7643SOL    HW134388   1.739   1.372   1.848  1.9614  0.8876 -1.1254
 7643SOL    HW234389   1.777   1.391   1.991 -1.6688  2.4846  2.0068
 7644SOL     OW34390   0.493   0.552  14.748  0.0675  0.0515  0.3643
 7644SOL    HW134391   0.553   0.482  14.723  0.3603 -0.2256  1.8185
 7644SOL    HW234392   0.537   0.626  14.706 -1.7376  1.5842  1.1330
 7645SOL     OW34393   2.997   1.529   9.034 -0.1925  0.2264 -0.4125
 7645SOL    HW134394   2.991   1.617   8.998 -1.4387  0.0287 -0.6787
 7645SOL    HW234395   3.085   1.508   9.002  0.2132  1.1941  0.0587
 7646SOL     OW34396   3.382   1.962   0.459 -0.2761 -0.1161 -0.1140
 7646SOL    HW134397   3.463   1.914   0.444  0.0444  0.1399  0.7913
 7646SOL    HW234398   3.381   2.006   0.374 -0.7897 -0.2929 -0.2021
 7647SOL     OW34399   4.608   3.839   6.982  0.0638  0.0949  0.5595
 7647SOL    HW134400   4.602   3.832   7.077 -0.4334  1.9275  0.6598
 7647SOL    HW234401   4.565   3.922   6.961 -0.9523 -0.3485  0.8549
 7648SOL     OW34402   3.612   4.065   7.103  0.0543  0.1493 -0.4256
 7648SOL    HW134403   3.595   3.975   7.128  1.3829 -0.3645 -1.3627
 7648SOL    HW234404   3.655   4.099   7.182  2.7407 -0.6213 -1.5820
 7649SOL     OW34405   1.578   3.190   5.828 -0.1894 -0.0606 -0.6689
 7649SOL    HW134406   1.616   3.274   5.804 -0.4168  0.3403  0.3896
 7649SOL    HW234407   1.511   3.175   5.761  0.2524  2.1057 -1.5937
 7650SOL     OW34408   2.787   0.110  12.926  0.0550 -0.6251  0.1317
 7650SOL    HW134409   2.856   0.137  12.865  0.2935  2.0285  1.5760
 7650SOL    HW234410   2.723   0.078  12.864 -0.7528  0.4751  0.4070
 7651SOL     OW34411   3.821   1.984  16.055  0.2336  0.3166 -0.1763
 7651SOL    HW134412   3.892   1.943  16.005  0.5206  1.3909 -0.6648
 7651SOL    HW234413   3.813   1.938  16.138 -0.6282 -0.7847 -0.8718
 7652SOL     OW34414   0.747   2.703   2.885 -0.1424 -0.1849  0.0463
 7652SOL    HW134415   0.772   2.661   2.802  1.2025  2.6628 -0.9881
 7652SOL    HW234416   0.767   2.794   2.865 -1.0813 -0.0965 -0.4797
 7653SOL     OW34417   4.386   4.178   4.404  0.0755 -0.5671 -0.2124
 7653SOL    HW134418   4.360   4.091   4.435 -0.7404 -0.2008  0.1535
 7653SOL    HW234419   4.309   4.213   4.358 -0.6320 -1.2129  0.4851
 7654SOL     OW34420   0.002   4.400   2.315 -0.6090 -0.0615 -0.1706
 7654SOL    HW134421   4.682   4.483   2.307  1.5055  0.9905 -1.6042
 7654SOL    HW234422   4.663   4.335   2.292  0.9340 -1.8453  0.4882
 7655SOL     OW34423   2.944   4.303  13.544 -0.0139 -0.3270  0.0379
 7655SOL    HW134424   2.937   4.367  13.615 -0.2987 -0.1077 -0.1856
 7655SOL    HW234425   3.028   4.331  13.509 -0.3891  1.6334  0.6842
 7656SOL     OW34426   0.307   3.147   8.375 -0.2103 -0.2816 -0.3023
 7656SOL    HW134427   0.250   3.171   8.448 -1.0310  1.5239 -1.5340
 7656SOL    HW234428   0.365   3.222   8.365  0.8458 -0.7072  2.6908
 7657SOL     OW34429   2.188   0.971  12.974  0.1277  0.1999 -0.4485
 7657SOL    HW134430   2.101   0.985  12.938  0.4736  1.4822 -0.7903
 7657SOL    HW234431   2.171   0.883  13.006  0.7108  0.1787 -0.1872
 7658SOL     OW34432   0.992   4.675  13.907  0.1206  0.0442 -0.9879
 7658SOL    HW134433   0.988   4.594  13.957  2.8605  0.8823  0.6054
 7658SOL    HW234434   1.080   4.705  13.929 -0.0589  1.4500 -2.1582
 7659SOL     OW34435   2.061   3.200   6.902 -0.0910 -0.3962  0.4988
 7659SOL    HW134436   2.120   3.208   6.827 -1.1529  0.5463 -0.2313
 7659SOL    HW234437   2.047   3.106   6.907 -0.4858 -0.2602  2.0338
 7660SOL     OW34438   0.558   1.183   9.552 -0.0599  0.1023 -0.7466
 7660SOL    HW134439   0.539   1.269   9.513 -0.5145  0.7501  0.9061
 7660SOL    HW234440   0.467   1.163   9.574  0.0382 -1.1015 -1.4278
 7661SOL     OW34441   0.431   4.639   5.991  0.6108 -0.3506  0.4147
 7661SOL    HW134442   0.520   4.633   5.955  0.3337  1.2837 -0.5556
 7661SOL    HW234443   0.448   4.711   6.051  0.3448 -0.8686  1.1090
 7662SOL     OW34444   3.738   0.370   3.554  0.4307  0.2158  0.0717
 7662SOL    HW134445   3.729   0.276   3.536  1.4511 -0.1123  1.2726
 7662SOL    HW234446   3.692   0.413   3.481  3.1578  1.4342 -0.9332
 7663SOL     OW34447   3.710   1.213  12.254  0.3092 -0.8525 -0.2728
 7663SOL    HW134448   3.693   1.307  12.259 -0.4784 -1.0540  0.8025
 7663SOL    HW234449   3.713   1.194  12.160  1.6943  1.5808 -0.7090
 7664SOL     OW34450   2.676   0.995  17.444  0.1387  0.2088 -0.2520
 7664SOL    HW134451   2.770   0.977  17.450  0.0707 -0.1667 -0.2774
 7664SOL    HW234452   2.682   1.079  17.399  0.3189 -0.2690 -1.1358
 7665SOL     OW34453   1.783   2.158   7.355 -1.1978 -0.1907 -0.3077
 7665SOL    HW134454   1.703   2.161   7.408 -1.3523 -1.6398 -0.4752
 7665SOL    HW234455   1.840   2.106   7.411 -1.3971  0.3114  0.3701
 7666SOL     OW34456   1.016   3.538   4.424 -0.4385 -0.3806 -0.4416
 7666SOL    HW134457   1.005   3.607   4.490  2.5536  0.1488 -0.4891
 7666SOL    HW234458   0.961   3.470   4.463  1.6217 -2.4046 -1.1129
 7667SOL     OW34459   1.507   0.767   6.594  0.5215  0.0350 -0.5710
 7667SOL    HW134460   1.493   0.673   6.605 -1.5047  0.5275  0.9875
 7667SOL    HW234461   1.433   0.807   6.640 -1.2807 -1.3543 -2.2522
 7668SOL     OW34462   2.751   2.785  10.368 -0.1358 -0.0449 -0.5095
 7668SOL    HW134463   2.755   2.784  10.463 -1.0453  0.6298 -0.4671
 7668SOL    HW234464   2.803   2.862  10.347 -1.6650  1.1850  0.2047
 7669SOL     OW34465   0.778   3.054   8.787 -0.1235 -0.1168  0.1486
 7669SOL    HW134466   0.868   3.073   8.814  0.1356 -1.4458  0.1913
 7669SOL    HW234467   0.734   3.122   8.840 -2.5617 -1.3645 -0.2794
 7670SOL     OW34468   0.137   2.717   8.022 -0.1924 -0.0623  0.0308
 7670SOL    HW134469   0.113   2.704   8.114  2.3910 -0.5226  0.6206
 7670SOL    HW234470   0.229   2.743   8.030 -0.5452  0.6589  1.7820
 7671SOL     OW34471   3.368   0.690  14.658 -0.5884  0.2069  0.2190
 7671SOL    HW134472   3.366   0.713  14.565 -1.0657 -0.9860 -0.0684
 7671SOL    HW234473   3.327   0.773  14.682  3.3073  1.6874  1.6091
 7672SOL     OW34474   1.786   0.890   4.070  0.5766 -0.5664 -0.0478
 7672SOL    HW134475   1.805   0.955   4.003  0.6436 -0.5952 -0.0567
 7672SOL    HW234476   1.776   0.807   4.025 -1.5134 -0.2330 -0.1750
 7673SOL     OW34477   3.644   4.595   7.897  0.0994  0.7786 -0.0355
 7673SOL    HW134478   3.598   4.669   7.857 -1.9418 -0.3852  0.1994
 7673SOL    HW234479   3.635   4.542   7.817 -1.2680 -1.7699  1.8019
 7674SOL     OW34480   2.092   3.161   7.739 -0.0004 -0.2076 -0.2004
 7674SOL    HW134481   2.006   3.165   7.697 -0.0300 -0.0705 -0.1218
 7674SOL    HW234482   2.085   3.141   7.832  2.2452  0.5792  0.1263
 7675SOL     OW34483   3.930   1.862  11.561  0.0817 -0.0895  0.4512
 7675SOL    HW134484   3.990   1.797  11.599  0.8646 -1.1121 -2.5224
 7675SOL    HW234485   3.859   1.848  11.625  1.6964  0.0910  2.2905
 7676SOL     OW34486   2.282   0.119   3.171  0.4134 -0.1276 -0.3075
 7676SOL    HW134487   2.311   0.181   3.103  2.8021  1.1243  1.8477
 7676SOL    HW234488   2.347   0.141   3.238  0.3758  0.4164 -0.4504
 7677SOL     OW34489   4.077   4.338   3.171  0.2598  0.3828 -0.0060
 7677SOL    HW134490   4.056   4.422   3.212  1.3537  0.7000 -0.0788
 7677SOL    HW234491   4.010   4.279   3.205 -0.9229  0.3670 -2.4022
 7678SOL     OW34492   4.274   2.870   3.258  0.1575  0.9246  0.7338
 7678SOL    HW134493   4.282   2.814   3.180  0.0182  0.4328  1.0745
 7678SOL    HW234494   4.285   2.959   3.224 -0.3464  1.3968  1.8018
 7679SOL     OW34495   2.524   4.149   7.052  0.8307  0.2728  0.0279
 7679SOL    HW134496   2.568   4.234   7.054 -0.3802  0.9106 -0.4288
 7679SOL    HW234497   2.432   4.169   7.033  0.7050  0.7673  1.1581
 7680SOL     OW34498   2.640   3.619   8.629  0.3991  0.5723  0.3956
 7680SOL    HW134499   2.652   3.700   8.579  0.6096  1.8040  2.4073
 7680SOL    HW234500   2.706   3.561   8.591 -0.8683  0.4532 -1.6233
 7681SOL     OW34501   4.444   4.369   9.080  0.1916 -0.5783 -0.0761
 7681SOL    HW134502   4.433   4.445   9.138 -0.2630 -0.7652  0.0816
 7681SOL    HW234503   4.533   4.379   9.045 -0.0215  1.2674 -0.1088
 7682SOL     OW34504   0.078   2.592   7.247  0.1602 -0.2479  0.2772
 7682SOL    HW134505   0.170   2.567   7.255  0.4838  1.1034  0.8631
 7682SOL    HW234506   0.060   2.609   7.339  0.4442  0.3728  0.2236
 7683SOL     OW34507   0.556   2.587   9.165  0.0509  0.1650  0.4730
 7683SOL    HW134508   0.619   2.584   9.093 -0.9056 -1.8368 -0.2878
 7683SOL    HW234509   0.610   2.600   9.242  1.1717  1.8255 -0.5964
 7684SOL     OW34510   2.338   0.440   4.485  0.0074  0.3273 -0.4661
 7684SOL    HW134511   2.370   0.384   4.414  1.5320 -0.0219  0.4948
 7684SOL    HW234512   2.296   0.508   4.432 -0.0036 -0.2556 -1.1997
 7685SOL     OW34513   2.396   2.161   3.144 -0.0900 -0.3321 -0.3378
 7685SOL    HW134514   2.314   2.113   3.151  0.5463 -1.3947 -0.0735
 7685SOL    HW234515   2.431   2.126   3.062  0.0105 -0.1016 -0.3950
 7686SOL     OW34516   1.835   4.222   5.523 -0.5133  0.5968 -0.0786
 7686SOL    HW134517   1.839   4.262   5.610  1.4763  0.4432 -0.0940
 7686SOL    HW234518   1.764   4.159   5.531 -0.0176  0.1316  0.6939
 7687SOL     OW34519   2.398   2.922   4.625  0.6028 -0.5303  0.1906
 7687SOL    HW134520   2.345   2.845   4.648  0.3491 -0.5155 -0.3402
 7687SOL    HW234521   2.414   2.947   4.716  1.0226 -2.5227  0.6833
 7688SOL     OW34522   3.327   0.083   0.237  0.0511  0.2207  0.2009
 7688SOL    HW134523   3.274   0.043   0.307 -1.5688 -0.4735 -1.4175
 7688SOL    HW234524   3.393   0.130   0.288  0.1882 -0.1907  0.4024
 7689SOL     OW34525   4.298   4.520   5.078 -0.5065 -0.6840  0.1324
 7689SOL    HW134526   4.265   4.609   5.077  0.6539 -0.2795 -1.4426
 7689SOL    HW234527   4.364   4.517   5.009 -2.6694  1.0759 -1.9659
 7690SOL     OW34528   0.490   2.890  16.681  0.1054 -0.5806 -0.1183
 7690SOL    HW134529   0.577   2.865  16.652  0.9772 -0.7253  2.5583
 7690SOL    HW234530   0.427   2.826  16.649  0.9194 -1.3916 -0.0820
 7691SOL     OW34531   1.116   0.045   8.501  0.2274  0.2951 -0.6673
 7691SOL    HW134532   1.205   0.034   8.535  0.7979 -0.5487 -2.4790
 7691SOL    HW234533   1.129   0.106   8.429 -2.1486  1.3641 -0.1991
 7692SOL     OW34534   1.916   2.560   8.255 -0.1095 -0.0518 -0.2897
 7692SOL    HW134535   1.980   2.489   8.263  0.8141  0.9656  1.4929
 7692SOL    HW234536   1.856   2.532   8.324  1.8377 -1.3592  0.8557
 7693SOL     OW34537   2.550   3.718   2.902  0.2874 -0.2398  0.1886
 7693SOL    HW134538   2.592   3.728   2.817  2.4696 -1.2495  1.1433
 7693SOL    HW234539   2.573   3.802   2.942  3.2845 -1.3340  0.7621
 7694SOL     OW34540   0.801   2.433   5.171 -0.3303  0.0137  0.1848
 7694SOL    HW134541   0.882   2.403   5.129 -0.9938 -1.2664 -0.1864
 7694SOL    HW234542   0.750   2.352   5.178 -0.5835  0.0058 -1.7187
 7695SOL     OW34543   1.163   4.078  17.120 -0.3018 -0.0989  0.4295
 7695SOL    HW134544   1.258   4.070  17.110 -0.2220  0.1804  0.9415
 7695SOL    HW234545   1.149   3.984  17.109 -3.2354  0.6783 -2.4818
 7696SOL     OW34546   1.891   2.145  11.354 -0.6053  0.2234 -0.4314
 7696SOL    HW134547   1.978   2.129  11.318 -0.4513 -0.2487  0.1536
 7696SOL    HW234548   1.842   2.135  11.272  1.9111 -3.2824 -1.5034
 7697SOL     OW34549   0.929   0.857   3.724  0.5140  0.9130 -0.3850
 7697SOL    HW134550   0.946   0.922   3.656 -1.1224  0.7859 -0.9075
 7697SOL    HW234551   0.880   0.902   3.792 -1.1984  2.0963 -2.4106
 7698SOL     OW34552   1.860   2.760   6.505 -0.4965 -0.0510 -0.0510
 7698SOL    HW134553   1.809   2.807   6.439  0.9728  1.5842 -0.0115
 7698SOL    HW234554   1.865   2.826   6.574 -0.9350  0.3081 -0.3561
 7699SOL     OW34555   1.890   1.594   3.016 -0.0326 -0.2605  0.0134
 7699SOL    HW134556   1.886   1.689   3.003 -2.5609 -0.5185 -1.1902
 7699SOL    HW234557   1.859   1.559   2.932 -0.0433 -0.4977  0.1154
 7700SOL     OW34558   0.415   3.132  15.231  0.0127 -0.1079  0.3015
 7700SOL    HW134559   0.374   3.216  15.210  1.2923  1.0119  2.2479
 7700SOL    HW234560   0.467   3.155  15.308  0.0706 -1.7975  0.7732
 7701SOL     OW34561   1.042   2.655   3.747  0.0690  0.1726 -0.0688
 7701SOL    HW134562   0.974   2.602   3.706 -2.2749  0.1337  3.8975
 7701SOL    HW234563   1.000   2.740   3.732 -0.9206 -0.5635 -1.5505
 7702SOL     OW34564   1.088   4.570   3.958 -0.2128  0.2282 -0.1869
 7702SOL    HW134565   1.110   4.600   4.046  0.4073  1.0414 -0.6185
 7702SOL    HW234566   1.060   4.481   3.978 -0.6036 -0.4326 -3.7847
 7703SOL     OW34567   0.280   1.846   7.172  0.5412  0.2341 -0.0503
 7703SOL    HW134568   0.239   1.884   7.250 -1.6267 -0.5826 -0.8073
 7703SOL    HW234569   0.333   1.924   7.157  0.3329  0.0365 -1.7914
 7704SOL     OW34570   4.254   4.449  12.800  0.1754  0.3423 -0.1869
 7704SOL    HW134571   4.202   4.512  12.849 -0.7146  0.4970 -1.3276
 7704SOL    HW234572   4.289   4.389  12.866 -0.4740  1.0617  0.8111
 7705SOL     OW34573   0.087   4.280   7.907  0.5694  0.3027  0.1354
 7705SOL    HW134574   0.061   4.259   7.997 -0.1976 -2.7820 -0.7887
 7705SOL    HW234575   0.175   4.314   7.925  0.9040  0.2936 -1.5024
 7706SOL     OW34576   1.593   2.045   8.493  0.2279 -0.1091  0.1171
 7706SOL    HW134577   1.664   2.006   8.544  1.7116  1.2271 -0.9241
 7706SOL    HW234578   1.514   2.039   8.547  0.6103  5.4871  1.3410
 7707SOL     OW34579   4.553   0.744   8.652  0.2482 -0.0916  0.1458
 7707SOL    HW134580   4.582   0.659   8.686 -0.4916 -1.1285 -1.8602
 7707SOL    HW234581   4.600   0.806   8.709  0.0232  0.6933 -0.5156
 7708SOL     OW34582   4.067   4.479   8.471  0.5124  0.0676  0.0618
 7708SOL    HW134583   4.034   4.426   8.399 -0.8674 -0.4259  1.0540
 7708SOL    HW234584   4.098   4.416   8.537 -1.6711  1.1778  2.1413
 7709SOL     OW34585   3.695   0.153   7.322 -0.8066 -0.0788  0.2721
 7709SOL    HW134586   3.629   0.210   7.282  1.5332 -0.0457 -3.6193
 7709SOL    HW234587   3.658   0.138   7.409  2.2355 -0.0521  1.5682
 7710SOL     OW34588   1.567   0.566   6.950  0.1458 -0.3115  0.2067
 7710SOL    HW134589   1.507   0.622   6.999 -0.1268  0.7486 -1.3408
 7710SOL    HW234590   1.644   0.622   6.943  0.9994 -2.1477 -4.6022
 7711SOL     OW34591   0.410   4.380   4.557  0.1252 -0.0461  0.1321
 7711SOL    HW134592   0.347   4.309   4.572  0.3289  0.0533  1.4979
 7711SOL    HW234593   0.493   4.338   4.580  0.3888  0.7591  0.6708
 7712SOL     OW34594   1.859   0.963   1.697  0.0833  0.3474  1.0569
 7712SOL    HW134595   1.951   0.978   1.721  0.1823  1.8189 -0.2364
 7712SOL    HW234596   1.809   0.986   1.775 -0.2716  1.8926  0.3534
 7713SOL     OW34597   1.432   2.432   7.198  0.1748 -0.0525 -0.0792
 7713SOL    HW134598   1.497   2.432   7.269  1.2876 -0.0306 -1.0992
 7713SOL    HW234599   1.355   2.466   7.244  0.8977  1.8022 -0.2309
 7714SOL     OW34600   3.614   3.012   5.254 -0.4559  0.1649  0.5779
 7714SOL    HW134601   3.562   3.092   5.243 -0.8561 -0.0271  1.0663
 7714SOL    HW234602   3.657   3.035   5.336  3.2253 -0.3332 -1.2093
 7715SOL     OW34603   1.883   0.647   5.945 -0.1360 -0.6182 -0.4490
 7715SOL    HW134604   1.841   0.600   6.017  1.4067  0.3154  1.0631
 7715SOL    HW234605   1.977   0.626   5.946 -0.0520 -0.1651  0.9403
 7716SOL     OW34606   2.276   0.088   7.324  0.3474 -0.0212 -0.4435
 7716SOL    HW134607   2.258   0.003   7.365  3.4248  0.5645  2.1732
 7716SOL    HW234608   2.256   0.151   7.393  0.0468 -1.9631  1.2578
 7717SOL     OW34609   1.436   0.145   9.650 -0.1770 -0.0856 -0.5584
 7717SOL    HW134610   1.384   0.172   9.574  1.1128  2.3219 -0.5910
 7717SOL    HW234611   1.450   0.223   9.704 -0.6343 -0.5317  0.2015
 7718SOL     OW34612   2.795   4.121  16.990 -0.3352 -0.7217  0.3943
 7718SOL    HW134613   2.777   4.208  17.023  0.5265  0.2461 -1.6915
 7718SOL    HW234614   2.744   4.070  17.053 -1.3632  0.0039  0.1450
 7719SOL     OW34615   4.152   3.243   5.171 -0.0737  0.1716 -0.7820
 7719SOL    HW134616   4.066   3.247   5.129 -0.3586 -0.6040 -0.2754
 7719SOL    HW234617   4.175   3.336   5.172  1.3624 -0.2067  0.2899
 7720SOL     OW34618   1.315   1.857   5.423  0.1986  0.1052 -0.0703
 7720SOL    HW134619   1.362   1.813   5.494  0.6520 -0.1622 -0.5390
 7720SOL    HW234620   1.300   1.943   5.461 -1.5906 -0.6039  0.8324
 7721SOL     OW34621   2.064   3.106   6.503  0.0529 -0.1503 -0.3058
 7721SOL    HW134622   2.041   3.065   6.420  2.0205 -0.9538 -0.4555
 7721SOL    HW234623   2.121   3.179   6.478  1.3794 -0.8397  0.6459
 7722SOL     OW34624   2.874   1.011  14.867 -0.0790  0.1922  0.6136
 7722SOL    HW134625   2.931   0.972  14.933 -0.9670  1.0140  1.8778
 7722SOL    HW234626   2.938   0.997  14.797 -2.0408  1.3498 -1.4061
 7723SOL     OW34627   4.648   2.148  12.109  0.2118  0.3378 -0.6261
 7723SOL    HW134628   4.653   2.052  12.109 -0.7106  0.2793  0.3777
 7723SOL    HW234629   0.013   2.176  12.106 -0.1734  1.8484  1.6062
 7724SOL     OW34630   1.295   3.891  15.026  0.6568  0.3108  0.4759
 7724SOL    HW134631   1.343   3.844  15.095  0.6393 -0.9117 -0.3441
 7724SOL    HW234632   1.364   3.892  14.960  2.4659 -0.7497  2.3582
 7725SOL     OW34633   2.535   3.130   3.555  0.2479 -0.3265  0.0407
 7725SOL    HW134634   2.464   3.070   3.580 -0.0941  0.9687  2.2046
 7725SOL    HW234635   2.565   3.182   3.630  2.3346  0.0954 -1.1185
 7726SOL     OW34636   4.326   0.414   2.695 -0.6132 -0.3343  0.6654
 7726SOL    HW134637   4.411   0.413   2.651 -0.1508  1.8102  1.4944
 7726SOL    HW234638   4.276   0.341   2.658  0.8530  0.0511 -2.0629
 7727SOL     OW34639   2.390   4.156   8.142  0.0722 -0.5101  0.1127
 7727SOL    HW134640   2.337   4.221   8.187  1.0134  0.7060 -0.5432
 7727SOL    HW234641   2.433   4.203   8.070 -0.3743 -1.0485 -0.5144
 7728SOL     OW34642   2.410   2.231   5.028  0.5062  0.6419 -0.4290
 7728SOL    HW134643   2.495   2.264   5.058 -0.1660 -0.1099  2.3870
 7728SOL    HW234644   2.437   2.155   4.976 -1.6177 -1.9176  2.2068
 7729SOL     OW34645   3.804   4.046   4.240 -0.0966 -0.2731 -0.3332
 7729SOL    HW134646   3.764   4.043   4.153  0.1203  0.9649 -0.4803
 7729SOL    HW234647   3.891   4.012   4.216  0.3646  0.4922  0.2530
 7730SOL     OW34648   1.925   3.508  13.929  0.2836  0.1019 -0.6036
 7730SOL    HW134649   1.874   3.553  13.862 -1.4327  0.9918  1.2825
 7730SOL    HW234650   1.991   3.464  13.876  0.9212  3.0004 -2.2227
 7731SOL     OW34651   3.431   0.416  12.726 -0.2482 -0.1164  0.0660
 7731SOL    HW134652   3.337   0.415  12.704  0.0730  2.3241 -1.5087
 7731SOL    HW234653   3.447   0.510  12.717  0.4295 -0.2738 -0.3613
 7732SOL     OW34654   2.332   1.135   4.365 -0.4127  0.0941  0.1718
 7732SOL    HW134655   2.402   1.141   4.300  3.3591  0.0408  4.2862
 7732SOL    HW234656   2.290   1.049   4.356 -0.0816  0.0235 -0.7457
 7733SOL     OW34657   0.303   3.177   6.976 -0.2141 -0.2357 -0.1504
 7733SOL    HW134658   0.291   3.103   6.917  1.3183 -0.1210 -0.6074
 7733SOL    HW234659   0.316   3.138   7.062  1.1222 -1.2854 -0.8316
 7734SOL     OW34660   1.740   0.689  10.858  0.1901  0.3822  0.0598
 7734SOL    HW134661   1.778   0.635  10.789  0.3092 -0.6278  0.9206
 7734SOL    HW234662   1.742   0.628  10.931  1.8788  0.9964  0.5341
 7735SOL     OW34663   3.595   2.331  17.695  0.8037  0.4634  0.3701
 7735SOL    HW134664   3.515   2.378  17.671  1.1319  1.5468  1.4208
 7735SOL    HW234665   3.553   2.252   0.025 -0.3283  0.8892 -0.0021
 7736SOL     OW34666   3.865   1.282  16.580 -0.2133 -0.0936 -0.0641
 7736SOL    HW134667   3.840   1.347  16.515  3.0884 -0.3802 -1.6183
 7736SOL    HW234668   3.869   1.341  16.656 -0.3066  0.3653 -0.4158
 7737SOL     OW34669   3.853   1.802   7.164  0.4419  0.4347  0.0881
 7737SOL    HW134670   3.802   1.870   7.208 -0.4273 -0.7968  0.9858
 7737SOL    HW234671   3.778   1.748   7.138 -0.8348  1.5691  1.4145
 7738SOL     OW34672   1.493   3.737   6.672  0.7684  0.2321 -0.0106
 7738SOL    HW134673   1.475   3.803   6.739  2.1984  0.6891 -0.0637
 7738SOL    HW234674   1.427   3.670   6.690 -1.8392  2.8859  0.3339
 7739SOL     OW34675   4.241   1.521  11.633 -0.7382 -0.2732  0.1020
 7739SOL    HW134676   4.279   1.438  11.603  0.5173  0.1651  0.5103
 7739SOL    HW234677   4.225   1.556  11.546  1.8004 -1.7787 -0.9733
 7740SOL     OW34678   2.287   1.913  13.620 -0.2582  0.1957  0.0173
 7740SOL    HW134679   2.353   1.857  13.661 -0.8844 -0.8957 -0.4824
 7740SOL    HW234680   2.215   1.897  13.680 -1.4701  4.0225 -0.4168
 7741SOL     OW34681   4.406   3.422  16.167 -0.3064  0.6340  0.5194
 7741SOL    HW134682   4.312   3.429  16.150 -0.4451  2.2362  2.0346
 7741SOL    HW234683   4.422   3.498  16.223 -1.2775  2.1906 -1.3208
 7742SOL     OW34684   2.141   3.091   4.206 -0.6193 -0.0751  0.3845
 7742SOL    HW134685   2.172   3.050   4.287 -0.6359  0.9556  0.9110
 7742SOL    HW234686   2.111   3.012   4.160 -3.2893  1.2612 -0.1607
 7743SOL     OW34687   0.995   0.562  17.336 -0.0594 -0.1460  0.0001
 7743SOL    HW134688   1.032   0.582  17.422 -1.8694 -0.1865  0.7855
 7743SOL    HW234689   1.078   0.546  17.290 -1.0864 -3.3718 -0.7420
 7744SOL     OW34690   1.532   3.047   7.797 -0.3088 -0.9272 -0.2058
 7744SOL    HW134691   1.602   3.095   7.840 -0.6860 -2.1909  1.8550
 7744SOL    HW234692   1.578   2.968   7.768 -0.4374 -0.9126 -0.4502
 7745SOL     OW34693   3.760   1.795   4.353 -0.5399 -0.3066  0.7409
 7745SOL    HW134694   3.846   1.827   4.329  0.2501 -2.3031  0.9321
 7745SOL    HW234695   3.727   1.871   4.401  1.3843  0.1558  1.3119
 7746SOL     OW34696   4.139   0.140   7.435 -0.2090  0.3126  0.1874
 7746SOL    HW134697   4.084   0.122   7.359  1.3929 -0.8191 -0.7221
 7746SOL    HW234698   4.225   0.134   7.393  0.9328 -3.6950  3.0841
 7747SOL     OW34699   0.027   4.448   0.134  0.2146 -0.8383  1.2080
 7747SOL    HW134700   0.065   4.501   0.064  0.8456 -3.7692 -0.6824
 7747SOL    HW234701   4.679   4.496   0.171 -1.8785 -1.5033 -2.0711
 7748SOL     OW34702   3.267   0.362   4.136  0.0788  0.3375 -0.1367
 7748SOL    HW134703   3.264   0.283   4.081 -0.9882  1.7831 -2.1384
 7748SOL    HW234704   3.310   0.406   4.062 -0.4275  0.2901 -0.4546
 7749SOL     OW34705   0.788   0.996   1.095 -0.0191 -0.0281  0.2367
 7749SOL    HW134706   0.812   1.030   1.181 -0.1778  0.1062  0.2275
 7749SOL    HW234707   0.733   1.060   1.050 -1.8170  0.2649  2.8878
 7750SOL     OW34708   0.258   3.303   0.597 -0.2006 -0.1064 -0.0530
 7750SOL    HW134709   0.308   3.239   0.648  1.4990  2.6128  1.7168
 7750SOL    HW234710   0.169   3.268   0.597  0.1317 -0.9413  3.3216
 7751SOL     OW34711   3.641   2.613  14.717  0.3121 -0.0227 -0.0773
 7751SOL    HW134712   3.581   2.683  14.742 -0.7943 -0.9873 -0.0147
 7751SOL    HW234713   3.723   2.660  14.704 -0.3954  0.5694 -2.3558
 7752SOL     OW34714   4.550   4.659  14.040 -0.5667  0.1251  0.2833
 7752SOL    HW134715   4.531   4.651  14.134 -5.2404 -1.6419 -0.8219
 7752SOL    HW234716   4.492   0.002  14.008 -0.3763  0.4409  0.6154
 7753SOL     OW34717   4.372   0.246   5.943 -0.3576 -0.9477  0.4704
 7753SOL    HW134718   4.298   0.302   5.918  0.7349 -0.6697 -2.1785
 7753SOL    HW234719   4.336   0.189   6.011  2.2602 -1.4168  1.4565
 7754SOL     OW34720   1.703   3.914   3.720  0.2143 -0.3257 -0.6780
 7754SOL    HW134721   1.648   3.986   3.687  0.8191  0.3365 -0.2580
 7754SOL    HW234722   1.668   3.910   3.809  0.3141  1.9079 -0.5335
 7755SOL     OW34723   0.900   2.624   6.922 -0.1175  0.2156 -0.5258
 7755SOL    HW134724   0.830   2.574   6.880 -1.1870  1.8727 -0.7124
 7755SOL    HW234725   0.970   2.627   6.858  0.3025  0.5541 -0.0482
 7756SOL     OW34726   2.772   4.035   7.440 -0.1880  0.1521  0.1893
 7756SOL    HW134727   2.751   4.039   7.347 -1.8356  0.4797  0.5910
 7756SOL    HW234728   2.712   3.969   7.475  1.8123 -2.2244 -0.7789
 7757SOL     OW34729   2.948   3.390   7.480  0.0803  0.3660 -0.0346
 7757SOL    HW134730   2.957   3.298   7.507 -0.0636  0.2193 -0.4758
 7757SOL    HW234731   2.855   3.394   7.459  0.4483  0.5479 -1.6971
 7758SOL     OW34732   1.378   1.311   8.358  0.4549  0.5315  0.0456
 7758SOL    HW134733   1.424   1.395   8.356 -1.5080  1.6513  1.0156
 7758SOL    HW234734   1.337   1.316   8.444  0.0791  0.1576 -0.1108
 7759SOL     OW34735   0.736   3.384   7.823  0.2897  0.0939 -0.9359
 7759SOL    HW134736   0.668   3.451   7.818  2.1029  1.9344 -1.5401
 7759SOL    HW234737   0.817   3.435   7.813 -0.8962  2.3087  0.6970
 7760SOL     OW34738   2.183   3.847   7.433  0.2230 -0.2140 -0.1026
 7760SOL    HW134739   2.093   3.833   7.404 -0.3063 -0.2430  1.5922
 7760SOL    HW234740   2.177   3.914   7.501  1.4472 -0.1324 -0.0722
 7761SOL     OW34741   2.133   1.030  10.922  0.0920  0.0040  0.6444
 7761SOL    HW134742   2.086   1.111  10.940 -2.3213 -0.2105 -4.7747
 7761SOL    HW234743   2.180   1.014  11.004  0.7661  1.2888  0.4967
 7762SOL     OW34744   2.210   2.907   5.583  0.1935 -0.1514  0.2653
 7762SOL    HW134745   2.280   2.971   5.577  0.6450 -0.6512  0.1504
 7762SOL    HW234746   2.233   2.850   5.657  1.1279 -0.0767  0.0318
 7763SOL     OW34747   0.350   0.389   5.192  0.0853  0.6634  0.0494
 7763SOL    HW134748   0.308   0.460   5.143 -1.0008  0.2740  0.4201
 7763SOL    HW234749   0.376   0.427   5.276  0.8525  0.0455  0.0894
 7764SOL     OW34750   0.539   1.528   0.538  0.5125  0.2575 -0.6836
 7764SOL    HW134751   0.487   1.454   0.507 -0.5395 -0.3174  2.3786
 7764SOL    HW234752   0.627   1.492   0.544  1.3696  2.4275 -0.2424
 7765SOL     OW34753   2.441   4.511   2.687  0.0622  0.0033 -0.1189
 7765SOL    HW134754   2.406   4.600   2.690 -0.3164 -0.0897 -1.6662
 7765SOL    HW234755   2.533   4.533   2.671 -0.2430  1.7509  0.5375
 7766SOL     OW34756   2.139   2.256   7.844 -0.9185  0.5384  0.2407
 7766SOL    HW134757   2.228   2.249   7.878 -0.8046  2.8242  0.4623
 7766SOL    HW234758   2.089   2.185   7.884  1.9195 -1.0903  0.8434
 7767SOL     OW34759   0.520   0.276   7.335  0.0114 -0.5234 -0.4271
 7767SOL    HW134760   0.498   0.364   7.367 -1.3528 -1.1282  0.3276
 7767SOL    HW234761   0.591   0.300   7.276 -1.1927 -0.7648 -1.9765
 7768SOL     OW34762   0.607   0.135   7.786  0.1967 -0.0569 -0.0292
 7768SOL    HW134763   0.514   0.113   7.779  0.5049 -1.5402  0.5600
 7768SOL    HW234764   0.617   0.152   7.879 -1.5740 -1.8139  0.4785
 7769SOL     OW34765   2.681   0.984  14.675  0.4521 -0.1408  0.1148
 7769SOL    HW134766   2.629   0.975  14.755  1.1021 -2.4621  0.2759
 7769SOL    HW234767   2.767   0.990  14.715  0.4136  1.6598 -0.0624
 7770SOL     OW34768   4.216   0.992   0.844 -0.1343  0.0966  0.4954
 7770SOL    HW134769   4.193   1.058   0.909  1.4695  0.0077  1.1447
 7770SOL    HW234770   4.130   0.948   0.841  0.0846 -0.2309 -1.0568
 7771SOL     OW34771   2.683   3.532   3.482 -0.3568  0.1883 -0.2955
 7771SOL    HW134772   2.711   3.492   3.399 -0.3402 -1.4698  0.5077
 7771SOL    HW234773   2.767   3.556   3.521 -0.1114  0.5416 -1.0325
 7772SOL     OW34774   4.264   1.664   4.487  0.1233  0.0745 -0.1056
 7772SOL    HW134775   4.344   1.642   4.534  0.3731 -0.3434 -0.7222
 7772SOL    HW234776   4.196   1.636   4.548  0.9736  0.9738  1.2464
 7773SOL     OW34777   2.684   2.655   0.743  0.5926 -0.0559 -0.1287
 7773SOL    HW134778   2.592   2.634   0.727  0.3836 -0.0339  1.0176
 7773SOL    HW234779   2.700   2.720   0.675  0.5834  0.5425  0.4414
 7774SOL     OW34780   2.241   1.758   9.085  0.1215  0.3252  0.1604
 7774SOL    HW134781   2.320   1.705   9.095  0.1886  0.3955  0.0032
 7774SOL    HW234782   2.200   1.732   9.167  0.8190 -2.1233 -0.2862
 7775SOL     OW34783   3.943   3.745   0.207  0.3537 -0.0270  0.3181
 7775SOL    HW134784   4.001   3.718   0.278 -0.0501 -0.8707  0.3286
 7775SOL    HW234785   3.960   3.839   0.204 -1.0061  0.2396  0.8385
 7776SOL     OW34786   1.728   1.403   0.929 -0.3456  1.3548 -0.5764
 7776SOL    HW134787   1.749   1.441   1.014  0.1066 -0.7288  0.2383
 7776SOL    HW234788   1.636   1.426   0.913 -1.2538 -1.0557  1.1154
 7777SOL     OW34789   2.413   1.820   7.603  0.4367 -0.2182 -0.1054
 7777SOL    HW134790   2.383   1.751   7.662 -0.4944 -2.4165 -3.1214
 7777SOL    HW234791   2.351   1.893   7.606  2.3517  1.2816  2.6250
 7778SOL     OW34792   4.692   0.091  12.674  0.4945  0.1053  0.0202
 7778SOL    HW134793   4.645   0.171  12.699  1.2597  0.4275  0.4388
 7778SOL    HW234794   4.655   0.023  12.730 -0.1759  0.8362  0.4724
 7779SOL     OW34795   0.508   4.528   4.920 -0.6988  0.2072 -0.0959
 7779SOL    HW134796   0.596   4.521   4.884 -0.7737  0.2678 -0.2927
 7779SOL    HW234797   0.494   4.440   4.956 -2.6416  0.7767  0.5654
 7780SOL     OW34798   3.873   1.305   3.018 -0.6923  0.2482  0.2101
 7780SOL    HW134799   3.796   1.249   3.009  0.4748 -1.2022 -0.6778
 7780SOL    HW234800   3.882   1.353   2.935 -1.3066 -1.0320 -0.5925
 7781SOL     OW34801   2.196   2.095   5.186 -0.0979  1.1987  0.3471
 7781SOL    HW134802   2.256   2.042   5.239 -2.4699  0.4436  2.2751
 7781SOL    HW234803   2.269   2.153   5.162  0.2622 -0.3529 -2.2618
 7782SOL     OW34804   2.750   1.348  14.354  0.4725 -0.0434  0.1925
 7782SOL    HW134805   2.732   1.263  14.395 -1.1562  0.2182  0.0225
 7782SOL    HW234806   2.665   1.391  14.360 -0.7122 -2.4339  0.7263
 7783SOL     OW34807   4.530   0.189   3.245 -0.3110 -0.2145 -0.0050
 7783SOL    HW134808   4.598   0.253   3.266 -0.5267 -0.1465  0.4761
 7783SOL    HW234809   4.493   0.221   3.162 -1.5510  2.4027  1.5659
 7784SOL     OW34810   3.000   0.902  17.425 -0.4266 -0.1828 -0.7269
 7784SOL    HW134811   3.013   0.942  17.511  0.1034 -1.9024  0.0088
 7784SOL    HW234812   3.065   0.831  17.426  0.3318  0.5277  0.4650
 7785SOL     OW34813   1.542   2.363   5.715  0.6664  0.1552  0.1739
 7785SOL    HW134814   1.482   2.417   5.767 -2.1554 -0.9575 -1.9283
 7785SOL    HW234815   1.559   2.305   5.789  1.8010  1.0567  0.6155
 7786SOL     OW34816   0.497   0.820   2.134 -0.5585 -0.3220 -0.1177
 7786SOL    HW134817   0.504   0.746   2.074 -0.2111 -0.3286 -0.0659
 7786SOL    HW234818   0.466   0.885   2.070  1.1311 -0.6136 -1.2275
 7787SOL     OW34819   3.842   2.929  17.163 -0.6432 -0.0897  0.1889
 7787SOL    HW134820   3.849   2.834  17.156  1.2008  0.1328 -0.9934
 7787SOL    HW234821   3.866   2.944  17.254  1.5101  0.2917 -0.4403
 7788SOL     OW34822   0.616   2.773   7.037 -0.0412  0.1207  0.0458
 7788SOL    HW134823   0.706   2.740   7.037  0.7317  2.2186 -1.6484
 7788SOL    HW234824   0.627   2.858   6.996 -1.8954 -0.1884 -1.1028
 7789SOL     OW34825   2.195   0.457   6.849  0.1198 -0.2312 -0.1985
 7789SOL    HW134826   2.270   0.485   6.902 -0.4557  3.2486 -1.2158
 7789SOL    HW234827   2.159   0.389   6.906 -2.2666  1.7880  0.6703
 7790SOL     OW34828   1.722   2.950   7.226 -0.3341 -0.0418  0.8380
 7790SOL    HW134829   1.633   2.976   7.199  0.8189  1.1225 -1.8319
 7790SOL    HW234830   1.722   2.855   7.213 -1.0019 -0.1020  1.2662
 7791SOL     OW34831   2.685   0.578   4.332 -0.4952 -0.0554  0.3220
 7791SOL    HW134832   2.694   0.593   4.238 -0.6606 -1.5434  0.0764
 7791SOL    HW234833   2.740   0.500   4.336 -0.3756  0.0926  1.7137
 7792SOL     OW34834   3.827   4.658   3.865 -0.0807  0.0785  0.4850
 7792SOL    HW134835   3.741   4.682   3.899 -0.3384  2.1345 -1.5985
 7792SOL    HW234836   3.875   4.632   3.943  1.4466 -1.0149 -0.8086
 7793SOL     OW34837   1.477   4.131   2.720 -0.7090 -0.0777 -0.2869
 7793SOL    HW134838   1.386   4.110   2.696 -1.2237 -1.0607  2.5306
 7793SOL    HW234839   1.513   4.197   2.661 -0.8201 -0.6481 -1.0030
 7794SOL     OW34840   0.794   2.806  17.664 -0.0824 -0.3517 -0.6018
 7794SOL    HW134841   0.841   2.735  17.621 -0.7988 -1.6733  0.8018
 7794SOL    HW234842   0.824   2.793   0.049 -1.1580  1.3858 -0.0037
 7795SOL     OW34843   0.005   3.802   8.782 -0.4377 -0.1853  0.2200
 7795SOL    HW134844   4.663   3.869   8.791  1.5028  1.6650  1.0255
 7795SOL    HW234845   4.676   3.724   8.782  2.2230 -2.0301 -0.0384
 7796SOL     OW34846   0.971   3.937   6.126  0.0922  0.0185 -0.2206
 7796SOL    HW134847   1.016   3.853   6.134 -0.9345 -0.6259 -1.0462
 7796SOL    HW234848   0.927   3.954   6.209  1.2263  2.6458 -0.1523
 7797SOL     OW34849   3.581   3.345  16.027  0.7785 -0.2351  0.2814
 7797SOL    HW134850   3.571   3.304  16.113 -0.6451 -0.4229  0.0249
 7797SOL    HW234851   3.536   3.428  16.040 -2.0655 -1.3844 -2.2017
 7798SOL     OW34852   1.983   1.083  14.594 -0.7586  0.0629 -0.1878
 7798SOL    HW134853   1.918   1.019  14.623 -0.3111 -0.0352  0.5971
 7798SOL    HW234854   1.998   1.131  14.675  0.1214  0.8639 -0.8313
 7799SOL     OW34855   4.524   3.839  13.847 -0.1242  0.1342  0.4757
 7799SOL    HW134856   4.492   3.917  13.891 -4.1105  0.1172 -2.3598
 7799SOL    HW234857   4.597   3.877  13.798  1.5439 -0.9865  2.0601
 7800SOL     OW34858   0.288   1.627  14.015 -0.2089 -0.3059  0.2871
 7800SOL    HW134859   0.341   1.663  14.087 -4.5215  2.0257  2.2595
 7800SOL    HW234860   0.354   1.561  13.990  0.3539  0.3112  0.1386
 7801SOL     OW34861   3.611   2.153   3.545  0.1987 -0.1860 -0.7401
 7801SOL    HW134862   3.570   2.097   3.611 -0.7334  1.3710  0.0288
 7801SOL    HW234863   3.579   2.238   3.576 -1.8767 -1.2416  0.0341
 7802SOL     OW34864   3.367   1.913   3.985  0.1505 -0.4652  0.4969
 7802SOL    HW134865   3.394   1.821   3.981  1.9178  0.1247 -1.0859
 7802SOL    HW234866   3.396   1.933   4.074  3.5232  1.4729 -1.0439
 7803SOL     OW34867   0.953   0.782  13.119  0.0856  0.2265 -0.2611
 7803SOL    HW134868   1.012   0.857  13.112 -1.3501  1.5460  1.7848
 7803SOL    HW234869   0.879   0.809  13.064  0.2892  2.3040  0.4861
 7804SOL     OW34870   1.654   3.197   3.414 -0.4426 -0.5664  0.0077
 7804SOL    HW134871   1.697   3.162   3.492  0.6344 -1.4867 -1.0054
 7804SOL    HW234872   1.632   3.282   3.453 -0.7138 -0.4244 -0.4650
 7805SOL     OW34873   0.297   3.982   6.060  0.2515  0.3185  0.1960
 7805SOL    HW134874   0.307   4.068   6.017 -0.2783  0.3624  0.1526
 7805SOL    HW234875   0.356   3.931   6.004  0.7094  0.7330  0.2987
 7806SOL     OW34876   3.284   4.574  14.630  0.1464 -0.8656  0.4390
 7806SOL    HW134877   3.328   4.590  14.547 -0.3577  0.5706  0.4481
 7806SOL    HW234878   3.217   4.642  14.640 -2.0303 -2.5743 -2.4551
 7807SOL     OW34879   2.523   1.342   0.859  0.0178  0.1006 -0.6282
 7807SOL    HW134880   2.495   1.392   0.935  0.6688  0.4422 -0.6099
 7807SOL    HW234881   2.617   1.359   0.870 -0.3139 -0.8349  3.6057
 7808SOL     OW34882   1.409   1.917  10.268  0.6456  0.4950  0.5072
 7808SOL    HW134883   1.390   1.930  10.175 -1.0058  1.7496  1.0018
 7808SOL    HW234884   1.406   2.011  10.286 -1.0981  0.5966 -0.2466
 7809SOL     OW34885   1.700   1.422   5.720  0.0371 -0.2172  0.4272
 7809SOL    HW134886   1.787   1.426   5.759 -0.0396 -2.0224  0.7594
 7809SOL    HW234887   1.671   1.511   5.741  1.6944  0.1540  1.1818
 7810SOL     OW34888   0.205   4.652   4.049  0.4750 -0.1403 -0.3639
 7810SOL    HW134889   0.221   0.015   4.017 -0.1946 -0.0507 -0.4468
 7810SOL    HW234890   0.279   4.605   4.010  0.5922 -0.4895  0.2811
 7811SOL     OW34891   1.130   2.000   3.894  0.2967  0.9055 -1.6513
 7811SOL    HW134892   1.059   2.051   3.856 -1.7083 -2.1658 -2.0157
 7811SOL    HW234893   1.081   1.923   3.921 -0.5950  1.6632 -1.0859
 7812SOL     OW34894   3.765   4.713   7.629 -0.0422  0.0401  0.3113
 7812SOL    HW134895   3.842   0.039   7.653  0.5924 -1.0756  0.6779
 7812SOL    HW234896   3.697   0.045   7.594  1.8617  1.9079 -0.2538
 7813SOL     OW34897   1.205   0.077   8.851  0.2839 -0.0586  0.9375
 7813SOL    HW134898   1.121   0.088   8.806 -0.0627  0.6770  1.7699
 7813SOL    HW234899   1.200   4.708   8.863 -2.2245  0.0108  0.3899
 7814SOL     OW34900   0.153   4.366   9.120  0.1179 -0.1420 -1.0405
 7814SOL    HW134901   0.147   4.293   9.182 -0.7806 -0.6671 -1.7315
 7814SOL    HW234902   0.219   4.426   9.154 -0.1763  0.0356 -0.7903
 7815SOL     OW34903   2.932   2.377   7.376 -0.1375 -0.0113 -0.3114
 7815SOL    HW134904   2.950   2.443   7.443  1.0107 -0.9497  0.3217
 7815SOL    HW234905   2.847   2.343   7.404  0.5147 -1.0748  0.3702
 7816SOL     OW34906   1.509   3.429   8.530  0.5550 -0.9056  0.5965
 7816SOL    HW134907   1.503   3.468   8.618  1.4522 -2.1706  1.2220
 7816SOL    HW234908   1.600   3.454   8.514 -0.6317  2.0400 -1.4794
 7817SOL     OW34909   4.524   0.549   2.433 -0.0570  0.7460 -0.0069
 7817SOL    HW134910   4.561   0.522   2.350 -0.8481  0.5815 -0.3051
 7817SOL    HW234911   4.539   0.469   2.483  0.8217  1.3722  0.7383
 7818SOL     OW34912   4.540   0.113  15.083  0.3671  0.5866  0.5302
 7818SOL    HW134913   4.559   0.169  15.159  0.1827  1.3226  0.0312
 7818SOL    HW234914   4.593   0.158  15.017  0.2355 -0.0795 -0.0276
 7819SOL     OW34915   0.756   1.676  14.991  0.0294 -0.0721  0.4395
 7819SOL    HW134916   0.797   1.660  15.076  1.5635 -1.2919 -0.5426
 7819SOL    HW234917   0.664   1.683  15.016 -0.0326 -1.1897  0.5005
 7820SOL     OW34918   2.674   1.061   5.161 -0.0806 -0.4689  0.2950
 7820SOL    HW134919   2.677   1.004   5.239  0.8444 -0.1000  0.5305
 7820SOL    HW234920   2.739   1.122   5.197 -0.5559 -0.6044  1.3892
 7821SOL     OW34921   1.556   0.723   0.085 -0.1327 -0.1189 -0.3385
 7821SOL    HW134922   1.556   0.628   0.071  0.9532 -0.1733  0.0023
 7821SOL    HW234923   1.564   0.725   0.181 -0.9568 -2.3373 -0.2218
 7822SOL     OW34924   1.864   4.309   4.958 -0.2213  0.3001 -0.2918
 7822SOL    HW134925   1.890   4.233   5.009  2.3175  1.0952 -0.3857
 7822SOL    HW234926   1.905   4.288   4.874  1.8820 -1.7795  1.2781
 7823SOL     OW34927   3.095   1.033   3.603 -0.5411  0.7260 -0.4267
 7823SOL    HW134928   3.008   1.071   3.594 -1.9077 -2.3020  0.1245
 7823SOL    HW234929   3.140   1.106   3.560 -0.1026  0.0553 -1.1011
 7824SOL     OW34930   2.662   1.960   6.807  0.3895  0.5524 -0.2173
 7824SOL    HW134931   2.667   1.988   6.898  2.9771 -0.4238 -0.0458
 7824SOL    HW234932   2.754   1.960   6.779  0.7217  0.7875  0.8660
 7825SOL     OW34933   3.887   1.870   3.268 -0.2741  0.1093 -0.0540
 7825SOL    HW134934   3.913   1.894   3.179  1.6820 -0.8115  0.2733
 7825SOL    HW234935   3.965   1.827   3.303 -0.5461  2.4666  3.4651
 7826SOL     OW34936   3.644   3.192   8.949 -0.2234  0.0746 -0.4096
 7826SOL    HW134937   3.572   3.162   8.894  0.5396  0.0270 -1.3762
 7826SOL    HW234938   3.627   3.145   9.031  1.6410 -0.0911 -0.1012
 7827SOL     OW34939   0.510   1.670   3.539 -0.3983 -0.3561 -0.9047
 7827SOL    HW134940   0.436   1.725   3.513  0.1764  1.0157  0.3768
 7827SOL    HW234941   0.477   1.625   3.617  0.8065 -2.1868 -1.4574
 7828SOL     OW34942   4.156   4.262   4.843  0.2128  0.7310 -0.2504
 7828SOL    HW134943   4.174   4.239   4.934 -0.6501 -0.0304 -0.2713
 7828SOL    HW234944   4.144   4.176   4.803  1.9235  0.8797 -1.1001
 7829SOL     OW34945   0.254   2.973   5.335 -0.8315  0.2643  0.1636
 7829SOL    HW134946   0.321   3.037   5.310 -1.9679  0.5869 -2.0585
 7829SOL    HW234947   0.178   3.032   5.335 -2.3535 -1.7075  0.0043
 7830SOL     OW34948   2.091   0.887   0.212  0.5853  0.5100  0.3618
 7830SOL    HW134949   2.080   0.792   0.203 -1.4924  0.9439 -1.5831
 7830SOL    HW234950   2.021   0.899   0.277  1.1336 -0.4832  1.1417
 7831SOL     OW34951   3.962   0.702   7.812  0.8364  0.1668 -0.3284
 7831SOL    HW134952   4.033   0.670   7.869  1.8998  1.7865 -0.7375
 7831SOL    HW234953   3.947   0.630   7.751  0.9598 -1.1626  1.1910
 7832SOL     OW34954   4.609   3.988   8.408 -0.2073 -0.0596 -0.0191
 7832SOL    HW134955   4.683   3.936   8.375 -0.6046 -1.3324  1.1295
 7832SOL    HW234956   4.648   4.075   8.411 -0.1280 -0.0359 -1.5611
 7833SOL     OW34957   1.664   0.261   6.170 -0.4270 -0.5465  0.1266
 7833SOL    HW134958   1.706   0.176   6.186  0.2623 -0.1687  0.3380
 7833SOL    HW234959   1.649   0.249   6.076  1.7782 -0.4255 -0.2416
 7834SOL     OW34960   3.318   3.700   6.807 -0.2587  0.5317  0.1013
 7834SOL    HW134961   3.335   3.690   6.713  0.2094 -0.0764  0.2531
 7834SOL    HW234962   3.271   3.783   6.801 -1.7164 -0.2180  1.1443
 7835SOL     OW34963   1.802   1.148   3.075 -0.0834 -0.5610  0.0961
 7835SOL    HW134964   1.834   1.106   2.995 -0.6219  0.7429 -0.8089
 7835SOL    HW234965   1.731   1.096   3.113 -0.6579  2.0168  2.5286
 7836SOL     OW34966   3.274   1.833   1.491 -0.0848 -0.0554  0.6005
 7836SOL    HW134967   3.206   1.901   1.482 -1.1531 -1.0230  1.3155
 7836SOL    HW234968   3.209   1.763   1.494 -0.0607 -0.0877  0.3443
 7837SOL     OW34969   2.617   1.379   1.652 -0.1807  0.3678  0.1714
 7837SOL    HW134970   2.569   1.398   1.732 -0.2585  2.3669 -0.3551
 7837SOL    HW234971   2.650   1.293   1.678  1.0341  0.9300  0.4815
 7838SOL     OW34972   1.532   0.891   1.033  0.7434 -0.2114  0.0402
 7838SOL    HW134973   1.570   0.958   1.090 -1.8625  0.9366  0.4084
 7838SOL    HW234974   1.611   0.836   1.032  1.7539  1.2238 -0.1799
 7839SOL     OW34975   0.720   3.759   1.446  0.3337 -0.5345 -0.2941
 7839SOL    HW134976   0.760   3.709   1.517  0.0773  0.7749  0.7695
 7839SOL    HW234977   0.661   3.691   1.411 -0.6729  0.9535 -1.4770
 7840SOL     OW34978   4.605   3.476   3.407 -0.2000 -0.4236 -0.4658
 7840SOL    HW134979   4.663   3.473   3.330 -1.3843  0.5884 -1.3968
 7840SOL    HW234980   4.552   3.555   3.395 -0.4157 -0.5428 -0.3031
 7841SOL     OW34981   3.655   2.603   5.501  0.1675  0.1304 -0.8628
 7841SOL    HW134982   3.726   2.653   5.541 -0.7550  1.0088 -0.3164
 7841SOL    HW234983   3.609   2.584   5.583  1.9868 -0.5566 -0.0051
 7842SOL     OW34984   1.421   0.096  17.275  0.4463  0.1528 -0.0999
 7842SOL    HW134985   1.460   0.168  17.224  0.1034  1.5463  1.6226
 7842SOL    HW234986   1.496   0.038  17.287 -1.6211 -2.5822 -0.4618
 7843SOL     OW34987   2.610   0.966   6.151  0.0315  0.2182 -0.1944
 7843SOL    HW134988   2.617   0.976   6.246 -1.0310  1.4324 -0.2475
 7843SOL    HW234989   2.570   0.879   6.141  2.7387 -0.7783 -2.3152
 7844SOL     OW34990   0.706   2.984   5.221  0.6627 -0.7350 -0.2487
 7844SOL    HW134991   0.663   2.925   5.283 -0.6897  0.6234  0.1000
 7844SOL    HW234992   0.747   2.922   5.162  0.2644 -1.3357  0.1035
 7845SOL     OW34993   3.332   4.114   3.902  0.2524  0.1268 -0.8240
 7845SOL    HW134994   3.379   4.085   3.823 -0.3591 -1.8525 -0.4603
 7845SOL    HW234995   3.387   4.190   3.920  4.1406 -2.6812 -0.6544
 7846SOL     OW34996   1.046   1.913  13.125 -0.3546 -0.0768 -0.5860
 7846SOL    HW134997   0.999   1.831  13.112 -3.0725  1.3123  0.4668
 7846SOL    HW234998   1.110   1.889  13.058  1.2781 -1.9656  1.6657
 7847SOL     OW34999   3.636   3.842   8.198  0.2102 -0.4696  0.6042
 7847SOL    HW135000   3.601   3.753   8.200 -1.0194  0.0074  0.5414
 7847SOL    HW235001   3.561   3.902   8.192  0.8894  0.4268  1.0158
 7848SOL     OW35002   4.233   3.593   8.676 -0.2186  0.1093 -0.1936
 7848SOL    HW135003   4.260   3.514   8.723  0.0946  0.8236  0.8338
 7848SOL    HW235004   4.156   3.622   8.725 -0.4298  0.2429 -0.6074
 7849SOL     OW35005   1.482   0.141  15.989 -0.1180  0.1187  0.0420
 7849SOL    HW135006   1.436   0.069  15.946 -0.2360  1.0516 -1.3967
 7849SOL    HW235007   1.462   0.217  15.935  2.8840  0.1683 -1.0309
 7850SOL     OW35008   4.412   0.513  16.870 -0.0164 -0.1989 -0.4121
 7850SOL    HW135009   4.446   0.597  16.899  2.7771 -1.9936  1.5573
 7850SOL    HW235010   4.378   0.534  16.784  3.1029  2.0101 -1.1015
 7851SOL     OW35011   4.360   2.378   7.669 -0.1606 -0.2902  0.0061
 7851SOL    HW135012   4.305   2.356   7.744  1.7956  0.1670  1.5887
 7851SOL    HW235013   4.387   2.458   7.714  0.3592 -0.8321  0.6595
 7852SOL     OW35014   3.501   0.377  11.327  0.0423  0.2876 -0.3535
 7852SOL    HW135015   3.522   0.419  11.243  2.7959  0.0217  0.1990
 7852SOL    HW235016   3.447   0.445  11.368  0.7995 -0.5737  2.0432
 7853SOL     OW35017   2.975   4.487   6.285 -0.0538 -0.4992  0.0574
 7853SOL    HW135018   2.965   4.545   6.209  0.7350 -0.0812  0.2651
 7853SOL    HW235019   3.020   4.545   6.346  2.8262 -1.0984 -1.4752
 7854SOL     OW35020   2.715   2.396   4.426 -0.0206 -0.3599 -0.8850
 7854SOL    HW135021   2.807   2.386   4.400  0.4809 -1.0488  1.1793
 7854SOL    HW235022   2.729   2.380   4.519 -1.3218 -2.0169 -0.9950
 7855SOL     OW35023   2.236   1.511   5.238  0.3110  0.7687 -0.0620
 7855SOL    HW135024   2.219   1.448   5.168 -0.9980  0.4373  0.5538
 7855SOL    HW235025   2.178   1.584   5.215  1.0605  1.2723 -0.3668
 7856SOL     OW35026   2.760   1.386   4.564 -0.1212 -0.4088  0.3429
 7856SOL    HW135027   2.851   1.368   4.588 -0.3670 -2.7477 -0.4848
 7856SOL    HW235028   2.733   1.441   4.639  0.3599 -2.6593  2.1551
 7857SOL     OW35029   2.141   1.457   3.447  0.5285 -0.1390 -0.5536
 7857SOL    HW135030   2.179   1.402   3.378  0.6900  1.2378 -1.5667
 7857SOL    HW235031   2.112   1.532   3.394 -1.4790  0.1150  0.8893
 7858SOL     OW35032   3.024   1.400  16.089 -0.3009 -0.2527  0.7187
 7858SOL    HW135033   3.117   1.413  16.072 -0.5211  0.3806  0.0064
 7858SOL    HW235034   3.022   1.354  16.173 -1.4982  2.1991  2.0273
 7859SOL     OW35035   3.984   4.504   4.507  0.0128 -0.2209  0.4922
 7859SOL    HW135036   3.974   4.477   4.598 -0.9272 -2.8831 -0.4255
 7859SOL    HW235037   4.068   4.548   4.521  0.3416 -0.8708  0.5644
 7860SOL     OW35038   3.476   1.900   7.378  0.0327  0.2605 -0.0562
 7860SOL    HW135039   3.469   1.950   7.459 -2.0177  2.3494 -1.5167
 7860SOL    HW235040   3.566   1.912   7.350  0.4967 -1.4563  0.6736
 7861SOL     OW35041   1.381   0.445  14.429 -0.3296 -0.1224  0.1660
 7861SOL    HW135042   1.335   0.500  14.366 -1.4334 -1.7973 -0.4978
 7861SOL    HW235043   1.392   0.368  14.372 -2.1725 -1.9411  2.2491
 7862SOL     OW35044   2.028   1.661   3.270 -0.0016 -0.4696 -0.4920
 7862SOL    HW135045   1.967   1.588   3.261 -2.2067  1.4652 -1.2038
 7862SOL    HW235046   1.995   1.732   3.215  0.4435  0.0932 -0.0304
 7863SOL     OW35047   2.269   1.916   4.321  0.2689  0.5081 -0.0790
 7863SOL    HW135048   2.326   1.909   4.244 -0.3249 -0.7350 -0.4043
 7863SOL    HW235049   2.201   1.978   4.296 -0.4209  0.0529  0.6940
 7864SOL     OW35050   0.995   4.007  13.728  0.3646 -0.3954 -0.2370
 7864SOL    HW135051   0.969   4.086  13.681  0.3811  0.4742  1.2142
 7864SOL    HW235052   1.043   4.053  13.797 -0.9102 -2.2734  1.9343
 7865SOL     OW35053   1.130   4.660   4.227  0.4019 -0.1798  0.1591
 7865SOL    HW135054   1.138   4.635   4.319 -0.9280  1.6687  0.7991
 7865SOL    HW235055   1.100   0.025   4.237  0.7776  0.0735 -0.9815
 7866SOL     OW35056   0.591   2.862   5.764  0.6042 -0.0544 -0.1094
 7866SOL    HW135057   0.658   2.832   5.826 -1.0511 -0.3980  1.5123
 7866SOL    HW235058   0.515   2.808   5.785  0.7999  0.0556  0.8941
 7867SOL     OW35059   1.985   4.111   4.279 -0.2106 -0.3721 -0.0446
 7867SOL    HW135060   1.993   4.027   4.324 -0.3062  0.0818  0.8192
 7867SOL    HW235061   2.068   4.117   4.232 -0.5523 -2.1720 -0.8363
 7868SOL     OW35062   2.738   0.728   8.393 -0.0263  0.3778 -0.5157
 7868SOL    HW135063   2.719   0.821   8.402  1.4863  0.7970 -1.5447
 7868SOL    HW235064   2.659   0.694   8.352 -1.0127  0.3305  1.4707
 7869SOL     OW35065   2.209   0.388   8.305 -0.0147  0.0170 -0.6086
 7869SOL    HW135066   2.272   0.429   8.364  0.8973 -1.6914 -0.3969
 7869SOL    HW235067   2.217   0.297   8.332 -3.7284 -0.7145 -1.9873
 7870SOL     OW35068   1.769   1.283  14.012 -0.2617 -0.2441 -0.0659
 7870SOL    HW135069   1.728   1.218  13.954  1.5868 -0.9325 -0.5954
 7870SOL    HW235070   1.841   1.307  13.954  0.7797 -1.1651  0.8626
 7871SOL     OW35071   3.815   0.371   5.745  0.4528 -0.5265 -0.4552
 7871SOL    HW135072   3.852   0.301   5.692  1.3728 -0.1233 -0.3491
 7871SOL    HW235073   3.756   0.409   5.680 -0.0825 -1.6598 -0.6139
 7872SOL     OW35074   0.070   0.475  16.205 -0.5173 -0.1180  0.1220
 7872SOL    HW135075   0.075   0.394  16.155  1.0244  0.8343 -1.2935
 7872SOL    HW235076   0.107   0.538  16.142 -0.8639  0.6635  0.7008
 7873SOL     OW35077   2.090   3.506   8.307  0.1651 -0.5819 -0.3463
 7873SOL    HW135078   2.161   3.568   8.326 -0.7801  0.5584 -0.5192
 7873SOL    HW235079   2.133   3.429   8.271  2.0096 -1.4111  3.6484
 7874SOL     OW35080   2.452   0.605  15.713 -0.3081  0.1037 -0.3501
 7874SOL    HW135081   2.450   0.567  15.625 -1.5559 -0.2488 -0.1642
 7874SOL    HW235082   2.477   0.536  15.773 -1.5088  0.9733  1.1417
 7875SOL     OW35083   1.370   0.633   5.658  0.7039  0.5411  0.4881
 7875SOL    HW135084   1.457   0.651   5.694  0.6005  2.2745 -0.1810
 7875SOL    HW235085   1.327   0.715   5.682 -0.2698  0.3926 -0.8263
 7876SOL     OW35086   4.491   0.833  13.258  0.0317  0.1229 -0.0974
 7876SOL    HW135087   4.560   0.891  13.228 -0.4679  2.2062  2.7912
 7876SOL    HW235088   4.423   0.830  13.191 -0.2142  1.4165  0.1062
 7877SOL     OW35089   2.531   1.475   5.046 -0.1654 -0.3128 -0.2017
 7877SOL    HW135090   2.493   1.421   4.977  1.3995 -2.2209  0.4641
 7877SOL    HW235091   2.450   1.496   5.094  0.6298  0.8860  0.6185
 7878SOL     OW35092   3.894   1.366   8.742 -0.2412 -0.7184 -0.0840
 7878SOL    HW135093   3.849   1.407   8.668  1.4897  0.8069 -0.2822
 7878SOL    HW235094   3.871   1.436   8.802  1.9472  1.7789 -2.1718
 7879SOL     OW35095   3.094   1.151   9.287 -0.2774  0.2879 -0.1765
 7879SOL    HW135096   3.026   1.217   9.302 -0.9365 -0.6395  0.9466
 7879SOL    HW235097   3.049   1.073   9.255  1.4247 -0.3326 -1.0309
 7880SOL     OW35098   4.665   3.254   7.570 -0.1392  0.1271 -0.4893
 7880SOL    HW135099   4.713   3.182   7.612 -0.0774  0.9610  0.8844
 7880SOL    HW235100   4.682   3.318   7.640  2.0689 -0.3490 -0.5703
 7881SOL     OW35101   4.476   2.510   2.351  0.2353  0.7954 -0.2660
 7881SOL    HW135102   4.390   2.503   2.310 -0.4707 -0.0497  1.3657
 7881SOL    HW235103   4.491   2.602   2.374 -0.6668  0.5464  1.3080
 7882SOL     OW35104   0.082   4.654   7.500 -0.1569 -0.4571 -0.5497
 7882SOL    HW135105   0.134   0.006   7.482 -2.4555  0.9448 -1.2383
 7882SOL    HW235106   0.052   4.621   7.415 -2.1909  0.1798 -0.0938
 7883SOL     OW35107   4.376   2.812   2.717  0.2690 -0.1178  0.2805
 7883SOL    HW135108   4.295   2.862   2.708  0.4775  0.4328  1.4677
 7883SOL    HW235109   4.354   2.765   2.797  0.7574 -1.0631 -0.1343
 7884SOL     OW35110   1.030   4.408  17.358  0.5135 -0.3023 -0.1180
 7884SOL    HW135111   1.044   4.313  17.351  0.0954 -0.4662  1.4562
 7884SOL    HW235112   0.994   4.422  17.270  0.0254 -0.7297  0.0127
 7885SOL     OW35113   3.804   0.348  13.257  0.3903  0.1925 -1.1375
 7885SOL    HW135114   3.744   0.409  13.299  0.5118  0.4674 -1.3689
 7885SOL    HW235115   3.738   0.283  13.233  0.7326  0.1614 -1.9857
 7886SOL     OW35116   1.967   4.257   6.463  0.0210  0.0494  0.1108
 7886SOL    HW135117   2.026   4.242   6.390 -1.4066  1.5073 -1.3437
 7886SOL    HW235118   1.927   4.171   6.472 -2.0740  0.9704 -0.4555
 7887SOL     OW35119   2.545   0.096   0.313  0.0578 -0.2277 -0.2465
 7887SOL    HW135120   2.483   0.059   0.376 -0.0838  2.1411  1.0255
 7887SOL    HW235121   2.509   0.058   0.234 -0.3989  0.2420 -0.2642
 7888SOL     OW35122   0.069   0.053  14.567 -0.0055  0.6825  0.1500
 7888SOL    HW135123   0.068   4.685  14.583 -0.3392  0.3930 -1.5127
 7888SOL    HW235124   4.704   0.069  14.538  0.4291  2.3575 -0.3415
 7889SOL     OW35125   0.780   1.102   3.102  0.0795 -0.3913 -0.2833
 7889SOL    HW135126   0.845   1.101   3.032 -0.9931  0.3247 -1.2897
 7889SOL    HW235127   0.746   1.191   3.090 -1.1260 -0.6175  1.4907
 7890SOL     OW35128   1.960   2.457   5.390  0.3199 -0.2713 -0.3234
 7890SOL    HW135129   1.942   2.549   5.408 -0.7954 -0.2439 -1.5222
 7890SOL    HW235130   1.941   2.425   5.478 -1.3948  1.7970  0.0653
 7891SOL     OW35131   4.613   0.975   2.038 -0.0518 -0.1543 -0.6509
 7891SOL    HW135132   4.664   1.054   2.019  0.8647 -0.6779 -0.3701
 7891SOL    HW235133   4.688   0.922   2.065  0.3990 -0.5912 -2.7038
 7892SOL     OW35134   0.231   4.095   3.873  0.3963  0.4401 -1.2379
 7892SOL    HW135135   0.320   4.099   3.909  0.5280 -1.1091 -1.4104
 7892SOL    HW235136   0.233   4.004   3.843  2.5070 -1.0694  3.4226
 7893SOL     OW35137   3.769   1.436   2.512 -0.0925 -0.0746 -0.1241
 7893SOL    HW135138   3.776   1.482   2.428  0.9102 -0.1649 -0.0837
 7893SOL    HW235139   3.860   1.411   2.524  0.2740  1.3285  0.0108
 7894SOL     OW35140   4.584   4.302   3.083 -0.6483  0.1919  0.1893
 7894SOL    HW135141   4.518   4.235   3.096 -0.3512 -0.0923  0.2287
 7894SOL    HW235142   4.529   4.381   3.086 -0.1092  0.4805  2.6080
 7895SOL     OW35143   0.579   0.535   6.903  0.4139 -0.2521  0.6571
 7895SOL    HW135144   0.491   0.565   6.923 -0.0257 -0.7704 -0.5496
 7895SOL    HW235145   0.570   0.441   6.918 -1.6500 -0.2003 -0.3804
 7896SOL     OW35146   1.518   1.136  10.660  0.3166 -0.0909  0.7069
 7896SOL    HW135147   1.457   1.068  10.632  1.9182 -1.3636  0.2828
 7896SOL    HW235148   1.573   1.084  10.719  0.1799 -0.8748  0.1416
 7897SOL     OW35149   4.146   0.722   6.126 -0.0485  0.2870  0.3312
 7897SOL    HW135150   4.238   0.702   6.108 -0.1945  2.4271 -2.6886
 7897SOL    HW235151   4.120   0.779   6.054  0.0703 -1.1364 -0.8634
 7898SOL     OW35152   4.671   0.055   8.088 -0.0484  0.1915  0.5750
 7898SOL    HW135153   0.022   0.046   8.144  1.2640  0.6557 -1.1813
 7898SOL    HW235154   4.643   4.690   8.078 -1.5994  0.7702 -0.4090
 7899SOL     OW35155   2.414   2.061   4.632 -0.0764  0.0344 -0.4518
 7899SOL    HW135156   2.442   2.043   4.721  0.2390  1.1571 -0.3248
 7899SOL    HW235157   2.459   2.002   4.571 -0.0891 -0.2622 -0.1710
 7900SOL     OW35158   4.259   4.591   2.789  0.6345 -0.1235 -0.1902
 7900SOL    HW135159   4.224   4.509   2.825  0.7134 -0.4024 -0.7455
 7900SOL    HW235160   4.189   4.612   2.727 -0.5656 -0.4431  1.0592
 7901SOL     OW35161   1.359   3.524  12.523 -0.6228 -0.3986  0.6239
 7901SOL    HW135162   1.317   3.538  12.438  0.0872 -1.6658  0.0640
 7901SOL    HW235163   1.388   3.435  12.504 -0.2053 -0.3063  0.8211
 7902SOL     OW35164   2.756   3.696  11.739  0.1182  0.1664 -0.6749
 7902SOL    HW135165   2.763   3.654  11.653  0.0969  0.9177 -1.0445
 7902SOL    HW235166   2.839   3.674  11.781 -0.6394  2.3550  1.9513
 7903SOL     OW35167   4.693   3.236   8.020 -0.3976 -0.3970 -0.7347
 7903SOL    HW135168   4.703   3.158   7.966  2.9213 -0.6759  0.2883
 7903SOL    HW235169   4.702   3.194   8.106 -0.1809 -0.5716 -0.8455
 7904SOL     OW35170   2.222   1.420   4.742 -0.2056 -0.1003 -0.1029
 7904SOL    HW135171   2.263   1.506   4.732 -0.0158  0.0136  1.6781
 7904SOL    HW235172   2.216   1.393   4.651 -0.3542  1.6415 -0.6077
 7905SOL     OW35173   3.660   3.250   7.516  0.0222 -0.2414  0.0258
 7905SOL    HW135174   3.580   3.224   7.470  0.1606 -3.1858  1.4449
 7905SOL    HW235175   3.729   3.195   7.479  0.3544  1.7956 -2.3331
 7906SOL     OW35176   1.591   1.671   6.920 -0.2938 -0.0012  0.0611
 7906SOL    HW135177   1.534   1.663   6.843 -0.0604  0.9826 -0.2103
 7906SOL    HW235178   1.548   1.740   6.971 -0.5747  0.2427 -0.5071
 7907SOL     OW35179   2.782   1.854   5.842 -0.5083  0.3996  0.1258
 7907SOL    HW135180   2.761   1.915   5.771  0.7051 -1.2235 -1.6029
 7907SOL    HW235181   2.848   1.905   5.890 -0.2821 -1.9055  2.2685
 7908SOL     OW35182   2.246   4.542   1.837 -0.2715 -0.0674 -0.4577
 7908SOL    HW135183   2.305   4.467   1.825  0.4396  0.3805  0.2073
 7908SOL    HW235184   2.309   4.610   1.814  0.6035 -0.5428  0.5239
 7909SOL     OW35185   3.811   0.946   4.413  0.2852 -0.0377  0.2138
 7909SOL    HW135186   3.863   0.979   4.340 -2.0724 -0.7983 -1.8066
 7909SOL    HW235187   3.782   1.029   4.451 -2.1757 -0.2573 -1.1773
 7910SOL     OW35188   3.339   4.577  14.885  0.1433 -0.1204 -0.0533
 7910SOL    HW135189   3.339   4.586  14.790 -0.2577  0.3913 -0.0019
 7910SOL    HW235190   3.406   4.645  14.898  1.7715 -1.9373  1.0853
 7911SOL     OW35191   0.675   4.150   0.092  0.0660  0.2530 -0.3119
 7911SOL    HW135192   0.635   4.205   0.024 -0.0068  0.8183  0.1983
 7911SOL    HW235193   0.767   4.167   0.075 -0.0191  0.5311 -0.4963
 7912SOL     OW35194   1.741   2.633   4.554  0.4116  0.3294 -0.2699
 7912SOL    HW135195   1.657   2.589   4.539  1.2900 -1.3416 -0.3012
 7912SOL    HW235196   1.809   2.566   4.561 -1.1479 -1.0467  1.9092
 7913SOL     OW35197   1.689   0.063  13.434  0.6714 -0.5825 -0.2332
 7913SOL    HW135198   1.769   0.098  13.395 -0.1736  1.9068  0.3067
 7913SOL    HW235199   1.625   0.104  13.376  0.0967 -1.5197 -0.2657
 7914SOL     OW35200   4.264   4.220   1.762  0.4143  0.6376 -0.5464
 7914SOL    HW135201   4.259   4.287   1.694 -0.6014  0.3046 -0.7982
 7914SOL    HW235202   4.341   4.247   1.812  0.0908 -2.8689  1.8864
 7915SOL     OW35203   4.602   1.113   3.569  0.5247  0.4517  0.6886
 7915SOL    HW135204   4.650   1.036   3.600  0.2072 -0.7151 -1.7088
 7915SOL    HW235205   4.681   1.168   3.569  2.0770 -1.7574 -1.1093
 7916SOL     OW35206   2.714   0.715  17.033  0.0902  0.2304  0.1739
 7916SOL    HW135207   2.738   0.775  17.102  1.0591 -0.2149  0.2221
 7916SOL    HW235208   2.624   0.734  17.004  0.1977  0.4714  0.0031
 7917SOL     OW35209   2.310   0.490   2.800 -0.0386 -0.3095  0.2875
 7917SOL    HW135210   2.315   0.582   2.773  2.2513 -0.4962  0.0590
 7917SOL    HW235211   2.260   0.452   2.728  0.0495  2.9237 -1.4861
 7918SOL     OW35212   3.407   1.233   9.070  0.2141 -0.2266 -0.0744
 7918SOL    HW135213   3.398   1.190   9.155 -0.3906  0.3229  0.1370
 7918SOL    HW235214   3.375   1.165   9.011 -0.8899  1.0287 -0.8952
 7919SOL     OW35215   1.057   3.246   1.925  0.1647  0.3411 -0.4519
 7919SOL    HW135216   0.981   3.297   1.954 -0.1659  0.5088 -1.6122
 7919SOL    HW235217   1.125   3.314   1.924  0.3546  0.1650  0.3296
 7920SOL     OW35218   3.778   1.198  10.377 -0.5803  0.6375  0.0032
 7920SOL    HW135219   3.774   1.104  10.395  1.2379  0.4602 -0.4616
 7920SOL    HW235220   3.731   1.194  10.294 -0.4749  0.9482 -0.0716
 7921SOL     OW35221   3.294   3.364  12.554 -0.1857 -0.1741  0.3454
 7921SOL    HW135222   3.363   3.368  12.619  1.6385  0.6175 -1.6498
 7921SOL    HW235223   3.215   3.369  12.607 -1.7773  2.0658 -2.2308
 7922SOL     OW35224   0.451   0.605   5.895  0.4802  0.3028 -0.5290
 7922SOL    HW135225   0.455   0.533   5.958 -1.4826 -0.3148 -1.0802
 7922SOL    HW235226   0.521   0.664   5.921 -0.5445  1.5329 -0.5344
 7923SOL     OW35227   3.965   2.390  15.966  0.3270  0.5876 -0.3274
 7923SOL    HW135228   4.007   2.309  15.936  0.3380  0.4982 -0.0751
 7923SOL    HW235229   3.998   2.394  16.056 -1.4837  1.7553  0.2792
 7924SOL     OW35230   1.806   0.331  14.218  0.6611 -0.5030 -0.2119
 7924SOL    HW135231   1.785   0.314  14.310  0.3583 -2.0709 -0.5755
 7924SOL    HW235232   1.780   0.243  14.193 -1.6575  0.1484 -0.1045
 7925SOL     OW35233   1.789   3.155   1.465 -0.3925 -0.3085  0.4609
 7925SOL    HW135234   1.837   3.213   1.407 -0.3968 -1.8967 -1.1305
 7925SOL    HW235235   1.721   3.214   1.497  0.6954  0.5775  1.1384
 7926SOL     OW35236   1.454   2.141   4.409  0.0324 -0.0634 -0.3731
 7926SOL    HW135237   1.400   2.164   4.485 -0.5486  0.2846 -0.8998
 7926SOL    HW235238   1.515   2.077   4.446 -0.4241 -0.3587 -0.1312
 7927SOL     OW35239   3.147   2.350   2.313  0.0019  1.0104 -0.1627
 7927SOL    HW135240   3.160   2.394   2.397 -0.1729  0.2144  0.2744
 7927SOL    HW235241   3.074   2.403   2.281  0.3164  1.0856 -0.7497
 7928SOL     OW35242   1.880   3.282   4.938 -0.2764  0.1688 -0.5175
 7928SOL    HW135243   1.916   3.370   4.948 -2.0796  0.7792  0.5415
 7928SOL    HW235244   1.797   3.311   4.900 -0.0624 -1.6848 -2.4236
 7929SOL     OW35245   1.195   2.112  10.417  0.2084  0.5205 -0.3064
 7929SOL    HW135246   1.162   2.139  10.502  1.5070  0.3941  0.2374
 7929SOL    HW235247   1.239   2.191  10.387 -0.5720  0.0215 -2.7864
 7930SOL     OW35248   2.133   2.319   1.727  0.1429  0.0174 -0.8020
 7930SOL    HW135249   2.044   2.283   1.728  0.3300 -0.4119  0.0985
 7930SOL    HW235250   2.164   2.289   1.813  0.0053 -1.8607 -1.4081
 7931SOL     OW35251   0.975   4.275   6.587  0.0605 -0.3464 -0.2868
 7931SOL    HW135252   0.902   4.238   6.636  0.6737 -0.7408  0.3320
 7931SOL    HW235253   0.996   4.359   6.629 -0.5305  0.6593 -2.0066
 7932SOL     OW35254   3.378   3.238  11.175 -0.0189 -0.5474  0.1767
 7932SOL    HW135255   3.402   3.329  11.192  1.6834 -0.4633 -2.6175
 7932SOL    HW235256   3.282   3.242  11.169 -0.1266 -1.2045  1.5083
 7933SOL     OW35257   4.562   3.124   5.718  0.3871 -0.2732 -0.2429
 7933SOL    HW135258   4.599   3.145   5.804  1.4337 -0.4545 -0.6485
 7933SOL    HW235259   4.540   3.031   5.729  1.3931 -0.3728  0.9903
 7934SOL     OW35260   4.024   4.332   5.988 -0.1599 -0.2219 -0.3714
 7934SOL    HW135261   4.065   4.324   6.074  1.2626 -1.4081 -1.1630
 7934SOL    HW235262   4.001   4.241   5.970  2.8019 -1.0431 -0.0029
 7935SOL     OW35263   2.322   0.553   0.425 -0.0677 -0.0257  0.1494
 7935SOL    HW135264   2.393   0.491   0.446 -0.2579 -0.1606  0.3918
 7935SOL    HW235265   2.372   0.619   0.376  0.4216 -1.0194 -0.6830
 7936SOL     OW35266   1.033   0.649   7.713 -0.4845 -0.3043  0.1153
 7936SOL    HW135267   1.045   0.612   7.800  0.1189  0.0869  0.1971
 7936SOL    HW235268   1.111   0.701   7.695 -0.5217 -0.5294 -0.7391
 7937SOL     OW35269   2.117   2.843   5.178  0.0440 -0.4791  0.0938
 7937SOL    HW135270   2.039   2.859   5.125 -0.2342  1.5067  1.1055
 7937SOL    HW235271   2.171   2.813   5.105 -1.2357 -1.4443 -0.4574
 7938SOL     OW35272   0.455   0.220   6.801 -0.4064  0.4112 -0.4388
 7938SOL    HW135273   0.428   0.131   6.777  0.6121  1.0868 -4.1633
 7938SOL    HW235274   0.533   0.206   6.854 -1.3742  0.7422  1.0672
 7939SOL     OW35275   1.130   2.982   8.461  0.0952  0.4377 -0.0306
 7939SOL    HW135276   1.069   3.055   8.451  1.5113  1.3051 -2.2429
 7939SOL    HW235277   1.090   2.933   8.533  1.9638 -1.4806 -0.2877
 7940SOL     OW35278   1.876   4.453   4.440  0.4257  0.3133 -0.1419
 7940SOL    HW135279   1.873   4.547   4.420  1.2535  0.1748 -0.9116
 7940SOL    HW235280   1.820   4.443   4.517 -0.3108  0.1718 -0.6947
 7941SOL     OW35281   2.301   1.491   4.349  0.6190 -0.3875 -0.4395
 7941SOL    HW135282   2.333   1.489   4.258  4.1865  1.7120  0.7621
 7941SOL    HW235283   2.263   1.577   4.368  2.4055  0.5130 -0.8825
 7942SOL     OW35284   4.296   2.323   3.582 -0.2634 -0.3447  0.2795
 7942SOL    HW135285   4.337   2.406   3.561 -0.0880 -0.7002 -0.8022
 7942SOL    HW235286   4.324   2.319   3.673 -0.1544  0.8291  0.2922
 7943SOL     OW35287   0.790   3.120   3.097  0.1000 -0.1980  0.3929
 7943SOL    HW135288   0.866   3.071   3.066 -1.4092 -1.9198 -0.5902
 7943SOL    HW235289   0.715   3.065   3.075 -0.5869  0.7680  0.2977
 7944SOL     OW35290   4.361   4.194   2.754  0.3209  0.1531 -0.2526
 7944SOL    HW135291   4.308   4.245   2.815  2.0287  1.7004 -0.0644
 7944SOL    HW235292   4.302   4.127   2.720 -3.1185  3.4550 -0.7451
 7945SOL     OW35293   0.504   1.447  14.255 -0.6655  0.4023  0.3361
 7945SOL    HW135294   0.486   1.427  14.163 -1.5919  2.6257  0.0077
 7945SOL    HW235295   0.505   1.543  14.262 -2.2408  0.3726  0.9831
 7946SOL     OW35296   3.727   0.755  12.564 -0.3839  0.0424  0.0169
 7946SOL    HW135297   3.745   0.846  12.539  0.9528  0.6585  3.2642
 7946SOL    HW235298   3.807   0.710  12.536 -0.4286  0.1847 -0.3465
 7947SOL     OW35299   2.914   3.490   0.434 -0.2031 -0.1319 -0.2121
 7947SOL    HW135300   2.901   3.395   0.446  2.4925 -0.5185 -0.3881
 7947SOL    HW235301   3.008   3.502   0.421 -0.5998  2.1197 -0.9704
 7948SOL     OW35302   3.062   0.004  14.725  0.0732 -0.0118  0.3517
 7948SOL    HW135303   3.024   0.065  14.788  0.3209 -1.1435  1.5930
 7948SOL    HW235304   3.119   0.069  14.684 -0.5530  0.3040 -0.0256
 7949SOL     OW35305   0.321   3.519  10.466 -0.3410 -0.2946  0.7085
 7949SOL    HW135306   0.282   3.519  10.378  0.8822  0.2180  0.1577
 7949SOL    HW235307   0.285   3.443  10.511 -0.4417  0.6913  2.2751
 7950SOL     OW35308   2.483   3.756   5.649  0.2096  0.3026  0.7717
 7950SOL    HW135309   2.415   3.715   5.703 -0.6805  2.8006  1.5559
 7950SOL    HW235310   2.516   3.680   5.600 -0.7593  0.4981 -0.1954
 7951SOL     OW35311   4.268   3.819  10.310 -0.2073 -0.1222  0.3103
 7951SOL    HW135312   4.237   3.789  10.396 -0.3478  1.6752  0.8888
 7951SOL    HW235313   4.182   3.822  10.269 -0.1025  3.5358  0.3533
 7952SOL     OW35314   0.536   0.793   7.764  0.5173 -0.2371 -0.7012
 7952SOL    HW135315   0.577   0.772   7.848  0.4075 -0.4256 -0.6971
 7952SOL    HW235316   0.615   0.780   7.712  1.1782  0.0686  0.2189
 7953SOL     OW35317   1.711   0.515   8.911 -0.3074  0.0975 -0.0763
 7953SOL    HW135318   1.799   0.532   8.943  0.2712 -2.5653 -0.2991
 7953SOL    HW235319   1.727   0.534   8.818 -1.9303  1.2243 -0.1367
 7954SOL     OW35320   0.731   1.728   8.260  0.0711  0.4802 -0.0126
 7954SOL    HW135321   0.737   1.668   8.334  0.6932 -1.1364 -1.3749
 7954SOL    HW235322   0.642   1.761   8.268 -0.3976 -1.2018  1.7176
 7955SOL     OW35323   1.566   1.023   0.262 -0.0798  0.5761 -0.5310
 7955SOL    HW135324   1.577   0.966   0.338 -0.0050 -0.5696 -1.3946
 7955SOL    HW235325   1.472   1.015   0.249 -0.0044  0.1318 -0.8042
 7956SOL     OW35326   0.217   4.521   5.834 -0.0373 -0.2069  0.5403
 7956SOL    HW135327   0.303   4.545   5.869 -0.5846  0.5725  1.3636
 7956SOL    HW235328   0.163   4.518   5.914 -3.3843  2.3608 -1.6114
 7957SOL     OW35329   2.583   0.521   8.732 -0.2481  0.1386 -0.1287
 7957SOL    HW135330   2.535   0.589   8.778 -0.0665 -0.5232  1.0420
 7957SOL    HW235331   2.648   0.485   8.792 -1.1351 -0.8887  0.2192
 7958SOL     OW35332   2.481   4.274   2.560 -0.3641  0.6181  0.4225
 7958SOL    HW135333   2.509   4.229   2.640  3.5407 -0.7649 -1.7054
 7958SOL    HW235334   2.466   4.364   2.590 -1.0922  0.6586 -0.0633
 7959SOL     OW35335   3.901   2.090   5.718 -0.1993  0.2542  0.0451
 7959SOL    HW135336   3.958   2.048   5.782  0.1458  0.3723 -0.1890
 7959SOL    HW235337   3.899   2.021   5.652  1.4101  0.4746 -0.2246
 7960SOL     OW35338   4.518   4.384  14.989  0.2854 -0.0346 -0.4915
 7960SOL    HW135339   4.523   4.432  14.906 -0.5007 -0.0132 -0.5274
 7960SOL    HW235340   4.554   4.446  15.052  0.1930 -0.1133 -0.3613
 7961SOL     OW35341   3.221   1.137   6.466 -0.3504  0.4830  0.2270
 7961SOL    HW135342   3.208   1.098   6.553  2.0389 -0.0919  0.3158
 7961SOL    HW235343   3.168   1.078   6.412  1.3342 -0.5882 -0.2503
 7962SOL     OW35344   4.616   2.263   5.498  0.0445  0.1955  0.1505
 7962SOL    HW135345   4.624   2.353   5.465 -0.0611  0.2084  0.1616
 7962SOL    HW235346   4.671   2.271   5.576  0.4898  1.3397 -0.2810
 7963SOL     OW35347   2.894   4.459   2.227  0.5465 -0.0300  1.1124
 7963SOL    HW135348   2.842   4.533   2.196  3.1588  0.3235 -2.4516
 7963SOL    HW235349   2.863   4.451   2.317 -0.7485 -2.3686  0.4482
 7964SOL     OW35350   2.419   4.076   7.350  0.4517  0.3129 -0.2607
 7964SOL    HW135351   2.441   4.065   7.257 -0.4124 -0.7308 -0.3389
 7964SOL    HW235352   2.330   4.042   7.357  1.3159 -1.4201  2.3409
 7965SOL     OW35353   0.657   1.520   1.648 -0.5580  0.4997 -0.0015
 7965SOL    HW135354   0.752   1.515   1.637 -0.4343 -1.0407  1.7277
 7965SOL    HW235355   0.631   1.476   1.567  3.1434 -2.3280  0.3197
 7966SOL     OW35356   3.621   3.008   2.527 -0.6472  0.0085  0.2455
 7966SOL    HW135357   3.592   3.097   2.545 -1.6061 -0.1194 -0.6689
 7966SOL    HW235358   3.634   2.970   2.614 -1.4481  1.1501  0.8564
 7967SOL     OW35359   0.812   0.249   4.490  0.0351 -0.4381  0.7762
 7967SOL    HW135360   0.734   0.221   4.538  1.0261 -0.9119  2.0957
 7967SOL    HW235361   0.785   0.223   4.402  1.1212  1.7014 -0.2065
 7968SOL     OW35362   4.072   4.261   7.842 -0.1995  0.6844 -0.4913
 7968SOL    HW135363   4.129   4.229   7.772 -1.3210 -2.8404  0.2353
 7968SOL    HW235364   4.046   4.345   7.805 -0.3125  0.8155 -0.1092
 7969SOL     OW35365   3.735   3.745   7.668  0.0440 -0.4520 -0.3565
 7969SOL    HW135366   3.734   3.711   7.758 -3.5300  0.7777  0.0699
 7969SOL    HW235367   3.780   3.675   7.620  1.7693  0.6945 -0.4125
 7970SOL     OW35368   1.388   2.292  16.635 -0.0924  0.4035  0.1752
 7970SOL    HW135369   1.426   2.376  16.608 -0.7713  0.7938  0.4371
 7970SOL    HW235370   1.393   2.311  16.729  1.0530  0.6604  0.0680
 7971SOL     OW35371   3.212   4.718   0.756 -0.2288  0.2678 -0.2445
 7971SOL    HW135372   3.282   4.681   0.810 -2.8778 -2.6658  1.1673
 7971SOL    HW235373   3.149   0.004   0.827 -0.8590 -3.2558 -0.2452
 7972SOL     OW35374   2.342   1.510  16.440  0.1843 -0.2870 -1.2641
 7972SOL    HW135375   2.426   1.534  16.401  0.3584  0.0263 -0.6906
 7972SOL    HW235376   2.280   1.510  16.367 -1.6604  1.4059  0.3055
 7973SOL     OW35377   2.627   1.077  17.050  0.1774  0.3523  0.0428
 7973SOL    HW135378   2.709   1.035  17.077 -0.4320  0.6707  2.3761
 7973SOL    HW235379   2.658   1.150  16.996  0.8445 -0.6282 -0.8880
 7974SOL     OW35380   2.389   2.158   1.693 -0.5976  0.0944 -0.2858
 7974SOL    HW135381   2.300   2.193   1.689 -0.3496  0.6136 -1.2084
 7974SOL    HW235382   2.373   2.078   1.743 -1.6910  0.7285  0.3766
 7975SOL     OW35383   1.375   0.261   7.319 -0.1505 -0.9081  0.4108
 7975SOL    HW135384   1.429   0.338   7.302 -2.1236 -0.0722 -2.1358
 7975SOL    HW235385   1.383   0.252   7.414 -0.6995  1.8501  0.6984
 7976SOL     OW35386   1.056   0.324   6.176 -0.5106 -0.0128 -0.2866
 7976SOL    HW135387   1.124   0.293   6.235 -0.5420 -0.0038 -0.2453
 7976SOL    HW235388   0.996   0.249   6.185 -0.1947 -0.0756  1.2756
 7977SOL     OW35389   1.218   3.862  10.531  0.2471 -0.2416  0.5684
 7977SOL    HW135390   1.283   3.927  10.505  0.5391 -1.1522 -0.9986
 7977SOL    HW235391   1.243   3.840  10.621 -0.5158 -0.3495  0.7622
 7978SOL     OW35392   0.069   3.909   3.596  0.1349 -0.0828  0.7715
 7978SOL    HW135393   0.015   3.874   3.666 -1.1547  0.0053 -0.1913
 7978SOL    HW235394   0.158   3.891   3.627  0.0871  1.6797  1.9270
 7979SOL     OW35395   0.738   2.901  10.546  0.4474 -0.3161 -0.5524
 7979SOL    HW135396   0.752   2.850  10.626  1.6086 -1.1423 -1.2789
 7979SOL    HW235397   0.683   2.846  10.489 -0.1169 -1.3505  0.9809
 7980SOL     OW35398   3.064   1.140  12.760 -0.3951 -0.3365  0.2624
 7980SOL    HW135399   3.145   1.090  12.751  0.1732  0.6892 -0.4256
 7980SOL    HW235400   3.081   1.210  12.823 -0.6604  2.4675 -2.7745
 7981SOL     OW35401   1.702   4.266  14.649  0.1756  0.0498 -0.0883
 7981SOL    HW135402   1.617   4.230  14.625 -0.0908  0.7466 -0.1932
 7981SOL    HW235403   1.756   4.204  14.601  0.9031  0.2249  0.4920
 7982SOL     OW35404   0.093   1.018  11.970  0.4698  0.1036 -0.3561
 7982SOL    HW135405   0.114   1.013  12.063  1.1723  1.4257 -0.4382
 7982SOL    HW235406   0.021   1.081  11.976  0.3761 -0.1744  1.4982
 7983SOL     OW35407   1.020   3.124  10.723 -0.3638  0.6531 -0.2386
 7983SOL    HW135408   1.034   3.032  10.748  3.3600  1.1200 -0.6464
 7983SOL    HW235409   1.064   3.163  10.798  0.0468  0.1432 -0.2132
 7984SOL     OW35410   2.458   2.175   7.234 -0.2395 -0.0308 -0.0913
 7984SOL    HW135411   2.390   2.161   7.300 -1.2815  0.5092 -1.0714
 7984SOL    HW235412   2.477   2.268   7.246 -3.9419  0.6261  0.6382
 7985SOL     OW35413   1.467   4.288  10.519 -0.0952  0.2712 -0.5261
 7985SOL    HW135414   1.561   4.286  10.538  0.1730  0.2362 -1.8611
 7985SOL    HW235415   1.438   4.339  10.595 -1.3616  1.0061 -1.5003
 7986SOL     OW35416   2.801   2.852   8.106 -0.1408  0.1107  0.3263
 7986SOL    HW135417   2.867   2.807   8.053 -0.3556 -2.5718  2.3340
 7986SOL    HW235418   2.737   2.891   8.047 -0.7189 -2.5504 -0.8303
 7987SOL     OW35419   1.715   0.326   8.631 -0.5793 -0.0185 -0.4330
 7987SOL    HW135420   1.732   0.288   8.545 -2.9471 -1.1811 -0.3811
 7987SOL    HW235421   1.790   0.386   8.642 -0.5970 -0.5075  2.3390
 7988SOL     OW35422   1.128   3.014  13.625 -0.4760  0.1602  0.2577
 7988SOL    HW135423   1.081   2.942  13.582  0.3518 -0.8765  1.0876
 7988SOL    HW235424   1.195   3.029  13.559 -0.1790  1.2984  0.8240
 7989SOL     OW35425   3.341   4.659   1.571  0.4032  0.0495 -0.1038
 7989SOL    HW135426   3.436   4.659   1.558  0.1808  0.3304 -1.7657
 7989SOL    HW235427   3.316   4.607   1.495 -1.0553  2.3724 -1.1933
 7990SOL     OW35428   4.203   2.507   3.981 -0.4192 -0.7415 -0.5505
 7990SOL    HW135429   4.158   2.592   3.986 -1.7528 -1.4830 -0.0199
 7990SOL    HW235430   4.273   2.542   3.926  0.5932 -0.4610  0.9132
 7991SOL     OW35431   2.641   1.981   4.355 -0.2320 -0.7016  0.3845
 7991SOL    HW135432   2.715   1.948   4.405 -0.0657 -0.3164  0.3985
 7991SOL    HW235433   2.675   1.971   4.266  0.2409  0.2331  0.4530
 7992SOL     OW35434   1.663   1.720   9.301  0.1284 -0.4077  0.3480
 7992SOL    HW135435   1.692   1.630   9.315 -2.8433 -1.3732  0.1514
 7992SOL    HW235436   1.750   1.761   9.298  0.1850 -0.4075  2.1021
 7993SOL     OW35437   2.879   4.104  15.879 -0.0010 -0.2964 -0.3529
 7993SOL    HW135438   2.869   4.022  15.928  0.2717 -0.2836 -0.2805
 7993SOL    HW235439   2.964   4.093  15.837  0.1040  1.7288 -0.6618
 7994SOL     OW35440   3.388   0.452   1.529  0.6694 -0.5636 -0.1747
 7994SOL    HW135441   3.390   0.403   1.447  1.1598 -0.7553 -0.0478
 7994SOL    HW235442   3.367   0.393   1.602 -2.4747  0.2067 -0.4549
 7995SOL     OW35443   2.586   2.939   2.305 -0.0806  0.5490 -0.4966
 7995SOL    HW135444   2.678   2.920   2.287  0.3739  1.8029  0.5165
 7995SOL    HW235445   2.581   3.029   2.275 -0.9177  0.0029 -2.0321
 7996SOL     OW35446   0.585   1.359   8.752 -0.0212 -0.0668 -0.0415
 7996SOL    HW135447   0.653   1.392   8.693  0.5075  1.2284  1.2921
 7996SOL    HW235448   0.619   1.271   8.766  1.0703  0.5162  0.8667
 7997SOL     OW35449   2.623   1.403   1.386  0.4475 -0.2899 -0.2227
 7997SOL    HW135450   2.617   1.394   1.482 -0.7977  3.4292  0.0445
 7997SOL    HW235451   2.534   1.433   1.371 -0.0790 -0.7860  1.8154
 7998SOL     OW35452   2.245   0.858   7.219  0.2466 -0.4500  0.0152
 7998SOL    HW135453   2.232   0.919   7.146 -0.0155 -0.2082  0.2658
 7998SOL    HW235454   2.154   0.828   7.231  0.4285 -0.8478  0.4234
 7999SOL     OW35455   2.283   3.224   2.578 -0.0747 -0.5329  0.0460
 7999SOL    HW135456   2.247   3.294   2.632 -1.7638 -1.3891  0.0172
 7999SOL    HW235457   2.199   3.197   2.542  0.3098 -1.9806  0.2427
 8000SOL     OW35458   3.988   1.074  12.004  0.4810  0.4747  0.3956
 8000SOL    HW135459   3.918   1.139  12.008  0.4696  0.3454  2.1422
 8000SOL    HW235460   4.041   1.101  11.929 -1.2697 -2.1141 -1.7616
 8001SOL     OW35461   1.240   1.414   5.650  0.3012  0.1661  0.7430
 8001SOL    HW135462   1.146   1.406   5.662 -0.0652  1.6866 -1.0838
 8001SOL    HW235463   1.226   1.483   5.585 -3.8674 -0.6778  0.7367
 8002SOL     OW35464   3.220   0.471  11.628  0.2449  0.5991 -0.1233
 8002SOL    HW135465   3.223   0.506  11.539 -0.8008 -2.5181 -1.3614
 8002SOL    HW235466   3.313   0.448  11.630 -0.3026 -1.6067  0.0568
 8003SOL     OW35467   2.219   4.551   6.496  0.3706  0.1229 -0.2130
 8003SOL    HW135468   2.256   4.463   6.490  2.0504  0.8585 -0.6453
 8003SOL    HW235469   2.189   4.556   6.406 -0.1283  2.8432  0.1160
 8004SOL     OW35470   0.247   1.442   0.230 -0.2773  0.2555  0.2197
 8004SOL    HW135471   0.255   1.534   0.256 -1.5954  0.2515  0.5968
 8004SOL    HW235472   0.240   1.403   0.317  0.8557 -0.1522  0.1370
 8005SOL     OW35473   0.107   3.488  13.612  0.2412 -0.3390  0.4367
 8005SOL    HW135474   0.056   3.408  13.624  0.4146 -0.3857  0.8581
 8005SOL    HW235475   0.116   3.497  13.517 -0.6778  0.2120  0.3956
 8006SOL     OW35476   4.197   2.623   5.549 -0.2117 -0.3413 -0.6709
 8006SOL    HW135477   4.129   2.618   5.482  0.8329 -2.6648 -1.5814
 8006SOL    HW235478   4.266   2.578   5.500 -0.9350 -0.2112 -1.8121
 8007SOL     OW35479   0.668   2.669   8.061  0.0585 -0.5386  0.7176
 8007SOL    HW135480   0.693   2.656   7.970  0.1822  2.0024  0.3899
 8007SOL    HW235481   0.740   2.714   8.105  0.1082  0.0497  0.0317
 8008SOL     OW35482   4.691   0.706   9.066  0.4318  0.4835 -0.5816
 8008SOL    HW135483   4.687   0.694   9.160 -4.0093  0.6366 -0.7905
 8008SOL    HW235484   0.054   0.677   9.043 -0.3380  0.1129 -3.1205
 8009SOL     OW35485   0.967   4.340   4.030  0.1785  0.1381  0.0906
 8009SOL    HW135486   0.938   4.279   4.097 -1.0796  1.2041  0.5008
 8009SOL    HW235487   0.954   4.291   3.948  1.6350 -0.0263 -0.0617
 8010SOL     OW35488   3.742   3.996   3.747  0.0580  0.2235  0.4837
 8010SOL    HW135489   3.831   4.022   3.768 -0.0284 -0.6566  1.9400
 8010SOL    HW235490   3.773   3.936   3.680 -2.5365  0.1731 -0.6639
 8011SOL     OW35491   4.501   2.180   0.843 -0.4142 -0.4442 -0.4362
 8011SOL    HW135492   4.462   2.192   0.756 -0.4595 -1.4433 -0.5516
 8011SOL    HW235493   4.481   2.086   0.844 -1.9694 -0.0944  3.8859
 8012SOL     OW35494   1.543   1.074   3.144 -0.7653  0.1364  0.8530
 8012SOL    HW135495   1.475   1.010   3.124 -1.5691  0.5537  2.2572
 8012SOL    HW235496   1.489   1.151   3.161 -0.2252  0.7538 -0.2150
 8013SOL     OW35497   1.518   1.079   4.604  0.4772 -0.0226  0.2491
 8013SOL    HW135498   1.431   1.117   4.597  0.0757 -0.9074  0.4317
 8013SOL    HW235499   1.497   1.001   4.552 -1.1868  1.0010 -0.6061
 8014SOL     OW35500   0.323   4.274   9.984  0.1114  0.5072 -0.3716
 8014SOL    HW135501   0.295   4.190   9.948  1.9913 -0.7484  1.0416
 8014SOL    HW235502   0.274   4.337   9.932  1.2612 -0.0039 -2.0767
 8015SOL     OW35503   2.610   0.553   1.446  0.4798  0.2782 -0.7074
 8015SOL    HW135504   2.586   0.642   1.474 -2.8246 -0.0246 -2.5943
 8015SOL    HW235505   2.526   0.526   1.410  0.5972 -0.9742 -0.0277
 8016SOL     OW35506   4.385   0.785   1.968 -0.6442 -0.5178  0.1089
 8016SOL    HW135507   4.425   0.869   1.989  0.6478 -1.2221  0.5044
 8016SOL    HW235508   4.395   0.785   1.873 -1.6854 -1.7945 -0.0022
 8017SOL     OW35509   2.148   4.499   8.428  0.0738 -0.0682  0.1786
 8017SOL    HW135510   2.094   4.552   8.369 -0.5459 -0.3712  0.4737
 8017SOL    HW235511   2.106   4.503   8.514  0.1072 -2.2005  0.3060
 8018SOL     OW35512   2.871   0.969  16.292 -0.3311  0.3876  0.6261
 8018SOL    HW135513   2.867   0.879  16.258 -1.3795  0.6414  0.0846
 8018SOL    HW235514   2.956   0.978  16.336 -0.4539 -0.3016  1.0221
 8019SOL     OW35515   1.981   4.196   9.148  0.2651  0.0949 -0.1407
 8019SOL    HW135516   1.974   4.276   9.200 -0.9162 -0.2522  0.2243
 8019SOL    HW235517   1.892   4.163   9.146 -1.1264  3.7944  0.5254
 8020SOL     OW35518   3.408   0.146   6.047 -0.1125 -0.1482 -0.4094
 8020SOL    HW135519   3.345   0.191   5.991  0.0051  2.8664  1.8911
 8020SOL    HW235520   3.483   0.205   6.039 -0.5763  0.3495 -1.0787
 8021SOL     OW35521   1.622   3.850   8.158  0.0757 -0.3268 -0.6573
 8021SOL    HW135522   1.656   3.931   8.194 -0.4483 -0.7458  0.7610
 8021SOL    HW235523   1.704   3.802   8.150 -1.1863 -2.3539 -1.4926
 8022SOL     OW35524   1.671   3.612   3.146  0.3187  0.6793  0.1689
 8022SOL    HW135525   1.755   3.608   3.191 -0.1014 -0.2597  0.8626
 8022SOL    HW235526   1.676   3.526   3.105  0.1920  0.1193  1.3518
 8023SOL     OW35527   1.461   1.027   8.495 -1.2296  0.5806  0.7214
 8023SOL    HW135528   1.454   1.117   8.465  0.3142 -0.1750 -1.8585
 8023SOL    HW235529   1.383   1.020   8.550 -1.4259  2.8713  0.7122
 8024SOL     OW35530   0.035   0.275  16.029  0.2824  0.4419  0.0160
 8024SOL    HW135531   0.083   0.278  15.946  0.5008 -1.1176  0.0765
 8024SOL    HW235532   4.669   0.285  16.003  0.0996 -0.1951  0.3993
 8025SOL     OW35533   1.899   2.762  15.210 -0.1824 -0.2901 -0.2415
 8025SOL    HW135534   1.870   2.678  15.174  2.9485 -1.3953 -0.2593
 8025SOL    HW235535   1.942   2.801  15.134  1.1331 -1.3865 -0.0775
 8026SOL     OW35536   1.383   0.030  14.032  0.2693  0.5674  0.9194
 8026SOL    HW135537   1.470   0.016  13.994 -0.7972  0.0537 -1.3098
 8026SOL    HW235538   1.371   4.676  14.083  3.2977 -0.8595 -0.6229
 8027SOL     OW35539   1.767   1.863   6.542 -0.1395 -0.1058  0.3864
 8027SOL    HW135540   1.699   1.872   6.609  0.1177  0.9804  0.4994
 8027SOL    HW235541   1.713   1.881   6.465  3.2227 -1.1420 -2.2124
 8028SOL     OW35542   3.974   0.550   5.012 -0.1525 -0.5099 -0.7124
 8028SOL    HW135543   4.039   0.621   5.003  2.7046 -2.9799  0.5316
 8028SOL    HW235544   4.018   0.481   4.964 -0.3726 -0.9422 -0.2876
 8029SOL     OW35545   1.965   2.625   3.867 -0.1170  0.7377  0.2790
 8029SOL    HW135546   1.953   2.558   3.799  1.2987  2.2822 -1.4813
 8029SOL    HW235547   2.029   2.579   3.922  1.7263  2.3553 -0.5521
 8030SOL     OW35548   2.163   1.376   7.436 -0.4242  0.4252 -0.4120
 8030SOL    HW135549   2.141   1.394   7.345  1.2397 -0.7296 -1.0310
 8030SOL    HW235550   2.217   1.453   7.457  1.2781 -1.2105  1.1393
 8031SOL     OW35551   1.951   1.359   5.799  0.0482  0.0052 -0.3769
 8031SOL    HW135552   2.044   1.351   5.821 -0.0446  2.0039  0.7460
 8031SOL    HW235553   1.942   1.284   5.741 -0.6600 -0.6999  0.6597
 8032SOL     OW35554   4.096   2.986   8.527  0.6815  0.2311  0.0154
 8032SOL    HW135555   4.072   2.895   8.511 -1.9474  0.8918  0.1792
 8032SOL    HW235556   4.072   3.030   8.445  0.1206  0.8632  0.5101
 8033SOL     OW35557   1.960   3.132  11.172 -0.3202  0.1641  0.1356
 8033SOL    HW135558   1.879   3.154  11.126 -0.6893 -0.8798  0.2800
 8033SOL    HW235559   1.999   3.218  11.186 -0.8709  0.4519 -0.1004
 8034SOL     OW35560   1.929   1.222  11.758 -0.3402  0.2627  0.1672
 8034SOL    HW135561   2.017   1.192  11.780 -0.1968  1.1423  0.7649
 8034SOL    HW235562   1.905   1.265  11.840 -1.6415 -0.7318  0.3147
 8035SOL     OW35563   0.379   4.712   8.147  0.0263 -0.1410 -0.5365
 8035SOL    HW135564   0.339   4.631   8.179  0.0264 -0.5696 -1.6343
 8035SOL    HW235565   0.317   0.044   8.191  0.9791 -0.7402  1.6121
 8036SOL     OW35566   2.243   3.656   5.786  0.2455  0.0152 -0.3452
 8036SOL    HW135567   2.209   3.610   5.862 -0.8570  1.1535 -0.1392
 8036SOL    HW235568   2.279   3.732   5.831  0.9368 -0.3204 -0.3308
 8037SOL     OW35569   0.276   3.809   4.106 -0.2544  0.1344  0.5115
 8037SOL    HW135570   0.247   3.783   4.194 -0.5234  2.8398  1.2371
 8037SOL    HW235571   0.209   3.875   4.089 -2.8300 -2.7125 -0.2393
 8038SOL     OW35572   3.396   3.389  17.622 -0.7729 -0.0867 -0.4800
 8038SOL    HW135573   3.430   3.465  17.575  0.5472 -0.3124  0.1219
 8038SOL    HW235574   3.308   3.379  17.583 -0.7492 -0.2402 -0.4936
 8039SOL     OW35575   3.761   2.395   1.772 -0.1386 -0.0705 -0.4031
 8039SOL    HW135576   3.852   2.422   1.786 -0.6662  0.7701  1.4281
 8039SOL    HW235577   3.718   2.480   1.774  0.8037  0.3718  1.8348
 8040SOL     OW35578   4.011   0.679   2.283  0.3034 -0.0740 -0.5141
 8040SOL    HW135579   4.072   0.649   2.215 -1.7283 -1.9403 -1.5462
 8040SOL    HW235580   4.067   0.667   2.359 -0.4202  1.4284  0.2456
 8041SOL     OW35581   0.578   3.263   5.597  0.0422  0.0551 -0.1790
 8041SOL    HW135582   0.672   3.254   5.616 -0.1120  0.4247  0.7623
 8041SOL    HW235583   0.559   3.336   5.656 -1.4431 -1.8103  1.6596
 8042SOL     OW35584   1.277   3.986   4.941 -0.2511 -0.5215 -0.1034
 8042SOL    HW135585   1.261   4.080   4.930 -1.3617 -0.4625  1.9156
 8042SOL    HW235586   1.365   3.974   4.976 -0.5134  0.5108  0.8979
 8043SOL     OW35587   1.209   1.152   8.562 -0.3355 -0.0389 -0.3494
 8043SOL    HW135588   1.155   1.197   8.498 -0.5083 -1.3120 -1.0975
 8043SOL    HW235589   1.240   1.227   8.614 -0.1329 -1.7117  1.9453
 8044SOL     OW35590   3.720   1.849   8.714 -0.1175  0.8091  0.0723
 8044SOL    HW135591   3.812   1.821   8.709 -1.4649 -3.1761 -2.4045
 8044SOL    HW235592   3.675   1.779   8.761  1.1369 -0.3596 -0.4525
 8045SOL     OW35593   3.886   2.604   1.550 -0.4220  0.4267 -0.1551
 8045SOL    HW135594   3.810   2.607   1.492 -0.8678  0.6652  0.4409
 8045SOL    HW235595   3.941   2.675   1.517 -0.5750 -0.6725 -2.7251
 8046SOL     OW35596   2.205   3.771   5.473  0.1992  0.2564  0.4456
 8046SOL    HW135597   2.241   3.858   5.459 -0.5724  0.2536 -1.4584
 8046SOL    HW235598   2.258   3.745   5.549  0.5922  0.0997  0.1195
 8047SOL     OW35599   2.776   0.160   6.982  0.9086  0.6897  0.2334
 8047SOL    HW135600   2.811   0.162   7.071 -0.6289  0.0334  0.8585
 8047SOL    HW235601   2.852   0.183   6.928  0.3994  0.5430 -0.5369
 8048SOL     OW35602   2.996   4.457   8.308 -0.1617  0.0307 -0.1039
 8048SOL    HW135603   3.015   4.543   8.343 -2.5728  0.2714  0.5957
 8048SOL    HW235604   2.906   4.468   8.277 -0.0979  1.8230  0.4023
 8049SOL     OW35605   0.950   2.980   3.861 -0.3926  0.0893  0.4541
 8049SOL    HW135606   0.931   3.067   3.896 -1.5295  1.0572 -2.5303
 8049SOL    HW235607   1.034   2.997   3.818 -1.2268  0.7086 -0.9660
 8050SOL     OW35608   0.102   3.254   2.751  0.1149  0.1445 -0.3250
 8050SOL    HW135609   0.147   3.335   2.774 -2.0469  0.8439  1.4781
 8050SOL    HW235610   0.015   3.278   2.782 -1.0453 -1.3205 -2.4317
 8051SOL     OW35611   4.028   0.684  14.819  0.5022 -0.1209 -0.3297
 8051SOL    HW135612   4.092   0.621  14.788  0.6311 -0.0054 -0.2973
 8051SOL    HW235613   3.953   0.625  14.806  0.1122  0.5072 -0.9319
 8052SOL     OW35614   2.486   0.754   1.569 -0.3749  0.6343  0.0933
 8052SOL    HW135615   2.406   0.805   1.560  0.4093  2.0689  1.2186
 8052SOL    HW235616   2.531   0.821   1.620  1.3126  0.1031 -0.7054
 8053SOL     OW35617   0.294   2.767   5.497 -0.0395 -0.2842 -0.7056
 8053SOL    HW135618   0.278   2.843   5.441 -3.1787  1.0312  2.0124
 8053SOL    HW235619   0.300   2.816   5.579  0.7352 -2.7806  0.7489
 8054SOL     OW35620   3.330   3.976   1.851  0.5108  0.7089  0.4143
 8054SOL    HW135621   3.372   3.902   1.895 -1.6847  1.0389  3.0003
 8054SOL    HW235622   3.409   4.022   1.820  0.9816  0.1822  0.8342
 8055SOL     OW35623   4.523   2.789   4.272 -0.5370 -0.4546 -0.5980
 8055SOL    HW135624   4.453   2.730   4.246 -0.4023  0.1191 -2.2285
 8055SOL    HW235625   4.568   2.740   4.341 -0.1698 -0.4144 -0.8084
 8056SOL     OW35626   2.918   2.663   0.876  0.2441  0.2376 -0.3512
 8056SOL    HW135627   2.841   2.636   0.826 -0.2394  0.9386  0.0044
 8056SOL    HW235628   2.937   2.573   0.902 -0.3716  0.1326 -0.2538
 8057SOL     OW35629   2.070   0.215   2.347 -0.7434  0.0957 -0.2749
 8057SOL    HW135630   2.047   0.139   2.400  1.3126 -0.2324  0.1527
 8057SOL    HW235631   2.128   0.171   2.285 -0.4475  0.8205 -0.5199
 8058SOL     OW35632   3.305   0.615   4.616 -0.1614 -0.1219 -0.5422
 8058SOL    HW135633   3.291   0.583   4.706  0.1696 -2.5623 -1.3520
 8058SOL    HW235634   3.336   0.542   4.563 -1.7439  0.7823 -2.6820
 8059SOL     OW35635   3.077   3.986  11.723 -0.1756  0.4614  0.1934
 8059SOL    HW135636   3.172   3.976  11.727 -0.2077 -0.0549 -0.5239
 8059SOL    HW235637   3.075   4.017  11.633 -0.0632 -2.5154 -0.8177
 8060SOL     OW35638   3.152   0.053   8.189  0.2509 -0.3004  0.6667
 8060SOL    HW135639   3.161   0.141   8.151 -0.4065 -1.6816 -2.5870
 8060SOL    HW235640   3.211   0.058   8.265  0.6032 -2.1815  0.5163
 8061SOL     OW35641   2.674   4.276   5.903  0.3503 -0.1933 -0.1496
 8061SOL    HW135642   2.675   4.183   5.926 -3.3261  0.3205  2.0141
 8061SOL    HW235643   2.727   4.273   5.823  0.2000 -0.6594 -0.2322
 8062SOL     OW35644   2.764   1.513   1.917 -0.5158 -0.3715 -0.3070
 8062SOL    HW135645   2.741   1.603   1.897 -1.7146 -0.0884  2.4944
 8062SOL    HW235646   2.685   1.468   1.887 -0.5060 -0.9922  0.6240
 8063SOL     OW35647   4.621   4.644   2.970  0.0507  0.3269  0.3631
 8063SOL    HW135648   4.659   4.642   3.058  0.8166  4.2724  0.1044
 8063SOL    HW235649   4.527   4.631   2.982 -0.2371  0.1806 -2.1708
 8064SOL     OW35650   2.482   0.294   4.270 -0.1780  0.4377  0.2832
 8064SOL    HW135651   2.522   0.308   4.184 -0.4430  0.0515  0.0989
 8064SOL    HW235652   2.528   0.223   4.316  0.8228  3.2744  3.6998
 8065SOL     OW35653   0.711   3.268   9.722 -0.0506 -0.3263 -0.0989
 8065SOL    HW135654   0.675   3.250   9.635 -0.6473 -0.9537  0.2762
 8065SOL    HW235655   0.701   3.183   9.764 -1.5224 -0.0129  0.1929
 8066SOL     OW35656   3.460   0.015   4.493 -0.1383 -0.3169  0.1045
 8066SOL    HW135657   3.445   0.031   4.400 -0.0071  0.9810  0.3099
 8066SOL    HW235658   3.375   0.037   4.531 -0.4428 -0.6482 -0.3778
 8067SOL     OW35659   0.913   3.144  17.139 -0.1990 -0.5633 -0.0379
 8067SOL    HW135660   0.886   3.200  17.212 -0.3790 -1.6813  0.7452
 8067SOL    HW235661   1.004   3.170  17.124 -0.6747 -0.8568 -3.3154
 8068SOL     OW35662   3.045   2.085   5.737  0.1902  0.0838 -0.4201
 8068SOL    HW135663   2.951   2.064   5.731 -0.0760  0.6592  1.5868
 8068SOL    HW235664   3.049   2.083   5.833 -0.6607  2.1609 -0.3451
 8069SOL     OW35665   0.405   1.416  10.717  0.1103  0.5150 -0.1605
 8069SOL    HW135666   0.323   1.379  10.749  0.3711  0.9982  1.0416
 8069SOL    HW235667   0.461   1.360  10.771  0.0680  2.2559  1.6806
 8070SOL     OW35668   1.701   4.272   7.158 -0.0637 -0.4797 -0.0738
 8070SOL    HW135669   1.715   4.305   7.069 -2.4052  1.1556  0.1564
 8070SOL    HW235670   1.784   4.226   7.171  1.6471  2.5179 -0.3979
 8071SOL     OW35671   3.255   3.948   4.372  0.1878 -0.1346 -0.0350
 8071SOL    HW135672   3.163   3.931   4.391  0.8429 -1.3167  2.0976
 8071SOL    HW235673   3.252   3.972   4.280 -0.8467  0.5271  0.1684
 8072SOL     OW35674   0.342   0.297  14.724  0.3528  0.3490 -0.0767
 8072SOL    HW135675   0.348   0.286  14.819 -0.5872 -1.2919 -0.1970
 8072SOL    HW235676   0.436   0.297  14.704  0.7454 -3.5683  1.5782
 8073SOL     OW35677   4.305   3.670   6.090  0.4235  1.0102  0.6064
 8073SOL    HW135678   4.245   3.744   6.092 -1.9103 -0.8514 -0.0326
 8073SOL    HW235679   4.392   3.708   6.080  0.3803  1.3969  1.8166
 8074SOL     OW35680   0.228   1.864   0.542  0.9124  0.5506 -0.1566
 8074SOL    HW135681   0.315   1.839   0.573  0.9982  0.8778 -0.1399
 8074SOL    HW235682   0.232   1.958   0.530  2.3950  0.6083  0.7533
 8075SOL     OW35683   4.378   2.088   9.253  0.0390  0.1154  0.1981
 8075SOL    HW135684   4.448   2.107   9.316  0.5408  1.2349 -0.6878
 8075SOL    HW235685   4.366   1.995   9.271 -0.7637  0.2274  0.2093
 8076SOL     OW35686   1.198   3.848   7.421  0.1995 -0.4765  0.1161
 8076SOL    HW135687   1.109   3.882   7.428 -0.4388 -1.6000 -2.3283
 8076SOL    HW235688   1.243   3.930   7.401 -0.5328 -0.1533 -0.1837
 8077SOL     OW35689   4.196   2.702   1.849  0.1106 -0.2013 -0.3451
 8077SOL    HW135690   4.206   2.761   1.775  2.6991 -0.8357 -0.5061
 8077SOL    HW235691   4.273   2.646   1.842  0.0395 -0.6228  2.2613
 8078SOL     OW35692   0.098   3.828  15.725  0.4242  0.1003 -0.0287
 8078SOL    HW135693   0.048   3.828  15.806 -2.7198 -2.9014 -1.9554
 8078SOL    HW235694   0.078   3.915  15.690 -0.2320  0.2503  0.7178
 8079SOL     OW35695   3.542   2.367  13.793  0.6607  0.3055  0.4303
 8079SOL    HW135696   3.501   2.288  13.758  0.3560  0.7903 -0.3012
 8079SOL    HW235697   3.594   2.331  13.865 -1.7465 -2.3414  0.8202
 8080SOL     OW35698   0.093   3.502   1.938  0.4066  0.6615  0.1087
 8080SOL    HW135699   0.102   3.581   1.991  0.8681  1.3958 -1.0700
 8080SOL    HW235700   0.185   3.491   1.915  0.7408  1.7189  0.9607
 8081SOL     OW35701   4.398   3.736  16.015 -0.0859  0.2269  0.5715
 8081SOL    HW135702   4.323   3.712  15.961  1.8368 -1.3522 -1.4212
 8081SOL    HW235703   4.367   3.697  16.096  0.5174  0.6449  1.0055
 8082SOL     OW35704   1.468   3.130   0.886  0.2460  0.3053 -0.2779
 8082SOL    HW135705   1.499   3.220   0.874  1.0075 -0.2052 -2.1515
 8082SOL    HW235706   1.500   3.094   0.803  0.8519 -0.5438  0.3275
 8083SOL     OW35707   1.660   4.287  17.592 -0.5326 -0.1303  0.4847
 8083SOL    HW135708   1.610   4.353  17.545 -1.5725 -1.2479  0.0119
 8083SOL    HW235709   1.710   4.253  17.517 -0.3621  0.5276  0.2987
 8084SOL     OW35710   2.050   2.072  11.138  0.5155 -0.4098 -0.2885
 8084SOL    HW135711   2.004   2.062  11.054  1.2071  1.0082 -0.8234
 8084SOL    HW235712   2.141   2.063  11.107  0.6991  0.7705 -0.0658
 8085SOL     OW35713   0.884   0.766   1.647  0.0370  0.5145 -0.1770
 8085SOL    HW135714   0.871   0.719   1.565  2.9244  0.7700 -0.7693
 8085SOL    HW235715   0.953   0.710   1.681 -1.0167 -0.6679  0.0200
 8086SOL     OW35716   2.690   1.010   2.127 -0.0417  0.3013  0.2688
 8086SOL    HW135717   2.762   0.976   2.073  0.0436  0.4254  0.3035
 8086SOL    HW235718   2.741   1.075   2.176 -0.7091 -0.2626  1.7049
 8087SOL     OW35719   3.125   3.122   8.928  0.4669 -0.7959  0.6846
 8087SOL    HW135720   3.118   3.050   8.991  0.4633 -2.4662 -1.1951
 8087SOL    HW235721   3.083   3.080   8.852  0.5988 -0.0204  0.1848
 8088SOL     OW35722   1.584   3.331   1.550 -0.0608  0.0295 -0.3707
 8088SOL    HW135723   1.519   3.351   1.482  0.4732  1.5146 -0.4553
 8088SOL    HW235724   1.581   3.408   1.607  1.0627  1.0498 -1.6712
 8089SOL     OW35725   0.029   3.881  10.061  0.2663  0.5687  0.1282
 8089SOL    HW135726   4.668   3.894  10.097 -0.1754  0.9604 -1.0994
 8089SOL    HW235727   0.043   3.961  10.010  1.5888  2.0013  2.7076
 8090SOL     OW35728   0.017   3.448  13.067 -0.0281  0.2761  0.3021
 8090SOL    HW135729   4.686   3.466  12.993 -1.2103  0.0619  1.1501
 8090SOL    HW235730   0.093   3.404  13.029  0.1930 -0.5681  1.7070
 8091SOL     OW35731   2.279   0.215  14.727  0.6299 -0.6967 -0.0520
 8091SOL    HW135732   2.196   0.249  14.757 -0.5105 -3.5099  0.0131
 8091SOL    HW235733   2.253   0.124  14.710  0.1779 -0.5838  0.0695
 8092SOL     OW35734   1.372   2.862   2.935  0.2936  0.0764  0.2438
 8092SOL    HW135735   1.451   2.809   2.944  0.1017 -0.0612  1.1217
 8092SOL    HW235736   1.325   2.834   3.014  3.3094 -1.7000  1.3941
 8093SOL     OW35737   2.950   3.238   0.488  0.4639  0.5465 -0.5010
 8093SOL    HW135738   2.920   3.194   0.408 -0.6227  0.6089 -0.1399
 8093SOL    HW235739   2.917   3.181   0.558 -0.8396  0.1088 -1.4517
 8094SOL     OW35740   3.908   4.565   7.974 -0.7652 -0.4517  0.2917
 8094SOL    HW135741   3.817   4.570   7.943 -0.8404 -0.9826  0.4320
 8094SOL    HW235742   3.949   4.529   7.895  1.0931 -1.7216  1.8533
 8095SOL     OW35743   2.982   0.748  13.706  0.3264  0.2600  0.0453
 8095SOL    HW135744   2.961   0.841  13.696 -0.8157  0.0061  0.0228
 8095SOL    HW235745   3.062   0.743  13.654  0.2520 -0.3865 -0.0077
 8096SOL     OW35746   2.453   2.334   8.523  0.7281  0.0165  0.1327
 8096SOL    HW135747   2.358   2.344   8.512  0.3442 -2.0942  1.4859
 8096SOL    HW235748   2.460   2.244   8.555 -1.7504 -0.8370 -1.7331
 8097SOL     OW35749   1.158   3.552  14.795 -0.1711  0.2352  0.4711
 8097SOL    HW135750   1.253   3.566  14.794 -0.1101 -0.2780 -1.6355
 8097SOL    HW235751   1.131   3.638  14.763  3.5026  1.6327  1.0544
 8098SOL     OW35752   3.409   0.739  10.593 -0.2226  0.2821  1.2526
 8098SOL    HW135753   3.322   0.703  10.575 -0.5130  2.0362 -0.8844
 8098SOL    HW235754   3.439   0.670  10.652 -1.2412  0.0641  1.5100
 8099SOL     OW35755   3.704   2.150  14.161 -0.1328 -0.4136  0.0498
 8099SOL    HW135756   3.797   2.160  14.179 -0.6530  1.9905  1.5111
 8099SOL    HW235757   3.709   2.196  14.077 -1.3638  0.1256  0.2639
 8100SOL     OW35758   4.179   4.381   2.081 -0.5996 -0.5531 -0.4305
 8100SOL    HW135759   4.272   4.400   2.091 -0.5589 -0.8968 -0.1779
 8100SOL    HW235760   4.138   4.449   2.028  1.0047 -0.1668 -1.1691
 8101SOL     OW35761   4.420   4.130  16.457  0.5679  0.0563 -0.1996
 8101SOL    HW135762   4.363   4.089  16.392  0.7277 -1.1708  0.4491
 8101SOL    HW235763   4.460   4.053  16.498 -0.4571 -0.4775 -0.2146
 8102SOL     OW35764   4.199   4.111   2.409 -0.4391 -0.9159  0.2829
 8102SOL    HW135765   4.258   4.078   2.341 -0.9780  3.2371 -2.1820
 8102SOL    HW235766   4.128   4.048   2.398  0.4734 -2.1600  1.6291
 8103SOL     OW35767   4.473   2.859   5.721 -0.8401  0.2857 -0.4716
 8103SOL    HW135768   4.489   2.767   5.745  0.0395  1.0868  1.9883
 8103SOL    HW235769   4.475   2.860   5.625  4.1170  1.0410 -0.3897
 8104SOL     OW35770   3.608   2.512   8.970 -0.5295  0.5171 -0.5882
 8104SOL    HW135771   3.621   2.417   8.980  1.2250  1.0452  2.0557
 8104SOL    HW235772   3.536   2.517   9.033 -0.7872  0.3900 -0.8706
 8105SOL     OW35773   1.299   1.701   2.264  0.0233  0.4668 -0.1128
 8105SOL    HW135774   1.301   1.750   2.346  1.1515 -1.3659  0.9550
 8105SOL    HW235775   1.264   1.762   2.199 -1.1628 -1.4765 -1.2910
 8106SOL     OW35776   2.871   2.183   4.160  0.4131  0.5695  0.0184
 8106SOL    HW135777   2.789   2.232   4.151 -0.3765 -1.2360 -2.7649
 8106SOL    HW235778   2.846   2.090   4.166 -0.3627  0.8376  0.9650
 8107SOL     OW35779   4.644   3.814   6.675  0.2484  0.3777  0.1176
 8107SOL    HW135780   4.576   3.873   6.642  1.3526  0.6116 -1.7507
 8107SOL    HW235781   4.621   3.826   6.767 -0.4332  0.8406 -0.1149
 8108SOL     OW35782   3.124   3.664   8.990 -0.1113  0.4696  0.3188
 8108SOL    HW135783   3.163   3.584   8.955  0.7389  0.5749  1.0122
 8108SOL    HW235784   3.059   3.687   8.924  0.3132  0.4444 -0.1094
 8109SOL     OW35785   4.192   0.570   9.316 -0.3533 -0.6381  0.1578
 8109SOL    HW135786   4.285   0.567   9.294  0.0427 -1.8488  1.9843
 8109SOL    HW235787   4.166   0.479   9.330  1.5498 -0.9316  1.8093
 8110SOL     OW35788   0.547   1.571  15.473 -0.0435 -0.3438 -0.3932
 8110SOL    HW135789   0.513   1.652  15.434 -0.9530 -0.0737  0.9832
 8110SOL    HW235790   0.533   1.588  15.566  1.4848  1.6894 -0.5235
 8111SOL     OW35791   2.019   0.131   4.038 -0.6721  0.0634  0.3606
 8111SOL    HW135792   1.970   0.212   4.023  1.5201  1.6386  1.5491
 8111SOL    HW235793   2.102   0.172   4.066 -0.3930  1.5869 -2.6419
 8112SOL     OW35794   0.441   1.607   2.423 -0.2367  0.1448 -0.0219
 8112SOL    HW135795   0.370   1.550   2.395  1.8066 -2.9274  0.9924
 8112SOL    HW235796   0.395   1.686   2.447  1.8785  1.6552 -0.8897
 8113SOL     OW35797   1.068   0.491   4.278 -0.0821  0.3542  0.4088
 8113SOL    HW135798   1.051   0.563   4.217 -1.3134  0.3584  0.7716
 8113SOL    HW235799   0.980   0.454   4.284  1.3129 -3.5672 -3.0649
 8114SOL     OW35800   1.230   4.375   1.202  0.3011 -0.3584 -0.0860
 8114SOL    HW135801   1.215   4.347   1.293 -1.3080  0.6966 -0.0219
 8114SOL    HW235802   1.157   4.437   1.197 -0.1670 -0.8282  0.8392
 8115SOL     OW35803   1.400   1.305   6.578  0.0080  0.2661 -0.0323
 8115SOL    HW135804   1.453   1.227   6.594  0.4675  0.7698  0.9383
 8115SOL    HW235805   1.459   1.379   6.562  0.5063 -0.0795  0.2098
 8116SOL     OW35806   4.283   2.286   6.469  0.1984 -0.1090 -0.0831
 8116SOL    HW135807   4.218   2.335   6.518  2.0550  2.4691 -0.2216
 8116SOL    HW235808   4.361   2.320   6.513  0.6172  1.6827 -2.2105
 8117SOL     OW35809   3.484   3.859   9.385  0.4634 -0.4188  0.0741
 8117SOL    HW135810   3.477   3.944   9.428  1.6426 -0.0446 -0.4561
 8117SOL    HW235811   3.488   3.880   9.292 -0.8487  0.3201  0.1907
 8118SOL     OW35812   3.753   3.192   4.754 -0.1787  0.2678  0.1501
 8118SOL    HW135813   3.781   3.196   4.662 -1.1289 -1.6846 -0.2383
 8118SOL    HW235814   3.679   3.252   4.762 -0.0419  0.5109 -0.3783
 8119SOL     OW35815   2.679   4.564   2.561 -0.2976 -0.0373 -0.2603
 8119SOL    HW135816   2.756   4.613   2.532  1.1317 -2.2863 -0.3124
 8119SOL    HW235817   2.705   4.476   2.532 -1.3188 -0.2882 -0.4237
 8120SOL     OW35818   3.952   0.500  12.142  0.1629 -0.1501  0.1897
 8120SOL    HW135819   3.997   0.559  12.081  1.9052 -1.6500  0.0295
 8120SOL    HW235820   3.910   0.570  12.191  0.7134  0.3206 -0.0141
 8121SOL     OW35821   1.622   2.072   7.555 -0.1048 -0.1894 -0.2141
 8121SOL    HW135822   1.533   2.046   7.579  0.5080  0.8812  3.2067
 8121SOL    HW235823   1.662   1.994   7.592  0.2532 -0.3043 -0.8551
 8122SOL     OW35824   1.300   3.015   7.956  0.1139  0.0381  0.1580
 8122SOL    HW135825   1.321   3.096   8.004 -3.2717  0.0575  1.5837
 8122SOL    HW235826   1.382   3.010   7.906 -0.1613  3.4339 -0.6668
 8123SOL     OW35827   2.823   0.300   9.299  0.4354  0.2006 -0.4997
 8123SOL    HW135828   2.897   0.263   9.348 -0.5431 -1.0146  0.0463
 8123SOL    HW235829   2.853   0.391   9.304  0.1019  0.1974  1.5327
 8124SOL     OW35830   2.339   2.186  13.876 -0.3172 -0.0475  0.4011
 8124SOL    HW135831   2.415   2.136  13.846 -1.8443 -2.7462  1.0148
 8124SOL    HW235832   2.263   2.137  13.845  0.6213 -0.5481 -1.0768
 8125SOL     OW35833   3.627   1.649  12.891 -0.1304  0.0870  0.0980
 8125SOL    HW135834   3.579   1.601  12.823  0.7397  2.8304 -2.4551
 8125SOL    HW235835   3.574   1.638  12.970 -2.1793 -0.1250 -1.2962
 8126SOL     OW35836   3.198   2.765   6.352 -0.4347  0.2736  0.1424
 8126SOL    HW135837   3.148   2.719   6.286 -0.9092  1.8059 -0.5757
 8126SOL    HW235838   3.258   2.811   6.293 -0.2115  2.5167  2.1049
 8127SOL     OW35839   0.665   3.432   8.842  0.6283  0.1886 -0.5364
 8127SOL    HW135840   0.657   3.390   8.927 -1.0816 -0.1991 -0.8874
 8127SOL    HW235841   0.579   3.406   8.808  0.4896 -0.5288  0.3798
 8128SOL     OW35842   3.447   4.352   9.383  0.2109  0.0202 -0.1315
 8128SOL    HW135843   3.355   4.339   9.356  0.1735 -1.6056  0.7361
 8128SOL    HW235844   3.501   4.335   9.306  1.9920  2.3052  0.6395
 8129SOL     OW35845   3.121   0.435   7.266 -0.0887 -0.5974 -0.1123
 8129SOL    HW135846   3.042   0.453   7.216 -0.0724  1.9402  0.7739
 8129SOL    HW235847   3.152   0.350   7.236 -0.0951 -0.9173  0.8024
 8130SOL     OW35848   1.347   2.767   1.710 -0.5083  0.5947 -0.0524
 8130SOL    HW135849   1.332   2.821   1.632 -1.5933 -0.1234 -0.3397
 8130SOL    HW235850   1.268   2.779   1.763 -1.0755 -0.5554 -0.6455
 8131SOL     OW35851   0.729   1.480   6.060 -0.2556  0.0199 -0.4767
 8131SOL    HW135852   0.645   1.515   6.090  0.3033  2.4387 -1.6929
 8131SOL    HW235853   0.705   1.397   6.101 -0.7033 -0.1391 -1.0705
 8132SOL     OW35854   2.676   3.138   2.140  0.1946  0.1991  0.0725
 8132SOL    HW135855   2.749   3.108   2.086  0.3699  1.8278 -0.5981
 8132SOL    HW235856   2.637   3.214   2.098  1.2264 -0.4680 -2.1091
 8133SOL     OW35857   3.991   3.271   2.668 -0.0081 -0.4922 -0.1716
 8133SOL    HW135858   3.966   3.244   2.580 -0.8707  1.7987 -0.6345
 8133SOL    HW235859   4.072   3.320   2.654 -0.9863  0.9911 -0.6528
 8134SOL     OW35860   2.833   2.068   2.168  0.2457  0.8236 -0.5334
 8134SOL    HW135861   2.772   2.008   2.211  2.3333 -0.5145  0.5882
 8134SOL    HW235862   2.920   2.054   2.207 -1.1164 -1.9080  1.5399
 8135SOL     OW35863   1.098   1.900   2.969  0.6204  0.1700 -0.1463
 8135SOL    HW135864   1.111   1.986   2.930 -1.4807  1.2385  1.5026
 8135SOL    HW235865   1.131   1.924   3.056 -0.1815 -0.9743  0.4764
 8136SOL     OW35866   3.183   0.945   5.952 -0.7070  0.7081 -0.1070
 8136SOL    HW135867   3.246   0.875   5.931 -1.3429 -0.9379  3.4515
 8136SOL    HW235868   3.111   0.936   5.890  1.2938  0.6795 -2.4308
 8137SOL     OW35869   0.269   2.843   7.048 -0.1130 -0.0048 -0.1684
 8137SOL    HW135870   0.337   2.900   7.011 -0.8204 -0.1591 -1.7197
 8137SOL    HW235871   0.283   2.754   7.016  0.2928 -0.2106  0.5935
 8138SOL     OW35872   0.979   0.328   5.133 -0.0772  0.3175  0.2720
 8138SOL    HW135873   0.946   0.384   5.064 -1.2337  0.0615  0.6173
 8138SOL    HW235874   1.071   0.352   5.122 -0.1173 -0.7013 -2.3070
 8139SOL     OW35875   3.536   4.197   8.205  0.0140  0.3088  0.5739
 8139SOL    HW135876   3.517   4.285   8.173  2.0270 -0.4759 -2.7383
 8139SOL    HW235877   3.624   4.179   8.173 -0.4934 -1.3781  0.1216
 8140SOL     OW35878   2.887   0.371   4.779  0.4140  0.8615  0.5707
 8140SOL    HW135879   2.810   0.376   4.724 -1.5617  1.5046  3.4133
 8140SOL    HW235880   2.858   0.382   4.869 -2.9886 -0.2430 -0.4049
 8141SOL     OW35881   2.320   0.133   1.145 -0.3845 -0.3347 -0.1558
 8141SOL    HW135882   2.304   0.174   1.060 -0.9334 -1.5021 -0.6162
 8141SOL    HW235883   2.394   0.181   1.181 -0.3066 -0.1353 -0.5757
 8142SOL     OW35884   4.146   2.909   4.331  0.1134  0.1717  0.1083
 8142SOL    HW135885   4.203   2.925   4.256  0.3288 -1.9583 -0.1732
 8142SOL    HW235886   4.187   2.828   4.360  3.2029  1.3747 -0.8390
 8143SOL     OW35887   1.923   1.956   8.663  0.1023  0.6192 -0.0864
 8143SOL    HW135888   1.882   1.979   8.747  0.2385 -1.8031  0.6339
 8143SOL    HW235889   1.916   2.044   8.626  0.8306  0.5432 -0.3962
 8144SOL     OW35890   1.963   2.003   2.293  0.2546 -0.3342 -0.1446
 8144SOL    HW135891   1.873   2.032   2.308  1.0886  1.0062  2.1553
 8144SOL    HW235892   1.995   1.997   2.383 -1.0936 -0.2824  0.3312
 8145SOL     OW35893   4.341   2.597   4.224 -0.7360  0.2122  0.4959
 8145SOL    HW135894   4.293   2.582   4.143 -0.2893 -1.9108  0.6189
 8145SOL    HW235895   4.375   2.509   4.243  2.3788  1.4315  0.4741
 8146SOL     OW35896   4.473   4.192   7.144  0.2831 -0.3031 -0.0459
 8146SOL    HW135897   4.565   4.216   7.130  0.1840 -0.1272 -0.3783
 8146SOL    HW235898   4.427   4.274   7.128  1.4292  0.5073  0.7411
 8147SOL     OW35899   2.271   1.185  10.546 -0.0802  0.4427 -0.1536
 8147SOL    HW135900   2.326   1.160  10.620  0.9287  1.1691 -0.6509
 8147SOL    HW235901   2.215   1.109  10.530  1.9537 -1.2485  0.8691
 8148SOL     OW35902   1.095   0.743  12.142  0.1461 -0.4900 -0.0536
 8148SOL    HW135903   1.031   0.786  12.085  1.0470  1.8569  0.6959
 8148SOL    HW235904   1.063   0.778  12.226 -0.5730 -2.0302  0.3235
 8149SOL     OW35905   0.055   1.011  15.683 -0.4433 -0.4194  0.7735
 8149SOL    HW135906   0.047   1.044  15.773  0.6577  0.4906  0.5397
 8149SOL    HW235907   0.147   1.032  15.670 -1.4584  3.3875 -0.2745
 8150SOL     OW35908   3.670   3.201   7.163 -0.9209  0.2798  0.1060
 8150SOL    HW135909   3.754   3.155   7.168 -0.6115  0.8082 -0.2459
 8150SOL    HW235910   3.605   3.131   7.162  2.3916 -2.8727  2.6715
 8151SOL     OW35911   3.885   1.213  10.638 -0.0730 -0.0148 -0.3671
 8151SOL    HW135912   3.847   1.205  10.550 -0.6091  1.6228 -0.3000
 8151SOL    HW235913   3.830   1.285  10.670  0.3710  0.1498  0.0260
 8152SOL     OW35914   3.799   2.064   8.210 -0.6598 -0.6290  0.2799
 8152SOL    HW135915   3.726   2.050   8.270 -1.6367  1.1402 -0.5287
 8152SOL    HW235916   3.768   2.149   8.180 -0.4157 -0.2144  1.2146
 8153SOL     OW35917   3.454   3.069   1.440 -0.8147 -0.4774 -0.2843
 8153SOL    HW135918   3.387   3.090   1.375  1.4992 -1.6885 -3.0860
 8153SOL    HW235919   3.462   3.161   1.467 -1.5913 -1.1993  2.4096
 8154SOL     OW35920   0.255   3.015   7.778 -0.5684 -0.0230  0.2108
 8154SOL    HW135921   0.249   3.085   7.713 -2.6690  0.9108  1.4347
 8154SOL    HW235922   0.350   3.010   7.791 -0.5782 -2.4107 -0.6258
 8155SOL     OW35923   3.470   4.461   7.091 -0.1305  0.1520  0.1624
 8155SOL    HW135924   3.535   4.471   7.160  0.3677  2.3460 -0.6193
 8155SOL    HW235925   3.438   4.372   7.102 -2.2492  0.7535 -0.9437
 8156SOL     OW35926   1.243   3.151   0.503 -0.5219 -0.3506 -0.7651
 8156SOL    HW135927   1.209   3.189   0.584 -0.6280 -1.7590 -0.1499
 8156SOL    HW235928   1.236   3.223   0.441 -0.6975 -0.0213 -0.3643
 8157SOL     OW35929   2.077   0.465   5.107  0.5154  0.1845  0.3615
 8157SOL    HW135930   2.149   0.410   5.079  1.3473  1.6395 -0.3606
 8157SOL    HW235931   2.057   0.424   5.192  0.2322 -2.0408 -0.7939
 8158SOL     OW35932   3.696   0.148   8.931  0.1963 -0.0013 -0.5217
 8158SOL    HW135933   3.662   0.066   8.895 -1.7043 -0.1452  1.6160
 8158SOL    HW235934   3.618   0.175   8.980 -0.5663 -3.3478  0.0729
 8159SOL     OW35935   0.397   0.796   2.554  0.0394 -0.1855  0.0920
 8159SOL    HW135936   0.415   0.889   2.545  0.1590  0.0945  3.1500
 8159SOL    HW235937   0.487   0.765   2.563  0.1022  0.0610  0.3215
 8160SOL     OW35938   4.584   0.829  11.898 -0.4714 -0.0654  0.1710
 8160SOL    HW135939   4.660   0.886  11.885 -1.0385  0.5545 -0.3807
 8160SOL    HW235940   4.554   0.792  11.815  1.5596  1.2522 -1.1410
 8161SOL     OW35941   2.893   0.733   7.247  0.0604  0.2811  0.4473
 8161SOL    HW135942   2.923   0.819   7.275  2.5229  0.4257 -2.5588
 8161SOL    HW235943   2.922   0.748   7.157 -0.4436  0.8733  0.3815
 8162SOL     OW35944   3.779   3.745   5.521  0.2257  0.1885 -0.0114
 8162SOL    HW135945   3.811   3.679   5.584 -0.0027  0.0113 -0.0804
 8162SOL    HW235946   3.688   3.717   5.513  0.5239 -1.5351  2.3855
 8163SOL     OW35947   2.134   3.351  11.696 -0.3390 -0.4626 -0.8333
 8163SOL    HW135948   2.056   3.334  11.750  2.0921 -0.3060  2.7405
 8163SOL    HW235949   2.110   3.433  11.653  1.0622  1.0242  1.2052
 8164SOL     OW35950   1.005   1.382   4.533 -0.1277 -0.1104  0.2332
 8164SOL    HW135951   0.943   1.456   4.531 -0.1778 -0.1787 -0.6441
 8164SOL    HW235952   1.069   1.422   4.474 -2.2180 -0.6743 -2.4487
 8165SOL     OW35953   1.705   3.789   7.196 -0.2236 -0.1299  0.7854
 8165SOL    HW135954   1.646   3.847   7.244 -0.0757  0.3274  0.4058
 8165SOL    HW235955   1.661   3.706   7.216  0.7159 -0.5965  0.9239
 8166SOL     OW35956   3.795   4.001   2.091 -0.0766  0.1178  0.5160
 8166SOL    HW135957   3.742   4.066   2.137  1.0477  1.4030 -0.0022
 8166SOL    HW235958   3.883   4.039   2.087 -0.9354  2.0852 -0.0052
 8167SOL     OW35959   2.619   2.707  16.269 -0.5561 -0.6439 -0.4109
 8167SOL    HW135960   2.633   2.615  16.291 -0.3297 -0.7843 -1.1307
 8167SOL    HW235961   2.569   2.695  16.188 -0.9529  1.4289 -0.4887
 8168SOL     OW35962   0.054   2.352  17.381  0.1537 -0.0672 -0.3061
 8168SOL    HW135963   4.721   2.329  17.453  2.4689 -0.8012  1.3850
 8168SOL    HW235964   0.031   2.445  17.377  2.2566  0.3938 -1.7168
 8169SOL     OW35965   0.865   1.295   7.173  0.0966  0.4937  0.2980
 8169SOL    HW135966   0.928   1.344   7.120  0.5096 -1.1716 -0.7901
 8169SOL    HW235967   0.791   1.288   7.112  0.2887 -0.9710  0.2153
 8170SOL     OW35968   1.223   0.795   3.417  0.3653 -0.1787  0.3496
 8170SOL    HW135969   1.197   0.727   3.479 -0.1280 -0.9466 -0.6813
 8170SOL    HW235970   1.227   0.736   3.341 -0.2730  0.5024 -0.2182
 8171SOL     OW35971   0.177   1.998   4.741  0.1587  0.2989  0.6329
 8171SOL    HW135972   0.188   1.979   4.835 -2.4710  0.8223  1.0497
 8171SOL    HW235973   0.258   1.958   4.709  0.8640  0.9757  1.5583
 8172SOL     OW35974   2.062   0.896  16.945 -0.4594  0.4228 -0.2451
 8172SOL    HW135975   1.995   0.827  16.942 -1.2745  1.2003  0.3603
 8172SOL    HW235976   2.018   0.957  17.004 -0.1643 -1.0887  1.5324
 8173SOL     OW35977   3.791   0.290  12.299  0.7606 -0.3173 -0.3831
 8173SOL    HW135978   3.866   0.333  12.259 -0.9855  1.4073 -1.8330
 8173SOL    HW235979   3.748   0.369  12.332 -2.9542 -1.9681 -1.1892
 8174SOL     OW35980   4.677   1.593   5.033 -0.3169 -0.1088 -0.0552
 8174SOL    HW135981   0.046   1.605   5.035 -0.8661  4.0842 -0.4588
 8174SOL    HW235982   4.658   1.580   5.126  1.4572  0.2934  0.3656
 8175SOL     OW35983   1.659   0.645   0.566  0.3675  0.2001 -0.0758
 8175SOL    HW135984   1.629   0.705   0.634 -1.3721  0.4705 -1.0947
 8175SOL    HW235985   1.748   0.673   0.545  0.6167 -1.7930 -1.6829
 8176SOL     OW35986   1.281   3.295  14.675 -0.0193 -0.1144  0.3168
 8176SOL    HW135987   1.369   3.296  14.712  0.7239 -1.4749 -1.4238
 8176SOL    HW235988   1.265   3.389  14.666  0.2565  0.0104  1.1373
 8177SOL     OW35989   1.530   3.371   0.228 -0.5175  0.3954 -0.9113
 8177SOL    HW135990   1.479   3.370   0.147  1.6345 -1.3834 -2.2497
 8177SOL    HW235991   1.488   3.444   0.274 -0.6058  0.2701 -0.7920
 8178SOL     OW35992   0.273   1.844   3.477 -0.5561 -0.1180  0.5135
 8178SOL    HW135993   0.251   1.921   3.426 -1.3680 -1.5342 -1.2887
 8178SOL    HW235994   0.287   1.882   3.564  2.4146 -0.1079  0.0277
 8179SOL     OW35995   3.936   2.635   4.580 -0.1374  0.0220 -0.2084
 8179SOL    HW135996   3.984   2.683   4.648 -1.6126  1.3823 -0.1469
 8179SOL    HW235997   4.001   2.631   4.510 -0.2758 -1.4894 -0.2614
 8180SOL     OW35998   0.919   1.627  13.135  0.1188 -0.2181 -0.0526
 8180SOL    HW135999   0.890   1.541  13.104 -2.2196 -0.2976  2.4040
 8180SOL    HW236000   1.007   1.630  13.097 -0.2910 -2.0922 -1.1482
 8181SOL     OW36001   4.418   1.490   9.110  0.1712  0.2105  0.3924
 8181SOL    HW136002   4.430   1.408   9.160  1.0058 -0.6417 -1.2106
 8181SOL    HW236003   4.506   1.524   9.098  0.3796 -0.6986 -0.7034
 8182SOL     OW36004   1.658   1.399   3.569  0.1556 -0.0700  0.3428
 8182SOL    HW136005   1.749   1.374   3.584  0.3931 -0.5632 -1.8911
 8182SOL    HW236006   1.631   1.321   3.519  0.7006  0.7660 -1.2654
 8183SOL     OW36007   2.460   1.105   1.993 -0.6921  0.0959 -0.6122
 8183SOL    HW136008   2.408   1.093   2.072 -0.1616  0.8462 -0.1555
 8183SOL    HW236009   2.545   1.085   2.030 -1.5528 -0.2581  1.1467
 8184SOL     OW36010   1.446   4.526  14.205 -0.8064 -0.2731 -0.1907
 8184SOL    HW136011   1.458   4.517  14.299 -1.0995  0.3710 -0.0921
 8184SOL    HW236012   1.379   4.460  14.186  1.5493 -2.5300 -0.5512
 8185SOL     OW36013   0.387   4.649   4.671  0.2669 -0.1679 -0.2147
 8185SOL    HW136014   0.297   4.668   4.645 -0.0793 -0.6825  0.6282
 8185SOL    HW236015   0.386   4.559   4.639  1.8716 -0.5960  0.9539
 8186SOL     OW36016   3.141   4.172   9.092 -0.2120  0.5241 -0.2427
 8186SOL    HW136017   3.053   4.144   9.117  0.5193 -2.0359 -0.5047
 8186SOL    HW236018   3.151   4.120   9.013  0.9568  0.0821  0.2014
 8187SOL     OW36019   4.296   3.926   2.935 -0.3667  0.3083  0.0874
 8187SOL    HW136020   4.231   3.909   2.866 -2.1637  1.2716  1.5236
 8187SOL    HW236021   4.327   4.009   2.898  0.2930  0.3424  0.7055
 8188SOL     OW36022   1.407   2.838   2.083 -0.2357  0.2610  0.2072
 8188SOL    HW136023   1.320   2.810   2.057 -0.7842  2.0415  0.1163
 8188SOL    HW236024   1.411   2.917   2.029  0.5735  1.1217  1.5205
 8189SOL     OW36025   1.550   4.641   7.031  0.0536  0.3344 -0.3340
 8189SOL    HW136026   1.500   4.606   7.105 -1.8826  2.6769 -0.5555
 8189SOL    HW236027   1.531   4.572   6.967 -2.3829  0.8455 -0.1357
 8190SOL     OW36028   3.008   3.912   4.445  0.1842  0.1153 -0.3710
 8190SOL    HW136029   3.007   3.842   4.510  2.5787  0.6554  0.2456
 8190SOL    HW236030   2.922   3.901   4.406 -0.0502 -1.5460  0.6469
 8191SOL     OW36031   1.046   1.726  10.762 -0.5507  0.1536  0.5057
 8191SOL    HW136032   1.132   1.714  10.720 -1.2280  0.8983 -1.1022
 8191SOL    HW236033   1.056   1.651  10.821  0.8028  0.3499  0.5459
 8192SOL     OW36034   3.058   2.692   6.128  0.0974  0.4020  0.0387
 8192SOL    HW136035   2.982   2.729   6.083  0.7456  0.8780 -0.6802
 8192SOL    HW236036   3.026   2.607   6.156 -3.7040  1.2991 -1.5701
 8193SOL     OW36037   4.546   2.916  11.922  0.4834  0.5159  0.1040
 8193SOL    HW136038   4.586   2.924  11.835 -0.9960  1.6158 -0.4712
 8193SOL    HW236039   4.538   3.008  11.947 -0.4699  0.0526  1.4864
 8194SOL     OW36040   2.529   3.100   9.473  0.2505 -0.1721 -0.2042
 8194SOL    HW136041   2.455   3.139   9.518  0.2391 -1.8058  1.1669
 8194SOL    HW236042   2.541   3.006   9.488 -0.6927  0.0427  1.8562
 8195SOL     OW36043   3.283   2.266  10.980  0.3247 -0.3216 -0.1400
 8195SOL    HW136044   3.343   2.203  10.942  1.8996  1.1972 -0.1647
 8195SOL    HW236045   3.338   2.308  11.046 -2.2077  0.2997  1.5751
 8196SOL     OW36046   4.469   1.923   0.869 -0.1647 -0.1519 -0.0129
 8196SOL    HW136047   4.423   1.840   0.855  1.4480 -1.2845  1.4442
 8196SOL    HW236048   4.557   1.889   0.882  0.2881  0.9823 -0.1327
 8197SOL     OW36049   4.210   3.437   4.948  1.1773  0.2866  0.0103
 8197SOL    HW136050   4.177   3.508   4.893 -0.4035 -0.5615 -0.1245
 8197SOL    HW236051   4.149   3.375   4.909 -0.4765  0.1573  2.7273
 8198SOL     OW36052   0.182   3.736   3.211 -0.2628 -0.3514  0.1713
 8198SOL    HW136053   0.268   3.693   3.208 -0.7821 -1.4042  0.6707
 8198SOL    HW236054   0.131   3.663   3.243  1.4233 -1.9606 -0.7959
 8199SOL     OW36055   4.338   2.596   7.418 -0.4078 -0.1937  0.5839
 8199SOL    HW136056   4.394   2.526   7.451 -0.6537 -1.0175 -0.7462
 8199SOL    HW236057   4.374   2.617   7.332 -0.0781  2.2446  1.3307
 8200SOL     OW36058   3.864   1.169   1.328  0.0132  0.0247  0.0152
 8200SOL    HW136059   3.809   1.155   1.251 -1.2197  1.1738  0.6792
 8200SOL    HW236060   3.840   1.261   1.339 -0.7885 -0.5703  3.1660
 8201SOL     OW36061   1.134   1.780   6.249 -0.6171  0.0420  0.0742
 8201SOL    HW136062   1.188   1.701   6.245 -1.0670 -0.2247 -0.8054
 8201SOL    HW236063   1.090   1.761   6.332  1.9399 -0.4618  1.3221
 8202SOL     OW36064   0.194   1.481   6.105  0.3296 -0.0280  0.6601
 8202SOL    HW136065   0.189   1.496   6.011 -0.4808  1.2263  0.9019
 8202SOL    HW236066   0.110   1.506   6.144  0.2765 -1.4351  1.4192
 8203SOL     OW36067   1.319   3.432   5.638 -0.4384  0.1236 -0.4966
 8203SOL    HW136068   1.392   3.484   5.605  1.3947 -1.4128  1.1228
 8203SOL    HW236069   1.254   3.464   5.576 -0.1997 -0.0736 -0.8454
 8204SOL     OW36070   1.309   4.437   4.169  0.0255  0.0095 -0.1855
 8204SOL    HW136071   1.382   4.460   4.227 -1.0863 -1.0072  1.6127
 8204SOL    HW236072   1.268   4.522   4.153 -1.0852 -0.2215  1.3947
 8205SOL     OW36073   1.961   4.221   2.148 -0.2694  0.2072  0.1971
 8205SOL    HW136074   1.888   4.158   2.145 -0.0128 -0.1123  0.5662
 8205SOL    HW236075   2.004   4.209   2.064 -0.4368  0.0469  0.1328
 8206SOL     OW36076   3.374   0.450   8.148  0.4232 -0.5819 -0.1881
 8206SOL    HW136077   3.288   0.418   8.174  0.2357  1.3112  1.5082
 8206SOL    HW236078   3.376   0.537   8.186 -1.6464 -0.7186  0.1915
 8207SOL     OW36079   3.044   4.521  17.579  0.0058  0.0328 -0.2201
 8207SOL    HW136080   3.061   4.571  17.499 -0.7613  0.7818  0.0815
 8207SOL    HW236081   3.001   4.441  17.548  0.3682 -0.6559  1.0619
 8208SOL     OW36082   4.319   4.467  17.678  0.1789  0.6990 -0.3595
 8208SOL    HW136083   4.383   4.510  17.620  0.9773 -0.2109 -0.1634
 8208SOL    HW236084   4.289   4.396  17.622 -0.9035  2.2017 -1.6633
 8209SOL     OW36085   3.720   0.039   1.048 -0.2327  0.5529  0.1078
 8209SOL    HW136086   3.710   4.670   1.039  2.0386  0.1414  1.8954
 8209SOL    HW236087   3.681   0.064   0.964 -2.5420  1.7302  1.5538
 8210SOL     OW36088   3.692   1.650  16.697  0.1117 -0.5528  0.3949
 8210SOL    HW136089   3.657   1.570  16.735  1.2967 -0.2071  2.2333
 8210SOL    HW236090   3.644   1.669  16.617 -3.0175 -0.6907  2.2513
 8211SOL     OW36091   3.600   1.272   0.604  0.4989 -0.5961  0.3471
 8211SOL    HW136092   3.558   1.216   0.538  0.2922  1.4129 -1.2318
 8211SOL    HW236093   3.532   1.275   0.671 -0.1170  1.2357 -0.3456
 8212SOL     OW36094   0.540   3.256   9.496  0.4990  0.2299 -0.2326
 8212SOL    HW136095   0.562   3.305   9.417 -0.8365  1.4651  0.1495
 8212SOL    HW236096   0.444   3.252   9.496  0.3454  3.7398  0.3345
 8213SOL     OW36097   1.351   2.721   7.574  0.7731  0.0765 -0.5945
 8213SOL    HW136098   1.322   2.718   7.665 -0.7570  0.1886 -1.0652
 8213SOL    HW236099   1.404   2.641   7.567 -1.5816 -1.6062  0.5666
 8214SOL     OW36100   3.238   2.221   2.775  0.1416  0.0750  0.1082
 8214SOL    HW136101   3.293   2.228   2.697 -0.0023  0.7098  0.0652
 8214SOL    HW236102   3.305   2.198   2.839  1.9052  0.2541 -1.6650
 8215SOL     OW36103   1.377   1.319   1.916  0.2316  0.5168  0.4461
 8215SOL    HW136104   1.374   1.306   2.010 -3.2304 -0.1655  0.2452
 8215SOL    HW236105   1.286   1.312   1.886  0.5644 -0.1753 -0.4280
 8216SOL     OW36106   1.584   2.464   3.213 -0.3481 -0.1129  0.4048
 8216SOL    HW136107   1.676   2.438   3.211 -0.5431 -0.5779 -1.9068
 8216SOL    HW236108   1.586   2.558   3.192  0.0898  0.0140  0.9942
 8217SOL     OW36109   0.925   4.214   1.090  0.2185 -1.2711 -0.4777
 8217SOL    HW136110   0.916   4.172   1.176  1.9095  0.1306  0.3978
 8217SOL    HW236111   0.877   4.159   1.029  0.8183 -0.7108 -1.4662
 8218SOL     OW36112   2.944   3.786   4.945  0.5279 -0.2963  0.1489
 8218SOL    HW136113   3.030   3.814   4.912  0.2303 -0.6591 -0.8955
 8218SOL    HW236114   2.888   3.847   4.897 -0.0807 -0.4132  0.7069
 8219SOL     OW36115   1.178   2.478  10.142  0.2600 -0.1168 -0.0990
 8219SOL    HW136116   1.143   2.390  10.129 -1.8543  0.8171 -0.8628
 8219SOL    HW236117   1.263   2.477  10.097 -0.5290  0.3330 -1.6281
 8220SOL     OW36118   1.012   0.550   7.995  0.3439 -0.2217  0.1165
 8220SOL    HW136119   0.951   0.486   8.030 -1.2543  1.6413  0.7678
 8220SOL    HW236120   0.983   0.633   8.034 -1.3832  0.0213 -1.7297
 8221SOL     OW36121   3.741   2.666  16.292  0.1345  0.5734 -0.4085
 8221SOL    HW136122   3.744   2.711  16.377  0.8022  0.8199 -0.5618
 8221SOL    HW236123   3.786   2.583  16.305 -0.1576  0.5118  0.1816
 8222SOL     OW36124   3.774   2.554   3.924  0.6800 -0.6539  0.2021
 8222SOL    HW136125   3.853   2.550   3.871 -0.5833 -3.2212 -1.5129
 8222SOL    HW236126   3.813   2.600   3.999 -0.9031  1.0674 -0.0275
 8223SOL     OW36127   1.503   1.424   1.594 -0.5361  0.2609 -0.4165
 8223SOL    HW136128   1.489   1.508   1.549 -2.2344  0.5135  0.5843
 8223SOL    HW236129   1.411   1.398   1.594 -1.0093  1.8878  1.9788
 8224SOL     OW36130   1.587   0.293   5.362 -0.2380  0.1839  0.6037
 8224SOL    HW136131   1.561   0.383   5.340  0.3881  0.3669  0.6285
 8224SOL    HW236132   1.623   0.264   5.278 -0.8194 -1.5401  0.9503
 8225SOL     OW36133   3.618   1.075  15.804 -0.2055  0.1679  0.0239
 8225SOL    HW136134   3.630   0.985  15.834  1.4175  0.4721  0.2570
 8225SOL    HW236135   3.610   1.066  15.709  1.3519  1.1900 -0.2081
 8226SOL     OW36136   1.827   2.841   4.373 -0.2838  0.1012 -0.1059
 8226SOL    HW136137   1.884   2.886   4.435 -0.8303 -1.2599  1.4105
 8226SOL    HW236138   1.777   2.790   4.437  1.0480 -0.1490  0.7330
 8227SOL     OW36139   3.206   3.030  11.549  0.2569 -0.6333  0.0514
 8227SOL    HW136140   3.277   3.086  11.580 -1.4721  0.9071  1.2373
 8227SOL    HW236141   3.179   3.001  11.636  1.4489 -1.0173  0.2960
 8228SOL     OW36142   4.526   4.073   6.489 -0.1374 -0.1072  0.5399
 8228SOL    HW136143   4.514   4.081   6.394  1.5611 -1.0968  0.2437
 8228SOL    HW236144   4.438   4.048   6.519 -0.7283  0.0933 -1.0004
 8229SOL     OW36145   4.220   4.206   9.508  0.0670  0.1962  0.2911
 8229SOL    HW136146   4.303   4.251   9.494  0.3110 -0.1429  0.6676
 8229SOL    HW236147   4.198   4.172   9.422 -0.7674  2.1205 -0.2590
 8230SOL     OW36148   0.044   2.112   1.053  1.0785  0.3646 -0.0686
 8230SOL    HW136149   0.066   2.086   0.963  1.1844  0.8261 -0.1773
 8230SOL    HW236150   4.681   2.146   1.048  1.0196  0.3746  1.2139
 8231SOL     OW36151   2.083   1.090   3.400  0.7575  0.3006  0.0655
 8231SOL    HW136152   2.131   1.079   3.319  3.4649 -2.5923  2.0761
 8231SOL    HW236153   2.153   1.061   3.459  0.8831 -1.1423 -0.7932
 8232SOL     OW36154   4.403   2.954   0.680 -0.3043 -0.3565 -0.3205
 8232SOL    HW136155   4.487   2.999   0.670  0.1039 -0.9175  0.5580
 8232SOL    HW236156   4.433   2.876   0.727 -2.0833 -0.6605  0.2973
 8233SOL     OW36157   1.089   3.581   5.216 -0.6682 -0.3502  0.2722
 8233SOL    HW136158   1.124   3.532   5.141  1.8468 -0.1545  1.3529
 8233SOL    HW236159   1.079   3.667   5.175  2.2335  0.0732  0.4758
 8234SOL     OW36160   1.904   1.836   2.695 -0.2193 -0.1140  0.0550
 8234SOL    HW136161   1.952   1.909   2.656  0.8190  0.4187  2.3459
 8234SOL    HW236162   1.965   1.765   2.672 -2.4698 -2.2907  0.7556
 8235SOL     OW36163   1.416   1.941  17.295 -0.0871  0.5604  0.0605
 8235SOL    HW136164   1.382   1.854  17.276  0.9904  0.5662 -1.8819
 8235SOL    HW236165   1.494   1.922  17.345  0.0642 -0.6660 -0.6517
 8236SOL     OW36166   1.818   0.044  11.277  0.1811 -0.0133 -0.1300
 8236SOL    HW136167   1.841   0.041  11.370  1.6095  3.0730 -0.4058
 8236SOL    HW236168   1.740   4.714  11.271  0.5456 -0.7947  2.2672
 8237SOL     OW36169   2.337   2.468   6.052 -0.5355  0.2338 -0.0819
 8237SOL    HW136170   2.242   2.468   6.037 -0.7999 -2.2133  1.6570
 8237SOL    HW236171   2.334   2.481   6.146 -0.6048  0.4807 -0.1188
 8238SOL     OW36172   2.219   2.931   8.061  0.0575  0.2662 -0.2081
 8238SOL    HW136173   2.148   2.989   8.034 -1.4633 -1.1501  0.7305
 8238SOL    HW236174   2.272   2.993   8.111 -0.3525  2.4343 -2.4295
 8239SOL     OW36175   4.137   3.731   9.431  0.4929 -0.0432  0.3389
 8239SOL    HW136176   4.232   3.727   9.442  0.5544 -0.8661 -0.5211
 8239SOL    HW236177   4.130   3.772   9.344 -1.8782  0.3119  0.6911
 8240SOL     OW36178   4.508   4.644   8.747  1.1265 -0.2157 -0.4508
 8240SOL    HW136179   4.452   4.655   8.823  1.5646 -0.4172 -0.0995
 8240SOL    HW236180   4.444   4.618   8.680  1.3870  1.6638 -1.4266
 8241SOL     OW36181   4.204   0.620   2.102  0.0171  0.5909 -0.0967
 8241SOL    HW136182   4.258   0.689   2.065  1.0921  0.4213  1.1756
 8241SOL    HW236183   4.234   0.554   2.040  1.4856 -0.4466  1.7210
 8242SOL     OW36184   1.665   3.415   4.864 -0.4746  0.4181 -0.5055
 8242SOL    HW136185   1.577   3.412   4.828 -1.1219 -0.5800  1.1496
 8242SOL    HW236186   1.674   3.509   4.879 -2.2134  0.7073 -1.3067
 8243SOL     OW36187   1.088   1.157   6.614  0.2099  0.1503 -0.4669
 8243SOL    HW136188   1.047   1.070   6.614 -0.5535  0.5044 -2.0163
 8243SOL    HW236189   1.168   1.124   6.572 -0.9927 -1.9164 -1.1568
 8244SOL     OW36190   1.408   3.007   4.956  0.4631 -0.1642  0.5589
 8244SOL    HW136191   1.385   2.971   4.870  0.3219  0.9927  0.1092
 8244SOL    HW236192   1.501   2.989   4.941 -0.0384 -0.5231 -2.2359
 8245SOL     OW36193   1.061   0.749   7.144  0.3511 -0.3996  0.2343
 8245SOL    HW136194   1.110   0.766   7.224 -0.4771  0.6515  0.5236
 8245SOL    HW236195   0.978   0.788   7.171  1.1151  1.4835 -0.1266
 8246SOL     OW36196   0.362   0.489   7.179 -0.3720 -0.6552  0.0248
 8246SOL    HW136197   0.389   0.572   7.139  1.0748  0.0283  2.4245
 8246SOL    HW236198   0.325   0.459   7.096  1.1748 -1.1061 -0.5002
 8247SOL     OW36199   1.736   2.123   2.357 -0.0199  0.5665  0.0893
 8247SOL    HW136200   1.730   2.218   2.347  0.6878  0.6452  0.4385
 8247SOL    HW236201   1.749   2.103   2.450  0.1529  2.5897  0.4831
 8248SOL     OW36202   1.961   0.423   9.302 -0.0513 -0.3128 -0.0848
 8248SOL    HW136203   1.995   0.449   9.388  0.5946  1.0869 -0.7569
 8248SOL    HW236204   1.888   0.365   9.323  1.1889 -2.3730 -1.4390
 8249SOL     OW36205   0.004   0.567  10.281  0.0842  0.3955  0.2561
 8249SOL    HW136206   4.646   0.526  10.260  0.1318  0.2812  0.2894
 8249SOL    HW236207   0.063   0.505  10.237 -0.4477 -0.1269  0.2804
 8250SOL     OW36208   2.829   1.284   8.708 -0.0810  0.2335  0.2451
 8250SOL    HW136209   2.894   1.274   8.778 -0.4421 -0.2868  0.5132
 8250SOL    HW236210   2.858   1.368   8.674  0.6066 -0.9058 -1.9249
 8251SOL     OW36211   2.314   2.864   1.635  0.1480 -0.6040 -0.3100
 8251SOL    HW136212   2.289   2.775   1.608  0.1330  0.3310 -3.4445
 8251SOL    HW236213   2.310   2.869   1.730 -0.9178 -3.1729 -0.2141
 8252SOL     OW36214   0.292   2.140   1.782 -0.1947 -0.0468 -0.3390
 8252SOL    HW136215   0.336   2.195   1.846  0.5643 -2.0696  0.8617
 8252SOL    HW236216   0.289   2.186   1.698 -1.9005  1.6797  0.6770
 8253SOL     OW36217   3.212   3.489   4.642  0.6385  0.3186 -0.1795
 8253SOL    HW136218   3.282   3.516   4.701  1.3167 -1.6733 -0.0746
 8253SOL    HW236219   3.153   3.447   4.704 -0.9484  1.9456 -0.5935
 8254SOL     OW36220   4.081   0.132   2.793  0.4234 -0.1506 -0.5457
 8254SOL    HW136221   4.064   0.180   2.712 -0.7045 -0.2743 -0.3891
 8254SOL    HW236222   4.073   0.042   2.762  1.2444 -0.4284  0.0303
 8255SOL     OW36223   0.709   2.151   7.069 -0.0921  0.1328  0.5782
 8255SOL    HW136224   0.726   2.180   7.159 -0.3424 -0.3648  0.7926
 8255SOL    HW236225   0.779   2.185   7.015  0.3294  0.6464  1.4404
 8256SOL     OW36226   3.285   0.261   2.435 -0.4014 -0.0536  0.1839
 8256SOL    HW136227   3.203   0.301   2.463 -0.9843 -1.6789  0.8519
 8256SOL    HW236228   3.269   0.171   2.464  1.0881 -1.3880 -3.1835
 8257SOL     OW36229   4.437   3.784   0.508  0.0370  0.3510  0.5737
 8257SOL    HW136230   4.434   3.878   0.491  1.6303  0.3475  0.3347
 8257SOL    HW236231   4.428   3.741   0.423 -2.4299  0.6117  0.7099
 8258SOL     OW36232   3.500   1.516   7.331 -0.8475 -0.3150 -0.4731
 8258SOL    HW136233   3.528   1.430   7.298 -1.4394 -0.6312 -0.1617
 8258SOL    HW236234   3.555   1.573   7.278  0.1183 -0.0765  0.7961
 8259SOL     OW36235   4.625   0.186   3.627 -0.1104  0.3301 -0.4522
 8259SOL    HW136236   4.548   0.129   3.631 -1.0688  1.5024 -2.3556
 8259SOL    HW236237   4.593   0.267   3.667 -0.5290  0.7447 -1.6298
 8260SOL     OW36238   3.770   3.552   6.156 -0.3696 -0.5171  0.2883
 8260SOL    HW136239   3.858   3.521   6.133 -0.1522 -1.0834  1.8683
 8260SOL    HW236240   3.756   3.523   6.246  1.0936 -2.1976 -0.0218
 8261SOL     OW36241   2.688   3.734   2.654 -0.2729 -0.4587  0.4265
 8261SOL    HW136242   2.751   3.667   2.626 -0.9355 -0.6730 -0.5790
 8261SOL    HW236243   2.647   3.755   2.570  2.0259  0.3314 -0.4874
 8262SOL     OW36244   0.688   4.040   8.125  0.1501 -0.1307  0.6760
 8262SOL    HW136245   0.618   4.094   8.163 -0.8981 -2.2773  1.7982
 8262SOL    HW236246   0.662   4.037   8.033  1.1098  1.7597  0.3403
 8263SOL     OW36247   1.041   1.095   7.846  0.7183 -0.8575 -0.4119
 8263SOL    HW136248   0.945   1.098   7.850  0.7284  0.4336 -1.4613
 8263SOL    HW236249   1.059   1.016   7.898  0.1382 -0.1275  0.8834
 8264SOL     OW36250   0.136   4.220   9.333  1.0507 -0.3441 -0.4454
 8264SOL    HW136251   0.107   4.129   9.340 -1.2200  0.3746 -0.4960
 8264SOL    HW236252   0.216   4.211   9.385  2.3864 -1.0022 -2.6193
 8265SOL     OW36253   2.252   3.046   2.789  0.0296  0.4601  0.1938
 8265SOL    HW136254   2.243   3.096   2.708 -2.0833 -1.9537 -1.0679
 8265SOL    HW236255   2.295   3.115   2.839  0.7160 -0.2767  0.6273
 8266SOL     OW36256   4.344   1.918   4.670  0.6351 -0.0394 -0.1715
 8266SOL    HW136257   4.359   1.937   4.577  0.1461 -0.6048 -0.3690
 8266SOL    HW236258   4.431   1.889   4.698  0.4885  0.6639  0.9665
 8267SOL     OW36259   0.576   2.676  16.378 -0.1026 -0.5252 -0.2907
 8267SOL    HW136260   0.590   2.598  16.323 -1.9135 -0.3863 -0.9367
 8267SOL    HW236261   0.621   2.649  16.458  0.9233  0.5234 -0.5050
 8268SOL     OW36262   0.680   0.436   2.280 -0.3070  0.9207 -0.6904
 8268SOL    HW136263   0.752   0.477   2.232 -0.7901  0.7701 -1.5407
 8268SOL    HW236264   0.714   0.347   2.294 -0.5351  0.6042 -2.1470
 8269SOL     OW36265   2.285   1.061   0.272  0.4384  0.2558 -0.3015
 8269SOL    HW136266   2.262   1.153   0.260  0.1992 -0.0201 -1.8990
 8269SOL    HW236267   2.202   1.015   0.261  0.9863 -1.3580  2.1914
 8270SOL     OW36268   4.602   3.180   3.937  0.0642 -0.2197  0.4827
 8270SOL    HW136269   4.544   3.105   3.920 -0.0192 -0.2918  1.1054
 8270SOL    HW236270   4.601   3.231   3.856 -1.9470  2.3759  2.1780
 8271SOL     OW36271   1.868   4.362  11.673 -0.0590  0.1265 -0.0187
 8271SOL    HW136272   1.818   4.375  11.754 -1.1587 -1.5571 -0.4227
 8271SOL    HW236273   1.920   4.442  11.678 -1.8328  1.4089 -1.9373
 8272SOL     OW36274   3.852   2.457   7.414 -0.4238  0.0124  0.8611
 8272SOL    HW136275   3.940   2.419   7.410 -1.0949 -1.6720  1.9749
 8272SOL    HW236276   3.829   2.474   7.323  0.6403 -1.1110  0.3828
 8273SOL     OW36277   4.268   1.447   0.870  0.2223 -0.5531  0.4082
 8273SOL    HW136278   4.275   1.365   0.822 -2.5491 -1.6796  1.9305
 8273SOL    HW236279   4.188   1.482   0.830  0.4700  0.2523  0.6211
 8274SOL     OW36280   2.113   2.539   7.478  0.0439 -0.0582 -0.0206
 8274SOL    HW136281   2.087   2.460   7.429 -3.1841 -1.3226  3.7663
 8274SOL    HW236282   2.157   2.593   7.412  0.6208 -1.7034 -0.9936
 8275SOL     OW36283   0.177   2.511   0.574  0.7448 -0.5502 -0.4480
 8275SOL    HW136284   0.139   2.473   0.495 -1.1326 -0.1399  0.2714
 8275SOL    HW236285   0.123   2.465   0.638 -0.0839  0.4677 -0.4221
 8276SOL     OW36286   0.903   1.014   0.097  0.0632 -0.2560 -0.3667
 8276SOL    HW136287   0.938   1.015   0.008 -0.6677  1.6463 -0.6274
 8276SOL    HW236288   0.837   0.946   0.090  0.3697 -0.6423  0.4752
 8277SOL     OW36289   2.182   0.785   6.030  1.0008 -0.3007 -1.0736
 8277SOL    HW136290   2.160   0.692   6.038 -0.0174  0.0704  0.4899
 8277SOL    HW236291   2.213   0.798   5.940  1.3967  0.3783 -0.8408
 8278SOL     OW36292   2.708   3.143   7.410  0.1292  0.0416  0.2905
 8278SOL    HW136293   2.618   3.175   7.399 -0.0651 -0.5904  0.0711
 8278SOL    HW236294   2.717   3.151   7.505  2.9005 -3.2978  0.2870
 8279SOL     OW36295   1.306   1.599  13.201 -0.2101 -0.6919 -0.1973
 8279SOL    HW136296   1.266   1.594  13.114 -0.4854  0.4607 -0.1443
 8279SOL    HW236297   1.358   1.679  13.192  1.4898 -1.8398 -0.3828
 8280SOL     OW36298   4.387   1.896   6.759 -0.7938  0.0024  0.0223
 8280SOL    HW136299   4.356   1.975   6.803  0.6844  1.1651 -1.0347
 8280SOL    HW236300   4.395   1.832   6.830 -0.0775 -0.4194 -0.4412
 8281SOL     OW36301   0.197   0.302   8.792 -0.3290  0.5872 -0.1011
 8281SOL    HW136302   0.252   0.335   8.863 -0.7044  2.2924 -0.6041
 8281SOL    HW236303   0.135   0.372   8.771 -1.1451 -0.5680 -1.5185
 8282SOL     OW36304   0.167   2.150   2.081  0.6155  0.1534 -0.1341
 8282SOL    HW136305   0.233   2.091   2.045  1.3539  2.0438 -1.8593
 8282SOL    HW236306   0.204   2.235   2.056 -0.4924  0.2262 -1.5135
 8283SOL     OW36307   4.245   1.507   8.123 -0.1701  0.2775 -0.5194
 8283SOL    HW136308   4.175   1.454   8.084 -0.3704 -1.0728  1.6575
 8283SOL    HW236309   4.310   1.439   8.144  1.3661  1.6352 -0.9234
 8284SOL     OW36310   2.561   3.775  12.743  0.3746  0.2187  0.3828
 8284SOL    HW136311   2.543   3.730  12.661  0.6297  1.4105 -0.3184
 8284SOL    HW236312   2.561   3.700  12.803 -0.5486 -1.3826 -1.6054
 8285SOL     OW36313   1.134   2.163   7.710  0.0364  0.4924 -0.1337
 8285SOL    HW136314   1.048   2.150   7.669 -0.1259  0.5122  0.2068
 8285SOL    HW236315   1.183   2.202   7.638  1.2842  0.3711  0.6670
 8286SOL     OW36316   2.677   1.040   8.958  0.4920 -0.4481 -0.3322
 8286SOL    HW136317   2.690   1.064   9.050  2.2786 -2.1554 -0.1384
 8286SOL    HW236318   2.619   1.109   8.926  2.2528 -0.1253 -2.7721
 8287SOL     OW36319   3.724   4.346   1.263  0.4689  0.0764  0.0551
 8287SOL    HW136320   3.708   4.413   1.330 -2.5129  0.3638 -0.9282
 8287SOL    HW236321   3.783   4.286   1.308  0.4085  2.0533  2.7610
 8288SOL     OW36322   1.734   3.167   8.500  0.0320 -0.3711  0.2191
 8288SOL    HW136323   1.768   3.187   8.587 -1.3781 -1.0171  0.9254
 8288SOL    HW236324   1.768   3.244   8.455 -3.1337  0.5365 -0.5982
 8289SOL     OW36325   1.873   0.309   6.346 -0.0734  0.0445  0.3964
 8289SOL    HW136326   1.794   0.311   6.293  0.7075 -1.3550 -0.8309
 8289SOL    HW236327   1.885   0.396   6.385 -0.7323  0.0922  0.4875
 8290SOL     OW36328   0.266   0.043   1.889  0.2040 -0.4872 -0.4012
 8290SOL    HW136329   0.304   0.093   1.962 -1.1142 -2.2368  1.5011
 8290SOL    HW236330   0.212   4.709   1.941 -2.6322 -0.7981 -3.7095
 8291SOL     OW36331   0.534   2.857   2.616 -0.1217 -0.1947 -0.4901
 8291SOL    HW136332   0.518   2.949   2.591 -0.3770  0.6340  2.7481
 8291SOL    HW236333   0.501   2.865   2.705 -0.1249  0.3444 -0.5366
 8292SOL     OW36334   0.795   4.563   0.237 -0.0341 -0.1109  0.2087
 8292SOL    HW136335   0.782   4.647   0.192 -1.8321  0.2655  1.4186
 8292SOL    HW236336   0.879   4.587   0.278 -0.5368  1.0608  0.5412
 8293SOL     OW36337   4.195   1.208   6.943  0.5622 -0.1050  0.5213
 8293SOL    HW136338   4.206   1.293   6.901  0.4914 -1.1735 -1.6135
 8293SOL    HW236339   4.192   1.240   7.034  1.4647 -0.0559  0.5337
 8294SOL     OW36340   2.782   1.515   4.099  0.1629 -0.2339  0.2625
 8294SOL    HW136341   2.811   1.448   4.037 -2.8048 -1.0021 -0.3131
 8294SOL    HW236342   2.856   1.574   4.084  0.1254  0.0977  1.3726
 8295SOL     OW36343   3.787   4.490  11.143  0.2921 -0.5291  0.0184
 8295SOL    HW136344   3.789   4.479  11.048 -0.1923 -0.5534  0.0137
 8295SOL    HW236345   3.725   4.562  11.149 -0.1284 -0.8079 -0.9758
 8296SOL     OW36346   1.544   3.520   1.803 -0.2485  0.3826  0.6020
 8296SOL    HW136347   1.524   3.453   1.868 -1.5021 -0.5483 -0.7345
 8296SOL    HW236348   1.461   3.522   1.755  1.9283  0.2501 -3.1619
 8297SOL     OW36349   4.050   0.443  10.438  0.3729 -0.3379  0.0850
 8297SOL    HW136350   4.106   0.489  10.375  1.7989 -0.6795  1.1116
 8297SOL    HW236351   4.050   0.354  10.402  2.5004 -0.0292 -0.6544
 8298SOL     OW36352   1.084   3.885  12.072  0.5037  0.3012  0.6977
 8298SOL    HW136353   1.102   3.927  11.987 -0.6774 -1.0212 -0.1877
 8298SOL    HW236354   1.167   3.910  12.114  1.3427 -0.2217 -0.6354
 8299SOL     OW36355   2.732   1.243   2.578  0.3767 -0.5837 -0.9380
 8299SOL    HW136356   2.698   1.230   2.667  3.9123 -0.2623  0.4994
 8299SOL    HW236357   2.690   1.327   2.559 -0.5403 -0.6937  0.5473
 8300SOL     OW36358   2.153   3.567   3.676  0.4555 -0.1977  0.2383
 8300SOL    HW136359   2.210   3.491   3.663 -1.5328 -1.8561  1.2699
 8300SOL    HW236360   2.126   3.584   3.586  0.4266  1.0195  0.4806
 8301SOL     OW36361   3.040   0.651  11.744 -0.1745  0.1400 -0.3270
 8301SOL    HW136362   2.996   0.711  11.685  0.1684  0.6135 -0.1004
 8301SOL    HW236363   3.133   0.666  11.729 -0.0266 -1.6545 -1.1466
 8302SOL     OW36364   0.821   3.588   5.363  0.0912  0.9101 -0.0778
 8302SOL    HW136365   0.752   3.523   5.347  1.1356 -0.4675  1.0473
 8302SOL    HW236366   0.888   3.572   5.296 -1.1006  1.9034 -1.5053
 8303SOL     OW36367   3.797   0.959  10.944 -0.0701  0.4455 -0.0141
 8303SOL    HW136368   3.818   1.047  10.911 -2.0709  0.3734 -1.4884
 8303SOL    HW236369   3.743   0.985  11.019 -0.5849  0.3582 -0.3533
 8304SOL     OW36370   1.702   3.863   5.854 -0.1395 -0.5963 -0.4302
 8304SOL    HW136371   1.657   3.844   5.937  2.0508 -0.6941  0.7250
 8304SOL    HW236372   1.729   3.954   5.870 -0.7202 -0.3286 -0.9575
 8305SOL     OW36373   3.051   4.392   0.144 -0.5708 -0.4325 -0.1960
 8305SOL    HW136374   2.958   4.400   0.123 -0.8056 -0.0627  1.0167
 8305SOL    HW236375   3.087   4.480   0.131 -0.3555 -0.4580  0.2393
 8306SOL     OW36376   2.500   4.354   7.435 -0.1715  0.3056 -0.3302
 8306SOL    HW136377   2.595   4.364   7.437 -0.1416 -0.2413  1.0712
 8306SOL    HW236378   2.486   4.269   7.393  1.3051 -0.3785  0.5856
 8307SOL     OW36379   2.358   2.861   8.614  0.1024  0.5763  0.0824
 8307SOL    HW136380   2.349   2.825   8.525 -1.5369  0.2112  0.3858
 8307SOL    HW236381   2.436   2.811   8.636  0.9092  0.9504 -1.9068
 8308SOL     OW36382   2.444   3.629   2.223 -0.4186 -0.0963  0.4662
 8308SOL    HW136383   2.349   3.620   2.230 -0.6261 -0.2027 -2.7001
 8308SOL    HW236384   2.454   3.605   2.131  1.5533  0.9293  0.4078
 8309SOL     OW36385   3.073   2.100  12.091  0.3016  0.3041 -0.4394
 8309SOL    HW136386   3.047   2.084  12.000 -0.4020 -3.7451  0.4863
 8309SOL    HW236387   3.043   2.191  12.091  0.6393  0.4196 -0.9862
 8310SOL     OW36388   3.622   3.428   5.049 -0.2589 -0.3884  1.0493
 8310SOL    HW136389   3.595   3.444   5.139 -0.7230  1.4308  0.5713
 8310SOL    HW236390   3.539   3.394   5.014  0.4536  0.1131 -1.1350
 8311SOL     OW36391   0.028   3.402   7.805  0.1344  0.0355  0.1520
 8311SOL    HW136392   4.710   3.377   7.886 -1.8864 -0.4256 -1.0727
 8311SOL    HW236393   0.033   3.497   7.813 -0.4694  0.2099 -1.4479
 8312SOL     OW36394   4.470   1.207   5.051  0.3292 -0.6988  0.0547
 8312SOL    HW136395   4.375   1.205   5.054  0.3689 -0.1026  1.7761
 8312SOL    HW236396   4.502   1.227   5.139  0.6301 -1.3162  0.0855
 8313SOL     OW36397   3.306   4.654   9.560 -0.7514 -0.0181 -0.3701
 8313SOL    HW136398   3.331   0.008   9.607 -1.9094 -0.7144  1.4240
 8313SOL    HW236399   3.317   4.682   9.469  1.5102  1.5581  0.3919
 8314SOL     OW36400   3.076   1.629   1.483  0.4035 -0.1841  0.0388
 8314SOL    HW136401   3.119   1.549   1.454 -0.0581 -0.1652 -0.6847
 8314SOL    HW236402   2.983   1.606   1.483  0.9524 -2.3352  1.2435
 8315SOL     OW36403   2.906   2.961  12.489  0.0620 -0.0335  0.5059
 8315SOL    HW136404   2.875   3.014  12.562  1.7145  2.5297 -0.6470
 8315SOL    HW236405   2.980   3.018  12.467  1.6821 -1.8529  1.1952
 8316SOL     OW36406   4.629   1.331  11.743  0.1772  0.4758 -0.1623
 8316SOL    HW136407   4.635   1.399  11.676  0.9497  1.4892  0.9323
 8316SOL    HW236408   4.660   1.373  11.823  0.7521 -2.0891  0.9650
 8317SOL     OW36409   1.766   3.214  15.533 -0.0262 -0.5216 -0.3224
 8317SOL    HW136410   1.846   3.262  15.551  0.0027 -0.6252 -0.1688
 8317SOL    HW236411   1.784   3.161  15.456  2.2678 -1.6371  0.9832
 8318SOL     OW36412   0.295   1.969   6.675  0.2252 -0.2112  0.4370
 8318SOL    HW136413   0.257   1.881   6.683  0.9659 -0.5312  0.3450
 8318SOL    HW236414   0.259   2.019   6.749  0.7457 -0.4558  0.8599
 8319SOL     OW36415   1.512   4.070   4.216  0.9671  0.2295  0.0359
 8319SOL    HW136416   1.568   4.133   4.262  2.1918 -0.8363  0.0021
 8319SOL    HW236417   1.437   4.064   4.276 -0.0413  0.6716 -1.1780
 8320SOL     OW36418   4.333   2.090   5.731  0.2346 -0.1018  0.1123
 8320SOL    HW136419   4.252   2.129   5.765 -1.7803 -2.6188 -1.8032
 8320SOL    HW236420   4.288   2.078   5.648 -0.4635 -0.3713  0.5306
 8321SOL     OW36421   0.375   4.044   8.494 -0.4533  0.2327 -0.8412
 8321SOL    HW136422   0.292   4.007   8.525 -0.7971  0.8000 -1.0938
 8321SOL    HW236423   0.425   3.964   8.510  2.5483  1.9856 -1.2864
 8322SOL     OW36424   2.257   3.883   4.267  0.3395 -0.4903  0.2158
 8322SOL    HW136425   2.317   3.858   4.197 -0.8222 -0.9551 -0.6109
 8322SOL    HW236426   2.292   3.971   4.283 -2.6845  0.5998  0.8309
 8323SOL     OW36427   1.437   1.348   8.636  0.3380 -0.1392  0.0608
 8323SOL    HW136428   1.472   1.349   8.725 -2.1239 -0.0551  1.0007
 8323SOL    HW236429   1.522   1.357   8.593  0.4361  0.3707  0.3600
 8324SOL     OW36430   4.674   0.325   7.280  0.0252 -0.3661  0.1131
 8324SOL    HW136431   4.609   0.259   7.302 -1.3180  0.5962 -0.9224
 8324SOL    HW236432   4.684   0.317   7.185  1.3684  1.3135  0.1025
 8325SOL     OW36433   2.851   1.826   4.554 -0.1068 -0.2084 -0.0287
 8325SOL    HW136434   2.773   1.781   4.585 -1.1638  0.9846 -0.9522
 8325SOL    HW236435   2.919   1.760   4.537  0.0228 -0.4677  1.4931
 8326SOL     OW36436   1.272   4.617   6.379 -0.2263  0.1492 -0.2484
 8326SOL    HW136437   1.334   4.556   6.340  1.2668  0.9340  0.9020
 8326SOL    HW236438   1.188   4.571   6.372 -0.3569  0.0898  1.7066
 8327SOL     OW36439   4.419   3.123  16.292 -0.5387  0.2474 -0.6064
 8327SOL    HW136440   4.483   3.122  16.222 -0.4435 -1.1162 -0.5105
 8327SOL    HW236441   4.412   3.210  16.331  1.7249  0.6982 -1.2410
 8328SOL     OW36442   4.497   0.052   7.131 -0.3113 -0.8582 -0.2208
 8328SOL    HW136443   4.444   0.106   7.190 -0.2265 -0.1167 -0.8192
 8328SOL    HW236444   4.420   0.030   7.078  1.2491 -1.4882 -2.2118
 8329SOL     OW36445   2.065   3.605   3.408 -0.2261  0.3742  0.1996
 8329SOL    HW136446   2.112   3.678   3.370 -2.4289  1.4631 -0.4281
 8329SOL    HW236447   2.009   3.587   3.333 -0.9238 -0.4666  0.9108
 8330SOL     OW36448   1.935   3.874   1.972  0.0566 -0.1460  0.3779
 8330SOL    HW136449   1.872   3.943   1.953 -0.1219 -0.7198 -1.0611
 8330SOL    HW236450   1.985   3.864   1.891 -2.4980 -0.4063 -1.1657
 8331SOL     OW36451   2.784   3.290   7.025 -0.0991 -0.5425  0.1592
 8331SOL    HW136452   2.788   3.380   7.056  0.0002 -0.7029  0.6064
 8331SOL    HW236453   2.755   3.246   7.105 -0.3028  2.5661  1.7520
 8332SOL     OW36454   2.404   1.429  12.283  0.7406  0.1899  0.6161
 8332SOL    HW136455   2.363   1.457  12.365  0.5888 -1.3585  1.0770
 8332SOL    HW236456   2.357   1.491  12.227  1.7229  0.5175  0.1518
 8333SOL     OW36457   4.715   4.047   6.012 -0.0785 -0.5453  0.1409
 8333SOL    HW136458   0.041   4.069   6.090 -1.4888 -0.4374  1.0495
 8333SOL    HW236459   0.030   4.094   5.939 -2.2131 -2.4004 -2.2265
 8334SOL     OW36460   1.092   3.385   3.738  0.3997  0.0862  0.0637
 8334SOL    HW136461   1.044   3.460   3.774  1.5440  1.1758 -0.6970
 8334SOL    HW236462   1.043   3.315   3.784 -1.1338  1.0530 -0.0962
 8335SOL     OW36463   1.050   2.896  10.841 -0.6708 -0.4855 -0.5400
 8335SOL    HW136464   1.108   2.823  10.824  0.8736  0.0798  2.2687
 8335SOL    HW236465   1.048   2.886  10.936  1.6101 -1.5646 -0.6070
 8336SOL     OW36466   3.605   0.590  15.752  0.2816  0.3244 -0.3488
 8336SOL    HW136467   3.514   0.560  15.756  0.8781 -1.5367 -0.8361
 8336SOL    HW236468   3.608   0.605  15.658  1.6093  0.9070 -0.2129
 8337SOL     OW36469   4.515   4.168   5.776 -0.3825 -0.1300  0.2710
 8337SOL    HW136470   4.449   4.119   5.726 -0.7128  0.0632  0.5154
 8337SOL    HW236471   4.538   4.237   5.714 -2.1024  0.2941  0.0909
 8338SOL     OW36472   0.680   3.777   3.274 -0.2903 -0.4155 -0.1665
 8338SOL    HW136473   0.698   3.688   3.307 -0.7929  0.6635  3.0073
 8338SOL    HW236474   0.759   3.814   3.315 -1.4358  2.1280 -0.2887
 8339SOL     OW36475   0.514   4.397   6.367  0.1080  0.5041 -0.1678
 8339SOL    HW136476   0.482   4.403   6.277  1.4469 -1.0639 -0.7411
 8339SOL    HW236477   0.463   4.453   6.426 -1.1918 -0.9280  0.0931
 8340SOL     OW36478   2.233   3.117  15.451  0.1254 -0.4010  0.2570
 8340SOL    HW136479   2.230   3.210  15.427 -0.6682 -1.0076 -1.9458
 8340SOL    HW236480   2.199   3.113  15.541 -1.9260  0.5639 -0.4705
 8341SOL     OW36481   4.230   4.291   8.573  0.2097  0.0042 -0.0358
 8341SOL    HW136482   4.201   4.225   8.636 -0.1511 -2.0554 -2.3543
 8341SOL    HW236483   4.288   4.240   8.516 -1.2550 -1.0237 -0.6158
 8342SOL     OW36484   4.359   4.628  11.277  0.0204  0.4740  0.0162
 8342SOL    HW136485   4.403   4.703  11.238 -0.4441  1.1621  0.8110
 8342SOL    HW236486   4.421   4.592  11.340 -0.2718 -0.7820 -0.4084
 8343SOL     OW36487   1.474   0.632  11.887 -0.5031 -0.0172  0.1759
 8343SOL    HW136488   1.550   0.585  11.853 -0.3708 -0.2932  0.8432
 8343SOL    HW236489   1.409   0.567  11.913 -0.4351 -0.0174  0.3500
 8344SOL     OW36490   4.509   3.458   4.143  0.1775 -0.3136  0.3328
 8344SOL    HW136491   4.447   3.386   4.152 -0.2775  0.3177  2.2971
 8344SOL    HW236492   4.567   3.436   4.216  0.0426 -0.3645  0.4247
 8345SOL     OW36493   0.557   2.222  16.065  0.2342 -0.6359 -0.1055
 8345SOL    HW136494   0.494   2.156  16.094 -0.3090 -0.0534  0.0479
 8345SOL    HW236495   0.509   2.279  16.005  1.1242 -0.8657 -1.0262
 8346SOL     OW36496   3.609   2.100   8.702 -0.3640  1.2573 -0.0712
 8346SOL    HW136497   3.627   2.119   8.610  0.3300  0.5217 -0.0929
 8346SOL    HW236498   3.653   2.017   8.722  3.5548  3.5350  0.8931
 8347SOL     OW36499   2.203   0.304   7.482  0.0181 -0.0452  0.8120
 8347SOL    HW136500   2.149   0.378   7.453  1.5166  0.7673  0.0904
 8347SOL    HW236501   2.261   0.345   7.546 -0.0764  2.2908 -0.5788
 8348SOL     OW36502   3.168   0.091  17.565 -0.6297  0.3279  0.1540
 8348SOL    HW136503   3.160   0.186  17.555  0.1637  0.5255  1.3399
 8348SOL    HW236504   3.185   0.068  17.474  1.2876  0.9475  0.3611
 8349SOL     OW36505   2.499   0.116   9.577  0.1107 -0.0382  0.2725
 8349SOL    HW136506   2.542   0.197   9.601 -0.1006  0.5379 -1.2565
 8349SOL    HW236507   2.508   0.124   9.482  0.1118  1.8891  0.4467
 8350SOL     OW36508   3.013   0.190   6.849 -0.1634 -0.8669  0.1811
 8350SOL    HW136509   3.088   0.151   6.893 -0.5484 -0.7768  0.9135
 8350SOL    HW236510   3.058   0.231   6.775  1.1023 -1.5832  0.5585
 8351SOL     OW36511   0.568   3.054   4.006 -0.5015 -0.1469  0.0153
 8351SOL    HW136512   0.626   2.978   4.009  0.1022  0.4032  2.2567
 8351SOL    HW236513   0.632   3.118   4.037 -1.6026  0.3628  1.2358
 8352SOL     OW36514   1.749   3.866  11.800 -0.6981 -0.1566 -0.5103
 8352SOL    HW136515   1.660   3.895  11.781 -0.8289  0.0114  0.3674
 8352SOL    HW236516   1.794   3.945  11.770  0.8876 -0.1610  1.8657
 8353SOL     OW36517   1.644   0.944  13.023 -0.3350 -0.0380  0.0402
 8353SOL    HW136518   1.708   0.897  13.077  1.9453  1.7420 -1.1373
 8353SOL    HW236519   1.699   0.992  12.961 -1.0529  0.8584  0.0979
 8354SOL     OW36520   1.248   3.421  17.054  0.3774 -0.3298 -0.3194
 8354SOL    HW136521   1.228   3.328  17.057  0.8302 -0.3395  2.1277
 8354SOL    HW236522   1.199   3.457  17.128  0.1300  0.6704 -0.9601
 8355SOL     OW36523   2.515   2.104   2.897  0.0473 -0.5510  0.0008
 8355SOL    HW136524   2.534   2.011   2.906  0.7699 -0.2587  1.6604
 8355SOL    HW236525   2.602   2.145   2.896  0.2126 -0.8763  0.7987
 8356SOL     OW36526   4.510   3.272   6.422  0.3382  0.2959  0.0016
 8356SOL    HW136527   4.452   3.195   6.416  0.5970  0.0130  1.1721
 8356SOL    HW236528   4.485   3.322   6.344  2.7486  1.8458  0.2381
 8357SOL     OW36529   1.562   0.736  10.532  1.0916  0.3113 -0.6628
 8357SOL    HW136530   1.518   0.821  10.534 -1.3647 -0.9645  0.3979
 8357SOL    HW236531   1.658   0.744  10.531  1.2035 -0.8355  0.6902
 8358SOL     OW36532   2.042   0.884   2.242 -0.1519  0.1588  0.6014
 8358SOL    HW136533   2.102   0.815   2.272  0.3708 -0.0687 -0.9564
 8358SOL    HW236534   2.004   0.909   2.327  0.6122 -0.7135  1.2024
 8359SOL     OW36535   4.057   2.915   5.586 -0.0755  0.6079  0.4319
 8359SOL    HW136536   4.063   2.921   5.491  1.7554  0.3971  0.5227
 8359SOL    HW236537   4.035   3.004   5.612  0.1487  0.5287  0.8889
 8360SOL     OW36538   4.285   2.475   6.861  0.1368  0.5879 -0.2695
 8360SOL    HW136539   4.314   2.563   6.884 -2.3128  1.7826 -1.8274
 8360SOL    HW236540   4.364   2.423   6.878  0.0355  0.3679 -0.4644
 8361SOL     OW36541   1.705   3.823   9.058  0.1556 -0.2154 -0.3917
 8361SOL    HW136542   1.676   3.736   9.031 -0.2282 -0.7518  1.7589
 8361SOL    HW236543   1.623   3.871   9.068 -0.0075 -0.5220 -0.2624
 8362SOL     OW36544   4.659   1.721   4.461 -0.3131  0.3193 -0.5062
 8362SOL    HW136545   4.643   1.747   4.552 -2.7158  2.0749 -1.4195
 8362SOL    HW236546   4.630   1.802   4.418 -1.1105  1.5767  2.4276
 8363SOL     OW36547   1.790   1.242   4.304 -0.2410 -0.5624  0.1561
 8363SOL    HW136548   1.780   1.322   4.355  0.1411 -0.5658  0.2346
 8363SOL    HW236549   1.857   1.197   4.355 -0.5280 -0.3772  0.6912
 8364SOL     OW36550   3.917   1.041   6.273 -0.0156 -0.1432  0.0664
 8364SOL    HW136551   3.840   1.008   6.319  0.4359  0.1333  1.0285
 8364SOL    HW236552   3.890   1.043   6.181 -0.2805 -0.5712  0.1392
 8365SOL     OW36553   3.655   3.922   0.458 -0.0959  0.0127  0.5268
 8365SOL    HW136554   3.737   3.971   0.468  1.3374 -2.4494  0.7862
 8365SOL    HW236555   3.690   3.835   0.439 -0.4016 -0.0711  0.3476
 8366SOL     OW36556   1.007   2.584  16.595 -0.3046 -0.3637  0.1329
 8366SOL    HW136557   0.920   2.595  16.633 -0.3529 -1.4390  0.3225
 8366SOL    HW236558   1.067   2.608  16.667 -0.5651  2.1994 -0.4938
 8367SOL     OW36559   3.496   3.231   5.278 -0.2336  0.4660 -0.2164
 8367SOL    HW136560   3.556   3.285   5.329 -0.1686  0.2018 -0.0141
 8367SOL    HW236561   3.429   3.299   5.273 -0.6605  0.1289  0.9263
 8368SOL     OW36562   1.849   3.241   2.755  0.5582  0.0670 -0.1680
 8368SOL    HW136563   1.911   3.190   2.807 -0.1087 -1.4398 -0.8782
 8368SOL    HW236564   1.773   3.184   2.765 -0.0261  0.7193 -0.9135
 8369SOL     OW36565   0.731   0.879  12.976 -0.0766 -0.2218 -0.2092
 8369SOL    HW136566   0.639   0.871  12.951 -0.0593  1.0689 -0.7231
 8369SOL    HW236567   0.765   0.827  12.904  0.4977  1.1726 -0.9565
 8370SOL     OW36568   2.880   4.371   6.777  0.2958 -0.7312  0.1122
 8370SOL    HW136569   2.964   4.350   6.737  0.0967 -1.0604 -0.1419
 8370SOL    HW236570   2.884   4.351   6.870  1.6840 -1.7618 -0.1789
 8371SOL     OW36571   0.557   2.950   9.134  0.1416  0.0097  0.3002
 8371SOL    HW136572   0.517   2.911   9.212  1.1281 -0.9612  0.3169
 8371SOL    HW236573   0.511   3.034   9.141  0.4261  0.1466  0.5311
 8372SOL     OW36574   1.362   1.109   6.320 -0.0404  0.2336 -0.8303
 8372SOL    HW136575   1.284   1.103   6.264 -1.0076 -1.3779  0.7013
 8372SOL    HW236576   1.343   1.042   6.385  2.4337 -0.3727 -0.7391
 8373SOL     OW36577   2.548   1.032  14.910  0.6332  0.4576 -0.0606
 8373SOL    HW136578   2.464   1.054  14.870  1.3949 -0.6222 -2.2962
 8373SOL    HW236579   2.507   0.973  14.973 -0.1082 -0.3197 -1.2629
 8374SOL     OW36580   1.152   1.294   9.042  0.6517 -0.2836 -0.0926
 8374SOL    HW136581   1.231   1.240   9.046  0.8953  0.2099  1.7450
 8374SOL    HW236582   1.155   1.342   9.125 -1.3468 -0.2575 -0.0177
 8375SOL     OW36583   3.009   0.796   4.607  0.5577 -0.3601 -0.9668
 8375SOL    HW136584   3.010   0.708   4.568  1.7164 -1.5813  1.7498
 8375SOL    HW236585   2.916   0.813   4.621  1.2017  1.9293  0.5621
 8376SOL     OW36586   1.736   3.529   6.922  0.2747  0.5133  0.2199
 8376SOL    HW136587   1.751   3.623   6.910  3.8767  0.0317  1.0987
 8376SOL    HW236588   1.769   3.507   6.835  0.3123  0.3900  0.2653
 8377SOL     OW36589   1.690   4.504   3.072  0.0875  0.1299  0.0156
 8377SOL    HW136590   1.717   4.591   3.043  0.4639 -0.2738 -0.8596
 8377SOL    HW236591   1.598   4.524   3.083 -0.7312 -2.6316 -1.7571
 8378SOL     OW36592   2.418   3.722   4.783 -0.4127  0.1573 -0.2115
 8378SOL    HW136593   2.372   3.801   4.755  0.4189  1.6576  2.6669
 8378SOL    HW236594   2.432   3.744   4.875 -0.6749  0.4391 -0.2405
 8379SOL     OW36595   1.415   3.003   3.622  0.2220 -0.1985  0.1171
 8379SOL    HW136596   1.498   2.989   3.577  0.0035 -0.5681 -0.1759
 8379SOL    HW236597   1.401   3.098   3.618 -1.4432 -0.4452 -0.0081
 8380SOL     OW36598   4.521   3.284  11.190 -0.1186 -0.6327 -0.4995
 8380SOL    HW136599   4.431   3.300  11.217  0.7177  0.8017  1.3940
 8380SOL    HW236600   4.519   3.289  11.094  0.4352 -0.7246 -0.5128
 8381SOL     OW36601   0.197   0.733   6.270  0.2182  0.0220 -0.3293
 8381SOL    HW136602   0.265   0.697   6.327  0.0876 -2.3177 -1.6554
 8381SOL    HW236603   0.120   0.742   6.326 -1.5675  0.9046 -2.9214
 8382SOL     OW36604   2.815   1.861   7.201 -0.6476  0.6525 -0.2322
 8382SOL    HW136605   2.743   1.861   7.264 -0.0836 -0.4789  0.4169
 8382SOL    HW236606   2.792   1.940   7.152 -1.6075 -0.0663 -0.9388
 8383SOL     OW36607   1.910   3.388   2.099 -0.1457 -0.4083  0.2285
 8383SOL    HW136608   1.816   3.374   2.098 -0.2161  0.0312  1.3833
 8383SOL    HW236609   1.899   3.480   2.075  0.2205 -0.9770 -2.1347
 8384SOL     OW36610   3.927   2.692  14.891 -0.5315  0.1748  0.1211
 8384SOL    HW136611   3.844   2.734  14.914 -0.5622  0.7701 -1.0615
 8384SOL    HW236612   3.961   2.698  14.980 -0.9687 -0.3221  0.3180
 8385SOL     OW36613   2.584   0.672   4.569  0.0805  0.0536  0.1071
 8385SOL    HW136614   2.648   0.740   4.590 -0.1196 -0.0165  0.9735
 8385SOL    HW236615   2.606   0.656   4.478  1.2723  1.1461  0.2085
 8386SOL     OW36616   3.695   2.723   4.383  0.3722  0.3002  0.1406
 8386SOL    HW136617   3.629   2.780   4.422 -1.0550 -2.3227  1.5547
 8386SOL    HW236618   3.783   2.757   4.398  0.7714  1.1216 -4.1399
 8387SOL     OW36619   2.232   2.727   5.827  0.2723  0.2437  0.3773
 8387SOL    HW136620   2.262   2.670   5.898 -0.7121  0.0748  0.6539
 8387SOL    HW236621   2.205   2.665   5.761  2.2464 -0.6934  0.4475
 8388SOL     OW36622   2.112   1.647   8.852 -0.0763  0.3696  0.4006
 8388SOL    HW136623   2.154   1.687   8.776  0.4236 -1.4625 -0.2898
 8388SOL    HW236624   2.139   1.701   8.927  3.4061  1.3497 -1.5669
 8389SOL     OW36625   0.155   3.873   6.980 -0.0350  0.2617 -0.3250
 8389SOL    HW136626   0.061   3.857   6.994 -0.1692  2.6177  1.6050
 8389SOL    HW236627   0.155   3.968   6.996 -1.8089  0.2975 -0.4602
 8390SOL     OW36628   0.653   4.231   4.592 -0.5993  0.2561  0.5210
 8390SOL    HW136629   0.638   4.153   4.646 -2.6640  0.4074  0.1899
 8390SOL    HW236630   0.679   4.292   4.661  0.6390  1.5055 -1.0754
 8391SOL     OW36631   0.090   0.103   6.519  0.3224 -0.3758  0.2450
 8391SOL    HW136632   0.166   0.101   6.461  0.4248  0.3857  0.3559
 8391SOL    HW236633   0.112   0.034   6.582 -1.7653  0.4422  1.8421
 8392SOL     OW36634   0.105   0.056   0.280 -1.2094  0.3608  0.2976
 8392SOL    HW136635   0.147   0.142   0.281  0.3949 -0.4178 -1.0340
 8392SOL    HW236636   0.069   0.055   0.192  2.8688  0.3232 -1.3528
 8393SOL     OW36637   3.777   1.799  17.520  0.1632  0.4297 -0.5196
 8393SOL    HW136638   3.814   1.807  17.432 -0.8710  1.5857 -0.8433
 8393SOL    HW236639   3.820   1.722  17.558 -2.1902 -0.5378  0.2068
 8394SOL     OW36640   0.007   0.904  17.121 -0.3657 -0.3930  0.5122
 8394SOL    HW136641   4.717   0.963  17.195 -0.9367 -0.7512  0.6701
 8394SOL    HW236642   0.056   0.964  17.064  2.2924 -1.8979  1.2702
 8395SOL     OW36643   3.605   1.427   6.781 -0.1058  0.5574 -0.2425
 8395SOL    HW136644   3.636   1.341   6.753 -2.2646 -0.5948  0.9352
 8395SOL    HW236645   3.513   1.410   6.801  0.2318 -0.7954  0.1559
 8396SOL     OW36646   0.571   3.045   0.468 -0.3226 -0.5549 -0.2364
 8396SOL    HW136647   0.663   3.021   0.458  0.0665  1.3499 -1.3251
 8396SOL    HW236648   0.556   3.057   0.562 -0.0149 -0.9167 -0.1425
 8397SOL     OW36649   0.111   1.597   2.320  0.6698  0.1685  0.5961
 8397SOL    HW136650   0.022   1.578   2.291  1.4989  0.2323 -2.0058
 8397SOL    HW236651   0.130   1.690   2.305 -0.2143  0.2303 -0.1767
 8398SOL     OW36652   1.426   3.584   9.479  0.1386 -0.3415 -0.4896
 8398SOL    HW136653   1.384   3.590   9.393  1.8650 -0.1344 -1.3210
 8398SOL    HW236654   1.466   3.671   9.485 -0.3088 -0.1387 -0.4818
 8399SOL     OW36655   3.151   2.653   3.819 -0.0631  0.0988 -0.1503
 8399SOL    HW136656   3.071   2.706   3.822  0.3427  0.7186 -0.3485
 8399SOL    HW236657   3.128   2.577   3.873  0.7633  2.6328  3.8424
 8400SOL     OW36658   3.259   1.602   5.723 -0.1438  0.5723 -0.0162
 8400SOL    HW136659   3.313   1.524   5.735 -1.6474 -0.3802  0.5687
 8400SOL    HW236660   3.223   1.629   5.807 -1.1993 -2.1714  0.4164
 8401SOL     OW36661   2.291   4.026   5.415  0.6196 -0.6407 -0.3505
 8401SOL    HW136662   2.217   4.063   5.367  0.7307 -0.4004 -0.3414
 8401SOL    HW236663   2.357   4.086   5.380 -0.6873 -0.5555 -2.6485
 8402SOL     OW36664   0.991   3.742  10.453  0.3409 -0.4288 -0.7483
 8402SOL    HW136665   1.080   3.770  10.477  0.4648 -0.4915 -1.1307
 8402SOL    HW236666   0.942   3.824  10.451  2.9986  1.2107  0.5990
 8403SOL     OW36667   1.452   4.692   8.912 -0.6839 -0.2434 -0.3085
 8403SOL    HW136668   1.430   0.010   8.995 -0.3409 -2.2579  0.8543
 8403SOL    HW236669   1.465   0.033   8.845 -0.0925 -1.1644 -1.1201
 8404SOL     OW36670   1.615   3.962  10.448 -0.2346 -0.2845  0.1907
 8404SOL    HW136671   1.688   3.901  10.444 -0.1954 -0.1484 -1.2159
 8404SOL    HW236672   1.636   4.039  10.394 -1.8813  0.1557  0.1523
 8405SOL     OW36673   2.589   2.603  12.405  0.2082  0.2659 -0.0396
 8405SOL    HW136674   2.573   2.680  12.459 -0.7113 -1.2747  1.8398
 8405SOL    HW236675   2.644   2.643  12.337 -0.4738  1.1145 -0.0924
 8406SOL     OW36676   3.635   1.063   0.855 -0.0331  0.3416 -0.5569
 8406SOL    HW136677   3.701   1.117   0.812  0.3718 -1.4582 -2.1916
 8406SOL    HW236678   3.652   0.982   0.806 -0.8385 -0.3734  0.3224
 8407SOL     OW36679   1.739   2.831   7.737 -0.1169  0.1902  0.2763
 8407SOL    HW136680   1.734   2.737   7.719  0.1284 -0.0959  1.6216
 8407SOL    HW236681   1.768   2.829   7.829  1.1159 -0.6271 -0.1269
 8408SOL     OW36682   4.467   3.104   5.427  0.1635  0.6415 -0.0750
 8408SOL    HW136683   4.397   3.039   5.436 -0.2150  1.1860  0.9466
 8408SOL    HW236684   4.495   3.117   5.517  1.4558  0.3255 -0.4348
 8409SOL     OW36685   3.536   3.989  11.514  0.3545  0.0449  0.0120
 8409SOL    HW136686   3.580   4.067  11.479  3.1158 -1.8435 -0.7432
 8409SOL    HW236687   3.570   3.921  11.456  1.1929  0.6401 -0.1958
 8410SOL     OW36688   3.183   4.510  14.146  0.2944 -0.1618 -0.3412
 8410SOL    HW136689   3.176   4.575  14.076  3.2675 -0.2923 -0.7662
 8410SOL    HW236690   3.154   4.430  14.101  2.8722 -1.0763 -0.3893
 8411SOL     OW36691   1.707   4.251   8.017 -0.0801 -0.1821 -0.2781
 8411SOL    HW136692   1.677   4.230   8.105 -0.3966 -2.3369 -0.9087
 8411SOL    HW236693   1.639   4.223   7.957  0.6992  0.0142 -1.2608
 8412SOL     OW36694   3.391   0.853   7.107  0.1009 -0.3921  0.4514
 8412SOL    HW136695   3.475   0.839   7.061  0.2808  0.9492  0.3676
 8412SOL    HW236696   3.334   0.809   7.044 -0.7256  0.1658  0.8102
 8413SOL     OW36697   2.055   0.174   9.161  0.1452  0.2164  0.0210
 8413SOL    HW136698   2.136   0.132   9.191 -1.3468 -2.3557  0.4461
 8413SOL    HW236699   2.061   0.264   9.193 -0.7845 -0.3647  1.8053
 8414SOL     OW36700   4.046   2.542   2.457  0.1923 -0.6664  0.0508
 8414SOL    HW136701   4.063   2.501   2.542  0.1085 -2.2620 -0.6956
 8414SOL    HW236702   3.953   2.523   2.445  0.6825 -3.3952  0.5487
 8415SOL     OW36703   0.779   2.038   7.612  0.1216 -0.5738 -0.5251
 8415SOL    HW136704   0.693   2.080   7.604  0.8535  1.2136  0.9007
 8415SOL    HW236705   0.752   1.954   7.649 -1.4640  0.7724  1.3896
 8416SOL     OW36706   2.516   2.580   4.846 -0.4260 -0.5815 -0.3013
 8416SOL    HW136707   2.462   2.513   4.804 -0.1670 -1.1548  0.2617
 8416SOL    HW236708   2.468   2.591   4.929  1.2624  0.2033  0.5643
 8417SOL     OW36709   1.776   3.541   7.778 -0.4223  0.7852 -0.7893
 8417SOL    HW136710   1.819   3.536   7.864  1.3664  1.6300 -1.6329
 8417SOL    HW236711   1.790   3.452   7.746  1.1735  0.7892 -0.1126
 8418SOL     OW36712   3.330   4.584  16.932  0.3734 -0.5703 -0.2744
 8418SOL    HW136713   3.402   4.594  16.993  0.1145  0.6657 -0.1744
 8418SOL    HW236714   3.365   4.651  16.874  0.4002 -1.3174 -1.1220
 8419SOL     OW36715   0.794   0.882   7.449  0.1096 -0.1320 -0.3589
 8419SOL    HW136716   0.871   0.920   7.406  2.4863 -2.0620  2.2147
 8419SOL    HW236717   0.733   0.875   7.375  1.6122  0.6254 -1.6520
 8420SOL     OW36718   3.947   4.147   3.357 -0.3460  0.3027 -0.1938
 8420SOL    HW136719   3.970   4.219   3.415 -1.0059  2.1306 -2.1854
 8420SOL    HW236720   3.884   4.102   3.413 -1.1274 -0.7058 -1.8884
 8421SOL     OW36721   0.220   1.200  12.519  0.5204  0.0700 -0.3384
 8421SOL    HW136722   0.307   1.192  12.481 -0.1028  1.2198 -1.9925
 8421SOL    HW236723   0.229   1.277  12.575 -0.5131  0.4456 -0.6821
 8422SOL     OW36724   2.167   1.464   2.843  0.2316 -0.2163 -0.5930
 8422SOL    HW136725   2.096   1.400   2.844 -1.3043  1.5089 -0.5549
 8422SOL    HW236726   2.142   1.527   2.775 -1.0402 -0.5182 -0.4045
 8423SOL     OW36727   1.923   2.824   6.161  0.5856 -0.1614  0.1089
 8423SOL    HW136728   1.912   2.810   6.067 -2.0825  0.6665  0.2995
 8423SOL    HW236729   1.830   2.812   6.181  0.6342  2.0708  1.7129
 8424SOL     OW36730   3.942   2.786   2.970 -0.0338 -0.2835  0.0228
 8424SOL    HW136731   3.955   2.713   2.909 -1.5446  0.5414 -1.2748
 8424SOL    HW236732   3.847   2.798   2.971 -0.0435 -0.2091 -1.4523
 8425SOL     OW36733   2.964   4.162   2.211 -0.4184 -0.2663 -0.0663
 8425SOL    HW136734   2.963   4.256   2.191  0.8529 -0.1070  0.6060
 8425SOL    HW236735   2.871   4.140   2.204  0.2064 -3.4745  1.8371
 8426SOL     OW36736   2.804   2.807   5.396 -0.2496  0.2320 -1.1958
 8426SOL    HW136737   2.899   2.797   5.381 -0.1068  1.6700 -1.2371
 8426SOL    HW236738   2.775   2.717   5.411  0.7415  0.4285  1.8138
 8427SOL     OW36739   0.441   0.084  10.905 -0.8275  0.0291 -0.1837
 8427SOL    HW136740   0.448   0.118  10.994 -0.7240 -2.0744  0.6146
 8427SOL    HW236741   0.378   0.015  10.926 -0.2143  0.1548  2.1547
 8428SOL     OW36742   1.136   4.200   6.273  0.2668  0.4667 -0.0096
 8428SOL    HW136743   1.152   4.295   6.274  0.6287  0.3886  2.4687
 8428SOL    HW236744   1.143   4.186   6.179  1.4616  1.8241 -0.1264
 8429SOL     OW36745   0.256   0.137   4.274 -0.0313 -0.4031 -0.2108
 8429SOL    HW136746   0.287   0.215   4.320  0.7408 -0.1606 -1.1535
 8429SOL    HW236747   0.339   0.097   4.250 -0.5818 -0.7938 -1.4501
 8430SOL     OW36748   2.274   1.564   6.180 -0.0218  0.2084  0.2424
 8430SOL    HW136749   2.285   1.472   6.153 -2.3240 -0.0122  0.0552
 8430SOL    HW236750   2.362   1.602   6.181  0.8398 -1.8476  3.1774
 8431SOL     OW36751   1.365   0.429   6.848  0.1764  0.1172 -0.0773
 8431SOL    HW136752   1.449   0.445   6.892 -0.9922  2.4348  1.2519
 8431SOL    HW236753   1.302   0.446   6.917 -0.6317 -0.4256 -0.6745
 8432SOL     OW36754   1.247   2.440   8.254  0.7494  0.2085 -0.3429
 8432SOL    HW136755   1.241   2.457   8.348  2.6070  0.7222 -0.3202
 8432SOL    HW236756   1.224   2.526   8.220  0.3130 -0.1763 -1.0262
 8433SOL     OW36757   2.166   1.070   7.560 -0.5584 -0.2238  0.1217
 8433SOL    HW136758   2.093   1.130   7.554 -0.0569  0.4372  0.6071
 8433SOL    HW236759   2.225   1.132   7.603  1.8495 -1.3764 -1.5236
 8434SOL     OW36760   3.218   1.445   1.287 -0.2949 -0.1343  0.4205
 8434SOL    HW136761   3.269   1.439   1.368  0.0669  0.5330  0.2348
 8434SOL    HW236762   3.252   1.366   1.246  0.2371 -0.4526  1.4759
 8435SOL     OW36763   3.157   1.217   2.773  0.2863  0.1756 -0.0485
 8435SOL    HW136764   3.090   1.161   2.812  0.5786  1.2251  1.9862
 8435SOL    HW236765   3.149   1.295   2.829 -0.7935  0.9911 -1.3634
 8436SOL     OW36766   2.579   2.238  11.662 -0.5854  0.0321 -0.4158
 8436SOL    HW136767   2.499   2.203  11.622 -0.4682 -1.6601  0.8679
 8436SOL    HW236768   2.626   2.266  11.583 -0.7946 -3.0744 -1.6373
 8437SOL     OW36769   3.850   4.473   7.491 -0.1396 -0.2296  0.6006
 8437SOL    HW136770   3.863   4.565   7.513 -2.8197 -0.4169  2.9675
 8437SOL    HW236771   3.938   4.436   7.501  1.0037  2.1542 -0.5754
 8438SOL     OW36772   1.792   3.395   4.535 -0.1193 -0.0305 -0.2190
 8438SOL    HW136773   1.864   3.339   4.507  0.1199  0.0151  0.3127
 8438SOL    HW236774   1.751   3.327   4.589  0.3187 -1.3560 -1.5193
 8439SOL     OW36775   2.377   2.032  15.497 -0.2068 -0.0845 -0.0982
 8439SOL    HW136776   2.368   2.124  15.522 -1.3420 -0.1302 -0.3532
 8439SOL    HW236777   2.305   2.019  15.435 -0.5685  3.5632 -0.4614
 8440SOL     OW36778   2.292   4.297   4.822  0.3177 -0.1481 -0.0424
 8440SOL    HW136779   2.207   4.255   4.836  0.1414 -0.3028 -1.5819
 8440SOL    HW236780   2.284   4.381   4.867  1.3671 -0.4134  0.6618
 8441SOL     OW36781   0.132   4.021   0.816 -0.9008 -0.4975  0.2633
 8441SOL    HW136782   0.198   3.980   0.871 -1.1038 -0.4923  0.5121
 8441SOL    HW236783   0.134   4.112   0.845  0.6897 -0.2503 -0.6342
 8442SOL     OW36784   4.726   0.786   2.413  0.3742 -0.3038 -0.7867
 8442SOL    HW136785   0.091   0.789   2.384  0.5781 -3.1144 -0.4409
 8442SOL    HW236786   4.676   0.740   2.346  0.4819  0.6980 -1.5431
 8443SOL     OW36787   0.608   0.817  16.150  0.0871 -0.2377 -0.2522
 8443SOL    HW136788   0.612   0.908  16.119 -0.8840 -0.3027 -0.5786
 8443SOL    HW236789   0.543   0.778  16.091 -0.2791  0.7293 -0.4891
 8444SOL     OW36790   1.724   3.361   4.207  0.3325  0.3620 -0.7466
 8444SOL    HW136791   1.786   3.292   4.233 -0.6238  0.0364  0.6313
 8444SOL    HW236792   1.641   3.334   4.245  0.4162  1.4635  0.2019
 8445SOL     OW36793   4.239   0.795   7.088  0.4921  0.5486  0.1581
 8445SOL    HW136794   4.163   0.772   7.034  0.6184  0.6951 -0.0807
 8445SOL    HW236795   4.284   0.860   7.035  1.1887 -0.7448 -0.8240
 8446SOL     OW36796   3.764   0.382  15.380 -0.0525 -0.2033  0.2043
 8446SOL    HW136797   3.852   0.388  15.341 -1.3746  0.3398 -2.6617
 8446SOL    HW236798   3.726   0.311  15.328  2.5367 -0.5424 -1.2583
 8447SOL     OW36799   1.838   1.670   2.368 -0.1271  0.3637 -0.0700
 8447SOL    HW136800   1.784   1.639   2.295  0.3175  2.1054 -1.1486
 8447SOL    HW236801   1.921   1.690   2.323  0.3447 -0.0128  0.6363
 8448SOL     OW36802   1.783   4.573   3.765  0.1263 -0.0306 -0.2729
 8448SOL    HW136803   1.835   4.493   3.778 -1.6473 -1.1119  0.2013
 8448SOL    HW236804   1.735   4.581   3.847 -0.2005 -0.5198 -0.4102
 8449SOL     OW36805   1.983   1.805   4.771  0.3785  0.2700 -0.3884
 8449SOL    HW136806   1.921   1.832   4.704  0.4705 -2.8140 -1.7126
 8449SOL    HW236807   2.045   1.878   4.764  1.1987 -0.3991 -0.1781
 8450SOL     OW36808   3.576   3.460  10.876 -0.8024  0.2107 -0.2473
 8450SOL    HW136809   3.558   3.455  10.783  0.3408 -1.7100 -0.3670
 8450SOL    HW236810   3.513   3.397  10.912 -2.1497  1.7363  0.0465
 8451SOL     OW36811   4.327   2.864   5.475  0.2738  0.8275  0.1189
 8451SOL    HW136812   4.243   2.830   5.507  1.5392 -3.5216 -1.1678
 8451SOL    HW236813   4.334   2.818   5.391 -3.1815 -1.5332  1.1350
 8452SOL     OW36814   2.848   2.306   6.954  0.3345  0.2153  0.1798
 8452SOL    HW136815   2.863   2.300   6.859  1.0980 -0.0274  0.3223
 8452SOL    HW236816   2.891   2.391   6.966 -3.0777  1.6902  1.9499
 8453SOL     OW36817   4.198   1.854   9.046  0.1843  0.4095  0.2149
 8453SOL    HW136818   4.136   1.784   9.068 -0.4899  1.0971  0.5048
 8453SOL    HW236819   4.270   1.828   9.103 -0.5914  0.3328  1.1678
 8454SOL     OW36820   4.448   0.654   4.442 -0.3941  0.2504 -0.7058
 8454SOL    HW136821   4.367   0.639   4.394 -1.9313  2.4049  1.1928
 8454SOL    HW236822   4.444   0.749   4.455 -0.2101  0.2889 -0.9380
 8455SOL     OW36823   3.859   2.961   4.524 -0.2120 -0.5430  0.3324
 8455SOL    HW136824   3.949   2.987   4.506  0.7932 -3.8853  0.4713
 8455SOL    HW236825   3.818   2.990   4.442 -0.1339  0.6261  0.7116
 8456SOL     OW36826   2.504   4.647   4.789  0.1229 -0.6383  0.0717
 8456SOL    HW136827   2.455   4.634   4.708  1.2987  0.3355 -0.7837
 8456SOL    HW236828   2.505   0.016   4.800  1.0487 -0.6891  0.4989
 8457SOL     OW36829   1.677   0.252   2.389 -0.2011 -0.0951 -1.0670
 8457SOL    HW136830   1.694   0.311   2.315 -0.6960  0.5037 -0.7097
 8457SOL    HW236831   1.658   0.171   2.341 -0.1110  0.6179 -2.3173
 8458SOL     OW36832   0.545   1.884   6.601  0.4638  0.7162  0.0567
 8458SOL    HW136833   0.572   1.903   6.690 -0.5482  2.3327  0.0200
 8458SOL    HW236834   0.452   1.892   6.620 -0.2172 -0.3404 -2.8113
 8459SOL     OW36835   1.878   0.848  15.831  0.5711 -0.4812 -0.5441
 8459SOL    HW136836   1.838   0.892  15.755 -1.3225 -2.3701 -0.6163
 8459SOL    HW236837   1.949   0.908  15.853  0.0932  0.1717 -0.7715
 8460SOL     OW36838   2.460   4.381   7.970 -0.1877  0.4723  0.6071
 8460SOL    HW136839   2.496   4.457   7.924 -0.2495  0.3061  0.2829
 8460SOL    HW236840   2.542   4.343   8.003 -1.0393 -1.5219  0.4358
 8461SOL     OW36841   3.156   0.389   9.974 -0.4266  0.2750  0.1683
 8461SOL    HW136842   3.227   0.344  10.018 -0.7385  1.3331  1.7326
 8461SOL    HW236843   3.099   0.313   9.961 -2.5465  1.9845 -0.6229
 8462SOL     OW36844   0.749   2.271   2.538 -0.0136  0.1831  0.0862
 8462SOL    HW136845   0.808   2.215   2.588  0.8794  0.4114 -0.7226
 8462SOL    HW236846   0.708   2.206   2.481  0.7201 -1.9763  2.0336
 8463SOL     OW36847   4.137   1.050   8.096 -0.0102 -0.2797  0.8388
 8463SOL    HW136848   4.092   1.134   8.092  2.0161  0.8050  0.6811
 8463SOL    HW236849   4.181   1.043   8.181 -2.5903 -1.4914  2.0494
 8464SOL     OW36850   1.225   4.089   6.750  0.1594  0.2746 -0.2806
 8464SOL    HW136851   1.157   4.028   6.779 -1.2513  1.5291 -0.9773
 8464SOL    HW236852   1.305   4.036   6.754  1.3571  2.1501  0.4749
 8465SOL     OW36853   4.294   0.120   5.188 -0.7429  0.1717 -0.1529
 8465SOL    HW136854   4.320   0.208   5.158  2.3288 -1.7422 -3.1720
 8465SOL    HW236855   4.307   0.068   5.109  0.0925  1.5819 -0.9604
 8466SOL     OW36856   4.643   3.063   8.238  0.1138  0.1527  0.1842
 8466SOL    HW136857   4.622   3.133   8.300  2.4202 -0.0437  1.1475
 8466SOL    HW236858   4.644   2.996   8.306  0.5131 -0.4611 -0.4228
 8467SOL     OW36859   4.508   0.981  10.221 -0.1211  0.5247 -0.2349
 8467SOL    HW136860   4.574   0.912  10.230 -2.4511 -1.4479  1.6185
 8467SOL    HW236861   4.466   0.974  10.306 -1.1393 -0.0349 -0.7822
 8468SOL     OW36862   4.420   2.471  17.020 -0.0272  0.0056 -0.5653
 8468SOL    HW136863   4.396   2.455  16.928  1.4967 -1.7776 -0.6592
 8468SOL    HW236864   4.482   2.543  17.031 -2.3771  2.0481 -0.6408
 8469SOL     OW36865   3.094   4.339   3.101 -0.0387 -0.2040 -0.6969
 8469SOL    HW136866   3.181   4.304   3.123  0.4895  1.0661 -0.7322
 8469SOL    HW236867   3.051   4.253   3.102 -0.5683  0.0525 -1.7660
 8470SOL     OW36868   0.151   3.444  12.659  0.3397 -0.0133 -0.3686
 8470SOL    HW136869   0.191   3.397  12.586 -0.4088 -0.0519 -0.7562
 8470SOL    HW236870   0.177   3.397  12.739  0.4690  1.7251  0.6075
 8471SOL     OW36871   1.202   2.966   6.589 -0.4221  0.1237 -0.0792
 8471SOL    HW136872   1.221   3.003   6.503 -0.6057  0.4464  0.0183
 8471SOL    HW236873   1.264   2.893   6.586 -1.6968 -0.9242 -0.8073
 8472SOL     OW36874   2.976   4.133   4.012 -0.6901  0.2568 -0.2720
 8472SOL    HW136875   2.927   4.083   4.077 -1.1325  1.6001  0.4233
 8472SOL    HW236876   3.003   4.068   3.947  1.9251  2.0149 -0.9638
 8473SOL     OW36877   4.715   0.117   6.242  0.2658  0.3697 -0.2631
 8473SOL    HW136878   4.697   0.064   6.165 -0.3319  1.6459 -0.9941
 8473SOL    HW236879   0.006   0.048   6.307  1.2678  0.0469 -0.8774
 8474SOL     OW36880   4.367   1.781   0.236 -0.0003  0.2146  0.4864
 8474SOL    HW136881   4.374   1.697   0.282  2.5629  0.3287  0.3061
 8474SOL    HW236882   4.458   1.802   0.214  0.1676 -0.8889  0.1258
 8475SOL     OW36883   2.201   3.603  10.247 -0.3729  0.2363  0.5019
 8475SOL    HW136884   2.162   3.599  10.160  0.0444 -0.7909  0.3658
 8475SOL    HW236885   2.294   3.602  10.226 -0.2799 -0.7222  0.9975
 8476SOL     OW36886   0.483   2.421   4.579  0.4436 -0.1912  0.6230
 8476SOL    HW136887   0.515   2.451   4.494 -2.1270 -0.4239 -0.4391
 8476SOL    HW236888   0.391   2.415   4.553  0.1721  0.6890  1.3895
 8477SOL     OW36889   3.052   1.846   5.124 -0.2218 -0.1664 -0.0424
 8477SOL    HW136890   3.140   1.874   5.147 -0.5702  0.9652 -0.0809
 8477SOL    HW236891   3.046   1.867   5.030 -0.8137  1.5195  0.3738
 8478SOL     OW36892   1.377   3.096   9.602  0.4707  0.1870  0.2596
 8478SOL    HW136893   1.425   3.134   9.675  1.2849 -1.6756  0.7039
 8478SOL    HW236894   1.422   3.012   9.590  0.3446 -0.1163  1.8616
 8479SOL     OW36895   4.527   1.784   3.168  0.4020  1.0936 -0.5669
 8479SOL    HW136896   4.551   1.802   3.258 -0.6032  2.0850 -0.5006
 8479SOL    HW236897   4.599   1.801   3.107  1.1066  2.3341  0.6186
 8480SOL     OW36898   0.921   4.668   4.867 -0.3544  0.1444 -0.0020
 8480SOL    HW136899   0.973   4.720   4.928  2.6471  0.0619 -2.5092
 8480SOL    HW236900   0.933   4.718   4.786  0.5690 -0.1629 -0.0502
 8481SOL     OW36901   1.877   0.688  15.354  0.5875 -0.8403  0.0657
 8481SOL    HW136902   1.912   0.649  15.435 -1.9406 -0.4608  1.3396
 8481SOL    HW236903   1.879   0.604  15.308 -1.8192 -0.8944  0.0710
 8482SOL     OW36904   4.423   0.946   3.424 -0.4208  0.4357  0.1775
 8482SOL    HW136905   4.457   0.953   3.335  1.8999  0.5168  1.0485
 8482SOL    HW236906   4.490   0.998   3.468 -0.9853  1.6663 -0.4375
 8483SOL     OW36907   3.890   3.771   9.548  0.4708 -0.3473  0.1389
 8483SOL    HW136908   3.967   3.761   9.492  0.2700 -2.6091  0.2745
 8483SOL    HW236909   3.924   3.837   9.609 -1.2158  0.7395 -0.0853
 8484SOL     OW36910   2.610   4.490   6.412  0.2038 -0.3148 -0.3035
 8484SOL    HW136911   2.679   4.524   6.469  0.0683  0.6654 -0.7283
 8484SOL    HW236912   2.660   4.429   6.357  0.2364  0.1864 -0.8236
 8485SOL     OW36913   0.147   3.605   8.048  0.0443  0.3688 -0.0653
 8485SOL    HW136914   0.057   3.577   8.063  0.3144 -1.2032 -1.2437
 8485SOL    HW236915   0.194   3.522   8.040 -1.3059 -0.2801 -1.2813
 8486SOL     OW36916   2.139   0.232   3.386  0.1851 -0.0126 -0.2618
 8486SOL    HW136917   2.201   0.168   3.350  0.5898 -0.0014  0.4161
 8486SOL    HW236918   2.152   0.228   3.481 -1.3191  0.6696 -0.0270
 8487SOL     OW36919   0.428   2.765   9.929  0.4302  0.0136  0.1668
 8487SOL    HW136920   0.382   2.777   9.846 -0.6860 -0.1648  0.7514
 8487SOL    HW236921   0.464   2.678   9.910  1.5524  0.5127  0.0517
 8488SOL     OW36922   2.328   3.689   7.769  0.0324 -0.0084 -0.1856
 8488SOL    HW136923   2.285   3.654   7.847  3.0227  0.4142  1.6746
 8488SOL    HW236924   2.328   3.607   7.719  1.2766 -0.6957  0.9311
 8489SOL     OW36925   3.341   0.404   9.763  0.7844 -0.2956 -0.4478
 8489SOL    HW136926   3.409   0.444   9.817  0.2739  0.3748 -0.3058
 8489SOL    HW236927   3.276   0.393   9.833  0.4458 -0.6804 -0.8140
 8490SOL     OW36928   2.413   0.272  17.367  0.0712  0.2492 -0.2393
 8490SOL    HW136929   2.467   0.343  17.336 -0.7738  0.0566 -2.1613
 8490SOL    HW236930   2.347   0.275  17.298  1.1795 -0.4086 -1.3183
 8491SOL     OW36931   1.521   4.489   4.343 -0.4413  0.3527  0.1519
 8491SOL    HW136932   1.463   4.474   4.417 -2.0844  1.9453 -0.8059
 8491SOL    HW236933   1.569   4.567   4.372  0.9643 -0.6825  0.6073
 8492SOL     OW36934   0.635   3.793   2.957 -0.2334  0.0310  0.2983
 8492SOL    HW136935   0.618   3.784   3.051  0.7902 -0.6552  0.4208
 8492SOL    HW236936   0.580   3.868   2.936  0.3233 -0.1636 -1.8615
 8493SOL     OW36937   0.917   0.786  11.266  0.0360  0.1902  0.3376
 8493SOL    HW136938   0.930   0.729  11.342  1.3133 -0.7693 -0.5870
 8493SOL    HW236939   0.983   0.854  11.281 -1.2679  1.8034 -1.3367
 8494SOL     OW36940   1.536   1.938   5.173 -0.0227  0.0985 -0.2196
 8494SOL    HW136941   1.568   1.930   5.263 -2.3725 -1.6393  0.4836
 8494SOL    HW236942   1.482   1.859   5.173  1.2933 -0.8058  1.4982
 8495SOL     OW36943   1.354   1.283   3.390 -0.0496  0.1194  0.4023
 8495SOL    HW136944   1.373   1.297   3.297  1.0182  1.8294  0.8802
 8495SOL    HW236945   1.426   1.225   3.413  1.7893  2.4866  0.5858
 8496SOL     OW36946   0.552   0.140   4.601 -0.2048 -0.4630 -0.2600
 8496SOL    HW136947   0.504   0.057   4.598  1.3605 -1.2898 -2.3834
 8496SOL    HW236948   0.528   0.192   4.678  0.7734  0.1261 -0.3530
 8497SOL     OW36949   0.002   3.476   7.095  0.3929  0.0064  0.6940
 8497SOL    HW136950   4.650   3.525   7.123 -0.7329 -1.0433 -0.6518
 8497SOL    HW236951   0.021   3.411   7.162  3.1791 -0.1384 -0.2360
 8498SOL     OW36952   4.320   4.073   5.611 -0.0913  0.3094 -0.0718
 8498SOL    HW136953   4.271   4.156   5.609 -2.1086 -0.8752 -0.2013
 8498SOL    HW236954   4.267   4.029   5.544  0.0549  0.1376 -0.0731
 8499SOL     OW36955   0.455   2.388  17.607  0.0071 -0.1218 -0.0445
 8499SOL    HW136956   0.538   2.367  17.649 -0.1817 -0.7152  0.0310
 8499SOL    HW236957   0.483   2.451  17.541  0.0054 -2.6761 -2.5265
 8500SOL     OW36958   0.456   1.905   8.558 -0.1053  0.5181 -0.1748
 8500SOL    HW136959   0.475   1.859   8.640 -1.7325 -1.1050 -0.6837
 8500SOL    HW236960   0.419   1.989   8.585  0.2947  0.7711 -0.4260
 8501SOL     OW36961   3.668   0.884   5.164  0.2582 -0.1143  0.4259
 8501SOL    HW136962   3.623   0.826   5.102 -1.5928  0.0847  1.5663
 8501SOL    HW236963   3.619   0.844   5.236  0.9611  0.1893  1.0716
 8502SOL     OW36964   0.109   0.737   5.320  0.1196 -0.2526  0.1252
 8502SOL    HW136965   0.016   0.717   5.324 -0.1517  0.5995 -1.9597
 8502SOL    HW236966   0.131   0.696   5.236 -0.3441  1.1847 -0.6925
 8503SOL     OW36967   1.934   2.437   3.646  0.3446 -0.3173  0.1378
 8503SOL    HW136968   1.962   2.360   3.598 -2.1021 -1.2145  0.1374
 8503SOL    HW236969   1.867   2.474   3.588  1.6431  1.7515 -0.0307
 8504SOL     OW36970   0.659   0.394   9.331 -0.1330 -0.4189  0.2340
 8504SOL    HW136971   0.659   0.461   9.399 -3.2361  0.7501 -0.9136
 8504SOL    HW236972   0.610   0.322   9.371 -2.1785  1.5154  1.2193
 8505SOL     OW36973   3.476   0.364   5.342  0.0401 -0.5194  0.1997
 8505SOL    HW136974   3.470   0.420   5.265 -0.7859 -0.3112  0.4104
 8505SOL    HW236975   3.560   0.387   5.381 -0.1314  0.2538  0.1062
 8506SOL     OW36976   4.392   1.400   4.869  0.0728 -0.2563 -0.1996
 8506SOL    HW136977   4.452   1.342   4.915  2.2592  0.6954 -1.8235
 8506SOL    HW236978   4.388   1.364   4.781  0.5399 -1.2937  0.2079
 8507SOL     OW36979   0.679   1.001  16.531  0.1338 -0.1207  0.0571
 8507SOL    HW136980   0.655   0.920  16.488 -1.1985  0.7687 -0.8959
 8507SOL    HW236981   0.737   1.044  16.467 -1.8122  2.1819 -0.1655
 8508SOL     OW36982   0.311   2.065  15.703  0.2784  0.1163  0.4206
 8508SOL    HW136983   0.346   2.069  15.614 -1.0613  1.7332 -0.0375
 8508SOL    HW236984   0.283   2.154  15.722  0.0230  0.0116  0.5431
 8509SOL     OW36985   3.112   4.563   6.955 -0.7747  0.1200  0.3378
 8509SOL    HW136986   3.139   4.595   7.041  3.0281  1.5167 -1.3993
 8509SOL    HW236987   3.072   4.478   6.977  0.5192 -1.2102 -2.5030
 8510SOL     OW36988   3.530   3.012  17.406  0.3605  0.1485 -0.4429
 8510SOL    HW136989   3.438   3.037  17.396  0.1873 -0.5925 -0.7396
 8510SOL    HW236990   3.516   2.943  17.471  1.6551 -0.4018 -0.7458
 8511SOL     OW36991   0.205   0.352   3.074 -0.6645  0.1155 -0.7788
 8511SOL    HW136992   0.165   0.283   3.127  0.2307  0.8433  0.8293
 8511SOL    HW236993   0.183   0.319   2.986  1.7752  0.4674 -1.5185
 8512SOL     OW36994   3.667   1.888   7.655  0.3246 -0.5089 -0.1640
 8512SOL    HW136995   3.711   1.883   7.740 -1.5477  0.0639  0.8334
 8512SOL    HW236996   3.743   1.883   7.597 -0.0863  0.1617 -0.7540
 8513SOL     OW36997   1.539   1.609   3.698 -0.2321  0.3210  0.2486
 8513SOL    HW136998   1.606   1.676   3.685  0.0019 -0.3079 -1.7530
 8513SOL    HW236999   1.571   1.534   3.648 -0.0059  0.7804 -0.2943
 8514SOL     OW37000   2.349   2.708  14.739  0.3144 -0.0891 -0.3153
 8514SOL    HW137001   2.401   2.628  14.733 -0.7247 -0.5719 -2.6807
 8514SOL    HW237002   2.376   2.737  14.652 -2.5726 -1.8000 -1.7835
 8515SOL     OW37003   3.857   0.340   9.322 -0.4545  0.2068  0.4151
 8515SOL    HW137004   3.853   0.244   9.318 -2.9728  0.1916  3.9226
 8515SOL    HW237005   3.849   0.350   9.417 -0.2607 -0.2167  0.4809
 8516SOL     OW37006   1.336   0.269   3.655  0.9279 -0.7014  0.1102
 8516SOL    HW137007   1.244   0.258   3.679  0.1026  0.7379 -2.4248
 8516SOL    HW237008   1.333   0.318   3.572 -3.9071  2.0174  1.9266
 8517SOL     OW37009   1.499   2.652   8.034 -0.6427  0.5807  0.1776
 8517SOL    HW137010   1.484   2.729   8.088 -2.1756  0.1217  0.4249
 8517SOL    HW237011   1.588   2.635   8.063 -1.1683 -1.0733  0.8742
 8518SOL     OW37012   4.677   3.584   9.775 -0.0401  0.0501  0.2762
 8518SOL    HW137013   4.707   3.656   9.720  1.3498  1.3588  2.7555
 8518SOL    HW237014   0.024   3.524   9.782 -0.1464 -0.2017 -0.7564
 8519SOL     OW37015   2.874   3.767  17.219  0.1827  0.0424  0.3315
 8519SOL    HW137016   2.908   3.801  17.136 -2.1093  0.8148 -0.2951
 8519SOL    HW237017   2.923   3.686  17.227  1.5921  0.6486 -2.2126
 8520SOL     OW37018   3.658   2.773   2.383 -0.0009  0.5834 -0.5541
 8520SOL    HW137019   3.686   2.802   2.296  0.2593  2.1123  0.0435
 8520SOL    HW237020   3.611   2.849   2.418 -1.5843  0.5057 -2.4723
 8521SOL     OW37021   3.922   2.514  14.534 -0.2956 -0.0448  0.1238
 8521SOL    HW137022   3.886   2.602  14.531  0.1600  0.1433  0.1288
 8521SOL    HW237023   3.861   2.463  14.587 -0.4613 -0.2341 -0.2479
 8522SOL     OW37024   3.686   3.809   6.206  0.0066 -0.2300  0.2397
 8522SOL    HW137025   3.664   3.814   6.299  2.3562 -1.5880  0.8560
 8522SOL    HW237026   3.742   3.732   6.205 -0.5602 -0.6282 -0.9598
 8523SOL     OW37027   2.762   2.758   3.129  0.3088  0.2460 -0.3473
 8523SOL    HW137028   2.827   2.723   3.190 -0.2673  0.1279  0.1916
 8523SOL    HW237029   2.699   2.804   3.185  0.4566 -3.8074  3.1076
 8524SOL     OW37030   3.998   0.149   6.206 -0.4774  0.5175  0.1458
 8524SOL    HW137031   4.023   0.057   6.218 -0.3941  0.3284 -1.5203
 8524SOL    HW237032   4.049   0.190   6.276  0.7530 -0.3338 -0.2656
 8525SOL     OW37033   0.938   1.040   8.228  0.0181  0.0200  0.6228
 8525SOL    HW137034   0.966   1.125   8.262  1.1627 -0.3329  0.5697
 8525SOL    HW237035   0.846   1.063   8.219  0.5234  1.8525  0.1502
 8526SOL     OW37036   1.744   1.651   7.891  0.5286 -0.3892 -0.6343
 8526SOL    HW137037   1.705   1.672   7.976 -2.4888 -0.4044 -2.0057
 8526SOL    HW237038   1.725   1.558   7.878  0.4640 -0.5777  0.8021
 8527SOL     OW37039   3.862   1.834   6.017 -0.3886 -0.1383  0.0930
 8527SOL    HW137040   3.770   1.813   6.034 -0.9018 -0.2332 -2.7492
 8527SOL    HW237041   3.897   1.754   6.056 -1.8688 -1.9917 -2.3249
 8528SOL     OW37042   4.442   2.478  13.026  0.2424 -0.1823 -1.0102
 8528SOL    HW137043   4.389   2.407  12.989 -1.3182  0.4108  0.0472
 8528SOL    HW237044   4.528   2.450  12.996  0.9646  0.8691  0.0974
 8529SOL     OW37045   2.183   3.451   9.582 -0.2053 -0.7990 -0.4445
 8529SOL    HW137046   2.099   3.486   9.552  0.8293  1.6232 -0.5537
 8529SOL    HW237047   2.240   3.503   9.525 -1.1767  1.0083  0.2328
 8530SOL     OW37048   2.493   0.221  16.343 -0.4174  0.0399 -0.2252
 8530SOL    HW137049   2.404   0.239  16.315  0.2114  0.8405 -1.7090
 8530SOL    HW237050   2.471   0.150  16.404 -1.5060 -0.8293 -1.6338
 8531SOL     OW37051   2.964   2.287   3.065 -0.0315  0.0364 -0.7401
 8531SOL    HW137052   2.881   2.249   3.093  0.8688 -0.4154  1.2838
 8531SOL    HW237053   2.953   2.265   2.972 -0.9659 -2.1016 -0.1261
 8532SOL     OW37054   1.340   4.320   1.988 -0.2045 -0.2274  0.2020
 8532SOL    HW137055   1.407   4.314   2.056  0.7098  2.5561 -0.4834
 8532SOL    HW237056   1.304   4.406   2.010 -2.5544 -0.7989 -1.4944
 8533SOL     OW37057   4.430   2.309   1.945  0.0709  0.1144 -0.0709
 8533SOL    HW137058   4.421   2.296   1.851  5.7981 -1.0703 -0.4378
 8533SOL    HW237059   4.503   2.249   1.961 -0.0286 -0.2336 -0.9199
 8534SOL     OW37060   4.004   2.069   4.925 -0.3061 -0.8070  0.1443
 8534SOL    HW137061   3.981   2.100   5.013 -1.4218 -0.2498 -0.3290
 8534SOL    HW237062   4.019   1.977   4.944  1.7741 -0.0387  2.2935
 8535SOL     OW37063   1.295   3.861  11.541  0.2103  0.0668 -0.2559
 8535SOL    HW137064   1.323   3.875  11.450 -2.4616  0.1972 -1.0601
 8535SOL    HW237065   1.337   3.776  11.551  1.0271  0.5296  0.2050
 8536SOL     OW37066   2.063   2.499   6.038 -0.2774  0.4628 -0.0494
 8536SOL    HW137067   1.996   2.524   5.974  0.5277 -0.6538 -1.3227
 8536SOL    HW237068   2.017   2.523   6.118  1.0114 -0.5726  0.9886
 8537SOL     OW37069   0.081   1.164  17.554 -0.4538 -0.4574  0.0191
 8537SOL    HW137070   0.027   1.173  17.476 -0.0139  1.3008 -0.0893
 8537SOL    HW237071   0.074   1.251  17.594 -1.2646 -0.0348 -1.0706
 8538SOL     OW37072   1.228   3.565   2.329 -0.1827  0.2070 -0.1560
 8538SOL    HW137073   1.170   3.502   2.287  2.8120 -1.6486 -1.5153
 8538SOL    HW237074   1.203   3.643   2.279 -1.9505 -0.0538  0.3429
 8539SOL     OW37075   2.777   4.451   3.495  0.3038 -0.0458  0.5155
 8539SOL    HW137076   2.814   4.472   3.409 -0.0969  0.7242  0.5331
 8539SOL    HW237077   2.861   4.449   3.540 -0.4765  0.0109  1.9797
 8540SOL     OW37078   0.251   1.795   4.081 -0.5344  0.5655 -0.4903
 8540SOL    HW137079   0.170   1.761   4.043 -0.3828  0.6608 -0.8994
 8540SOL    HW237080   0.225   1.881   4.114  0.4772  1.6265 -2.5008
 8541SOL     OW37081   4.566   4.655   2.270  0.6125 -0.3204 -0.0525
 8541SOL    HW137082   4.499   4.638   2.203  0.7002 -1.5981  0.1850
 8541SOL    HW237083   4.561   0.024   2.282  0.2390 -0.3942  0.3613
 8542SOL     OW37084   0.993   3.063   5.185  0.3177 -0.7601  0.6601
 8542SOL    HW137085   0.933   3.012   5.238 -0.5532 -0.9544 -0.5155
 8542SOL    HW237086   1.079   3.035   5.216 -0.6847 -3.0729  1.3473
 8543SOL     OW37087   1.179   4.144  12.284 -0.3029  0.3905 -0.3701
 8543SOL    HW137088   1.176   4.089  12.363  1.3410  1.6083  0.5352
 8543SOL    HW237089   1.272   4.163  12.288 -0.4810  1.3500 -0.9123
 8544SOL     OW37090   3.154   0.525   2.081 -0.1804 -0.0163 -0.7372
 8544SOL    HW137091   3.161   0.434   2.051  0.0428  0.0132 -0.7807
 8544SOL    HW237092   3.201   0.570   2.010  0.5082  0.0754 -0.2253
 8545SOL     OW37093   0.173   0.952   8.084  0.0943 -0.0675 -0.5212
 8545SOL    HW137094   0.180   0.907   7.999  1.0800  1.3997 -1.2183
 8545SOL    HW237095   0.099   1.007   8.058 -0.0551 -0.4930 -1.0121
 8546SOL     OW37096   1.867   0.518   2.456 -0.6560  0.1854  0.0216
 8546SOL    HW137097   1.840   0.510   2.364 -1.7372 -3.5256  0.6472
 8546SOL    HW237098   1.790   0.475   2.494 -1.3378  0.3649 -1.1277
 8547SOL     OW37099   0.405   3.439   8.766 -0.1709  0.2468 -0.3454
 8547SOL    HW137100   0.339   3.507   8.759  1.4325  1.7405 -0.9670
 8547SOL    HW237101   0.393   3.401   8.679  2.4442  0.0816 -0.6356
 8548SOL     OW37102   2.131   4.109  15.974 -0.0217 -0.4013  0.0282
 8548SOL    HW137103   2.162   4.029  16.016 -1.7615 -0.0451  1.9775
 8548SOL    HW237104   2.149   4.098  15.881  2.7723  1.4898  0.3430
 8549SOL     OW37105   1.592   1.541  10.454  0.3600 -0.2917 -0.4119
 8549SOL    HW137106   1.596   1.446  10.454  2.3370 -0.1946 -1.1733
 8549SOL    HW237107   1.643   1.572  10.529  1.0522  0.1360 -1.0667
 8550SOL     OW37108   2.464   3.503   0.941 -0.3721  0.6193 -0.4830
 8550SOL    HW137109   2.475   3.581   0.995 -2.0035  0.1648  0.5085
 8550SOL    HW237110   2.380   3.467   0.969  0.3009 -0.3821  0.2106
 8551SOL     OW37111   2.458   3.415   7.078  0.6611 -0.3367 -0.1566
 8551SOL    HW137112   2.388   3.474   7.106  0.5564 -1.2024  1.3629
 8551SOL    HW237113   2.540   3.457   7.106  1.5780 -2.3238  0.1327
 8552SOL     OW37114   0.329   2.521   9.508  0.1486  0.0776  0.0408
 8552SOL    HW137115   0.274   2.524   9.429 -0.9018  1.1081  0.8125
 8552SOL    HW237116   0.385   2.599   9.507 -0.6033  0.6123 -1.8214
 8553SOL     OW37117   4.438   1.658   4.900 -0.2064  0.3977 -0.1365
 8553SOL    HW137118   4.526   1.644   4.934 -0.4438 -0.6055  0.0568
 8553SOL    HW237119   4.400   1.571   4.890 -2.4069  1.1896  1.2372
 8554SOL     OW37120   1.212   4.513  11.200  0.4643 -0.1636  0.2101
 8554SOL    HW137121   1.155   4.487  11.272  1.0614  0.7351  1.0026
 8554SOL    HW237122   1.182   4.453  11.131 -0.0114  0.7962 -0.4127
 8555SOL     OW37123   1.139   1.970   6.883  0.6306  0.4901  0.8868
 8555SOL    HW137124   1.164   1.942   6.971  0.7622 -1.5172  0.2104
 8555SOL    HW237125   1.053   1.928   6.875  0.5386  0.5850  1.4212
 8556SOL     OW37126   4.134   3.966   5.420  0.2718 -0.0808  0.0068
 8556SOL    HW137127   4.185   3.989   5.342 -1.6611 -0.1781 -1.2909
 8556SOL    HW237128   4.094   3.884   5.391 -0.2425  0.6869 -1.4463
 8557SOL     OW37129   2.755   2.024   5.634 -0.2527 -0.1664  0.0669
 8557SOL    HW137130   2.813   2.059   5.566  0.9747  2.8528  2.6901
 8557SOL    HW237131   2.704   2.099   5.664 -1.4794 -0.3713 -1.4705
 8558SOL     OW37132   1.883   1.334  12.009  0.5352 -0.2847 -0.1796
 8558SOL    HW137133   1.913   1.382  12.086 -2.7885  2.6029 -0.6648
 8558SOL    HW237134   1.810   1.288  12.052  0.5518 -0.8900 -0.7962
 8559SOL     OW37135   2.246   3.456   2.776  0.2290  0.6965 -0.3273
 8559SOL    HW137136   2.279   3.514   2.845 -1.3356 -0.0283  1.0061
 8559SOL    HW237137   2.260   3.511   2.698  1.1424  0.3158 -0.4313
 8560SOL     OW37138   4.592   1.877   4.986 -0.5287 -0.2656 -0.1962
 8560SOL    HW137139   4.543   1.939   5.041  2.0916  2.0962 -0.5665
 8560SOL    HW237140   4.530   1.806   4.969 -1.9059  0.0758  3.2792
 8561SOL     OW37141   1.798   0.900  10.071  0.2455 -0.8851 -0.3795
 8561SOL    HW137142   1.873   0.841  10.060  1.6275  0.5610  1.2787
 8561SOL    HW237143   1.731   0.858  10.018 -0.7262 -1.9377  1.7113
 8562SOL     OW37144   4.447   2.707   6.912 -0.5815  0.3217 -0.0979
 8562SOL    HW137145   4.436   2.799   6.887 -1.9641  0.0578 -0.4471
 8562SOL    HW237146   4.533   2.686   6.875 -1.0177  0.8172 -1.4141
 8563SOL     OW37147   1.549   0.851   9.879 -0.2024 -0.3259  0.3035
 8563SOL    HW137148   1.489   0.917   9.915 -1.1653 -1.8820  1.5531
 8563SOL    HW237149   1.542   0.871   9.786  1.0300 -1.3315 -0.0021
 8564SOL     OW37150   1.422   4.251   2.327  0.0511  0.8364  0.3161
 8564SOL    HW137151   1.433   4.157   2.344 -0.3906  0.0542 -3.6331
 8564SOL    HW237152   1.337   4.268   2.368  0.0348 -1.3494  1.2332
 8565SOL     OW37153   4.378   1.482   2.957  0.2840 -0.1130  0.3696
 8565SOL    HW137154   4.322   1.540   2.907 -1.1374 -1.3309  0.5583
 8565SOL    HW237155   4.317   1.419   2.995 -0.1635  0.1911  0.1457
 8566SOL     OW37156   1.222   0.569  11.997 -0.0139  0.1647  0.3436
 8566SOL    HW137157   1.196   0.543  11.909 -1.0944  1.1916  0.3563
 8566SOL    HW237158   1.166   0.644  12.018 -1.4717 -0.7188 -0.4005
 8567SOL     OW37159   3.524   1.655   2.032 -0.2596 -0.2985 -0.1532
 8567SOL    HW137160   3.587   1.596   1.991  0.3399 -0.7261  1.3934
 8567SOL    HW237161   3.450   1.594   2.037 -1.0063  0.6616  0.4079
 8568SOL     OW37162   1.352   3.850   5.931  0.4430  0.3085 -0.1569
 8568SOL    HW137163   1.328   3.812   5.846  0.3654 -0.6513  0.3046
 8568SOL    HW237164   1.305   3.932   5.915  0.3562  0.4697  0.9103
 8569SOL     OW37165   0.485   0.833   2.892  0.0596  0.0394 -0.0455
 8569SOL    HW137166   0.460   0.741   2.890  0.2315  0.0170 -1.5880
 8569SOL    HW237167   0.397   0.861   2.866 -0.2329 -1.0880 -0.2691
 8570SOL     OW37168   4.500   2.452   0.893 -0.4467  0.5962  0.0461
 8570SOL    HW137169   4.512   2.357   0.891 -0.5763  0.5430  1.4497
 8570SOL    HW237170   4.466   2.469   0.981 -1.5782 -0.3661 -0.2087
 8571SOL     OW37171   0.135   0.719   7.630 -0.2407 -0.2792 -0.0433
 8571SOL    HW137172   0.065   0.684   7.685 -0.0980 -1.8725 -0.8638
 8571SOL    HW237173   0.176   0.638   7.597 -0.1869  0.0887 -0.8865
 8572SOL     OW37174   0.713   4.647   4.017  0.1982 -0.3849 -0.2986
 8572SOL    HW137175   0.701   4.555   3.993 -1.6768 -0.0689 -0.5165
 8572SOL    HW237176   0.756   4.680   3.938 -1.1891  0.5139 -0.6679
 8573SOL     OW37177   4.608   1.098   9.769  0.6013 -0.3032  0.3176
 8573SOL    HW137178   4.541   1.064   9.828  0.2956  0.9960  0.7272
 8573SOL    HW237179   4.687   1.092   9.821  1.1238 -0.3698 -0.4866
 8574SOL     OW37180   1.727   2.902   6.931 -0.3504 -0.2855 -0.0137
 8574SOL    HW137181   1.725   2.809   6.910 -0.0556 -0.0546 -1.0764
 8574SOL    HW237182   1.818   2.923   6.952 -0.6903  0.4571  0.7406
 8575SOL     OW37183   3.109   1.047   2.412 -0.5325  0.0424 -0.1802
 8575SOL    HW137184   3.193   1.051   2.367 -0.2816 -0.8418  0.1971
 8575SOL    HW237185   3.126   0.972   2.470 -0.9164  0.3456  0.3314
 8576SOL     OW37186   1.871   0.158   2.630  0.6948 -0.2367  0.0953
 8576SOL    HW137187   1.838   0.223   2.568 -1.3247  1.0079  2.4624
 8576SOL    HW237188   1.788   0.129   2.668  0.1874  2.6913  1.1966
 8577SOL     OW37189   0.247   3.699  11.631  0.1745 -0.6077  0.3755
 8577SOL    HW137190   0.172   3.675  11.686  1.2631 -4.7186  0.0878
 8577SOL    HW237191   0.222   3.664  11.546 -1.5637  0.5784  0.3996
 8578SOL     OW37192   4.065   1.059   5.896 -0.3226 -0.3269  0.2356
 8578SOL    HW137193   4.044   1.129   5.835  0.6674  0.4365  0.7656
 8578SOL    HW237194   3.983   1.041   5.942 -0.8956  2.4900  0.3417
 8579SOL     OW37195   2.945   4.419  13.794 -0.2323  0.1393  0.4686
 8579SOL    HW137196   2.917   4.471  13.869 -1.8948  0.3917 -0.3271
 8579SOL    HW237197   3.033   4.395  13.825  0.6771  2.0378 -0.6797
 8580SOL     OW37198   1.922   2.796   1.396  0.0751  0.1173  0.4109
 8580SOL    HW137199   1.849   2.741   1.424 -0.0557 -0.6682 -1.4667
 8580SOL    HW237200   1.868   2.870   1.369 -1.6188 -1.3436 -0.1879
 8581SOL     OW37201   3.040   3.825  11.306 -0.0680 -0.1606  0.4379
 8581SOL    HW137202   2.953   3.836  11.266  0.2145  1.6641  0.3257
 8581SOL    HW237203   3.010   3.854  11.392  0.8735  0.7610  0.4576
 8582SOL     OW37204   3.386   1.579   7.820  0.2458 -0.3437 -0.2417
 8582SOL    HW137205   3.387   1.623   7.735 -2.8114 -0.6811 -0.4413
 8582SOL    HW237206   3.406   1.653   7.878  2.0336 -0.3541 -0.8251
 8583SOL     OW37207   3.891   2.859  11.381 -0.2588  0.3480 -0.3648
 8583SOL    HW137208   3.956   2.928  11.365 -0.4414  0.4855 -0.5121
 8583SOL    HW237209   3.850   2.894  11.460 -2.7953  0.0475 -1.5620
 8584SOL     OW37210   1.046   4.542  16.723 -0.1343  0.2266  0.3299
 8584SOL    HW137211   0.979   4.610  16.719 -1.2068 -0.8676 -0.4532
 8584SOL    HW237212   0.993   4.465  16.700  0.2939  0.4743 -1.4775
 8585SOL     OW37213   4.440   2.152   4.067 -0.6534 -0.6169  0.3584
 8585SOL    HW137214   4.346   2.142   4.048 -0.6263  1.9321 -1.1424
 8585SOL    HW237215   4.475   2.194   3.989 -1.4225 -1.1022 -0.2522
 8586SOL     OW37216   3.694   2.674   0.194 -0.6335  0.4537  0.1505
 8586SOL    HW137217   3.757   2.673   0.265  0.4292 -2.5593 -0.8519
 8586SOL    HW237218   3.611   2.689   0.241  0.6289  2.2280  1.8084
 8587SOL     OW37219   3.595   0.203   7.576  0.1957 -0.0115  0.7828
 8587SOL    HW137220   3.649   0.253   7.637  0.4335 -0.2401  0.7613
 8587SOL    HW237221   3.509   0.246   7.574  0.3973  0.3555  0.1248
 8588SOL     OW37222   0.104   0.587  13.706  0.1234 -0.2664  0.4599
 8588SOL    HW137223   0.184   0.641  13.708 -0.1749  0.1783  0.3612
 8588SOL    HW237224   0.102   0.551  13.794 -0.6696 -5.2774 -1.6004
 8589SOL     OW37225   1.933   3.543   9.548  0.2648  0.1290  0.1923
 8589SOL    HW137226   1.848   3.506   9.525  0.6542 -0.2499 -0.6441
 8589SOL    HW237227   1.917   3.637   9.535  1.4670  0.6167  2.1653
 8590SOL     OW37228   3.035   4.500   0.519  0.5125  0.4548  0.3979
 8590SOL    HW137229   3.000   4.414   0.497  2.4482  0.2723 -1.9816
 8590SOL    HW237230   3.064   4.470   0.605  1.5687 -1.6239 -0.6627
 8591SOL     OW37231   2.571   1.129  14.418 -0.0008  0.1485  0.4386
 8591SOL    HW137232   2.596   1.084  14.498  1.3965 -0.9798 -0.6252
 8591SOL    HW237233   2.479   1.143  14.441 -0.8153 -3.5067 -0.4922
 8592SOL     OW37234   3.620   4.652   8.604  0.8579  0.0210  0.0181
 8592SOL    HW137235   3.643   4.575   8.656  0.7853  1.0421  1.5726
 8592SOL    HW237236   3.528   4.637   8.587  0.7671 -0.8931  1.3051
 8593SOL     OW37237   2.395   3.955  14.944 -0.0886  0.0721 -0.5795
 8593SOL    HW137238   2.363   3.875  14.986 -2.0892  0.8126 -0.7186
 8593SOL    HW237239   2.476   3.924  14.902 -0.4174 -0.6925 -0.6418
 8594SOL     OW37240   2.385   1.471  14.547 -0.2434 -0.0389 -0.2886
 8594SOL    HW137241   2.457   1.412  14.567  0.9798  0.6686 -2.6043
 8594SOL    HW237242   2.409   1.500  14.459  0.0139  1.0457  0.1342
 8595SOL     OW37243   1.309   3.110   3.039  0.4590 -0.3125 -0.3968
 8595SOL    HW137244   1.394   3.154   3.032  1.3194 -2.0319 -1.0030
 8595SOL    HW237245   1.323   3.028   2.992 -0.1917 -2.0394  2.3819
 8596SOL     OW37246   2.868   4.698   7.898 -0.5078  0.5323 -0.4463
 8596SOL    HW137247   2.919   4.672   7.822 -0.8283 -1.2008 -0.0630
 8596SOL    HW237248   2.810   0.038   7.860  2.0592  1.3868 -2.8750
 8597SOL     OW37249   2.715   4.695  14.622  0.1955 -0.3139  0.1603
 8597SOL    HW137250   2.722   0.061  14.648 -1.6809  0.2255 -1.2743
 8597SOL    HW237251   2.621   4.679  14.618  0.1702 -0.7115  2.3853
 8598SOL     OW37252   2.370   0.881   5.425  0.1008  0.0153 -0.1621
 8598SOL    HW137253   2.422   0.914   5.352 -0.3299 -0.8346 -0.8450
 8598SOL    HW237254   2.427   0.810   5.457  0.5041  1.3297  2.0734
 8599SOL     OW37255   2.849   3.605   6.252  0.6228  0.1536 -0.2314
 8599SOL    HW137256   2.774   3.575   6.303  0.6212 -2.0811 -1.5576
 8599SOL    HW237257   2.918   3.586   6.315  1.0784  2.6190  0.0311
 8600SOL     OW37258   1.024   4.696   6.033 -0.3470  0.0695 -0.0914
 8600SOL    HW137259   1.074   4.687   5.952  0.8685  0.7076  0.5790
 8600SOL    HW237260   0.939   4.714   5.993 -1.3860 -2.3232  1.0082
 8601SOL     OW37261   3.279   1.804   9.675 -0.1189 -0.2882  0.1067
 8601SOL    HW137262   3.276   1.772   9.585 -0.7775 -1.3271  0.5011
 8601SOL    HW237263   3.190   1.784   9.703 -0.6640  0.6000 -1.0156
 8602SOL     OW37264   3.762   3.065   8.034 -0.0931 -0.0549  0.7199
 8602SOL    HW137265   3.813   2.991   8.067  0.2061  0.3025  1.0618
 8602SOL    HW237266   3.794   3.063   7.944  0.4232 -2.7048  0.9789
 8603SOL     OW37267   2.045   4.200   1.889  0.4377  0.0197 -0.1969
 8603SOL    HW137268   1.996   4.263   1.837  0.3010  0.5378  0.5614
 8603SOL    HW237269   2.051   4.120   1.836  1.4364  0.5696 -0.9342
 8604SOL     OW37270   0.250   1.652   5.355  0.0025  0.0883 -0.1895
 8604SOL    HW137271   0.274   1.570   5.313  1.1755  0.9777 -1.2470
 8604SOL    HW237272   0.192   1.700   5.296 -1.3024  0.2244  1.1883
 8605SOL     OW37273   0.260   2.080   0.178  0.1529  0.5281  0.4868
 8605SOL    HW137274   0.227   2.074   0.267  0.9542  0.5068  0.7847
 8605SOL    HW237275   0.344   2.120   0.201  0.1230  0.0194  1.4326
 8606SOL     OW37276   3.196   4.217   7.468  0.1372  0.1668 -0.4001
 8606SOL    HW137277   3.151   4.145   7.512  0.7530  1.3993  2.2111
 8606SOL    HW237278   3.212   4.274   7.543 -1.0859 -0.0733  0.0409
 8607SOL     OW37279   1.961   1.342  13.843  0.1246  0.5675  0.0129
 8607SOL    HW137280   1.974   1.294  13.761  0.2429 -0.8019  0.8257
 8607SOL    HW237281   1.975   1.432  13.813 -2.9320  1.1303  0.2682
 8608SOL     OW37282   3.218   0.107   4.014 -0.3923 -0.7173 -0.4504
 8608SOL    HW137283   3.186   0.151   3.935 -0.9390 -0.2610  0.0195
 8608SOL    HW237284   3.166   0.027   4.005 -1.2055 -0.3617  1.0369
 8609SOL     OW37285   3.701   1.868  13.802 -0.1905 -0.1085  0.0933
 8609SOL    HW137286   3.758   1.901  13.733 -1.4905 -0.9885 -1.3897
 8609SOL    HW237287   3.645   1.946  13.805  0.4117  0.3134  0.3308
 8610SOL     OW37288   3.710   2.158   5.496  0.2841 -0.3436 -0.0776
 8610SOL    HW137289   3.687   2.226   5.559  2.1627 -1.0981  1.4357
 8610SOL    HW237290   3.639   2.178   5.435 -1.0656  0.3433  1.7034
 8611SOL     OW37291   0.417   2.512   9.790 -0.7923 -0.3219 -0.3782
 8611SOL    HW137292   0.497   2.477   9.829 -0.0870  1.5931 -0.1129
 8611SOL    HW237293   0.434   2.501   9.696  0.7443 -2.3428  0.1213
 8612SOL     OW37294   2.183   2.588  11.770  0.1395 -0.2835  0.1990
 8612SOL    HW137295   2.261   2.532  11.767  1.8012  2.1036 -0.6864
 8612SOL    HW237296   2.138   2.562  11.690 -1.3296 -1.5186  1.4125
 8613SOL     OW37297   1.742   0.098   6.969  0.2919 -0.3931  0.1286
 8613SOL    HW137298   1.669   0.037   6.980 -1.8226  1.7477 -1.9757
 8613SOL    HW237299   1.752   0.106   6.874  1.6721 -0.7327  0.2532
 8614SOL     OW37300   1.240   3.282   7.225  0.0026  0.0676  0.3752
 8614SOL    HW137301   1.244   3.187   7.213 -0.1714 -0.2986  3.1088
 8614SOL    HW237302   1.242   3.279   7.321  1.1728  0.7876  0.3675
 8615SOL     OW37303   2.523   0.389  10.977  0.1571  0.3471 -0.0697
 8615SOL    HW137304   2.477   0.320  10.929  3.0561 -3.1125  2.2413
 8615SOL    HW237305   2.534   0.453  10.906  0.9056  0.1553 -0.1277
 8616SOL     OW37306   1.757   3.400  12.754 -0.8183 -0.5906 -0.3889
 8616SOL    HW137307   1.787   3.349  12.679  1.0148  0.7446 -0.5691
 8616SOL    HW237308   1.776   3.341  12.827  1.3474 -0.3736 -0.7713
 8617SOL     OW37309   0.230   2.836   4.533  0.3420 -0.0793 -0.0857
 8617SOL    HW137310   0.246   2.779   4.609  0.5359  0.8428  0.5623
 8617SOL    HW237311   0.202   2.919   4.572  1.0641 -0.6363  1.6019
 8618SOL     OW37312   1.630   1.313  14.265  0.0608  0.5654 -0.2430
 8618SOL    HW137313   1.698   1.256  14.301  0.6524  1.0493 -0.5883
 8618SOL    HW237314   1.639   1.296  14.171  2.3744  1.0418 -0.1014
 8619SOL     OW37315   2.590   3.515   5.517  0.3205  0.4934 -0.2667
 8619SOL    HW137316   2.665   3.460   5.538 -0.4084 -0.5984 -0.5489
 8619SOL    HW237317   2.514   3.457   5.514  1.4339 -1.0963  1.9922
 8620SOL     OW37318   4.260   2.063   8.409 -0.3804 -0.1712 -0.6489
 8620SOL    HW137319   4.229   2.078   8.320  0.3630  0.7006 -0.7548
 8620SOL    HW237320   4.354   2.078   8.399 -0.3039 -0.3608 -0.2282
 8621SOL     OW37321   0.388   2.235   3.355  0.9129  0.2772  0.2174
 8621SOL    HW137322   0.478   2.204   3.366 -0.0432 -1.9852  1.6938
 8621SOL    HW237323   0.390   2.284   3.273 -0.5322 -0.0140  0.0109
 8622SOL     OW37324   0.443   2.248   6.593 -0.5932 -0.0946 -0.1207
 8622SOL    HW137325   0.390   2.268   6.670 -0.7015  0.5891 -0.3774
 8622SOL    HW237326   0.430   2.153   6.587 -0.9017  0.0379 -1.6057
 8623SOL     OW37327   4.650   4.355  17.278 -0.3764  0.5344  0.1399
 8623SOL    HW137328   4.709   4.375  17.205 -1.1380  0.3122 -0.5365
 8623SOL    HW237329   4.571   4.349  17.224 -0.4083 -0.5152  0.2935
 8624SOL     OW37330   4.026   3.966   2.748 -0.1773 -0.1248  0.4314
 8624SOL    HW137331   4.112   3.951   2.710 -0.5788  1.1780 -0.9898
 8624SOL    HW237332   4.002   4.054   2.721 -2.3096 -1.2138 -1.2868
 8625SOL     OW37333   1.263   3.837   3.077 -0.5593  0.1623 -0.1107
 8625SOL    HW137334   1.288   3.859   2.987 -0.8083 -0.2161 -0.2760
 8625SOL    HW237335   1.349   3.828   3.118  0.7606 -1.5047 -3.1982
 8626SOL     OW37336   1.412   0.007   9.195  0.3961  0.3706  0.0679
 8626SOL    HW137337   1.371   4.646   9.197 -0.7532  0.9948  3.1066
 8626SOL    HW237338   1.475   0.004   9.267 -0.4632 -0.9874  0.7537
 8627SOL     OW37339   4.040   2.255  16.188  0.0932  0.1844  0.4935
 8627SOL    HW137340   4.033   2.164  16.217  1.8959 -0.4220 -0.9574
 8627SOL    HW237341   4.135   2.268  16.181  0.0002  0.4053 -0.3885
 8628SOL     OW37342   3.343   0.596   6.563  0.2654  0.2520 -0.9416
 8628SOL    HW137343   3.418   0.538   6.572 -0.0073  0.4115  2.5342
 8628SOL    HW237344   3.281   0.577   6.635 -0.4809  1.2463 -1.3214
 8629SOL     OW37345   1.576   3.696   4.833 -0.0196  0.3668  0.2850
 8629SOL    HW137346   1.502   3.661   4.785  0.4813  2.3910 -1.9370
 8629SOL    HW237347   1.532   3.681   4.917  0.5489  0.5064  0.6152
 8630SOL     OW37348   3.047   4.363  12.317  0.0481 -0.1623  0.0047
 8630SOL    HW137349   3.117   4.372  12.252 -1.2781  1.7586 -1.1598
 8630SOL    HW237350   3.040   4.448  12.362  0.8362  0.8189 -1.7172
 8631SOL     OW37351   3.090   2.402   3.978  0.0749  0.1231  0.4419
 8631SOL    HW137352   3.172   2.384   4.025  1.9289  1.8269 -2.1022
 8631SOL    HW237353   3.026   2.374   4.043  0.4961  0.3282  0.9464
 8632SOL     OW37354   3.819   2.571   3.112  0.3399 -0.1878  0.1952
 8632SOL    HW137355   3.826   2.649   3.165  1.0384  0.1227 -0.3476
 8632SOL    HW237356   3.758   2.589   3.041  1.5826 -2.8581 -1.5862
 8633SOL     OW37357   4.255   0.770  10.035 -1.0043  0.0947 -0.0217
 8633SOL    HW137358   4.290   0.859  10.037 -0.5930 -0.0398 -2.0908
 8633SOL    HW237359   4.332   0.717  10.016 -0.3452  1.3164 -0.7652
 8634SOL     OW37360   4.595   4.504  13.178 -0.2294 -0.3673  0.0202
 8634SOL    HW137361   4.531   4.568  13.146 -1.5517 -1.8956 -0.3855
 8634SOL    HW237362   4.669   4.515  13.118  0.0074  0.1767  0.4141
 8635SOL     OW37363   3.855   3.304  11.611 -0.4474 -0.0401 -0.3061
 8635SOL    HW137364   3.799   3.314  11.688 -1.7919 -2.2912 -0.9964
 8635SOL    HW237365   3.909   3.228  11.630 -1.3562 -0.3973  0.8304
 8636SOL     OW37366   3.863   2.117  15.782  0.3081  0.4464  0.0051
 8636SOL    HW137367   3.813   2.130  15.863  0.1622 -0.4945  0.0735
 8636SOL    HW237368   3.924   2.046  15.803  1.8555  2.1518  1.2432
 8637SOL     OW37369   2.611   2.067   3.882  0.0519  0.2583  0.3315
 8637SOL    HW137370   2.567   2.050   3.799 -0.3138 -0.1173  0.6014
 8637SOL    HW237371   2.624   2.162   3.879 -0.1884  0.2585 -0.8603
 8638SOL     OW37372   4.383   0.884  12.497 -0.3986  0.2510  0.1932
 8638SOL    HW137373   4.353   0.863  12.408  3.1903 -0.3928 -0.8775
 8638SOL    HW237374   4.334   0.963  12.520  1.4939  1.1743  1.0069
 8639SOL     OW37375   1.233   4.144   9.156  0.0946  0.5924 -0.4215
 8639SOL    HW137376   1.204   4.235   9.154 -0.3787  0.3943 -2.4579
 8639SOL    HW237377   1.192   4.097   9.083  0.2513  1.5244 -1.1037
 8640SOL     OW37378   1.582   0.659   9.101 -0.0730 -0.2860 -0.2285
 8640SOL    HW137379   1.641   0.605   9.048 -1.8377  0.6930 -3.1986
 8640SOL    HW237380   1.614   0.657   9.191  0.8007  1.2834 -0.4978
 8641SOL     OW37381   1.469   3.476   6.865 -0.0059  0.0969 -0.1387
 8641SOL    HW137382   1.475   3.409   6.797  1.8360 -0.1397  0.2737
 8641SOL    HW237383   1.558   3.503   6.886 -0.7538  1.9180  0.7447
 8642SOL     OW37384   1.063   4.052   1.303 -0.4192 -0.4182 -0.1480
 8642SOL    HW137385   1.154   4.076   1.285 -1.2456  1.7345 -1.4768
 8642SOL    HW237386   1.042   3.979   1.244 -1.4257  2.3809 -3.2755
 8643SOL     OW37387   4.381   1.424   5.669  0.1631 -0.2378 -0.0013
 8643SOL    HW137388   4.293   1.453   5.693 -0.1324  0.0553 -1.4735
 8643SOL    HW237389   4.402   1.480   5.594 -0.6033 -1.3255 -1.0282
 8644SOL     OW37390   0.683   2.832   4.305  0.1920 -0.2499  0.2286
 8644SOL    HW137391   0.702   2.787   4.224 -0.2651 -1.4395  0.7887
 8644SOL    HW237392   0.592   2.861   4.295  0.2923  0.2779  0.8267
 8645SOL     OW37393   0.140   0.219   3.933  0.2987 -0.5760 -0.1084
 8645SOL    HW137394   0.084   0.234   4.010  1.2951  0.2886  0.4392
 8645SOL    HW237395   0.159   0.305   3.897  0.4806 -1.2208 -1.5472
 8646SOL     OW37396   4.700   3.400   4.350 -0.1688 -0.8217 -0.0023
 8646SOL    HW137397   4.676   3.354   4.430 -0.0264 -2.8355 -1.1267
 8646SOL    HW237398   0.004   3.484   4.384  2.7053 -1.3859 -1.1733
 8647SOL     OW37399   0.921   4.201   9.018 -0.2804 -0.2512  0.3084
 8647SOL    HW137400   0.913   4.258   8.941  2.3047 -0.1175  0.1692
 8647SOL    HW237401   0.839   4.217   9.065 -1.3626  2.6710 -2.4761
 8648SOL     OW37402   0.301   2.395   2.026  0.2966  0.3639 -0.1263
 8648SOL    HW137403   0.394   2.389   2.047  0.3561 -0.5773 -0.6680
 8648SOL    HW237404   0.273   2.471   2.077  2.0552  0.7871  0.2266
 8649SOL     OW37405   3.556   1.130   6.233  0.4546 -0.3067  0.6610
 8649SOL    HW137406   3.541   1.222   6.213 -0.7138 -0.5397  0.4315
 8649SOL    HW237407   3.563   1.094   6.144  1.1450  0.1885  0.5237
 8650SOL     OW37408   3.112   1.185  14.586 -0.3568  0.1185  0.2606
 8650SOL    HW137409   3.114   1.098  14.626 -1.5247  0.4964  1.1363
 8650SOL    HW237410   3.020   1.210  14.599 -0.5248  0.1213 -0.9104
 8651SOL     OW37411   0.238   1.190   3.897  0.1928  0.7970  0.4206
 8651SOL    HW137412   0.205   1.207   3.809 -0.3588 -0.9360  0.2905
 8651SOL    HW237413   0.223   1.096   3.900  0.0580  0.7808 -0.9972
 8652SOL     OW37414   2.684   1.730   5.062 -0.1287  0.5146  0.1705
 8652SOL    HW137415   2.703   1.726   4.968 -2.5901 -2.9389 -0.1738
 8652SOL    HW237416   2.613   1.666   5.065  0.3152  0.0735  1.2351
 8653SOL     OW37417   0.744   2.382   0.132 -0.0506  0.1668  1.0440
 8653SOL    HW137418   0.688   2.429   0.195 -0.4039 -0.7288  1.3992
 8653SOL    HW237419   0.822   2.437   0.128 -1.3381  1.8250 -1.3580
 8654SOL     OW37420   4.124   2.653  11.498  0.8632 -0.0069 -0.3765
 8654SOL    HW137421   4.147   2.589  11.566  1.9683  0.9937  0.2134
 8654SOL    HW237422   4.149   2.737  11.537 -0.3377  2.4945 -5.0793
 8655SOL     OW37423   1.599   4.338   5.035  0.3007  0.6837  0.1294
 8655SOL    HW137424   1.667   4.312   4.973  0.7598 -1.1459  1.4018
 8655SOL    HW237425   1.515   4.318   4.993 -0.2802  1.9160  0.6920
 8656SOL     OW37426   1.809   2.770   2.776 -0.0259 -0.0547  0.5980
 8656SOL    HW137427   1.894   2.795   2.740 -0.2656 -0.9091 -0.5854
 8656SOL    HW237428   1.762   2.779   2.693 -0.1617  0.6342  0.7518
 8657SOL     OW37429   1.156   3.376  15.576  0.2206 -0.2614 -0.4175
 8657SOL    HW137430   1.102   3.384  15.655  0.2629  1.8800 -0.6067
 8657SOL    HW237431   1.180   3.468  15.569  0.2156 -0.3189 -1.1297
 8658SOL     OW37432   3.094   2.888  10.524  0.3921  0.1663 -0.4475
 8658SOL    HW137433   3.043   2.910  10.446 -0.0507 -1.0709 -0.5236
 8658SOL    HW237434   3.092   2.792  10.533  0.5992  0.3989  1.9888
 8659SOL     OW37435   0.070   0.976   6.968 -0.6638 -0.2058 -0.1866
 8659SOL    HW137436   0.097   1.014   7.051 -1.3370  1.3585 -0.6623
 8659SOL    HW237437   0.078   0.885   6.995 -1.0568 -0.4030 -0.7272
 8660SOL     OW37438   2.015   0.017   3.151  0.0438  0.1384 -0.0010
 8660SOL    HW137439   2.091   0.063   3.185  1.8135 -2.7627 -0.0489
 8660SOL    HW237440   1.964   4.718   3.229 -0.3218  0.9615  0.0239
 8661SOL     OW37441   0.493   1.175  12.756 -0.0014  0.4010  0.8310
 8661SOL    HW137442   0.400   1.171  12.732  0.6061 -2.1068 -1.0876
 8661SOL    HW237443   0.492   1.201  12.848 -2.6868 -1.6103  1.3913
 8662SOL     OW37444   4.638   0.188  14.795 -0.4545  0.2476  0.5484
 8662SOL    HW137445   4.706   0.126  14.767 -0.0980  1.0909 -0.4804
 8662SOL    HW237446   4.650   0.256  14.728 -0.0033  0.0613  0.4326
 8663SOL     OW37447   2.442   2.211   1.398  0.3364 -0.1987 -0.4333
 8663SOL    HW137448   2.444   2.185   1.490 -2.1564  0.0560 -0.3074
 8663SOL    HW237449   2.435   2.306   1.406 -0.6695 -0.4235  1.5700
 8664SOL     OW37450   0.664   4.129   7.635 -0.0594 -0.1194 -0.0466
 8664SOL    HW137451   0.631   4.064   7.697  1.0823 -1.8714 -1.2838
 8664SOL    HW237452   0.616   4.206   7.665  1.8491  0.0946  2.3854
 8665SOL     OW37453   1.652   3.762  14.637 -0.0166 -0.4073  0.3886
 8665SOL    HW137454   1.739   3.778  14.672 -0.6257 -2.0811  2.6169
 8665SOL    HW237455   1.686   3.716  14.561  2.8157 -0.9952  2.0481
 8666SOL     OW37456   0.101   1.614  15.896  0.2993  0.5160  0.6763
 8666SOL    HW137457   0.040   1.559  15.945 -1.0081  1.5287  0.1848
 8666SOL    HW237458   0.040   1.651  15.832  0.7604  0.8361  0.4184
 8667SOL     OW37459   2.753   0.326   3.581 -0.1600  0.3507  0.7303
 8667SOL    HW137460   2.673   0.340   3.531 -0.9638 -1.7717  1.4436
 8667SOL    HW237461   2.806   0.397   3.544  0.2129  0.5286  1.6053
 8668SOL     OW37462   1.023   0.976   5.121 -0.4124 -0.4275  0.2597
 8668SOL    HW137463   0.938   0.932   5.114 -0.8572  0.4522  0.2513
 8668SOL    HW237464   1.075   0.904   5.083  0.9914  0.7669 -0.0951
 8669SOL     OW37465   1.588   4.656  10.869 -0.0403  0.3757  0.0849
 8669SOL    HW137466   1.605   4.596  10.941 -0.5148  2.2586  1.7663
 8669SOL    HW237467   1.501   4.687  10.896  0.5057 -0.5401  2.8935
 8670SOL     OW37468   3.759   2.936   9.117  0.4905  0.5018  0.2456
 8670SOL    HW137469   3.691   2.910   9.179 -0.2084 -0.9715 -1.1318
 8670SOL    HW237470   3.746   2.861   9.058 -1.1188  0.5673  0.5246
 8671SOL     OW37471   1.285   3.267   6.075  0.2603 -1.0433  0.1475
 8671SOL    HW137472   1.379   3.249   6.068  0.7946  2.4628 -1.7855
 8671SOL    HW237473   1.284   3.341   6.014  0.6639  0.5963  2.1248
 8672SOL     OW37474   3.430   4.614   0.890  0.2693  0.1144 -0.5597
 8672SOL    HW137475   3.491   4.578   0.956 -1.0617 -0.8957  0.1167
 8672SOL    HW237476   3.480   4.616   0.808  0.4726 -1.7285 -0.4760
 8673SOL     OW37477   4.682   1.055   9.217 -0.2982  0.2512  0.5323
 8673SOL    HW137478   4.713   1.041   9.307  0.4981 -0.9593  0.0687
 8673SOL    HW237479   4.599   1.008   9.213  0.3329 -0.7888 -0.3488
 8674SOL     OW37480   2.235   0.422   6.284 -0.2700 -0.3578 -0.6558
 8674SOL    HW137481   2.190   0.382   6.358 -0.5480  1.4774  0.1618
 8674SOL    HW237482   2.278   0.342   6.252 -1.5831 -1.0620 -0.6376
 8675SOL     OW37483   3.585   0.725   0.901  0.3171  0.1302  0.2610
 8675SOL    HW137484   3.597   0.633   0.877  0.1816 -0.0426  0.8551
 8675SOL    HW237485   3.632   0.763   0.827 -0.1610  1.8313  0.8330
 8676SOL     OW37486   1.242   3.489   9.665  0.4270 -0.1391 -0.4169
 8676SOL    HW137487   1.229   3.421   9.599  1.2640  0.6261 -1.3596
 8676SOL    HW237488   1.287   3.548   9.605  0.4557 -0.7709 -1.0136
 8677SOL     OW37489   4.651   0.156   1.733  0.4697  0.2292 -0.8266
 8677SOL    HW137490   4.593   0.106   1.675 -2.9156 -0.1253  2.8422
 8677SOL    HW237491   4.645   0.117   1.821 -0.6576  0.8300 -0.6283
 8678SOL     OW37492   4.660   0.297  15.265  0.0259  0.2745 -0.0059
 8678SOL    HW137493   4.673   0.360  15.194 -1.7902  0.5554 -0.0937
 8678SOL    HW237494   0.014   0.310  15.317 -1.1554 -0.8620  2.0662
 8679SOL     OW37495   4.638   0.520   3.355 -0.4866 -0.2993  0.2131
 8679SOL    HW137496   4.545   0.542   3.348 -1.0607 -2.2117  1.4766
 8679SOL    HW237497   4.683   0.601   3.333  0.7975 -1.4634 -1.3547
 8680SOL     OW37498   4.588   3.724  15.497  0.2337  0.0539  0.2657
 8680SOL    HW137499   4.673   3.706  15.539  0.7465 -0.7296 -1.0950
 8680SOL    HW237500   4.619   3.737  15.408 -1.0309 -0.4157 -0.2390
 8681SOL     OW37501   0.069   1.437   7.353  0.1475  0.7950 -0.4231
 8681SOL    HW137502   0.001   1.493   7.392  0.1655  0.3602  0.2258
 8681SOL    HW237503   0.051   1.358   7.403  0.6674  0.6460 -0.4761
 8682SOL     OW37504   1.374   0.266  14.210  0.0910  0.1723  0.1003
 8682SOL    HW137505   1.381   0.179  14.170 -0.1823 -0.5248  1.5447
 8682SOL    HW237506   1.420   0.306  14.137  1.4195  0.5027  1.1204
 8683SOL     OW37507   1.041   3.183   9.109  0.0429  0.2313  0.0772
 8683SOL    HW137508   0.969   3.143   9.159 -1.2805 -0.1648 -2.1202
 8683SOL    HW237509   1.057   3.119   9.039  0.8292  0.0105  0.4667
 8684SOL     OW37510   0.107   2.394   0.326 -0.1029  0.3424 -0.2753
 8684SOL    HW137511   0.168   2.419   0.257 -0.3007 -0.7806 -0.8617
 8684SOL    HW237512   0.038   2.351   0.276 -0.1724 -0.1477  0.2361
 8685SOL     OW37513   2.452   1.350  17.443  0.2965  0.4753  1.0996
 8685SOL    HW137514   2.431   1.256  17.444  0.0681  0.5135 -0.0216
 8685SOL    HW237515   2.457   1.377  17.352  3.3960 -0.1434  1.0999
 8686SOL     OW37516   1.153   3.075   9.347  0.6155  0.5698 -0.3659
 8686SOL    HW137517   1.127   3.116   9.264  2.9322  0.9437 -0.8962
 8686SOL    HW237518   1.198   2.997   9.315 -1.8321 -0.6066 -0.9404
 8687SOL     OW37519   2.040   1.443   6.739 -0.0152 -0.2074 -1.0087
 8687SOL    HW137520   1.969   1.487   6.787  0.6492  0.2796 -0.4731
 8687SOL    HW237521   2.002   1.441   6.651  2.4191 -0.3940 -2.0586
 8688SOL     OW37522   4.442   3.719   1.275  0.4298 -0.3505  0.2231
 8688SOL    HW137523   4.349   3.713   1.251  0.6202  1.6741 -1.0705
 8688SOL    HW237524   4.464   3.633   1.310 -1.3463 -0.5883  0.7764
 8689SOL     OW37525   4.644   2.875  13.948  0.3341 -0.1799  0.3582
 8689SOL    HW137526   4.604   2.856  13.863 -1.6051 -1.6525  1.6056
 8689SOL    HW237527   0.008   2.848  13.929  1.0444  1.8634  0.8464
 8690SOL     OW37528   1.068   3.800   1.115  0.6783 -0.3919 -0.0423
 8690SOL    HW137529   1.033   3.720   1.153  0.5936 -0.4988 -0.3471
 8690SOL    HW237530   1.160   3.779   1.099  0.3971 -2.4566  1.0521
 8691SOL     OW37531   2.672   1.499  12.163  1.2649 -0.6041 -0.3024
 8691SOL    HW137532   2.729   1.453  12.225  0.9631  0.2732  0.6320
 8691SOL    HW237533   2.583   1.494  12.198  0.9792  2.3261 -0.5967
 8692SOL     OW37534   4.292   0.622  16.644 -0.5552 -0.2853 -0.3414
 8692SOL    HW137535   4.328   0.674  16.571  2.1447 -0.9390  0.5315
 8692SOL    HW237536   4.198   0.634  16.636 -0.7392  0.3449  3.0355
 8693SOL     OW37537   1.612   1.008   4.231 -0.0650 -0.7556 -0.4690
 8693SOL    HW137538   1.671   1.084   4.241  1.2910 -1.6080 -2.0000
 8693SOL    HW237539   1.662   0.963   4.163  1.0236 -2.5094  1.5099
 8694SOL     OW37540   2.417   3.854  13.917 -0.2653  0.3730 -0.3262
 8694SOL    HW137541   2.491   3.903  13.882 -1.4173  2.2797 -0.0492
 8694SOL    HW237542   2.415   3.913  13.992 -0.1708 -0.7268  0.5321
 8695SOL     OW37543   3.076   3.237   8.224 -0.3701  0.0284 -0.5167
 8695SOL    HW137544   2.984   3.261   8.213 -1.5908 -2.7706  3.5148
 8695SOL    HW237545   3.067   3.144   8.247  0.5796 -0.3383 -1.6553
 8696SOL     OW37546   0.856   1.777   5.370  0.9139  0.0307 -0.2066
 8696SOL    HW137547   0.878   1.708   5.306  1.0118  0.0917 -0.2386
 8696SOL    HW237548   0.767   1.759   5.400  0.6684 -1.0214 -1.5663
 8697SOL     OW37549   1.655   4.706   4.060 -0.1196  0.0709  0.0426
 8697SOL    HW137550   1.604   4.627   4.076 -1.5065  0.9667  0.1307
 8697SOL    HW237551   1.739   4.678   4.095  0.8272 -0.0873 -2.4355
 8698SOL     OW37552   2.156   0.258   7.935  0.7001 -0.1529 -0.1091
 8698SOL    HW137553   2.198   0.341   7.956 -3.7044  2.0619  0.0098
 8698SOL    HW237554   2.225   0.193   7.949  0.4828 -0.6285 -1.2911
 8699SOL     OW37555   3.579   0.791   9.523 -0.0645  0.1271  0.0131
 8699SOL    HW137556   3.665   0.833   9.517 -0.5863  1.2819  0.6460
 8699SOL    HW237557   3.557   0.787   9.616  0.8995  1.1789  0.2864
 8700SOL     OW37558   4.520   4.022   0.775  0.5442  0.5926  0.6175
 8700SOL    HW137559   4.439   4.072   0.769  0.4360 -0.0982 -3.3541
 8700SOL    HW237560   4.534   4.017   0.870  0.3577  0.5787  0.6450
 8701SOL     OW37561   4.592   4.325  13.810  0.5543  0.2079 -0.0025
 8701SOL    HW137562   4.499   4.344  13.822 -0.3959 -4.5665  0.5250
 8701SOL    HW237563   4.631   4.412  13.809 -0.4120  0.6434  0.6581
 8702SOL     OW37564   1.565   4.443   8.873  0.8565  0.7682  0.0453
 8702SOL    HW137565   1.506   4.519   8.877 -0.4917 -0.3035  0.4751
 8702SOL    HW237566   1.573   4.422   8.966  0.4845 -1.7183 -0.4875
 8703SOL     OW37567   0.191   3.927   5.307  0.4622 -0.3454 -0.1828
 8703SOL    HW137568   0.101   3.896   5.315  1.0389 -2.0955 -0.5273
 8703SOL    HW237569   0.209   3.939   5.400 -2.3168 -0.1874  0.3345
 8704SOL     OW37570   2.769   2.275  15.184 -0.1977  0.1898 -0.0154
 8704SOL    HW137571   2.843   2.261  15.124 -0.4006  0.8821 -0.4305
 8704SOL    HW237572   2.691   2.257  15.132 -0.7332 -2.4467  1.7123
 8705SOL     OW37573   1.541   3.773   6.100  0.1317 -0.4834 -0.2676
 8705SOL    HW137574   1.547   3.679   6.085 -1.7158 -0.4595 -1.1070
 8705SOL    HW237575   1.470   3.805   6.044  0.7331 -1.7985 -1.7960
 8706SOL     OW37576   0.748   1.868  10.706 -0.3629 -0.1324 -0.4298
 8706SOL    HW137577   0.746   1.823  10.790  0.9034 -0.5645 -0.6226
 8706SOL    HW237578   0.778   1.955  10.731  0.2158  0.0863 -1.8366
 8707SOL     OW37579   3.036   3.398   4.251 -0.4925 -0.2806 -0.3286
 8707SOL    HW137580   3.043   3.339   4.326 -0.8983  0.0344 -0.0372
 8707SOL    HW237581   3.073   3.476   4.293  1.0013 -0.6575 -0.9614
 8708SOL     OW37582   3.245   2.273  13.937 -0.1732  0.5705 -0.0633
 8708SOL    HW137583   3.170   2.249  13.991  1.2869  1.0328  2.1857
 8708SOL    HW237584   3.204   2.286  13.851 -1.5763  1.8503  0.8122
 8709SOL     OW37585   1.488   0.789   0.760 -0.4027 -0.0784  0.3183
 8709SOL    HW137586   1.415   0.819   0.706 -0.4780  0.2767  0.6208
 8709SOL    HW237587   1.476   0.837   0.842  2.6240 -0.9896  1.3017
 8710SOL     OW37588   3.262   1.555  16.028 -0.2205 -0.5606 -0.6893
 8710SOL    HW137589   3.348   1.529  15.995  0.8494  1.4450  0.5556
 8710SOL    HW237590   3.252   1.623  15.962 -0.2783 -0.9678 -1.1077
 8711SOL     OW37591   2.668   1.447  10.678  0.4092  0.3622  0.1317
 8711SOL    HW137592   2.639   1.366  10.720  1.1858 -0.0865 -0.2009
 8711SOL    HW237593   2.653   1.518  10.740  0.5489  0.1184  0.4491
 8712SOL     OW37594   0.306   0.253   1.278 -0.8113 -0.1274 -0.4068
 8712SOL    HW137595   0.293   0.162   1.305 -1.3368 -1.2532 -4.4295
 8712SOL    HW237596   0.251   0.264   1.201 -0.0085  1.3516 -0.7728
 8713SOL     OW37597   2.880   0.755   5.205  0.0800 -0.5531 -0.0848
 8713SOL    HW137598   2.829   0.827   5.244  0.6371 -0.5192  0.5876
 8713SOL    HW237599   2.952   0.806   5.169  0.8132 -0.7605  1.0784
 8714SOL     OW37600   4.714   4.532  15.905 -0.0816 -0.8840  0.3792
 8714SOL    HW137601   4.632   4.570  15.938 -0.5534 -2.5236  1.0880
 8714SOL    HW237602   0.052   4.555  15.973 -0.7517  2.2336 -0.0466
 8715SOL     OW37603   0.963   1.879   4.494 -0.1953 -0.3168 -0.1180
 8715SOL    HW137604   0.969   1.806   4.432 -0.4780  0.0960 -0.6250
 8715SOL    HW237605   0.868   1.882   4.502  0.0620  0.0657  2.9385
 8716SOL     OW37606   1.902   1.807  13.358  0.0082 -0.1591  0.5364
 8716SOL    HW137607   1.926   1.736  13.418  2.2336  2.1675  2.3588
 8716SOL    HW237608   1.894   1.876  13.423  0.4568 -0.7519  1.2296
 8717SOL     OW37609   0.729   4.080   0.924  0.0657 -0.2867 -0.4254
 8717SOL    HW137610   0.643   4.099   0.887 -1.2502 -3.5689  1.0217
 8717SOL    HW237611   0.776   4.075   0.841 -0.0998  0.3775 -0.5622
 8718SOL     OW37612   1.008   1.856   9.917  0.8478 -0.1276  0.7640
 8718SOL    HW137613   0.987   1.945   9.889  0.3204 -0.2918  0.6291
 8718SOL    HW237614   0.932   1.829   9.969 -0.1165  3.5466  1.2435
 8719SOL     OW37615   1.751   2.028   9.738  0.1395 -0.0910 -0.3806
 8719SOL    HW137616   1.826   2.078   9.704 -0.1535  0.9811  0.5424
 8719SOL    HW237617   1.730   1.969   9.665  0.8686  1.7018 -2.0461
 8720SOL     OW37618   0.864   3.555   2.901 -0.3834  0.3322 -0.5390
 8720SOL    HW137619   0.894   3.636   2.943  0.4766  0.0858 -0.6739
 8720SOL    HW237620   0.926   3.537   2.831 -1.9212 -0.4903 -1.6738
 8721SOL     OW37621   2.223   2.458   4.755 -0.5813  0.4245 -0.4002
 8721SOL    HW137622   2.280   2.399   4.705 -1.2647 -2.2038  1.9237
 8721SOL    HW237623   2.187   2.406   4.827 -1.3358  0.3970 -0.7974
 8722SOL     OW37624   4.388   0.138   5.435  0.3955 -0.0876 -0.7493
 8722SOL    HW137625   4.360   0.121   5.345 -0.2435  0.5036 -0.6591
 8722SOL    HW237626   4.324   0.197   5.473 -0.1705 -0.7812 -0.6357
 8723SOL     OW37627   3.935   1.993   0.244 -0.3639  0.1586  0.4079
 8723SOL    HW137628   4.010   1.934   0.244 -0.5546 -0.0903 -2.2051
 8723SOL    HW237629   3.923   2.001   0.150  2.7123 -0.2861 -0.0164
 8724SOL     OW37630   2.329   2.832   3.149  0.2616 -0.2458  0.4164
 8724SOL    HW137631   2.286   2.918   3.147  1.1304  0.2108  1.6623
 8724SOL    HW237632   2.247   2.784   3.145  1.6558 -2.5976  0.5033
 8725SOL     OW37633   2.987   4.386  10.976  0.4759 -0.2743 -0.4409
 8725SOL    HW137634   2.937   4.428  11.047 -0.3957 -1.2703 -0.4705
 8725SOL    HW237635   3.075   4.419  10.994  0.3023  1.3076 -2.4883
 8726SOL     OW37636   3.236   0.258   5.475 -0.1217 -0.7023  0.0855
 8726SOL    HW137637   3.312   0.272   5.419 -0.7312  3.1184  0.1723
 8726SOL    HW237638   3.285   0.232   5.553 -0.9838 -1.8904  0.2314
 8727SOL     OW37639   0.930   1.180   5.779 -0.0586 -0.3032  0.6559
 8727SOL    HW137640   0.847   1.168   5.732 -0.1930  1.8567  0.3634
 8727SOL    HW237641   0.993   1.173   5.707 -0.6669  2.4785 -0.1222
 8728SOL     OW37642   3.867   2.168  11.979  0.4814  0.7064 -0.4595
 8728SOL    HW137643   3.952   2.199  12.012  0.5488 -0.9061  0.8523
 8728SOL    HW237644   3.829   2.251  11.950  0.3719  1.7091  2.5768
 8729SOL     OW37645   1.779   2.039   8.926  0.5411 -0.1357  0.0636
 8729SOL    HW137646   1.699   2.008   8.970  0.1709  1.2363  0.3676
 8729SOL    HW237647   1.842   1.997   8.984  0.3705 -0.0275  0.3288
 8730SOL     OW37648   1.591   0.356   4.610 -0.5303  0.2406 -0.5607
 8730SOL    HW137649   1.615   0.265   4.589  3.0345  1.2837 -0.8707
 8730SOL    HW237650   1.679   0.388   4.625 -1.3301  2.7151 -1.1609
 8731SOL     OW37651   1.460   2.578   2.747 -0.8463  0.4406  0.4213
 8731SOL    HW137652   1.367   2.558   2.759 -0.9814 -0.0041 -1.4272
 8731SOL    HW237653   1.476   2.599   2.839 -1.0442 -1.8687  0.9827
 8732SOL     OW37654   0.714   0.613   4.523  0.0125  0.0629  0.2110
 8732SOL    HW137655   0.737   0.550   4.455 -2.4316 -0.0431 -0.5131
 8732SOL    HW237656   0.620   0.610   4.505 -0.1638 -2.5145  1.6562
 8733SOL     OW37657   4.395   2.434   1.135  0.2357 -0.2974  0.1920
 8733SOL    HW137658   4.306   2.409   1.161 -0.0446 -0.5065 -0.9604
 8733SOL    HW237659   4.437   2.432   1.221 -2.8945 -1.8235  1.6649
 8734SOL     OW37660   2.353   1.129   7.301  0.4044 -0.3024 -0.0845
 8734SOL    HW137661   2.448   1.126   7.307  0.5571  0.4371 -2.2080
 8734SOL    HW237662   2.312   1.112   7.386  0.5566 -1.2725 -0.2089
 8735SOL     OW37663   1.058   1.498  15.392  0.2702  0.0898  0.6398
 8735SOL    HW137664   0.975   1.520  15.350  0.8835 -0.9538 -1.1131
 8735SOL    HW237665   1.048   1.403  15.396 -2.9962  0.2680 -2.6295
 8736SOL     OW37666   3.819   1.401   9.465 -0.6746  0.3357 -0.1132
 8736SOL    HW137667   3.757   1.330   9.451 -0.6283  0.1687  0.5195
 8736SOL    HW237668   3.893   1.345   9.489  0.0417  2.3201  2.3842
 8737SOL     OW37669   0.800   3.893   4.106 -0.5295 -0.1765 -0.2699
 8737SOL    HW137670   0.752   3.866   4.028 -0.5309  1.7104 -0.8961
 8737SOL    HW237671   0.829   3.807   4.138  1.5601  0.1234 -1.3875
 8738SOL     OW37672   3.273   0.609   2.809  0.2789  0.3388  0.2905
 8738SOL    HW137673   3.219   0.613   2.731  0.8777 -0.6437 -0.1801
 8738SOL    HW237674   3.270   0.700   2.837 -0.5327  0.4743 -0.2456
 8739SOL     OW37675   1.668   1.848   7.719  0.1087 -0.4289 -0.4150
 8739SOL    HW137676   1.580   1.843   7.757 -0.1312  1.7305 -0.6791
 8739SOL    HW237677   1.723   1.806   7.785 -0.2255 -0.4699 -0.1599
 8740SOL     OW37678   4.714   1.836   0.343  0.0324  0.2560 -0.3622
 8740SOL    HW137679   4.677   1.781   0.275  2.5377  1.2169 -2.5342
 8740SOL    HW237680   4.677   1.924   0.333  1.3510  0.8897  0.3530
 8741SOL     OW37681   2.053   0.414   7.726  0.2993  0.0429  0.3381
 8741SOL    HW137682   2.050   0.382   7.816  0.2582  0.5062  0.4994
 8741SOL    HW237683   2.117   0.349   7.695  0.5227  1.0409 -1.3287
 8742SOL     OW37684   1.645   0.497  10.141 -0.5163 -0.8244  0.5479
 8742SOL    HW137685   1.586   0.425  10.115  0.3885 -1.1925 -0.4915
 8742SOL    HW237686   1.705   0.446  10.195 -2.1939  1.4424  4.4861
 8743SOL     OW37687   4.440   4.519   7.349  0.3210  0.1725 -0.1316
 8743SOL    HW137688   4.432   4.550   7.440  0.1719 -2.2122  0.6588
 8743SOL    HW237689   4.451   4.427   7.372 -3.3641 -0.4763 -0.9381
 8744SOL     OW37690   0.708   0.476   0.332 -0.3968 -0.8099 -0.8909
 8744SOL    HW137691   0.675   0.566   0.341 -2.8793 -1.7645 -0.3059
 8744SOL    HW237692   0.625   0.428   0.325 -1.0827  0.5488 -2.3690
 8745SOL     OW37693   3.121   2.980   4.359 -0.6791 -1.4015 -0.0098
 8745SOL    HW137694   3.112   2.944   4.447  0.1636 -0.8436  0.3077
 8745SOL    HW237695   3.122   3.075   4.375 -2.1472 -1.4282  0.2417
 8746SOL     OW37696   0.102   4.439   7.120 -0.3206  0.1789  0.8491
 8746SOL    HW137697   0.191   4.472   7.135  0.4833 -1.0007 -1.4101
 8746SOL    HW237698   0.048   4.507   7.161 -1.2045  0.4765 -0.8246
 8747SOL     OW37699   0.992   2.313  16.614 -0.1591 -0.1973  0.3305
 8747SOL    HW137700   1.001   2.408  16.625  1.3904  0.0307 -2.7444
 8747SOL    HW237701   0.932   2.306  16.539 -2.2674  0.8829  1.9397
 8748SOL     OW37702   2.424   0.761   6.153  0.1922 -0.2476  0.0458
 8748SOL    HW137703   2.340   0.794   6.121  0.6998  0.1154 -0.9003
 8748SOL    HW237704   2.460   0.711   6.080 -1.7738 -3.6306  1.4110
 8749SOL     OW37705   3.565   1.141   4.848 -0.2424  0.4869  0.4860
 8749SOL    HW137706   3.558   1.054   4.809  0.3628  0.1971  1.0247
 8749SOL    HW237707   3.521   1.195   4.782  1.8106  0.4044 -0.9422
 8750SOL     OW37708   1.076   0.962  12.763  0.1167  0.0286 -0.1290
 8750SOL    HW137709   1.156   0.927  12.723  1.1233  1.9335  0.2135
 8750SOL    HW237710   1.068   1.041  12.709 -0.9167  1.0924  1.5850
 8751SOL     OW37711   3.026   0.496   7.943 -0.2029 -0.4744 -0.2848
 8751SOL    HW137712   2.973   0.480   7.865 -0.1034 -2.8309  0.1140
 8751SOL    HW237713   3.050   0.586   7.920 -1.6050  0.3792  1.5969
 8752SOL     OW37714   3.612   2.737  15.841 -0.0372 -0.1308 -0.1963
 8752SOL    HW137715   3.600   2.753  15.935 -0.1634 -0.4303 -0.1603
 8752SOL    HW237716   3.707   2.744  15.830  0.0634  1.7294  1.9184
 8753SOL     OW37717   0.061   0.033   4.769 -0.2752 -0.4087 -0.3568
 8753SOL    HW137718   0.133   4.698   4.784  1.5359  1.6002 -0.8295
 8753SOL    HW237719   0.005   0.029   4.847  0.1938  1.1579  0.0554
 8754SOL     OW37720   0.769   0.946  10.289 -0.5224  0.3944 -0.1969
 8754SOL    HW137721   0.847   0.937  10.233  0.3855 -1.8116  1.3988
 8754SOL    HW237722   0.805   0.913  10.372  0.1669 -1.3428 -1.1738
 8755SOL     OW37723   4.047   1.916   5.850 -0.3263  0.5280  0.2863
 8755SOL    HW137724   4.123   1.870   5.885  0.3716  0.8944 -0.7534
 8755SOL    HW237725   3.988   1.897   5.923 -0.8628  0.5375 -0.1486
 8756SOL     OW37726   1.233   0.668  13.039  0.3356 -0.4604  0.1479
 8756SOL    HW137727   1.215   0.759  13.060 -1.7644 -0.7175 -0.5613
 8756SOL    HW237728   1.310   0.681  12.984  0.4958  1.4924  0.8562
 8757SOL     OW37729   0.682   0.471   9.064 -0.2808 -0.4917 -0.2737
 8757SOL    HW137730   0.677   0.460   9.158 -1.5086  1.2316 -0.1524
 8757SOL    HW237731   0.658   0.385   9.027  3.8864 -1.4518 -0.8300
 8758SOL     OW37732   1.302   0.315  10.822  0.4235  0.1328 -0.4276
 8758SOL    HW137733   1.256   0.376  10.878 -0.3113 -2.0893  1.3746
 8758SOL    HW237734   1.359   0.284  10.892 -1.1485 -0.6450  0.4964
 8759SOL     OW37735   2.376   2.982   9.810 -0.2367 -0.2275  0.6328
 8759SOL    HW137736   2.437   2.979   9.737 -0.9542 -2.5162  0.1147
 8759SOL    HW237737   2.389   3.070   9.846 -0.1458  0.4118 -0.9656
 8760SOL     OW37738   3.234   2.583  13.792 -0.8819  0.1735 -0.7711
 8760SOL    HW137739   3.259   2.494  13.769 -0.7335  0.4789 -1.7800
 8760SOL    HW237740   3.322   2.615  13.811 -1.4161  1.7480 -0.9114
 8761SOL     OW37741   4.174   3.039  15.473  0.3771 -0.3398 -0.7846
 8761SOL    HW137742   4.136   3.118  15.513  0.9503 -0.2451 -0.4382
 8761SOL    HW237743   4.265   3.067  15.470 -0.1021  1.0037 -3.0679
 8762SOL     OW37744   0.645   3.273   4.816  1.0787 -0.2193 -0.5015
 8762SOL    HW137745   0.669   3.232   4.899 -0.6695  0.5463  0.3872
 8762SOL    HW237746   0.621   3.358   4.853  2.9627  0.5214 -0.9655
 8763SOL     OW37747   2.016   1.704   8.253  0.2985 -0.1676 -0.0752
 8763SOL    HW137748   1.949   1.772   8.247 -0.2631 -0.3288  4.1686
 8763SOL    HW237749   2.079   1.743   8.314  1.4065 -1.8611 -0.1429
 8764SOL     OW37750   0.177   3.423  14.490 -0.0106  0.1747 -0.2559
 8764SOL    HW137751   0.214   3.487  14.430  0.0755  0.1819 -0.1952
 8764SOL    HW237752   0.196   3.343  14.440  1.1983 -0.3555  1.0467
 8765SOL     OW37753   2.969   2.834  14.654 -0.0858  0.0647  0.3512
 8765SOL    HW137754   3.009   2.862  14.571 -0.1849  0.1189  0.3223
 8765SOL    HW237755   2.991   2.905  14.714 -2.5398  1.6983 -0.6722
 8766SOL     OW37756   2.138   4.370   5.570  0.1933 -0.0978 -0.0642
 8766SOL    HW137757   2.122   4.297   5.630 -1.8565 -0.8662 -1.5682
 8766SOL    HW237758   2.234   4.366   5.577  0.2693  0.5975 -0.6979
 8767SOL     OW37759   0.413   4.688   0.204 -0.1795 -0.0907 -0.3784
 8767SOL    HW137760   0.325   4.703   0.239  0.9145 -0.0151  2.3140
 8767SOL    HW237761   0.463   4.709   0.283 -0.9149  0.6560 -0.1126
 8768SOL     OW37762   1.792   4.070  12.616  0.4785 -0.2587  0.0051
 8768SOL    HW137763   1.779   4.111  12.702  0.9395  0.9104 -0.4780
 8768SOL    HW237764   1.809   4.145  12.559  0.3923  0.8519  1.4081
 8769SOL     OW37765   3.030   0.075   2.214  0.5570 -0.2503 -0.3758
 8769SOL    HW137766   2.970   0.047   2.145 -0.4037  0.1530  0.2958
 8769SOL    HW237767   2.964   0.097   2.279  0.9010  1.7954 -0.7070
 8770SOL     OW37768   0.067   3.512   4.660 -0.3227 -0.1609  0.0868
 8770SOL    HW137769   0.157   3.485   4.679  0.3398  0.8475 -1.5845
 8770SOL    HW237770   0.023   3.428   4.647 -1.6306  0.7967 -1.6563
 8771SOL     OW37771   4.573   0.660   5.364 -0.5171  0.5336  0.0395
 8771SOL    HW137772   4.575   0.686   5.456  0.7238  1.7244 -0.3299
 8771SOL    HW237773   4.553   0.566   5.374 -0.2782  0.4387 -0.3881
 8772SOL     OW37774   0.381   2.673   4.070 -0.7203 -0.3457  0.5747
 8772SOL    HW137775   0.472   2.652   4.048 -0.2651  0.8935  1.2315
 8772SOL    HW237776   0.376   2.759   4.027  0.5379 -0.7071 -0.3051
 8773SOL     OW37777   3.013   0.216  11.616 -0.4576  0.0781 -0.3995
 8773SOL    HW137778   3.007   0.122  11.635 -0.5333 -0.3246 -2.3952
 8773SOL    HW237779   2.927   0.232  11.578  0.2420 -1.6468 -2.6904
 8774SOL     OW37780   1.201   3.909  12.858  0.4112 -0.6470  0.6556
 8774SOL    HW137781   1.239   3.944  12.939  0.1853  1.7534 -0.2965
 8774SOL    HW237782   1.234   3.973  12.795 -2.6655 -0.7848 -1.0527
 8775SOL     OW37783   1.662   0.812  15.070  0.5497  0.1975  0.6310
 8775SOL    HW137784   1.662   0.753  15.145  2.9552 -0.2289  0.3067
 8775SOL    HW237785   1.613   0.750  15.015 -0.2431  0.7848  0.6824
 8776SOL     OW37786   3.369   0.507   7.047 -0.7348 -0.0222  0.2305
 8776SOL    HW137787   3.277   0.506   7.021 -0.9801  0.2764  1.0613
 8776SOL    HW237788   3.364   0.552   7.132  0.7257  0.0010  0.2893
 8777SOL     OW37789   0.303   0.744   8.977  0.1259 -0.6947 -0.3314
 8777SOL    HW137790   0.326   0.806   8.908 -1.7512 -0.6318 -0.8889
 8777SOL    HW237791   0.313   0.786   9.062  1.3632 -1.0683 -0.2944
 8778SOL     OW37792   1.018   3.132   5.991  0.3870  0.1591  0.1780
 8778SOL    HW137793   1.015   3.091   6.078 -2.1059 -1.5530 -0.7156
 8778SOL    HW237794   1.107   3.108   5.965 -0.9433 -3.0605 -1.3616
 8779SOL     OW37795   4.001   2.235   8.457 -0.0132 -0.5337  0.3450
 8779SOL    HW137796   4.034   2.279   8.379 -1.8598 -1.6643 -1.0679
 8779SOL    HW237797   4.066   2.166   8.471  1.2621  1.0525  2.3070
 8780SOL     OW37798   1.193   1.427   4.966 -0.1416  0.1106 -0.4809
 8780SOL    HW137799   1.251   1.399   5.037  0.0825 -0.7138 -0.9913
 8780SOL    HW237800   1.261   1.478   4.921  1.1164 -1.3568 -0.2205
 8781SOL     OW37801   3.304   1.455  11.251 -0.4827 -0.1436 -0.5046
 8781SOL    HW137802   3.377   1.409  11.294  0.0312 -0.1765 -1.4108
 8781SOL    HW237803   3.309   1.418  11.163  1.6728  1.4183 -1.0374
 8782SOL     OW37804   0.940   3.938  13.106  0.3521  0.6642 -0.1238
 8782SOL    HW137805   0.858   3.969  13.068  0.4749 -0.2168 -1.0959
 8782SOL    HW237806   0.982   4.020  13.134  1.2077  0.5472 -1.0475
 8783SOL     OW37807   2.706   1.462   3.297 -0.4376  0.4212  0.2785
 8783SOL    HW137808   2.627   1.508   3.270 -0.0195  1.3615  0.6595
 8783SOL    HW237809   2.770   1.527   3.269 -0.5514 -0.1517 -1.2890
 8784SOL     OW37810   4.712   1.891  13.627  0.0930  0.1171  0.0105
 8784SOL    HW137811   4.723   1.797  13.617 -1.4752 -0.0652  0.0694
 8784SOL    HW237812   0.070   1.924  13.594  0.6278  1.0121  2.2145
 8785SOL     OW37813   3.153   1.783   8.729  0.1678  0.5896 -0.2566
 8785SOL    HW137814   3.191   1.871   8.732  1.5395 -0.0544  1.1384
 8785SOL    HW237815   3.060   1.802   8.738 -0.1848 -1.3104  0.0298
 8786SOL     OW37816   0.795   2.827   5.959 -0.2086  0.6484 -0.3660
 8786SOL    HW137817   0.873   2.823   5.904  0.4418  0.3935  0.5751
 8786SOL    HW237818   0.826   2.880   6.032 -1.3565 -1.3369  1.5763
 8787SOL     OW37819   3.834   1.912   9.035 -0.4617 -0.0473  0.0767
 8787SOL    HW137820   3.895   1.869   9.094  0.6651 -0.4228 -1.3627
 8787SOL    HW237821   3.769   1.844   9.020  0.3793 -0.7382 -0.3935
 8788SOL     OW37822   0.392   2.624   3.267  0.6143  0.1020 -0.2789
 8788SOL    HW137823   0.443   2.629   3.348  0.8771 -1.7333 -0.3252
 8788SOL    HW237824   0.457   2.586   3.208  0.1537  1.0177 -1.3893
 8789SOL     OW37825   1.927   2.019  11.591  0.0398 -0.2443  0.6280
 8789SOL    HW137826   1.901   2.054  11.506  0.2585 -2.9311 -0.5354
 8789SOL    HW237827   1.925   2.098  11.646  1.4972  0.9480 -1.0209
 8790SOL     OW37828   2.389   4.323   6.480  0.2574 -0.2974 -0.0094
 8790SOL    HW137829   2.471   4.372   6.468  0.4779 -1.0934 -1.6826
 8790SOL    HW237830   2.419   4.238   6.513  0.7548 -0.0268  0.2324
 8791SOL     OW37831   4.252   2.300   9.074 -0.1990 -0.0623  0.4812
 8791SOL    HW137832   4.200   2.256   9.006  0.1333  0.8411 -0.3524
 8791SOL    HW237833   4.304   2.224   9.101  2.4003  2.0489  1.3575
 8792SOL     OW37834   0.207   0.800  11.820 -0.4373 -0.4191 -0.0797
 8792SOL    HW137835   0.280   0.801  11.883  0.4709 -3.4430 -1.0788
 8792SOL    HW237836   0.135   0.837  11.872  0.1317 -0.0857  0.4789
 8793SOL     OW37837   3.969   2.466   6.078  0.2077 -0.2769  0.4551
 8793SOL    HW137838   4.003   2.503   5.997 -0.8606 -0.5838 -0.1368
 8793SOL    HW237839   4.046   2.431   6.121  1.5938  1.6992 -0.4372
 8794SOL     OW37840   1.691   3.311  14.344 -0.1012  0.3893 -0.3000
 8794SOL    HW137841   1.769   3.325  14.290  0.5473  2.0921  1.0811
 8794SOL    HW237842   1.711   3.225  14.381  2.5299  0.6487 -1.1150
 8795SOL     OW37843   1.085   3.634   3.125 -0.2470 -0.0118  0.6910
 8795SOL    HW137844   1.005   3.685   3.116 -0.3694  0.2280  2.9947
 8795SOL    HW237845   1.153   3.697   3.100 -0.9435 -0.3247 -1.9303
 8796SOL     OW37846   0.891   0.496   4.006  0.5318  0.3405  0.2847
 8796SOL    HW137847   0.815   0.545   3.976 -0.5743 -1.6644 -0.1583
 8796SOL    HW237848   0.936   0.465   3.927 -2.8896  2.4526 -2.4890
 8797SOL     OW37849   2.256   1.941   1.931  0.6146 -0.2610  0.5742
 8797SOL    HW137850   2.296   2.008   1.987 -0.3774  0.3243  0.5885
 8797SOL    HW237851   2.163   1.965   1.931 -0.0001 -2.7092 -1.5774
 8798SOL     OW37852   1.884   3.976  12.377 -0.0605  0.2700 -0.0728
 8798SOL    HW137853   1.883   4.064  12.338  0.4780  0.5265  0.4796
 8798SOL    HW237854   1.848   4.002  12.462 -1.0899  0.9841 -0.7280
 8799SOL     OW37855   1.999   4.710   9.874  0.0357 -0.2375 -0.2265
 8799SOL    HW137856   2.014   4.644   9.941  0.5899 -2.3507 -2.4130
 8799SOL    HW237857   2.076   4.721   9.818  0.1241 -1.1519 -0.2909
 8800SOL     OW37858   0.454   4.612  16.879 -0.6312  0.0730 -0.0229
 8800SOL    HW137859   0.447   4.519  16.858 -0.5065  0.2334 -0.7813
 8800SOL    HW237860   0.523   4.607  16.945 -0.2135 -1.9182 -0.6070
 8801SOL     OW37861   3.879   3.269   5.138 -0.0552  0.4904 -0.3818
 8801SOL    HW137862   3.872   3.240   5.229 -0.3184 -0.8385 -0.8230
 8801SOL    HW237863   3.786   3.262   5.113 -1.2379 -0.4144  4.3478
 8802SOL     OW37864   1.099   3.486  17.279 -0.3526 -0.1048  0.4675
 8802SOL    HW137865   1.063   3.398  17.283 -0.5555 -0.0143  0.6461
 8802SOL    HW237866   1.029   3.523  17.333 -2.2986 -1.8160 -0.8676
 8803SOL     OW37867   1.356   2.761  10.958  0.2165 -0.2265 -0.5348
 8803SOL    HW137868   1.314   2.720  10.882  0.0938 -2.3454  0.6780
 8803SOL    HW237869   1.323   2.708  11.030  1.2020 -1.8089 -1.2402
 8804SOL     OW37870   1.888   0.851   5.759  0.2836 -0.7044 -0.8110
 8804SOL    HW137871   1.853   0.850   5.848 -1.9557 -0.7680 -1.6982
 8804SOL    HW237872   1.940   0.772   5.770  0.4197 -0.7275 -1.6437
 8805SOL     OW37873   4.318   1.993  16.403  0.0822  0.5536  0.1865
 8805SOL    HW137874   4.316   1.899  16.418 -1.6112  0.6127  0.2892
 8805SOL    HW237875   4.260   2.003  16.328 -1.1816  1.8604  1.3353
 8806SOL     OW37876   1.980   3.739   9.821  0.1653 -0.0291  0.1368
 8806SOL    HW137877   1.960   3.731   9.728  1.1936 -2.5559  0.1398
 8806SOL    HW237878   1.962   3.833   9.832 -1.3814 -0.4234  1.0379
 8807SOL     OW37879   1.089   2.742   8.849 -0.0878  0.3712 -0.0909
 8807SOL    HW137880   1.175   2.780   8.871 -0.4986  2.7693 -2.5482
 8807SOL    HW237881   1.057   2.733   8.938 -2.3649 -0.6736 -1.0201
 8808SOL     OW37882   4.556   3.860   2.599  0.1609  0.5502 -0.1680
 8808SOL    HW137883   4.578   3.768   2.580 -0.6653  0.4676 -0.7351
 8808SOL    HW237884   4.638   3.886   2.640  0.6714 -0.9164 -0.2607
 8809SOL     OW37885   0.870   1.220  16.435 -0.4467 -0.0952  0.0845
 8809SOL    HW137886   0.944   1.222  16.374  0.8143 -0.1114  1.6256
 8809SOL    HW237887   0.806   1.272  16.387 -0.6606  0.5766  1.0945
 8810SOL     OW37888   4.415   1.106   8.047 -0.4062 -0.5904  0.6181
 8810SOL    HW137889   4.325   1.097   8.017 -0.2222 -2.6184  0.6386
 8810SOL    HW237890   4.413   1.038   8.115 -3.0905  0.5159  1.6255
 8811SOL     OW37891   4.635   2.173   2.065 -0.0685 -0.1396 -0.2635
 8811SOL    HW137892   0.003   2.184   2.078 -0.1191 -0.0271 -0.0043
 8811SOL    HW237893   4.643   2.080   2.045  1.0144  0.0254 -0.5852
 8812SOL     OW37894   0.674   2.025   5.261  0.2334  0.1773 -0.5381
 8812SOL    HW137895   0.768   2.015   5.278 -0.4312 -0.1585  3.1030
 8812SOL    HW237896   0.658   2.092   5.195  0.9464  0.1649 -0.7216
 8813SOL     OW37897   4.344   4.249   6.662  0.3580  0.2134 -0.0249
 8813SOL    HW137898   4.314   4.162   6.636 -1.5550  0.1310  2.4105
 8813SOL    HW237899   4.371   4.294   6.582  1.1364 -0.1360  0.0522
 8814SOL     OW37900   4.664   2.562   1.652  0.1552  0.0282 -0.0967
 8814SOL    HW137901   0.005   2.536   1.715 -1.0107  0.4705  1.3210
 8814SOL    HW237902   4.654   2.655   1.670  0.6000  0.0688 -0.0748
 8815SOL     OW37903   3.165   3.981  14.929 -0.0856  0.2683  0.6726
 8815SOL    HW137904   3.119   4.052  14.884 -2.3338 -1.5412  0.0595
 8815SOL    HW237905   3.214   4.024  14.999  1.4436  0.1770 -0.3428
 8816SOL     OW37906   3.994   0.795  10.033  0.2424 -0.3467 -0.2670
 8816SOL    HW137907   4.081   0.759  10.014  2.4129  4.2806  0.7617
 8816SOL    HW237908   3.951   0.739  10.098  0.5523 -0.0633  0.1821
 8817SOL     OW37909   2.881   3.884   9.024 -0.4315 -0.0660 -0.0603
 8817SOL    HW137910   2.788   3.864   9.032 -0.9242  0.8984 -3.2767
 8817SOL    HW237911   2.883   3.977   9.048  0.1418 -0.6649  2.2131
 8818SOL     OW37912   2.204   2.270   3.979 -0.3152  0.2990 -0.0189
 8818SOL    HW137913   2.277   2.311   4.023  1.4565 -1.1605 -1.6093
 8818SOL    HW237914   2.129   2.282   4.039 -2.7850 -0.1071 -3.0112
 8819SOL     OW37915   3.997   1.822   0.718  0.0368  0.1944  0.3444
 8819SOL    HW137916   3.928   1.844   0.656  0.2698  1.0756  0.3972
 8819SOL    HW237917   4.046   1.904   0.729 -0.2196  0.7484 -2.5627
 8820SOL     OW37918   0.167   4.703   4.493  0.3882  0.0793  0.7214
 8820SOL    HW137919   0.159   0.050   4.432 -0.1854 -0.7632 -0.2243
 8820SOL    HW237920   0.185   4.630   4.434  2.7621  0.9971  0.3515
 8821SOL     OW37921   4.710   3.669  14.827 -0.2395  0.5321 -0.5486
 8821SOL    HW137922   0.036   3.695  14.751  1.9346  1.1753  1.1457
 8821SOL    HW237923   0.053   3.673  14.894 -0.4558  1.6270 -0.3916
 8822SOL     OW37924   1.132   0.070   2.834 -0.0834 -0.3886  0.2330
 8822SOL    HW137925   1.225   0.060   2.854 -0.4071 -2.1396  0.9013
 8822SOL    HW237926   1.119   4.709   2.796 -0.5042  0.0593 -0.6574
 8823SOL     OW37927   3.512   0.948  15.109 -0.4551 -0.0801  0.0327
 8823SOL    HW137928   3.490   0.943  15.016 -2.5733  1.5544  0.4472
 8823SOL    HW237929   3.606   0.956  15.092 -0.6663  1.0769 -0.5986
 8824SOL     OW37930   3.015   0.073   4.472 -0.2804 -0.1489 -0.2666
 8824SOL    HW137931   3.038   0.010   4.403 -0.6380 -1.9498  1.2793
 8824SOL    HW237932   3.021   0.010   4.544  1.0895 -1.2610 -1.3377
 8825SOL     OW37933   3.141   3.346  17.447 -0.1941  0.4737  1.0250
 8825SOL    HW137934   3.048   3.344  17.424 -0.2797 -3.4967  1.7822
 8825SOL    HW237935   3.184   3.343  17.361 -1.2595 -1.6914  0.5661
 8826SOL     OW37936   0.516   1.256   6.664  0.0136  0.0458 -0.0135
 8826SOL    HW137937   0.523   1.348   6.638  1.1766  0.7872  2.8726
 8826SOL    HW237938   0.610   1.238   6.668 -0.3066 -2.2654 -2.4692
 8827SOL     OW37939   2.558   4.666   3.795  0.4438 -0.5486 -0.0818
 8827SOL    HW137940   2.499   4.712   3.736 -0.6926 -2.1727 -0.2109
 8827SOL    HW237941   2.502   4.595   3.827  0.3820 -0.4551  0.0168
 8828SOL     OW37942   2.102   0.945  10.630  0.4247  0.5619 -0.5044
 8828SOL    HW137943   2.012   0.915  10.645  1.3871 -2.1859 -0.2158
 8828SOL    HW237944   2.137   0.913  10.713  1.4698 -0.3453 -1.2970
 8829SOL     OW37945   2.875   1.286   3.953  0.2372  0.1716  0.0313
 8829SOL    HW137946   2.876   1.215   4.016 -0.2945  0.3538  0.2388
 8829SOL    HW237947   2.969   1.286   3.932  0.2016 -0.2978 -0.1258
 8830SOL     OW37948   3.623   2.009  12.024 -0.3679  0.0855 -0.7543
 8830SOL    HW137949   3.702   2.062  12.019  0.8304 -1.7527 -1.1588
 8830SOL    HW237950   3.593   2.038  12.110  0.6090 -1.2108  0.0173
 8831SOL     OW37951   1.770   0.937  16.977 -0.2983 -0.2723 -0.1423
 8831SOL    HW137952   1.785   0.954  16.884 -0.0866  3.3081  0.5387
 8831SOL    HW237953   1.687   0.890  16.966 -1.3807  1.8989 -1.2776
 8832SOL     OW37954   3.836   2.784  16.048  0.2375  0.3232 -0.2829
 8832SOL    HW137955   3.828   2.763  16.141  1.0347 -1.6021 -0.6362
 8832SOL    HW237956   3.827   2.879  16.049 -2.3582  0.0911 -0.1330
 8833SOL     OW37957   2.131   1.640   9.290 -0.0341  0.1392 -0.6198
 8833SOL    HW137958   2.176   1.601   9.364  1.7914  0.5910 -1.4796
 8833SOL    HW237959   2.105   1.720   9.335  0.0920  1.0576 -2.1591
 8834SOL     OW37960   2.752   3.640   4.071  0.1689 -0.3079  0.4391
 8834SOL    HW137961   2.844   3.621   4.054  0.8512  2.8037  0.5356
 8834SOL    HW237962   2.709   3.639   3.986  0.0631 -0.8833  0.5017
 8835SOL     OW37963   4.072   1.023  16.715  0.5008  0.1324 -0.2730
 8835SOL    HW137964   4.060   0.960  16.786  0.6334  1.6741  1.1312
 8835SOL    HW237965   4.157   0.991  16.685  0.6245  1.3552 -1.2229
 8836SOL     OW37966   3.005   3.223  14.340 -0.2709  0.2179 -0.4424
 8836SOL    HW137967   3.046   3.201  14.256 -0.0782  0.2381 -0.3543
 8836SOL    HW237968   2.934   3.283  14.316 -2.9845 -3.1048 -0.6335
 8837SOL     OW37969   0.737   3.857   4.599  0.0071  0.1053 -0.4816
 8837SOL    HW137970   0.678   3.820   4.664  2.1560 -1.0591  0.8180
 8837SOL    HW237971   0.811   3.796   4.593 -0.5473 -0.6355  0.1855
 8838SOL     OW37972   3.378   1.371   8.036 -0.1664 -0.3929 -0.3918
 8838SOL    HW137973   3.409   1.452   7.996  0.7307 -0.3961  0.3126
 8838SOL    HW237974   3.415   1.369   8.123  0.0333 -2.8848 -0.5352
 8839SOL     OW37975   3.827   1.673  15.573  0.3884 -0.5066  0.3778
 8839SOL    HW137976   3.898   1.699  15.514  1.2233 -3.6631 -0.0179
 8839SOL    HW237977   3.805   1.766  15.582 -0.5901 -0.9257  2.3023
 8840SOL     OW37978   3.360   3.693   5.196 -0.1475 -0.3184 -0.1285
 8840SOL    HW137979   3.304   3.762   5.160  1.0103  0.6736 -0.0298
 8840SOL    HW237980   3.426   3.741   5.246 -2.2658 -0.4590  2.7736
 8841SOL     OW37981   2.570   0.333   1.023  0.0399 -0.1465  0.4990
 8841SOL    HW137982   2.612   0.415   0.996 -2.8820  1.3879  0.5840
 8841SOL    HW237983   2.617   0.311   1.103 -0.7388  2.3114  1.6099
 8842SOL     OW37984   1.070   4.533   8.890  0.0325  0.8934  0.1068
 8842SOL    HW137985   0.985   4.489   8.891 -0.5303  1.9670  0.4678
 8842SOL    HW237986   1.072   4.576   8.975 -2.2747  0.7272  0.2507
 8843SOL     OW37987   1.321   2.224  10.889 -0.1757  0.0551  0.1545
 8843SOL    HW137988   1.273   2.237  10.971 -0.0808  2.1846 -0.1395
 8843SOL    HW237989   1.411   2.210  10.921  0.0206  0.2165 -0.3362
 8844SOL     OW37990   2.439   1.516   8.710  0.3375  0.1831  0.2800
 8844SOL    HW137991   2.473   1.468   8.635 -1.7049 -1.3256  0.3068
 8844SOL    HW237992   2.345   1.523   8.691  0.8019  1.5236 -1.5312
 8845SOL     OW37993   0.386   3.111   6.115 -0.4174  0.1937 -0.4197
 8845SOL    HW137994   0.451   3.105   6.045  0.0372 -0.4771  0.0694
 8845SOL    HW237995   0.408   3.042   6.177 -1.3153  1.6505  1.5186
 8846SOL     OW37996   4.715   4.516   8.571 -0.0910 -0.4900  0.1958
 8846SOL    HW137997   4.652   4.585   8.590  1.3918  0.8181  0.3208
 8846SOL    HW237998   4.682   4.453   8.635  1.3834 -0.8443  0.6313
 8847SOL     OW37999   3.603   4.460   7.650  0.0292 -0.3226 -0.1100
 8847SOL    HW138000   3.694   4.446   7.624  0.1202 -0.8154  0.4646
 8847SOL    HW238001   3.570   4.498   7.569  0.4516 -0.8210 -0.5213
 8848SOL     OW38002   1.691   2.896  12.219 -0.4690  0.2006  0.0196
 8848SOL    HW138003   1.660   2.974  12.173 -1.2037 -0.8247 -1.2325
 8848SOL    HW238004   1.644   2.829  12.170  1.6028  0.1873 -1.9817
 8849SOL     OW38005   4.569   0.337   4.383 -0.0348 -0.2433  0.1857
 8849SOL    HW138006   4.511   0.352   4.309  2.4729 -1.2984 -1.9756
 8849SOL    HW238007   4.656   0.337   4.344 -1.1778  2.7635 -2.3628
 8850SOL     OW38008   3.631   1.193   7.005  0.1655  0.2350 -0.7733
 8850SOL    HW138009   3.663   1.281   6.986  0.7152 -0.2963 -2.3635
 8850SOL    HW238010   3.657   1.150   6.923 -1.5369  0.3963 -1.4033
 8851SOL     OW38011   4.158   0.367   2.226  0.0854 -0.4767  0.5550
 8851SOL    HW138012   4.167   0.462   2.233  3.5588 -0.8709  1.2541
 8851SOL    HW238013   4.067   0.357   2.196 -0.1119  2.2338  0.3023
 8852SOL     OW38014   0.613   4.521   8.001  0.6755 -0.2198  0.2334
 8852SOL    HW138015   0.597   4.581   7.928  0.6410 -1.4789 -0.7725
 8852SOL    HW238016   0.678   4.572   8.051 -0.1922 -1.1801  2.3384
 8853SOL     OW38017   4.602   3.151   9.145  0.8333  0.8671  0.3225
 8853SOL    HW138018   4.663   3.093   9.189  0.5881 -1.2064 -2.0182
 8853SOL    HW238019   4.539   3.083   9.121  1.5509  0.1394  0.5261
 8854SOL     OW38020   2.934   0.560   6.855 -0.5931 -0.1650  0.0749
 8854SOL    HW138021   2.848   0.551   6.814  1.5554 -4.5058 -3.4620
 8854SOL    HW238022   2.927   0.501   6.930 -0.2810  0.2360  0.4223
 8855SOL     OW38023   3.545   4.643  15.134  0.4303  0.2332 -0.5079
 8855SOL    HW138024   3.614   4.677  15.190  0.1197 -0.1759  0.1266
 8855SOL    HW238025   3.574   4.671  15.047 -1.0753  1.0760 -0.7496
 8856SOL     OW38026   2.876   4.119   9.163 -0.6219 -0.1557  0.1891
 8856SOL    HW138027   2.820   4.192   9.191  1.4836  1.6504 -0.2388
 8856SOL    HW238028   2.825   4.050   9.204 -0.6997  0.2526  0.7863
 8857SOL     OW38029   4.483   3.880  10.131  0.6611  0.4293  0.5231
 8857SOL    HW138030   4.436   3.801  10.107  1.5459  0.0705 -0.0434
 8857SOL    HW238031   4.430   3.905  10.207 -1.0589 -1.1534 -0.1729
 8858SOL     OW38032   3.901   4.022   9.349  0.4978  0.1532  0.3090
 8858SOL    HW138033   3.860   4.101   9.385 -0.5148 -0.1630 -0.1566
 8858SOL    HW238034   3.933   3.980   9.429  2.0252 -1.4360 -1.1683
 8859SOL     OW38035   1.941   1.937   9.950 -0.2993  0.1374 -0.1792
 8859SOL    HW138036   1.852   1.967   9.935 -0.6352 -0.6617  0.2288
 8859SOL    HW238037   1.976   1.996  10.017  1.0365  0.6994 -1.3774
 8860SOL     OW38038   1.178   0.769   3.872  0.1587  0.3706  0.2938
 8860SOL    HW138039   1.218   0.856   3.876 -1.3556  1.1020 -0.3659
 8860SOL    HW238040   1.084   0.788   3.865  0.0674 -0.4116 -0.6907
 8861SOL     OW38041   1.046   0.524   7.447  0.1792 -0.1722  0.5735
 8861SOL    HW138042   1.008   0.547   7.532  1.5323  1.8067  0.6518
 8861SOL    HW238043   1.100   0.601   7.431  0.8439 -0.8693 -0.5642
 8862SOL     OW38044   1.727   3.121   8.003 -0.7252  0.0686  0.5088
 8862SOL    HW138045   1.707   3.200   8.054  0.1327  1.8739 -1.9425
 8862SOL    HW238046   1.682   3.049   8.047  0.6506 -1.0324  0.0893
 8863SOL     OW38047   3.282   1.098   7.169  0.1967 -0.5214  0.4561
 8863SOL    HW138048   3.237   1.107   7.085  1.9703  1.5713 -0.2711
 8863SOL    HW238049   3.346   1.037   7.133 -0.3848 -1.5545  1.1717
 8864SOL     OW38050   3.597   1.772  12.598 -0.3993 -0.3891 -0.2163
 8864SOL    HW138051   3.576   1.834  12.667  0.9948 -0.0561 -0.0928
 8864SOL    HW238052   3.591   1.820  12.515  0.6384  1.5103  0.8290
 8865SOL     OW38053   3.003   3.821   2.582 -0.0825 -0.2799 -0.5586
 8865SOL    HW138054   2.959   3.741   2.554  0.6052 -0.9290  0.2593
 8865SOL    HW238055   2.956   3.843   2.662  2.0779  1.7968  0.1217
 8866SOL     OW38056   4.215   0.500  10.233  0.1805 -0.2915  0.0189
 8866SOL    HW138057   4.240   0.577  10.182  0.2692 -0.4809 -0.2236
 8866SOL    HW238058   4.303   0.492  10.270  0.6474 -1.6569 -1.4034
 8867SOL     OW38059   1.106   4.310  11.691 -0.8767 -0.6517  0.1929
 8867SOL    HW138060   1.120   4.324  11.784 -0.3583  1.2632 -0.1829
 8867SOL    HW238061   1.141   4.390  11.652 -1.7503 -0.4017 -0.0841
 8868SOL     OW38062   4.520   2.403  17.304 -0.3892 -0.0147 -0.1412
 8868SOL    HW138063   4.553   2.435  17.220  0.8452  0.4827  0.5396
 8868SOL    HW238064   4.438   2.368  17.270 -0.8972  1.5866 -0.5602
 8869SOL     OW38065   3.045   2.922  15.899  0.5276 -0.4115  0.0548
 8869SOL    HW138066   2.986   2.856  15.862 -0.7196  1.8605 -2.0092
 8869SOL    HW238067   3.112   2.871  15.946  0.8925  1.4385  1.5468
 8870SOL     OW38068   3.804   1.472  16.376  0.3068 -0.0869  0.3739
 8870SOL    HW138069   3.717   1.512  16.381 -1.1444 -3.1783  0.3613
 8870SOL    HW238070   3.857   1.530  16.322 -0.2802  0.0313 -0.0751
 8871SOL     OW38071   3.291   3.341  16.417 -0.1983  0.1471  0.2912
 8871SOL    HW138072   3.335   3.365  16.499 -0.3382  0.3708  0.3031
 8871SOL    HW238073   3.272   3.431  16.390  1.8979  0.5565  0.1673
 8872SOL     OW38074   0.368   4.112   6.627 -0.8737 -0.3105 -0.3064
 8872SOL    HW138075   0.457   4.131   6.599 -1.5610  3.5351  0.1362
 8872SOL    HW238076   0.371   4.029   6.675  2.4915  0.6096  1.0484
 8873SOL     OW38077   2.752   2.870   0.560  0.1203 -0.1026  0.3105
 8873SOL    HW138078   2.730   2.806   0.493 -2.5970 -0.6383  1.6994
 8873SOL    HW238079   2.848   2.870   0.561  0.1060  0.2046  2.0472
 8874SOL     OW38080   4.645   0.159   2.784 -0.5112  0.0145  0.0827
 8874SOL    HW138081   4.573   0.203   2.829 -0.5434  0.0903 -0.0428
 8874SOL    HW238082   4.715   0.146   2.848 -0.2188  0.7159 -0.0977
 8875SOL     OW38083   4.304   0.927   3.926 -0.1549  0.6015 -0.7410
 8875SOL    HW138084   4.246   0.905   3.853 -1.6782 -0.3589  0.7473
 8875SOL    HW238085   4.391   0.916   3.887 -0.2850  1.0895 -1.1744
 8876SOL     OW38086   1.461   0.717   7.525  0.1013 -0.1426 -0.4618
 8876SOL    HW138087   1.495   0.655   7.460 -0.3285  0.7065 -1.5045
 8876SOL    HW238088   1.384   0.742   7.474 -1.6549 -0.3742  2.1020
 8877SOL     OW38089   1.094   0.672  17.582 -0.3567  0.0583 -0.5400
 8877SOL    HW138090   1.145   0.748  17.554 -1.1086  0.9000  0.3664
 8877SOL    HW238091   1.072   0.695  17.673 -0.1877  2.2593 -1.0677
 8878SOL     OW38092   2.396   2.188  13.495 -0.5866 -0.3059  0.2371
 8878SOL    HW138093   2.328   2.124  13.476 -1.4919  0.6209  0.3129
 8878SOL    HW238094   2.400   2.179  13.590 -0.8577 -0.5630  0.2212
 8879SOL     OW38095   4.024   2.100   3.852 -0.1457 -0.4296 -0.2904
 8879SOL    HW138096   4.096   2.052   3.812  0.0164 -0.5852  0.1822
 8879SOL    HW238097   3.983   2.129   3.771 -1.3549 -1.1666  0.0531
 8880SOL     OW38098   3.594   1.727   5.993  0.4780  0.0707 -0.1147
 8880SOL    HW138099   3.627   1.683   5.915  0.8401  1.1329 -0.5671
 8880SOL    HW238100   3.552   1.805   5.956  0.0365  0.7156  1.7635
 8881SOL     OW38101   3.973   3.393   7.990 -0.4329 -0.2558 -0.3442
 8881SOL    HW138102   4.025   3.323   8.031 -1.9035  0.5872  2.9612
 8881SOL    HW238103   4.005   3.471   8.036  0.9823 -1.3433  0.5311
 8882SOL     OW38104   0.764   2.224   4.160 -0.1762 -0.5280  0.1258
 8882SOL    HW138105   0.832   2.157   4.158 -1.7719 -2.1786  0.0164
 8882SOL    HW238106   0.693   2.173   4.201 -1.9258  2.1695  0.4578
 8883SOL     OW38107   3.301   2.345   4.166  0.2394  0.3455  1.0312
 8883SOL    HW138108   3.366   2.397   4.119 -2.2662  0.6493 -2.0946
 8883SOL    HW238109   3.350   2.283   4.221 -1.1786 -0.7708  1.0435
 8884SOL     OW38110   2.684   2.732   0.328  0.2002  0.2729  0.2199
 8884SOL    HW138111   2.647   2.765   0.246  1.6553  0.4666 -0.3500
 8884SOL    HW238112   2.617   2.663   0.331  1.7841 -1.2346  0.9270
 8885SOL     OW38113   1.203   3.242   6.696  0.8438  0.2758  0.1589
 8885SOL    HW138114   1.197   3.174   6.628 -1.7930  0.1869  0.4976
 8885SOL    HW238115   1.241   3.189   6.766 -3.5111 -1.3365  1.3218
 8886SOL     OW38116   0.103   2.404   6.624 -0.1792 -0.4891 -0.1221
 8886SOL    HW138117   0.065   2.318   6.641  1.4988 -1.3227 -0.5256
 8886SOL    HW238118   0.179   2.404   6.683 -0.7029 -1.6961  0.5358
 8887SOL     OW38119   3.882   2.122   8.792  0.1242 -0.2712  0.1761
 8887SOL    HW138120   3.869   2.040   8.839  1.2185 -1.3761 -1.4763
 8887SOL    HW238121   3.810   2.109   8.731  0.1847 -2.3647  0.5536
 8888SOL     OW38122   1.389   2.065   3.985 -0.5634  0.4176 -0.1759
 8888SOL    HW138123   1.300   2.049   3.953 -0.5652 -0.1364  0.1007
 8888SOL    HW238124   1.391   2.155   3.954 -0.8275  0.3416 -0.4094
 8889SOL     OW38125   0.780   3.868   7.473  0.0256  0.4282 -0.1203
 8889SOL    HW138126   0.731   3.932   7.525  1.8526  0.3104  1.7328
 8889SOL    HW238127   0.865   3.864   7.517  0.5647  1.2499 -1.1018
 8890SOL     OW38128   1.397   4.661  15.812  0.4091 -0.3035  0.5717
 8890SOL    HW138129   1.342   4.594  15.771  1.0167 -0.7851  0.5505
 8890SOL    HW238130   1.460   4.688  15.745  0.3159 -1.6022 -0.0283
 8891SOL     OW38131   4.014   0.523   8.248  0.1508  0.5642  0.0858
 8891SOL    HW138132   3.949   0.456   8.226 -0.0369  1.6826 -2.7794
 8891SOL    HW238133   4.062   0.470   8.312 -2.7562 -0.4522  1.4540
 8892SOL     OW38134   3.667   0.010   3.304  0.5001  0.1646 -0.0182
 8892SOL    HW138135   3.594   0.039   3.358 -0.1428 -2.3989  0.4832
 8892SOL    HW238136   3.744   0.048   3.346  0.6797  1.2176 -1.2851
 8893SOL     OW38137   2.259   3.695  13.735 -0.1585  0.3203 -0.1390
 8893SOL    HW138138   2.186   3.756  13.744 -0.8194 -0.4383 -0.4186
 8893SOL    HW238139   2.319   3.732  13.800 -0.3654 -3.5090  2.1993
 8894SOL     OW38140   3.368   1.169   9.322 -0.0815 -0.8627  0.0058
 8894SOL    HW138141   3.274   1.156   9.313 -0.2562 -0.3414  1.1126
 8894SOL    HW238142   3.374   1.111   9.398  0.0562 -0.2660  0.4484
 8895SOL     OW38143   2.574   3.236   3.317 -0.6135  0.2381 -0.2778
 8895SOL    HW138144   2.539   3.204   3.400  0.0514  1.9003  0.6365
 8895SOL    HW238145   2.495   3.282   3.286 -1.4710 -0.3947  0.9520
 8896SOL     OW38146   3.375   2.582   2.699 -0.0902 -0.0774  0.2998
 8896SOL    HW138147   3.445   2.568   2.635  2.6883  0.0544  3.3363
 8896SOL    HW238148   3.426   2.585   2.780 -0.9143  0.4187  0.8070
 8897SOL     OW38149   3.218   4.336  11.812 -0.3730 -0.2240  0.8988
 8897SOL    HW138150   3.218   4.315  11.906  2.9533  0.6043  1.0913
 8897SOL    HW238151   3.126   4.310  11.806 -0.2420 -0.6778  0.8682
 8898SOL     OW38152   0.817   0.548  12.575  0.1125 -0.1028 -0.1915
 8898SOL    HW138153   0.881   0.498  12.524  0.9409 -0.2074  0.9588
 8898SOL    HW238154   0.829   0.501  12.657  1.6096  0.6616  0.0130
 8899SOL     OW38155   3.723   3.923   9.129 -0.0316 -0.4583  0.1874
 8899SOL    HW138156   3.731   4.016   9.149 -0.7994 -0.0458 -1.3814
 8899SOL    HW238157   3.732   3.888   9.217 -0.5368  2.1115  1.2787
 8900SOL     OW38158   4.720   3.153  13.910 -0.2875 -0.0721  0.4881
 8900SOL    HW138159   0.075   3.115  13.943  0.3081  0.1178 -0.7414
 8900SOL    HW238160   4.660   3.079  13.910 -0.6703  0.2325 -1.0431
 8901SOL     OW38161   0.925   4.003  15.141 -0.4365 -0.3005 -0.5753
 8901SOL    HW138162   0.867   3.930  15.163 -1.8804  1.0662  0.2240
 8901SOL    HW238163   0.879   4.049  15.071 -1.7868 -1.8384 -0.7089
 8902SOL     OW38164   1.613   1.255   1.799 -0.4921 -0.2386 -0.5198
 8902SOL    HW138165   1.535   1.265   1.854 -0.7600  0.2659 -0.9926
 8902SOL    HW238166   1.576   1.274   1.713  3.1923  0.0942 -2.0414
 8903SOL     OW38167   0.335   4.145   5.222  0.5269 -0.3029 -0.6296
 8903SOL    HW138168   0.302   4.202   5.291 -1.2478 -2.0341 -0.0507
 8903SOL    HW238169   0.282   4.068   5.243  1.1937 -0.1459  1.5918
 8904SOL     OW38170   0.678   1.448   8.174 -0.1280  0.1648 -0.6098
 8904SOL    HW138171   0.669   1.542   8.192 -1.1603  0.0531 -0.5601
 8904SOL    HW238172   0.605   1.415   8.226  1.3668  0.4049  1.6386
 8905SOL     OW38173   3.484   1.373   4.397  0.2222  0.1936 -0.0782
 8905SOL    HW138174   3.480   1.429   4.319  1.9679 -1.5660 -1.4331
 8905SOL    HW238175   3.475   1.284   4.361 -0.4537  0.0950  0.3302
 8906SOL     OW38176   2.578   4.053   1.121 -0.1836  0.0095  0.3778
 8906SOL    HW138177   2.559   4.000   1.199  3.1164  0.1146  1.2694
 8906SOL    HW238178   2.520   4.015   1.055  0.7716 -0.0212 -0.4490
 8907SOL     OW38179   3.063   1.419   5.267 -0.0705  0.1172  0.1291
 8907SOL    HW138180   3.064   1.455   5.179 -1.5896 -2.5660 -0.9899
 8907SOL    HW238181   3.089   1.495   5.318  2.9931 -0.7975 -0.0834
 8908SOL     OW38182   2.681   0.494   2.614 -0.7322  0.7854 -0.0679
 8908SOL    HW138183   2.736   0.541   2.551 -0.5263 -0.1551 -0.5914
 8908SOL    HW238184   2.664   0.550   2.689 -2.2476  0.2037  0.0349
 8909SOL     OW38185   3.946   4.377   4.235 -0.0414  0.2969  0.0773
 8909SOL    HW138186   3.939   4.435   4.310 -1.5723  1.5577 -1.0472
 8909SOL    HW238187   3.978   4.435   4.166  1.0774 -0.0634  0.2819
 8910SOL     OW38188   4.574   1.052   5.594 -0.3968  0.9704  0.2032
 8910SOL    HW138189   4.568   1.111   5.669  1.6927  0.2714  0.9030
 8910SOL    HW238190   4.669   1.050   5.591 -0.4940 -3.3243  0.0074
 8911SOL     OW38191   2.754   1.454  11.360 -0.1004  0.4719  0.4855
 8911SOL    HW138192   2.745   1.528  11.301 -0.1844 -0.9682 -1.3290
 8911SOL    HW238193   2.666   1.455  11.399  0.0655  1.2127  0.8367
 8912SOL     OW38194   2.855   4.687  10.902  0.1795 -0.0034  0.0081
 8912SOL    HW138195   2.903   4.622  10.954 -0.3026 -0.4697 -0.1265
 8912SOL    HW238196   2.771   4.680  10.948 -0.0402 -1.8079 -0.6513
 8913SOL     OW38197   1.128   1.568   8.478 -0.2349  0.2349 -0.5560
 8913SOL    HW138198   1.135   1.588   8.572  3.4272 -2.2236 -0.3042
 8913SOL    HW238199   1.191   1.635   8.451  0.2167 -0.1773 -0.5259
 8914SOL     OW38200   2.642   2.326   6.246  0.3918  0.3148 -0.4001
 8914SOL    HW138201   2.572   2.268   6.218 -1.1127  0.9303  2.0975
 8914SOL    HW238202   2.657   2.291   6.334 -0.9232 -0.0729 -0.3355
 8915SOL     OW38203   3.455   2.950   8.875  0.1474  0.0417 -0.2746
 8915SOL    HW138204   3.425   2.957   8.965 -0.0024  0.1678 -0.3323
 8915SOL    HW238205   3.439   2.862   8.840 -2.4532  0.6772 -0.7324
 8916SOL     OW38206   1.215   4.682   1.663  0.6695 -0.1569 -0.0027
 8916SOL    HW138207   1.235   4.697   1.570 -0.6720  2.6799  0.1470
 8916SOL    HW238208   1.129   4.645   1.643  1.6269 -3.1200  1.4884
 8917SOL     OW38209   3.086   1.660  11.591  0.1709  0.1481  0.7373
 8917SOL    HW138210   3.175   1.678  11.621  0.1478 -0.3289  1.0923
 8917SOL    HW238211   3.058   1.745  11.557  2.6333 -0.1200 -1.8789
 8918SOL     OW38212   2.252   3.259   3.887 -0.1820  0.3620  0.2247
 8918SOL    HW138213   2.159   3.262   3.909  0.1763  2.5711  1.4811
 8918SOL    HW238214   2.283   3.302   3.967  0.4503 -0.0428  0.1924
 8919SOL     OW38215   3.424   2.400  14.852 -0.5307  0.3925 -0.2372
 8919SOL    HW138216   3.335   2.414  14.885 -0.1698 -0.5148  1.0784
 8919SOL    HW238217   3.401   2.357  14.769 -1.7866  0.3223  0.1441
 8920SOL     OW38218   0.908   0.229   2.587  0.5406  1.0817 -0.4477
 8920SOL    HW138219   0.903   0.261   2.497 -0.6002  0.3254 -0.6555
 8920SOL    HW238220   0.878   0.138   2.585 -3.6651  2.4976 -1.0586
 8921SOL     OW38221   3.625   3.238   8.187 -0.6466  0.3085  0.4402
 8921SOL    HW138222   3.696   3.288   8.227  0.0567 -1.3412  1.2124
 8921SOL    HW238223   3.669   3.183   8.122 -1.2111  0.1322  0.1993
 8922SOL     OW38224   3.473   3.238   3.231  0.0779  0.3989  0.0111
 8922SOL    HW138225   3.423   3.189   3.297  0.0697  0.2462 -0.1068
 8922SOL    HW238226   3.438   3.208   3.147 -0.1881 -0.5329  0.4553
 8923SOL     OW38227   1.904   2.867  10.409  0.0541 -0.3897  0.5675
 8923SOL    HW138228   1.977   2.812  10.381  0.1346 -0.0838  0.1845
 8923SOL    HW238229   1.857   2.905  10.335  0.0129 -1.1341  0.2078
 8924SOL     OW38230   2.195   4.303   8.274 -0.1916  0.0861 -0.5003
 8924SOL    HW138231   2.175   4.363   8.347 -1.2958  0.1507 -0.8538
 8924SOL    HW238232   2.119   4.245   8.275  0.5925 -0.9039  5.7670
 8925SOL     OW38233   1.147   1.606   6.735 -0.3513 -0.0108 -0.1617
 8925SOL    HW138234   1.077   1.642   6.788  1.6326  0.8423  1.8840
 8925SOL    HW238235   1.116   1.601   6.644 -0.0728 -1.7115 -0.1691
 8926SOL     OW38236   4.555   0.897   7.748 -0.1461 -0.2225 -0.2423
 8926SOL    HW138237   4.609   0.867   7.674 -1.6506 -0.4820 -1.2234
 8926SOL    HW238238   4.511   0.816   7.775 -2.4699  1.2293  0.2575
 8927SOL     OW38239   3.457   3.791   4.110  0.4856  0.2762  0.1243
 8927SOL    HW138240   3.536   3.743   4.088 -0.0385 -1.9252  3.0676
 8927SOL    HW238241   3.444   3.770   4.203  0.5161 -1.3439 -0.2345
 8928SOL     OW38242   3.972   1.907   4.253 -0.5994 -0.6033  0.1368
 8928SOL    HW138243   4.052   1.960   4.261 -1.8615  1.2917  0.0685
 8928SOL    HW238244   3.947   1.933   4.164  1.2983  1.9746  0.3305
 8929SOL     OW38245   2.781   2.046   2.713 -0.3009 -0.3211  0.0509
 8929SOL    HW138246   2.835   2.026   2.637 -0.2390 -0.4292  0.1247
 8929SOL    HW238247   2.833   2.122   2.739 -1.9264  1.5776 -2.2023
 8930SOL     OW38248   1.617   4.667  11.655 -0.4301  0.4123 -0.0167
 8930SOL    HW138249   1.569   4.611  11.594  1.0732  1.1177 -1.8335
 8930SOL    HW238250   1.677   4.719  11.601  2.1596 -1.0103  1.5063
 8931SOL     OW38251   1.049   0.810   1.905 -0.3482 -0.2152 -0.6259
 8931SOL    HW138252   1.096   0.742   1.857  2.5474  2.3660 -1.4611
 8931SOL    HW238253   0.971   0.801   1.850 -0.3042 -0.5707 -0.6303
 8932SOL     OW38254   0.946   0.070   5.636 -0.1834  0.1387 -0.3830
 8932SOL    HW138255   0.906   0.012   5.572 -1.1667  0.4315 -0.0324
 8932SOL    HW238256   0.868   0.107   5.678 -0.8839 -0.5717 -1.0809
 8933SOL     OW38257   0.057   1.780   0.797  0.3287 -0.7068  0.1307
 8933SOL    HW138258   0.093   1.868   0.810  1.8926 -1.4223  0.6731
 8933SOL    HW238259   0.031   1.754   0.885 -0.3414 -1.4355 -0.2883
 8934SOL     OW38260   0.770   2.710   5.204 -0.1882  0.5553  0.3522
 8934SOL    HW138261   0.773   2.616   5.191  2.6275  0.7954 -0.7743
 8934SOL    HW238262   0.676   2.711   5.224 -0.1656 -1.6850  0.4682
 8935SOL     OW38263   2.677   1.356   7.826 -0.7527 -0.0509 -0.3160
 8935SOL    HW138264   2.635   1.357   7.740 -1.2677  0.3624 -0.0601
 8935SOL    HW238265   2.751   1.297   7.810  2.1695  3.8392 -1.1284
 8936SOL     OW38266   0.949   2.377  15.717  0.2902  0.0723 -0.3620
 8936SOL    HW138267   1.001   2.303  15.747 -0.9944 -1.9245 -3.0342
 8936SOL    HW238268   0.900   2.416  15.789  0.6399  2.8731 -1.6398
 8937SOL     OW38269   0.738   3.191   7.615  0.0690  0.3818 -0.1815
 8937SOL    HW138270   0.644   3.186   7.597 -0.0704 -1.3943  1.1532
 8937SOL    HW238271   0.743   3.279   7.652  0.0301 -0.4083  1.6679
 8938SOL     OW38272   0.742   2.430   3.979  0.6791  0.5254 -0.0508
 8938SOL    HW138273   0.828   2.445   4.019  1.5816 -4.0135 -0.2070
 8938SOL    HW238274   0.713   2.347   4.018  1.2970  0.4999  0.3731
 8939SOL     OW38275   4.715   4.605   9.536  0.5828  0.0153 -0.1386
 8939SOL    HW138276   0.070   4.642   9.572 -0.5536  2.3007  0.0921
 8939SOL    HW238277   4.654   4.644   9.599 -0.3338  1.7930 -2.1316
 8940SOL     OW38278   0.010   4.355   4.446  0.1326  0.2289 -0.4164
 8940SOL    HW138279   0.064   4.401   4.381  1.6403  0.4659  1.0067
 8940SOL    HW238280   4.718   4.273   4.400  0.7548 -0.2023  0.1016
 8941SOL     OW38281   1.162   2.700   4.436 -0.3739  0.3573  0.7961
 8941SOL    HW138282   1.197   2.789   4.446 -0.9040  0.5716  0.7703
 8941SOL    HW238283   1.185   2.681   4.345 -1.0227  2.3453  0.2118
 8942SOL     OW38284   0.111   3.143   5.589 -0.6092 -0.3236  0.2022
 8942SOL    HW138285   0.071   3.122   5.504 -0.6626  2.1296 -0.3985
 8942SOL    HW238286   0.033   3.138   5.644 -2.0353  4.0639 -1.3529
 8943SOL     OW38287   3.148   0.257   2.961  0.1390 -0.2973 -0.5006
 8943SOL    HW138288   3.073   0.313   2.937  0.6773  1.6691  2.3274
 8943SOL    HW238289   3.221   0.316   2.944 -1.3827  1.5908 -0.5846
 8944SOL     OW38290   0.706   3.157   2.300  0.3051 -0.4061  0.4129
 8944SOL    HW138291   0.690   3.144   2.393  0.3864 -0.2444  0.4502
 8944SOL    HW238292   0.695   3.252   2.302  2.0026 -0.1642 -1.4745
 8945SOL     OW38293   1.688   1.170  11.587  0.6071  0.4721  0.2933
 8945SOL    HW138294   1.685   1.077  11.609  0.8216  0.1978 -0.7990
 8945SOL    HW238295   1.715   1.197  11.674 -2.7387  0.4198  1.3322
 8946SOL     OW38296   4.186   0.386   4.850  0.2402  0.1973 -0.2326
 8946SOL    HW138297   4.220   0.467   4.813  0.6288 -0.3184 -1.0069
 8946SOL    HW238298   4.203   0.323   4.780  2.8052  0.7018 -0.0438
 8947SOL     OW38299   3.430   4.479   6.424 -0.5305 -0.5717  0.1471
 8947SOL    HW138300   3.505   4.482   6.364 -0.9239  0.4082 -0.2847
 8947SOL    HW238301   3.380   4.546   6.379 -0.4676  0.2100  1.2322
 8948SOL     OW38302   4.594   2.199   4.415 -0.3234 -0.0154  0.5288
 8948SOL    HW138303   4.676   2.168   4.377 -1.0557  1.5741 -2.3175
 8948SOL    HW238304   4.615   2.209   4.508 -1.0005  2.1071  0.4558
 8949SOL     OW38305   3.837   0.806   7.266  0.1301  0.0231 -0.0779
 8949SOL    HW138306   3.817   0.797   7.359  1.2508  0.7880  0.2389
 8949SOL    HW238307   3.754   0.775   7.230 -1.0145  0.2681  2.3691
 8950SOL     OW38308   1.809   4.302   4.213  0.0604 -0.0957  0.0597
 8950SOL    HW138309   1.779   4.360   4.283 -0.7729 -1.0679  0.5090
 8950SOL    HW238310   1.876   4.249   4.256  1.2321  1.2641 -0.1164
 8951SOL     OW38311   3.420   1.643  14.332 -0.0343  0.4901 -0.4849
 8951SOL    HW138312   3.446   1.561  14.289 -2.2916 -0.7733  0.5712
 8951SOL    HW238313   3.337   1.674  14.298 -1.1185  1.7167  3.2761
 8952SOL     OW38314   0.535   1.439   1.030  0.1707 -0.4108 -0.1918
 8952SOL    HW138315   0.451   1.397   1.012 -0.0261 -0.5683  1.1236
 8952SOL    HW238316   0.499   1.527   1.021  3.3381  0.9223  0.3668
 8953SOL     OW38317   4.496   0.520   4.669  0.4918  0.4940 -0.1235
 8953SOL    HW138318   4.418   0.553   4.714 -0.1818 -2.4302  0.8170
 8953SOL    HW238319   4.467   0.537   4.580  0.1838  0.6599  0.0049
 8954SOL     OW38320   1.305   2.364   3.320 -0.4781  0.0101 -0.1931
 8954SOL    HW138321   1.380   2.418   3.347  0.5767 -1.4283 -0.2664
 8954SOL    HW238322   1.270   2.338   3.405 -0.6761 -0.5397 -0.4451
 8955SOL     OW38323   3.854   4.228   8.222 -0.6220  0.4977 -0.0386
 8955SOL    HW138324   3.904   4.195   8.297 -0.5376  1.4880  0.3433
 8955SOL    HW238325   3.873   4.321   8.232  2.0786 -0.0402 -0.2966
 8956SOL     OW38326   2.388   3.723   4.453 -0.2661 -0.1973 -0.8124
 8956SOL    HW138327   2.359   3.752   4.539 -0.8726 -0.1241 -1.0373
 8956SOL    HW238328   2.319   3.752   4.393 -0.4076  2.2648  0.5330
 8957SOL     OW38329   4.436   4.075  13.952 -0.1020  0.2278 -0.2045
 8957SOL    HW138330   4.353   4.031  13.968 -0.0701 -0.1402 -1.0945
 8957SOL    HW238331   4.400   4.161  13.932  0.6026  0.6593  0.3725
 8958SOL     OW38332   3.235   3.714  15.982 -0.0285 -0.2079 -0.5438
 8958SOL    HW138333   3.186   3.637  16.010  0.1551  0.1429  0.7384
 8958SOL    HW238334   3.177   3.786  16.009  0.1677 -0.3085  0.1363
 8959SOL     OW38335   1.757   3.777   6.609  0.8836  0.3584  0.4800
 8959SOL    HW138336   1.673   3.753   6.648  0.4149  0.4573 -0.4755
 8959SOL    HW238337   1.730   3.784   6.518 -0.2170 -1.3321  0.6732
 8960SOL     OW38338   2.938   1.234   7.770 -0.0504 -0.4384  1.0282
 8960SOL    HW138339   2.932   1.237   7.674  0.2427 -1.5299  0.9782
 8960SOL    HW238340   3.000   1.306   7.781  0.2381 -0.9868  2.9229
 8961SOL     OW38341   2.471   3.439   8.184  0.0460 -0.0756 -0.4667
 8961SOL    HW138342   2.527   3.516   8.179 -1.1752  0.7835 -0.7466
 8961SOL    HW238343   2.470   3.407   8.094 -0.8392 -2.0527  0.2206
 8962SOL     OW38344   2.761   3.940   9.357  0.7651 -0.2414  0.6848
 8962SOL    HW138345   2.770   3.858   9.308  0.0624 -0.1221  0.3533
 8962SOL    HW238346   2.678   3.930   9.404 -0.3544  0.3974 -1.1530
 8963SOL     OW38347   2.845   0.963  15.747 -0.0008  0.2155 -0.6182
 8963SOL    HW138348   2.793   0.883  15.751  1.5508 -0.7333  0.2786
 8963SOL    HW238349   2.776   1.025  15.771  0.5898  0.1535  1.2251
 8964SOL     OW38350   2.924   2.839  12.139  0.2601 -0.2436  0.3714
 8964SOL    HW138351   2.850   2.864  12.195  0.1453 -0.1612  0.1840
 8964SOL    HW238352   2.887   2.796  12.062 -0.3645 -0.3387  0.7224
 8965SOL     OW38353   1.817   3.239  10.014 -0.6239  0.2265  0.2326
 8965SOL    HW138354   1.784   3.285   9.936 -2.8667 -1.3497  0.2626
 8965SOL    HW238355   1.897   3.197   9.983 -0.5963  1.7680 -1.8151
 8966SOL     OW38356   2.609   1.715   1.720 -0.5763  0.4718  0.1780
 8966SOL    HW138357   2.675   1.782   1.702  0.0694 -0.0109  0.7522
 8966SOL    HW238358   2.529   1.745   1.677  0.6942  2.5068 -0.7547
 8967SOL     OW38359   0.854   0.785  12.742 -0.1514 -0.5860  0.2070
 8967SOL    HW138360   0.949   0.777  12.751 -0.0707  2.6314  2.3042
 8967SOL    HW238361   0.837   0.707  12.688  2.1732 -0.2835 -0.9651
 8968SOL     OW38362   1.943   1.285   2.788  0.2422  0.1205  0.1708
 8968SOL    HW138363   1.901   1.204   2.818 -2.2399  1.1046 -0.6631
 8968SOL    HW238364   1.874   1.346   2.813 -0.8918 -0.3783 -1.7126
 8969SOL     OW38365   1.593   3.698   2.441  0.3715 -0.1082  0.0712
 8969SOL    HW138366   1.533   3.629   2.472  0.7457 -0.8020 -0.7369
 8969SOL    HW238367   1.568   3.688   2.349  2.2770 -0.4326 -0.3954
 8970SOL     OW38368   0.560   3.822   7.681 -0.9127  0.4067  0.0967
 8970SOL    HW138369   0.577   3.733   7.712  0.1674  0.9409  1.0468
 8970SOL    HW238370   0.509   3.801   7.603 -1.4329 -0.7795  0.7695
 8971SOL     OW38371   0.820   1.323   2.058 -0.1260  0.5475  0.4413
 8971SOL    HW138372   0.804   1.234   2.027  2.0488  0.5073 -0.5777
 8971SOL    HW238373   0.893   1.308   2.117  0.8502 -1.0453 -1.1806
 8972SOL     OW38374   0.347   4.224  17.201 -0.3100  0.0038  0.0968
 8972SOL    HW138375   0.314   4.297  17.253 -1.4454 -0.6238  0.2470
 8972SOL    HW238376   0.432   4.250  17.164  0.0691 -0.4655  0.6241
 8973SOL     OW38377   3.406   3.106   4.245  1.2847 -0.5799  0.3800
 8973SOL    HW138378   3.412   3.192   4.202  1.3270 -0.2570  1.0334
 8973SOL    HW238379   3.368   3.130   4.329 -1.8598 -0.2716 -1.0976
 8974SOL     OW38380   0.824   4.264   6.283 -0.1031  0.0828 -0.3344
 8974SOL    HW138381   0.857   4.188   6.330 -0.0870  0.4916  0.3202
 8974SOL    HW238382   0.903   4.316   6.264  0.6541 -0.7284  0.5988
 8975SOL     OW38383   1.689   0.547   6.168 -0.0909 -0.5799  0.3136
 8975SOL    HW138384   1.666   0.498   6.247 -2.5334  0.3272  0.1657
 8975SOL    HW238385   1.658   0.485   6.102  1.3038 -3.1849  2.1139
 8976SOL     OW38386   2.319   2.049   3.536 -0.2133  0.7332  0.3636
 8976SOL    HW138387   2.338   1.980   3.600  1.1906  0.5907 -0.2157
 8976SOL    HW238388   2.402   2.042   3.489  0.2424  2.2904  0.9371
 8977SOL     OW38389   4.040   1.739  16.486  0.0260  0.1171 -0.0677
 8977SOL    HW138390   4.130   1.730  16.456  0.6907  2.6305  1.1863
 8977SOL    HW238391   4.015   1.651  16.458  0.3840  0.6580 -2.0887
 8978SOL     OW38392   2.710   2.855  12.300 -0.2510  0.3853  0.1537
 8978SOL    HW138393   2.647   2.926  12.287 -0.5598  0.1272  0.2614
 8978SOL    HW238394   2.761   2.878  12.378 -1.0148 -1.8177  1.2752
 8979SOL     OW38395   3.036   3.343  16.794  0.1878  0.0491  0.4732
 8979SOL    HW138396   3.050   3.433  16.824 -2.7012  1.7425 -3.3277
 8979SOL    HW238397   2.980   3.360  16.719  0.9249 -3.1022 -0.8130
 8980SOL     OW38398   0.443   2.312  17.299  0.2468  0.2083  0.0493
 8980SOL    HW138399   0.376   2.274  17.355  1.1830 -0.8683  0.4378
 8980SOL    HW238400   0.392   2.314  17.218 -0.7445  1.0372  0.6887
 8981SOL     OW38401   2.463   0.981   7.057 -0.1460  0.6963 -0.0291
 8981SOL    HW138402   2.439   0.956   7.146  3.7262  0.6354  1.0087
 8981SOL    HW238403   2.379   1.012   7.024 -0.3366 -0.2716 -0.4632
 8982SOL     OW38404   4.720   0.743   3.254  0.2075 -0.2246  0.3134
 8982SOL    HW138405   0.047   0.715   3.179  0.7493 -0.2503  0.7061
 8982SOL    HW238406   4.689   0.827   3.220  1.5617  0.4601  0.7696
 8983SOL     OW38407   0.392   2.761  13.011 -0.0824  0.0382  0.4622
 8983SOL    HW138408   0.418   2.669  13.017 -0.6890 -0.1830 -0.2604
 8983SOL    HW238409   0.298   2.757  12.992  0.1936 -2.3239 -0.4591
 8984SOL     OW38410   3.696   4.410   7.250  0.3130 -0.0651  0.0628
 8984SOL    HW138411   3.736   4.326   7.228 -2.8142 -1.7205  0.7187
 8984SOL    HW238412   3.742   4.423   7.334 -0.8767  1.3663  0.4905
 8985SOL     OW38413   4.100   2.855   2.522  0.0225 -0.7960 -0.6918
 8985SOL    HW138414   4.044   2.884   2.450  1.2140  2.9911 -0.1338
 8985SOL    HW238415   4.091   2.761   2.509 -0.9434 -0.8149  0.0420
 8986SOL     OW38416   4.631   0.839   8.370  0.1158  0.3655  0.5048
 8986SOL    HW138417   4.632   0.908   8.436  1.8109  0.7755  0.0332
 8986SOL    HW238418   4.637   0.759   8.423  0.2457 -0.8534 -1.3507
 8987SOL     OW38419   4.292   4.585  15.943 -0.2647 -0.4474 -0.2271
 8987SOL    HW138420   4.315   4.494  15.921  0.9365  0.2907 -2.0375
 8987SOL    HW238421   4.221   4.608  15.883  0.0321  2.1388  0.4095
 8988SOL     OW38422   1.565   2.112   9.926  0.1274  0.0458  0.2993
 8988SOL    HW138423   1.616   2.132  10.004 -1.3344 -0.4670  1.3681
 8988SOL    HW238424   1.624   2.080   9.858  0.8831 -0.7437  1.3332
 8989SOL     OW38425   0.972   1.098   2.911 -0.7088  0.2583  0.4006
 8989SOL    HW138426   0.934   1.157   2.845  0.4058  1.0131  0.4332
 8989SOL    HW238427   1.010   1.031   2.855  1.2622  0.5127  1.4422
 8990SOL     OW38428   4.108   1.722   3.376 -0.2876  0.1162  0.8131
 8990SOL    HW138429   4.152   1.638   3.369  0.9429  0.7084  1.3584
 8990SOL    HW238430   4.022   1.696   3.408 -0.5464  1.9431  1.6535
 8991SOL     OW38431   0.429   0.460   1.617 -0.4579 -0.2973 -0.1331
 8991SOL    HW138432   0.458   0.462   1.526  1.3111  0.1308  0.4497
 8991SOL    HW238433   0.376   0.380   1.624 -0.6014 -0.0719  1.4011
 8992SOL     OW38434   3.060   1.832  10.047 -0.1312  0.2527  0.0819
 8992SOL    HW138435   3.031   1.913  10.089  0.2125 -0.3566  1.5108
 8992SOL    HW238436   2.981   1.784  10.071 -1.1076  2.8980  2.1754
 8993SOL     OW38437   1.136   2.915  12.800  0.1523 -0.0211  0.6092
 8993SOL    HW138438   1.130   2.873  12.714 -0.4824 -1.7485  1.4891
 8993SOL    HW238439   1.058   2.970  12.806 -1.3641 -2.1246  0.2571
 8994SOL     OW38440   3.232   1.258   0.786 -0.1831  0.1856  0.1134
 8994SOL    HW138441   3.266   1.186   0.839  1.3014  0.4782 -0.4315
 8994SOL    HW238442   3.219   1.206   0.707 -0.7478  1.7925 -0.8557
 8995SOL     OW38443   3.057   0.066   6.329 -0.0685  0.6998 -0.2996
 8995SOL    HW138444   2.987   0.094   6.388  0.4588 -1.2718  1.2884
 8995SOL    HW238445   3.028   0.092   6.242  1.2102 -1.1984 -1.2928
 8996SOL     OW38446   3.588   1.218   2.936  0.6293  0.1060 -0.2047
 8996SOL    HW138447   3.650   1.154   2.901  1.1006  0.6774 -0.4083
 8996SOL    HW238448   3.518   1.227   2.871  2.1450  3.4258 -1.3544
 8997SOL     OW38449   3.884   4.497   3.299  0.6418 -1.0267  0.2655
 8997SOL    HW138450   3.857   4.498   3.391  0.2256  0.8061  0.1108
 8997SOL    HW238451   3.801   4.501   3.253  0.8639 -1.5965 -0.1824
 8998SOL     OW38452   1.543   1.979   2.601 -0.8003 -0.4912 -0.2174
 8998SOL    HW138453   1.605   1.919   2.560  1.6577  0.6345  1.9034
 8998SOL    HW238454   1.531   1.925   2.679  3.0544 -1.8634 -0.6065
 8999SOL     OW38455   0.167   3.411   4.968 -0.0016 -0.0358  0.3563
 8999SOL    HW138456   0.210   3.368   5.042  2.9137 -0.1810 -1.4420
 8999SOL    HW238457   0.136   3.493   5.005 -0.8842  0.6656 -1.9535
 9000SOL     OW38458   0.942   3.973   8.471 -0.0708  0.2017 -0.1712
 9000SOL    HW138459   0.979   3.914   8.405 -0.4348 -1.3048  0.9756
 9000SOL    HW238460   0.931   4.058   8.427  2.7103  1.2612  1.1587
 9001SOL     OW38461   1.994   1.421   9.160 -0.1336  0.0211  0.4939
 9001SOL    HW138462   2.058   1.475   9.206 -0.9665  0.5050  1.0961
 9001SOL    HW238463   1.948   1.393   9.239 -1.9609  2.5441  0.3038
 9002SOL     OW38464   3.575   0.788   8.409 -0.7564 -0.5589 -0.1184
 9002SOL    HW138465   3.554   0.877   8.380 -0.1320 -0.4620 -0.2562
 9002SOL    HW238466   3.666   0.790   8.435 -1.1617 -1.0369  1.3117
 9003SOL     OW38467   2.117   2.169  13.128  0.4613 -0.6439 -0.0148
 9003SOL    HW138468   2.068   2.143  13.050  1.7389 -3.2289  0.0530
 9003SOL    HW238469   2.146   2.084  13.162 -0.8852 -0.7248  0.9428
 9004SOL     OW38470   1.827   0.003  17.640 -0.1336 -0.2913 -0.1988
 9004SOL    HW138471   1.739   4.692  17.651 -0.2064  0.3093  1.2222
 9004SOL    HW238472   1.872   4.668  17.699  2.0745  1.0571 -0.5055
 9005SOL     OW38473   3.918   2.516   2.772  0.4570 -0.3875 -0.5094
 9005SOL    HW138474   3.871   2.507   2.690 -0.5260 -2.7009  0.2993
 9005SOL    HW238475   4.003   2.480   2.746  0.8541 -1.0687  1.7275
 9006SOL     OW38476   2.646   4.131   4.520  0.5842 -0.1980 -0.0669
 9006SOL    HW138477   2.685   4.108   4.436  1.1115  0.0003  0.1276
 9006SOL    HW238478   2.611   4.048   4.553 -0.8564  0.2545 -0.4656
 9007SOL     OW38479   4.549   1.705   6.924 -0.1416  0.7693 -0.6335
 9007SOL    HW138480   4.500   1.625   6.940  2.9631 -1.1535 -0.6811
 9007SOL    HW238481   4.540   1.751   7.007 -2.7783 -1.1461  0.1348
 9008SOL     OW38482   0.928   0.111   7.336  0.8362 -0.5682 -0.1770
 9008SOL    HW138483   0.882   0.028   7.325  0.6677 -0.5566  0.4732
 9008SOL    HW238484   1.013   0.077   7.307  0.3945 -1.3259 -0.5975
 9009SOL     OW38485   3.714   1.911  15.546  0.3246 -0.1371  0.6359
 9009SOL    HW138486   3.665   1.951  15.618 -0.2190 -0.5916  0.5208
 9009SOL    HW238487   3.728   1.982  15.483 -3.2507 -0.4339 -0.4706
 9010SOL     OW38488   3.687   2.151   5.020 -0.0722 -0.0389  0.4669
 9010SOL    HW138489   3.761   2.124   5.074 -0.5912  0.1678  1.2797
 9010SOL    HW238490   3.629   2.187   5.087  3.0158  0.7217  2.7395
 9011SOL     OW38491   2.497   1.624   3.275  0.3011 -0.2221  0.3745
 9011SOL    HW138492   2.403   1.632   3.295  0.4516  0.4396  0.8485
 9011SOL    HW238493   2.508   1.692   3.208  1.2700  0.0838  0.8454
 9012SOL     OW38494   0.620   0.349   5.466  0.0704  0.4448 -0.0879
 9012SOL    HW138495   0.599   0.407   5.540  1.0396 -0.1310  0.6443
 9012SOL    HW238496   0.707   0.372   5.435 -0.4381  1.4838 -0.7405
 9013SOL     OW38497   0.353   1.986   2.993  0.4483 -0.7219 -0.6671
 9013SOL    HW138498   0.357   2.078   3.019 -0.7878 -1.3488  1.6983
 9013SOL    HW238499   0.272   2.003   2.946  0.9166 -1.4834 -1.7502
 9014SOL     OW38500   1.545   0.372   9.779  0.3700  0.0200  0.4335
 9014SOL    HW138501   1.584   0.456   9.802  2.1212 -0.5674 -0.4223
 9014SOL    HW238502   1.511   0.353   9.867  0.3368  0.4466  0.5115
 9015SOL     OW38503   1.136   0.727   6.498 -0.1063  0.0847 -0.0036
 9015SOL    HW138504   1.176   0.720   6.411 -0.9806  1.5143 -0.5140
 9015SOL    HW238505   1.147   0.638   6.530  0.1610  0.3013  0.5024
 9016SOL     OW38506   4.063   0.171  16.708  0.1497  0.1150 -0.1856
 9016SOL    HW138507   4.126   0.160  16.637 -1.7248 -0.4882 -1.7633
 9016SOL    HW238508   4.102   0.245  16.754  0.0194  0.4156 -0.5595
 9017SOL     OW38509   3.832   2.789  14.587  0.3093 -0.0830  0.0377
 9017SOL    HW138510   3.911   2.844  14.591 -0.5529  1.0437  1.1844
 9017SOL    HW238511   3.774   2.835  14.526 -0.4129 -2.1317 -0.8310
 9018SOL     OW38512   2.016   1.249   5.392  0.0511 -0.0486  0.3751
 9018SOL    HW138513   2.065   1.186   5.341  2.1626  0.0829  2.2154
 9018SOL    HW238514   1.996   1.196   5.469 -1.1566  1.0811  0.8500
 9019SOL     OW38515   2.756   0.288  16.323  0.4309 -0.2523 -0.0655
 9019SOL    HW138516   2.661   0.279  16.314  0.5127 -1.6513  0.4452
 9019SOL    HW238517   2.768   0.268  16.416 -0.9677  2.0810  0.6232
 9020SOL     OW38518   0.125   2.166   6.323  0.2600 -1.1024 -0.0778
 9020SOL    HW138519   0.031   2.179   6.338  0.3932  1.9340 -2.0056
 9020SOL    HW238520   0.155   2.159   6.414 -0.2177  0.6238  0.2039
 9021SOL     OW38521   0.498   2.393   7.717 -0.0104 -0.0230 -0.1817
 9021SOL    HW138522   0.591   2.367   7.718  0.4331  1.6376  2.8130
 9021SOL    HW238523   0.473   2.366   7.805  2.4507  2.2182  1.2349
 9022SOL     OW38524   0.450   4.339  16.794  0.1569  0.4388 -0.8574
 9022SOL    HW138525   0.539   4.330  16.760  0.3914  1.9575 -0.6460
 9022SOL    HW238526   0.406   4.265  16.753  0.8002 -0.6940  0.5144
 9023SOL     OW38527   1.771   0.239   5.868 -0.5686 -0.0348  0.2599
 9023SOL    HW138528   1.701   0.275   5.815  0.6174  0.1942 -1.1491
 9023SOL    HW238529   1.842   0.293   5.833 -1.3954  2.0952  1.8409
 9024SOL     OW38530   0.582   0.079   3.473 -0.1991 -0.4958  0.3601
 9024SOL    HW138531   0.611   0.065   3.383  0.6351 -1.3870  0.7686
 9024SOL    HW238532   0.496   0.115   3.453 -0.4892 -2.4607 -1.9052
 9025SOL     OW38533   0.301   3.323  10.647  0.1592  0.0504 -0.8112
 9025SOL    HW138534   0.238   3.306  10.718 -0.3821 -0.3986 -1.4016
 9025SOL    HW238535   0.379   3.279  10.681 -0.7341 -0.1240  0.9988
 9026SOL     OW38536   2.113   0.302   4.623 -0.9007 -0.0712  0.0207
 9026SOL    HW138537   2.180   0.340   4.565  0.3013 -0.3241  1.2525
 9026SOL    HW238538   2.044   0.277   4.562  0.5841 -1.5846 -1.0616
 9027SOL     OW38539   4.357   3.935   2.205  0.3247  0.0987 -0.1150
 9027SOL    HW138540   4.280   3.893   2.242 -0.5888  1.1964 -0.7905
 9027SOL    HW238541   4.317   3.973   2.126 -0.1746 -3.2172 -1.4590
 9028SOL     OW38542   1.868   4.463   0.043 -0.4292  0.2164  0.1514
 9028SOL    HW138543   1.801   4.397   0.061  0.6138 -0.4355  1.6355
 9028SOL    HW238544   1.892   4.488   0.132 -1.7584  0.1123  0.5277
 9029SOL     OW38545   0.061   4.102   8.838 -0.1251  0.6430  0.0996
 9029SOL    HW138546   0.063   4.022   8.786  0.3014  1.1860 -0.7259
 9029SOL    HW238547   0.146   4.097   8.882  0.3384  1.1372 -0.7304
 9030SOL     OW38548   0.280   0.859  11.264 -0.3338 -0.7025  0.8295
 9030SOL    HW138549   0.270   0.851  11.359 -0.2524  1.9099  1.0486
 9030SOL    HW238550   0.208   0.798  11.244  0.0282 -1.2443  1.1727
 9031SOL     OW38551   2.687   1.001   4.262  0.1722  0.5352 -0.7876
 9031SOL    HW138552   2.672   0.982   4.354 -1.1585 -3.3315 -1.7979
 9031SOL    HW238553   2.667   1.094   4.251  0.6790  0.7314 -0.0320
 9032SOL     OW38554   0.806   3.683   6.408  0.2098  0.3348  0.1160
 9032SOL    HW138555   0.871   3.654   6.472 -0.1005 -0.6187 -0.0042
 9032SOL    HW238556   0.826   3.628   6.332  0.4245 -0.1277  0.5080
 9033SOL     OW38557   1.916   4.265  14.839 -0.0522 -0.4396 -0.0409
 9033SOL    HW138558   1.954   4.350  14.823  0.0373 -0.5706 -0.5077
 9033SOL    HW238559   1.826   4.269  14.807  0.1003 -0.2745 -0.4451
 9034SOL     OW38560   0.664   2.681  14.361  0.0747 -0.2017 -0.0044
 9034SOL    HW138561   0.628   2.717  14.442 -2.3746  1.6993 -1.9189
 9034SOL    HW238562   0.718   2.754  14.331 -1.5109  1.2838  0.7198
 9035SOL     OW38563   3.598   2.244   8.939  0.3135  0.0860  0.2480
 9035SOL    HW138564   3.514   2.200   8.939 -0.4121  1.4465 -0.8708
 9035SOL    HW238565   3.643   2.196   8.870 -0.0878  1.6373 -1.1096
 9036SOL     OW38566   4.120   3.541   2.883 -0.1485 -0.1042 -0.0204
 9036SOL    HW138567   4.138   3.508   2.795 -4.6801  0.0530 -0.9900
 9036SOL    HW238568   4.209   3.577   2.887 -0.9052  1.8742 -1.1319
 9037SOL     OW38569   1.890   1.920   9.303 -0.0609 -0.3792  0.3266
 9037SOL    HW138570   1.812   1.975   9.298 -1.0387 -1.2888  5.0858
 9037SOL    HW238571   1.907   1.933   9.397  0.4040 -2.0506  0.4709
 9038SOL     OW38572   1.255   2.424   6.283  0.3309  0.6626  0.0496
 9038SOL    HW138573   1.274   2.486   6.354  2.2578 -0.8055  0.8158
 9038SOL    HW238574   1.160   2.434   6.281  0.2949  0.9438  2.4187
 9039SOL     OW38575   3.706   4.385   5.949 -0.3977  0.5345  0.7047
 9039SOL    HW138576   3.764   4.389   5.874  0.5401  0.8484  1.4497
 9039SOL    HW238577   3.744   4.447   6.011  2.4825  1.6169 -2.1497
 9040SOL     OW38578   2.546   0.297  12.604 -0.0053  0.4221 -0.7391
 9040SOL    HW138579   2.636   0.324  12.623 -0.6564  1.7905  0.3732
 9040SOL    HW238580   2.543   0.317  12.510 -1.1500  0.6475 -0.6596
 9041SOL     OW38581   2.867   1.123   2.322  0.2815 -0.1897  0.4960
 9041SOL    HW138582   2.824   1.152   2.403  2.0430 -1.8728  2.0456
 9041SOL    HW238583   2.953   1.102   2.360  0.3151 -0.6247  0.1738
 9042SOL     OW38584   4.498   4.338   6.032 -0.6115  0.0159  0.2946
 9042SOL    HW138585   4.503   4.274   5.961  0.5618  1.0879 -0.5881
 9042SOL    HW238586   4.424   4.393   6.006  1.9726  3.0090 -0.7121
 9043SOL     OW38587   1.112   1.458   2.104  0.0631  0.0380  0.5126
 9043SOL    HW138588   1.190   1.404   2.115  0.0542  0.1355  1.0609
 9043SOL    HW238589   1.116   1.494   2.016 -0.3685 -0.4558  0.2889
 9044SOL     OW38590   1.024   0.629  15.387  0.3025 -0.3674 -0.0055
 9044SOL    HW138591   1.015   0.536  15.365 -0.0875  0.0971 -1.8065
 9044SOL    HW238592   1.117   0.649  15.393  0.4080 -0.6448 -0.6795
 9045SOL     OW38593   1.029   0.493   8.376 -0.0859 -0.2511 -0.2832
 9045SOL    HW138594   1.081   0.414   8.357 -3.2865 -2.2388 -0.8228
 9045SOL    HW238595   1.076   0.560   8.328  2.9819 -0.6142  2.2154
 9046SOL     OW38596   0.912   1.447   6.806 -0.2969 -0.0921 -0.1033
 9046SOL    HW138597   0.900   1.370   6.750 -1.4715  1.6669 -2.2614
 9046SOL    HW238598   0.961   1.410   6.880  0.9076 -1.0545 -1.3887
 9047SOL     OW38599   2.972   1.776   4.830 -0.5725 -0.5364  0.0907
 9047SOL    HW138600   2.938   1.763   4.741  3.6473  0.3037 -1.6269
 9047SOL    HW238601   3.034   1.844   4.807  0.0082 -0.9721  0.3874
 9048SOL     OW38602   2.448   3.869   8.187  0.2095 -0.2456 -1.0526
 9048SOL    HW138603   2.502   3.873   8.108 -0.5119  1.0014 -1.4783
 9048SOL    HW238604   2.375   3.929   8.178 -1.1418 -1.8573 -0.7699
 9049SOL     OW38605   4.110   4.635   0.901 -0.0468  0.2554  0.7332
 9049SOL    HW138606   4.204   4.651   0.904 -0.0284  0.2888 -0.1616
 9049SOL    HW238607   4.085   4.724   0.875 -1.0833 -0.7183 -1.5510
 9050SOL     OW38608   4.143   2.129   4.655 -0.3494  0.6242 -0.3180
 9050SOL    HW138609   4.211   2.061   4.658 -1.1787 -0.1347  1.1708
 9050SOL    HW238610   4.106   2.140   4.742 -0.7955  4.4391 -0.9815
 9051SOL     OW38611   2.311   3.109   2.218  0.5956  0.0420  0.1536
 9051SOL    HW138612   2.381   3.173   2.236  0.0289  0.0412  2.3135
 9051SOL    HW238613   2.252   3.170   2.174  1.9663  1.3756  0.1518
 9052SOL     OW38614   0.509   2.165   2.077  0.0416 -0.2478 -0.3364
 9052SOL    HW138615   0.485   2.086   2.126 -0.0484 -0.5205 -0.8166
 9052SOL    HW238616   0.565   2.130   2.008 -1.3915  0.5274 -1.8713
 9053SOL     OW38617   2.758   1.549   8.394  0.1490 -0.1681 -0.1222
 9053SOL    HW138618   2.727   1.635   8.423  3.5886  0.5189  1.4636
 9053SOL    HW238619   2.801   1.525   8.476  0.9490  3.1728  0.4265
 9054SOL     OW38620   1.591   4.197   3.619 -0.0449 -0.0588  0.3078
 9054SOL    HW138621   1.678   4.228   3.593 -0.5253 -1.0704 -2.4023
 9054SOL    HW238622   1.549   4.271   3.663  3.1944  1.4196  0.8857
 9055SOL     OW38623   3.664   1.216   3.444  0.5197  0.4212  0.2739
 9055SOL    HW138624   3.714   1.223   3.363  0.3716  0.0034  0.1449
 9055SOL    HW238625   3.572   1.213   3.418  0.8349 -0.8007 -0.7476
 9056SOL     OW38626   3.546   3.617   4.581  0.5695 -0.0744 -0.3737
 9056SOL    HW138627   3.616   3.650   4.524 -2.0111 -1.9811 -4.6313
 9056SOL    HW238628   3.547   3.683   4.650  2.3138 -1.7623  1.2556
 9057SOL     OW38629   4.366   0.605   3.347 -0.1839  0.2314  0.2052
 9057SOL    HW138630   4.308   0.673   3.382 -0.2965  1.3980 -2.2545
 9057SOL    HW238631   4.313   0.570   3.275  2.1457 -4.8084  0.9053
 9058SOL     OW38632   2.123   2.853  14.655  1.0033 -0.1242  0.1787
 9058SOL    HW138633   2.201   2.829  14.704  1.2032  1.4681  0.6169
 9058SOL    HW238634   2.113   2.771  14.606  1.5733 -0.6701  0.9628
 9059SOL     OW38635   2.470   1.276  15.728 -0.2676  0.1446 -0.6958
 9059SOL    HW138636   2.514   1.295  15.645  0.7016  1.6878  0.1851
 9059SOL    HW238637   2.477   1.364  15.765  1.1537 -0.4178  0.3765
 9060SOL     OW38638   3.120   0.189   4.986 -0.0607 -0.5569  0.0757
 9060SOL    HW138639   3.067   0.126   4.937 -1.8634 -0.9489  2.5932
 9060SOL    HW238640   3.196   0.135   5.009  1.4677  1.6537  0.2698
 9061SOL     OW38641   4.001   2.373   9.825  0.0190 -0.5173  0.4211
 9061SOL    HW138642   3.907   2.375   9.810  0.1955  2.8982 -0.3212
 9061SOL    HW238643   4.007   2.465   9.850  3.1370 -0.5433 -0.1863
 9062SOL     OW38644   1.755   2.288   3.961  0.1417  0.2706 -0.2042
 9062SOL    HW138645   1.686   2.273   4.025  2.4464  1.1033  2.4869
 9062SOL    HW238646   1.747   2.216   3.897 -1.0271 -0.1867  0.4616
 9063SOL     OW38647   1.878   4.138  16.135 -0.0809 -0.1987 -0.0039
 9063SOL    HW138648   1.946   4.161  16.071  0.1631 -0.3996  0.1860
 9063SOL    HW238649   1.906   4.047  16.139 -1.2711 -0.5321  0.5071
 9064SOL     OW38650   0.939   0.268   7.544  0.2570  0.1975  0.1777
 9064SOL    HW138651   0.939   0.209   7.468  1.9644  0.1090  0.2297
 9064SOL    HW238652   0.962   0.352   7.503 -0.9327  0.1773 -0.5290
 9065SOL     OW38653   4.051   0.503   7.643 -0.3120 -0.1423  0.0682
 9065SOL    HW138654   4.005   0.419   7.651  0.7446 -0.5552  1.6759
 9065SOL    HW238655   4.068   0.519   7.550 -0.5431 -0.7525 -0.0849
 9066SOL     OW38656   3.974   2.319   9.156 -0.0986  0.2237  0.7386
 9066SOL    HW138657   4.046   2.258   9.170 -0.8170 -0.7320  0.2489
 9066SOL    HW238658   3.902   2.257   9.143  1.0191 -0.5231 -1.8871
 9067SOL     OW38659   3.593   2.021   3.869 -0.5177  0.1578  0.1104
 9067SOL    HW138660   3.513   1.981   3.903 -0.5906 -0.6719 -1.0428
 9067SOL    HW238661   3.617   1.953   3.806 -0.2895  0.0826  0.2800
 9068SOL     OW38662   3.483   4.366   0.675 -0.2932 -0.2796 -0.7456
 9068SOL    HW138663   3.527   4.451   0.682 -1.0216 -0.0796  1.4096
 9068SOL    HW238664   3.540   4.328   0.742 -1.0205  0.8013  0.5052
 9069SOL     OW38665   4.051   2.074   9.097  0.2020 -0.2693  0.3358
 9069SOL    HW138666   3.972   2.029   9.068  0.8709 -0.1247 -1.7228
 9069SOL    HW238667   4.107   1.999   9.118 -1.6103 -1.8209 -0.2958
 9070SOL     OW38668   2.658   0.802   3.616 -0.4807  0.4296 -0.5029
 9070SOL    HW138669   2.712   0.722   3.617  0.7264  1.2342 -2.4011
 9070SOL    HW238670   2.697   0.850   3.544  0.8112 -2.0572 -1.4783
 9071SOL     OW38671   3.195   0.733   6.935  0.5870 -0.5922 -0.0036
 9071SOL    HW138672   3.143   0.709   6.859  0.4135 -3.3830  0.9944
 9071SOL    HW238673   3.121   0.767   6.987 -0.3666 -0.3294 -1.5486
 9072SOL     OW38674   2.332   1.289   5.546 -0.6296  0.2959 -0.7838
 9072SOL    HW138675   2.374   1.279   5.461  0.3071  0.1325 -0.3013
 9072SOL    HW238676   2.280   1.369   5.536  0.1990  0.7369 -1.5077
 9073SOL     OW38677   1.881   3.624   4.459  0.7113 -0.2406  0.0671
 9073SOL    HW138678   1.857   3.538   4.494  3.2131 -0.2824  1.6524
 9073SOL    HW238679   1.918   3.596   4.375  1.3879 -0.6673  0.5105
 9074SOL     OW38680   2.316   1.802  10.965 -0.3199  0.2576 -0.5472
 9074SOL    HW138681   2.388   1.814  10.902  1.7620 -2.0360  1.4111
 9074SOL    HW238682   2.307   1.881  11.018 -0.5354  0.1419 -0.4131
 9075SOL     OW38683   0.976   3.287   6.325 -0.0144 -0.3940 -0.4178
 9075SOL    HW138684   1.049   3.225   6.332 -2.0224 -2.8064 -0.5396
 9075SOL    HW238685   0.943   3.289   6.415 -0.0117 -0.4903 -0.4146
 9076SOL     OW38686   2.803   3.113   7.702 -0.3285  0.7615 -0.1056
 9076SOL    HW138687   2.887   3.086   7.665 -0.3772  1.2768 -0.5901
 9076SOL    HW238688   2.832   3.154   7.784  0.4634  0.0720 -0.0407
 9077SOL     OW38689   3.685   0.393  16.866  0.1718  0.1230 -0.0537
 9077SOL    HW138690   3.718   0.327  16.806  1.3960 -0.0627  0.8263
 9077SOL    HW238691   3.760   0.452  16.877 -0.2384  0.8770 -1.2677
 9078SOL     OW38692   2.827   1.672   2.159 -0.3377  0.0896 -0.1883
 9078SOL    HW138693   2.858   1.616   2.088 -0.5933  2.0428 -1.8167
 9078SOL    HW238694   2.737   1.638   2.156 -0.2146 -0.0057 -2.4446
 9079SOL     OW38695   0.283   0.400   6.927 -0.7438  0.0102 -0.2028
 9079SOL    HW138696   0.200   0.375   6.887  0.9049 -2.9334 -1.8331
 9079SOL    HW238697   0.351   0.354   6.878 -1.1844 -1.2135  0.3358
 9080SOL     OW38698   2.560   2.692   3.800 -0.1312 -0.3795 -0.3273
 9080SOL    HW138699   2.561   2.785   3.822  2.7260  0.1586 -2.7027
 9080SOL    HW238700   2.470   2.662   3.808  0.0462 -0.7136  0.4880
 9081SOL     OW38701   3.186   3.828   4.822 -0.4762 -0.3391  0.4722
 9081SOL    HW138702   3.236   3.897   4.779 -0.4219  0.0993  1.2527
 9081SOL    HW238703   3.243   3.753   4.838 -0.5805 -1.1118 -2.6361
 9082SOL     OW38704   0.400   3.776   5.166  0.3295  0.8017 -0.5275
 9082SOL    HW138705   0.312   3.815   5.165 -1.0395 -2.2761  3.0792
 9082SOL    HW238706   0.401   3.751   5.073 -0.3164  3.3617 -1.2468
 9083SOL     OW38707   2.088   0.173   8.786  0.5111  0.0993  0.0004
 9083SOL    HW138708   2.027   0.157   8.858  0.6109 -0.4161 -0.0288
 9083SOL    HW238709   2.029   0.162   8.712  0.8136 -0.1655 -0.2017
 9084SOL     OW38710   3.854   0.020   5.090  0.0555  0.2360 -0.0077
 9084SOL    HW138711   3.884   0.111   5.086 -1.9022  0.7861 -1.9451
 9084SOL    HW238712   3.833   0.004   4.998 -0.6280 -0.0107  0.1906
 9085SOL     OW38713   0.726   4.076  17.473  0.0283  0.2382 -0.2000
 9085SOL    HW138714   0.740   4.152  17.416  0.6775  0.4252  0.2094
 9085SOL    HW238715   0.805   4.069  17.526  1.4506 -1.2174 -2.5202
 9086SOL     OW38716   4.376   1.096  12.321  0.1471 -0.7408 -0.0384
 9086SOL    HW138717   4.445   1.060  12.266  0.2879 -0.6830  0.1010
 9086SOL    HW238718   4.339   1.159  12.260  2.1771  0.8816  0.3928
 9087SOL     OW38719   0.801   0.422   1.690  0.0033  0.3171  0.3597
 9087SOL    HW138720   0.893   0.397   1.694 -0.1067 -0.6188 -2.4836
 9087SOL    HW238721   0.768   0.385   1.608 -1.1170 -1.8154  1.7438
 9088SOL     OW38722   2.698   0.688   0.116 -0.3786  0.8619  0.1501
 9088SOL    HW138723   2.771   0.669   0.056  0.1769  0.4827  0.9368
 9088SOL    HW238724   2.639   0.733   0.057  0.1096  0.0738 -0.9548
 9089SOL     OW38725   2.103   3.527   4.274 -0.4075  0.2598 -0.0095
 9089SOL    HW138726   2.133   3.530   4.183  0.5114  1.0795  0.3238
 9089SOL    HW238727   2.182   3.490   4.315  0.2840  1.6646 -0.0746
 9090SOL     OW38728   2.628   1.301  11.692  0.3763 -0.2625 -0.1870
 9090SOL    HW138729   2.562   1.304  11.623  0.6654  0.9000 -0.4141
 9090SOL    HW238730   2.706   1.273  11.644  1.4112  3.5881 -0.7705
 9091SOL     OW38731   4.361   2.411   4.545  0.0049 -0.1573  0.0583
 9091SOL    HW138732   4.384   2.403   4.453 -0.2176 -0.7009  0.0542
 9091SOL    HW238733   4.280   2.361   4.556 -0.0756 -0.3359 -1.3161
 9092SOL     OW38734   2.923   2.876  15.226 -0.0496  0.4421 -0.1023
 9092SOL    HW138735   2.847   2.910  15.273  0.9878 -0.1266  2.0005
 9092SOL    HW238736   2.923   2.781  15.238  0.3307  0.3430 -0.8604
 9093SOL     OW38737   4.076   0.900   7.491 -0.3396  0.1582 -0.4998
 9093SOL    HW138738   4.080   0.918   7.585  0.3726  0.4742 -0.5933
 9093SOL    HW238739   3.991   0.855   7.493 -0.7369  0.9165 -0.6656
 9094SOL     OW38740   3.461   1.570   5.450 -0.3454  0.2486 -0.2286
 9094SOL    HW138741   3.532   1.572   5.386 -0.3189  2.4898 -0.1148
 9094SOL    HW238742   3.495   1.502   5.509  0.8622  0.3216 -0.8549
 9095SOL     OW38743   2.619   2.236   0.375  0.6178  0.3639 -0.0817
 9095SOL    HW138744   2.638   2.147   0.404  1.4617  0.6428  0.2160
 9095SOL    HW238745   2.607   2.212   0.283 -0.9685 -0.1645  0.2787
 9096SOL     OW38746   0.285   3.714   4.942 -0.1345  0.4056 -0.2902
 9096SOL    HW138747   0.241   3.749   4.865 -1.6162 -0.8692 -0.0306
 9096SOL    HW238748   0.213   3.674   4.991  0.7253 -3.1347 -1.8655
 9097SOL     OW38749   2.720   2.188  12.082  0.1897 -0.1445 -0.0079
 9097SOL    HW138750   2.700   2.103  12.044  1.7174 -1.2930  1.7779
 9097SOL    HW238751   2.639   2.213  12.125 -0.1576  0.5327 -1.0535
 9098SOL     OW38752   3.551   3.274   6.603 -0.3258 -0.3277 -0.5435
 9098SOL    HW138753   3.558   3.192   6.651 -1.6166  0.9211  1.7338
 9098SOL    HW238754   3.460   3.300   6.618  0.5459  0.5401  3.1428
 9099SOL     OW38755   3.748   1.453  15.729 -0.0632  0.1565 -0.3010
 9099SOL    HW138756   3.831   1.408  15.738 -1.4320 -1.6995  3.2325
 9099SOL    HW238757   3.770   1.501  15.650 -0.9385  0.1277 -0.5672
 9100SOL     OW38758   4.255   4.584   0.235  0.3650 -0.4381 -0.5319
 9100SOL    HW138759   4.266   4.546   0.148 -1.8816 -1.0361 -0.5401
 9100SOL    HW238760   4.231   4.673   0.208  1.5411  0.0896  0.1365
 9101SOL     OW38761   3.814   2.656  17.206 -0.0081  0.8621  0.4362
 9101SOL    HW138762   3.830   2.640  17.299  1.3093 -0.9763 -0.1109
 9101SOL    HW238763   3.738   2.600  17.197  0.5388 -0.2552  2.7848
 9102SOL     OW38764   1.761   4.265   2.864  0.0726 -0.0942  0.6376
 9102SOL    HW138765   1.816   4.272   2.942  0.5102 -0.6149  0.3746
 9102SOL    HW238766   1.688   4.321   2.891 -0.9112 -1.5890  1.1342
 9103SOL     OW38767   3.924   3.192   7.452 -0.2329 -0.1228  0.0804
 9103SOL    HW138768   3.976   3.140   7.514 -0.5311 -0.2882  0.1903
 9103SOL    HW238769   3.969   3.277   7.450  0.3575 -0.4371 -0.2012
 9104SOL     OW38770   3.977   3.959   6.741  0.5941 -0.1678  0.7349
 9104SOL    HW138771   3.911   4.025   6.719 -1.4780 -1.7486  2.2582
 9104SOL    HW238772   3.928   3.879   6.757  1.5278 -0.3828  2.4597
 9105SOL     OW38773   2.526   3.829   9.767  0.0788  0.4589  0.3625
 9105SOL    HW138774   2.604   3.785   9.800 -0.6272 -0.6816  0.5290
 9105SOL    HW238775   2.561   3.858   9.683 -2.2585 -0.1547 -0.8222
 9106SOL     OW38776   2.320   0.866   7.488  0.2733 -0.1646 -0.3277
 9106SOL    HW138777   2.259   0.937   7.507  0.3205 -0.5653  1.3138
 9106SOL    HW238778   2.307   0.851   7.395 -0.6013  2.8784 -0.6806
 9107SOL     OW38779   1.549   0.722   2.556 -0.4613  0.6010  0.5128
 9107SOL    HW138780   1.595   0.639   2.543  0.5585  1.3295 -0.5154
 9107SOL    HW238781   1.508   0.734   2.470 -0.8385  0.9481  0.7431
 9108SOL     OW38782   3.420   0.115   1.033  0.0787 -0.1521  0.3597
 9108SOL    HW138783   3.416   0.046   0.967  0.3177  0.0331  0.1520
 9108SOL    HW238784   3.420   0.063   1.114  3.0993 -0.7243 -0.0088
 9109SOL     OW38785   4.686   0.857   6.383  0.3626 -0.0640  0.1398
 9109SOL    HW138786   4.699   0.883   6.292  2.4900  1.8681  0.9671
 9109SOL    HW238787   4.683   0.947   6.418  1.1063 -0.0256  0.1118
 9110SOL     OW38788   2.356   4.486  16.032 -0.1041  0.4079 -0.1424
 9110SOL    HW138789   2.316   4.407  16.068  0.1665  0.8607  1.1494
 9110SOL    HW238790   2.440   4.446  16.011  0.6026  1.6198  0.4307
 9111SOL     OW38791   0.574   2.727   7.525 -0.1827 -0.0396 -0.5326
 9111SOL    HW138792   0.609   2.783   7.595 -1.3319  1.9822 -1.5620
 9111SOL    HW238793   0.505   2.787   7.495 -0.5935 -0.8516 -1.1752
 9112SOL     OW38794   3.717   4.516   8.888 -0.6741  0.2199 -0.3477
 9112SOL    HW138795   3.780   4.499   8.818 -1.0827 -1.5867 -0.2683
 9112SOL    HW238796   3.651   4.448   8.879 -1.1102  0.6610 -0.4688
 9113SOL     OW38797   3.173   3.534   7.479  0.2316 -0.0714 -0.0481
 9113SOL    HW138798   3.220   3.478   7.418 -2.1078  0.2555 -2.1321
 9113SOL    HW238799   3.091   3.484   7.487  0.5903 -0.7218 -0.4692
 9114SOL     OW38800   3.961   3.451  11.395  0.0792  0.0538 -0.3920
 9114SOL    HW138801   3.878   3.490  11.366  1.3945  2.9533 -0.3118
 9114SOL    HW238802   3.943   3.364  11.429 -2.5060  1.0696  0.8264
 9115SOL     OW38803   0.216   0.120   2.900  0.9369 -0.5673 -0.0473
 9115SOL    HW138804   0.203   0.040   2.849 -1.4759  0.0270 -0.3827
 9115SOL    HW238805   0.286   0.158   2.846  1.1534 -0.3468  0.3882
 9116SOL     OW38806   3.221   1.216   8.381  0.0785  0.3308  0.7729
 9116SOL    HW138807   3.212   1.126   8.412 -1.3913  0.5668  1.0160
 9116SOL    HW238808   3.315   1.232   8.388  0.3061  0.7420 -3.5637
 9117SOL     OW38809   1.513   0.276  10.033 -0.6308 -0.7672  0.5959
 9117SOL    HW138810   1.601   0.240  10.046 -0.3272  1.1638  4.0309
 9117SOL    HW238811   1.458   0.203  10.059  0.8577 -2.6011 -1.4720
 9118SOL     OW38812   0.242   0.212   1.006  0.0217 -0.1474 -0.1751
 9118SOL    HW138813   0.236   0.252   0.919  1.1905  1.8621  0.6742
 9118SOL    HW238814   0.323   0.161   1.007  1.9037  2.8944  1.3692
 9119SOL     OW38815   4.263   2.176   1.029 -0.6891 -0.1806 -0.1152
 9119SOL    HW138816   4.340   2.218   0.990 -0.3962  1.0910  1.8320
 9119SOL    HW238817   4.219   2.251   1.068  0.8907  1.4273 -1.3761
 9120SOL     OW38818   2.964   0.188   8.936  0.3714 -0.3704 -0.3651
 9120SOL    HW138819   2.938   0.099   8.963 -2.6797  0.8456  0.7710
 9120SOL    HW238820   3.053   0.175   8.906  1.8293  2.6295  2.6746
 9121SOL     OW38821   0.162   3.690   5.474  0.0029  0.1692  0.1070
 9121SOL    HW138822   0.093   3.644   5.522  0.6273 -0.8601  0.0136
 9121SOL    HW238823   0.112   3.737   5.408 -0.3945 -1.6542 -0.9113
 9122SOL     OW38824   1.064   1.223  16.210 -0.2667 -0.3134 -0.2199
 9122SOL    HW138825   1.050   1.131  16.191  1.0495 -0.7045  0.6971
 9122SOL    HW238826   1.115   1.259  16.137  2.3758 -3.5147  0.0457
 9123SOL     OW38827   3.661   3.095   5.584  1.0593  0.5992 -0.2770
 9123SOL    HW138828   3.687   3.074   5.674  1.9126 -1.9313 -1.1302
 9123SOL    HW238829   3.578   3.047   5.591  1.3660  0.3170  1.5700
 9124SOL     OW38830   1.042   1.197   2.513 -0.1956  0.2325  0.2545
 9124SOL    HW138831   0.950   1.201   2.540 -1.1624  0.6862 -3.0897
 9124SOL    HW238832   1.074   1.285   2.535 -1.0151  0.5602  0.1578
 9125SOL     OW38833   1.396   2.161   7.295 -0.0129  0.3344  0.4164
 9125SOL    HW138834   1.452   2.238   7.285 -1.6633  1.4160 -0.5087
 9125SOL    HW238835   1.444   2.109   7.230  0.7667 -0.2865  1.4776
 9126SOL     OW38836   1.888   4.091  11.710  0.2287  0.4281  0.7616
 9126SOL    HW138837   1.918   4.066  11.623 -1.8637  1.6160 -0.2876
 9126SOL    HW238838   1.866   4.183  11.695  0.1087  0.2030 -0.4381
 9127SOL     OW38839   0.206   0.733   6.620 -0.3463  0.1795 -0.4245
 9127SOL    HW138840   0.270   0.802   6.635 -1.6458  0.4736  3.8257
 9127SOL    HW238841   0.260   0.682   6.560 -2.7699 -1.1201 -1.4965
 9128SOL     OW38842   0.398   3.860   4.667 -0.1326  0.6023  0.2597
 9128SOL    HW138843   0.431   3.822   4.585  0.6474  3.6287 -0.8085
 9128SOL    HW238844   0.473   3.840   4.723  0.1209  0.7723 -0.0242
 9129SOL     OW38845   1.216   0.826   7.406 -0.2677  0.1289  0.2389
 9129SOL    HW138846   1.263   0.896   7.362 -0.4018 -1.7264 -2.8820
 9129SOL    HW238847   1.202   0.866   7.492 -0.1844  0.0913  0.2697
 9130SOL     OW38848   4.183   0.642   2.497  0.5692 -0.3051 -0.4348
 9130SOL    HW138849   4.245   0.576   2.528  0.7137  0.5148  1.0239
 9130SOL    HW238850   4.230   0.721   2.469  0.2101 -0.2412 -0.8625
 9131SOL     OW38851   2.773   3.960  12.739 -0.2200 -0.7174  0.3860
 9131SOL    HW138852   2.823   3.905  12.799  2.2895 -1.1160 -2.1089
 9131SOL    HW238853   2.697   3.908  12.713 -1.7107  2.5092 -1.7903
 9132SOL     OW38854   1.834   1.895   8.268 -0.1963  0.7449  0.5202
 9132SOL    HW138855   1.779   1.973   8.262 -1.2818 -0.2992 -3.3037
 9132SOL    HW238856   1.801   1.851   8.346 -0.8294 -2.1083 -1.3629
 9133SOL     OW38857   1.288   0.234   7.593 -0.0326  0.8878  0.0558
 9133SOL    HW138858   1.202   0.252   7.633 -0.8437 -0.0401 -1.2781
 9133SOL    HW238859   1.348   0.281   7.651  2.0837 -1.0035 -0.6298
 9134SOL     OW38860   1.448   1.305  14.478  0.1487 -0.6584  0.3653
 9134SOL    HW138861   1.496   1.251  14.540  2.3874  1.6318  0.6200
 9134SOL    HW238862   1.498   1.308  14.397  2.1502  2.0717  1.7264
 9135SOL     OW38863   1.003   1.141   4.368 -0.1337 -0.5693  0.0614
 9135SOL    HW138864   0.995   1.184   4.453 -1.7002  0.6869 -0.7099
 9135SOL    HW238865   0.917   1.100   4.357 -1.2136  1.5930  0.3786
 9136SOL     OW38866   3.649   1.169   1.133  0.0930 -0.0468 -0.5068
 9136SOL    HW138867   3.683   1.253   1.104  0.0371  0.1832  0.0890
 9136SOL    HW238868   3.672   1.116   1.057 -1.5446 -1.4183 -0.0524
 9137SOL     OW38869   0.658   0.192   1.873 -0.0658  0.1460  0.5425
 9137SOL    HW138870   0.699   0.272   1.841  0.5127 -0.9551 -1.4717
 9137SOL    HW238871   0.731   0.131   1.867  0.2347  0.5926 -0.3269
 9138SOL     OW38872   2.681   1.897   3.576  0.5279  0.1304 -0.1908
 9138SOL    HW138873   2.687   1.862   3.665 -2.1905  0.3353  0.0783
 9138SOL    HW238874   2.740   1.846   3.521  0.1983 -1.9992  1.4083
 9139SOL     OW38875   3.475   3.398   4.227  0.3143  0.0481  0.0488
 9139SOL    HW138876   3.545   3.411   4.290 -0.0233  1.4193  0.1319
 9139SOL    HW238877   3.522   3.384   4.145  0.0280  2.3053 -0.5020
 9140SOL     OW38878   1.442   1.330   3.147 -0.0022 -0.1680 -0.1769
 9140SOL    HW138879   1.473   1.403   3.093  0.6251 -1.1978 -1.2128
 9140SOL    HW238880   1.353   1.339   3.114 -0.2156  0.5616  0.5806
 9141SOL     OW38881   0.845   1.333   4.072 -0.2459  0.2902  0.3451
 9141SOL    HW138882   0.848   1.400   4.141  0.6387  1.4574 -0.8187
 9141SOL    HW238883   0.937   1.337   4.045 -0.0582 -0.6698  0.8535
 9142SOL     OW38884   0.296   3.211  12.460  0.2384  0.1958  0.5406
 9142SOL    HW138885   0.307   3.116  12.459  2.8589  0.5206 -0.8770
 9142SOL    HW238886   0.260   3.236  12.375  4.0598  0.8904 -0.9159
 9143SOL     OW38887   2.344   0.710   9.164  0.1112  0.0100 -0.3872
 9143SOL    HW138888   2.330   0.615   9.161  1.1822 -0.1216 -1.0041
 9143SOL    HW238889   2.290   0.741   9.237 -0.4633 -0.0495 -0.7944
 9144SOL     OW38890   1.365   3.170   5.341  0.0612  0.3441  0.0676
 9144SOL    HW138891   1.280   3.213   5.351  0.2205  0.5009  0.7510
 9144SOL    HW238892   1.339   3.089   5.297 -0.2211  0.0808  0.7055
 9145SOL     OW38893   4.445   3.024   4.315  0.2705 -0.1537 -0.0773
 9145SOL    HW138894   4.471   2.933   4.301  2.3347  0.3914  0.2799
 9145SOL    HW238895   4.376   3.016   4.248 -0.9400  2.1564  0.8568
 9146SOL     OW38896   1.640   3.163   0.391  0.0446  0.3797  0.3355
 9146SOL    HW138897   1.589   3.226   0.340  1.6617  1.2140 -0.2340
 9146SOL    HW238898   1.657   3.108   0.315 -0.5508  1.5074 -0.6297
 9147SOL     OW38899   4.669   2.256   5.249  0.5009 -0.2573 -0.3268
 9147SOL    HW138900   0.029   2.221   5.273 -0.2900 -0.1022  2.6334
 9147SOL    HW238901   4.634   2.269   5.337  3.2281  0.9127  0.5851
 9148SOL     OW38902   3.411   1.099   3.900 -0.0199  0.2634 -0.9251
 9148SOL    HW138903   3.448   1.158   3.966 -0.8393  1.1411 -1.2525
 9148SOL    HW238904   3.453   1.126   3.819 -0.0052  1.1130 -0.6378
 9149SOL     OW38905   1.338   0.397  12.191 -0.4083 -0.5285  0.1813
 9149SOL    HW138906   1.295   0.455  12.254 -0.3725 -2.3120  1.8561
 9149SOL    HW238907   1.300   0.442  12.116  2.1194 -0.7668 -1.2444
 9150SOL     OW38908   3.613   2.480   4.507 -0.0409 -0.3716 -0.0860
 9150SOL    HW138909   3.645   2.416   4.444 -0.2389 -0.8421  0.2855
 9150SOL    HW238910   3.663   2.554   4.475  0.3545 -1.0937 -1.1127
 9151SOL     OW38911   0.348   4.225   3.465 -0.0987 -0.2721 -0.2549
 9151SOL    HW138912   0.399   4.144   3.470  0.6647  0.2936  1.1029
 9151SOL    HW238913   0.373   4.242   3.374  1.1026 -2.8763 -0.4014
 9152SOL     OW38914   3.373   2.958   9.465  0.0986  0.3790 -0.2639
 9152SOL    HW138915   3.360   2.869   9.434  0.5743 -0.0888  0.8900
 9152SOL    HW238916   3.285   2.994   9.481  0.3899 -1.0676  4.4447
 9153SOL     OW38917   0.270   4.347   5.606 -0.3092 -0.0378 -0.4396
 9153SOL    HW138918   0.268   4.377   5.515 -2.1824 -1.5845 -0.9190
 9153SOL    HW238919   0.251   4.432   5.646  1.7103 -0.6084  1.7351
 9154SOL     OW38920   3.268   4.348   5.343  0.3408 -0.3575 -0.5539
 9154SOL    HW138921   3.282   4.272   5.399 -0.6120 -0.1946 -0.0957
 9154SOL    HW238922   3.311   4.315   5.264 -1.3218 -1.7023 -0.9057
 9155SOL     OW38923   4.643   1.003   3.205  0.3025  0.2945  0.2139
 9155SOL    HW138924   0.011   1.013   3.190  0.2417  1.5336  0.6507
 9155SOL    HW238925   4.610   1.089   3.229  1.3006  1.6042 -3.0959
 9156SOL     OW38926   1.674   0.753   3.116 -0.2052 -0.2782  0.6478
 9156SOL    HW138927   1.675   0.788   3.205  0.3371 -0.5155  0.7387
 9156SOL    HW238928   1.595   0.793   3.080 -0.3574 -0.2148  1.0496
 9157SOL     OW38929   1.018   1.595   3.850  0.1430  0.3681 -0.0465
 9157SOL    HW138930   1.095   1.605   3.794  0.6700 -0.6380  0.5078
 9157SOL    HW238931   1.029   1.646   3.931 -0.9612  2.7567 -1.3914
 9158SOL     OW38932   2.482   1.984   4.879  0.6658  0.0210 -0.4354
 9158SOL    HW138933   2.462   1.910   4.936  1.4983  0.7766  0.8162
 9158SOL    HW238934   2.577   1.992   4.886  0.4698  1.6612  0.3271
 9159SOL     OW38935   2.040   3.826   6.941  0.0256  0.1860 -0.1914
 9159SOL    HW138936   2.078   3.770   6.873 -0.1118 -3.8757  3.1001
 9159SOL    HW238937   1.945   3.815   6.945 -0.0371  0.6192 -0.4293
 9160SOL     OW38938   4.096   2.189   2.373  0.3002 -0.0911 -0.2600
 9160SOL    HW138939   4.013   2.178   2.420  1.2190 -0.5277  1.2585
 9160SOL    HW238940   4.144   2.236   2.441  0.3657 -0.4727 -0.0406
 9161SOL     OW38941   4.461   0.663   2.919  0.1514  0.4101 -0.2385
 9161SOL    HW138942   4.435   0.747   2.957  2.1727  0.9887 -0.1671
 9161SOL    HW238943   4.537   0.695   2.870 -0.0892  0.0066 -0.8772
 9162SOL     OW38944   0.401   2.162   5.287 -0.3347 -0.1867  0.2800
 9162SOL    HW138945   0.451   2.099   5.340  2.3798  1.5534 -0.1923
 9162SOL    HW238946   0.446   2.243   5.311 -1.6773  0.2156  1.3891
 9163SOL     OW38947   3.465   0.763  16.642 -0.3961 -0.4129 -0.0836
 9163SOL    HW138948   3.526   0.790  16.573 -1.3137  1.9210  0.0029
 9163SOL    HW238949   3.482   0.669  16.651 -1.0305 -0.3180  2.1781
 9164SOL     OW38950   0.011   4.543  13.905 -0.0087 -0.1132 -0.1725
 9164SOL    HW138951   4.662   4.580  13.952 -1.1088  0.0979 -2.0874
 9164SOL    HW238952   0.077   4.613  13.909 -0.3177  0.1617  0.0818
 9165SOL     OW38953   4.213   0.870   5.781  0.3036  0.1155 -0.3624
 9165SOL    HW138954   4.163   0.940   5.823  3.0888  1.1416  1.2675
 9165SOL    HW238955   4.234   0.916   5.699  2.4976 -3.0356 -1.5784
 9166SOL     OW38956   3.130   0.563   6.360  0.2196  0.0841 -0.5210
 9166SOL    HW138957   3.051   0.559   6.413  0.4786 -1.7731 -0.2831
 9166SOL    HW238958   3.194   0.594   6.424  0.2480 -0.2474 -0.3924
 9167SOL     OW38959   0.569   0.202   8.055  0.2277 -0.9571  0.1322
 9167SOL    HW138960   0.524   0.284   8.072 -0.1125 -0.5690 -2.6035
 9167SOL    HW238961   0.506   0.138   8.090 -0.6672  0.3317  0.8511
 9168SOL     OW38962   4.378   3.572   7.483  0.1112 -0.1812 -0.3728
 9168SOL    HW138963   4.443   3.642   7.486  0.2043 -0.2360 -1.2886
 9168SOL    HW238964   4.360   3.562   7.577  1.7081  0.2845 -0.0098
 9169SOL     OW38965   2.997   1.169   8.195 -0.1513 -0.5914 -0.1252
 9169SOL    HW138966   2.918   1.194   8.244  0.1115 -1.0469  0.5212
 9169SOL    HW238967   3.056   1.163   8.270 -0.4574  1.3501  0.2930
 9170SOL     OW38968   0.297   2.709  17.380 -0.5490  0.0119  0.2958
 9170SOL    HW138969   0.375   2.657  17.360  1.6910  2.8766  1.5780
 9170SOL    HW238970   0.267   2.671  17.463  1.5046  0.6258  1.3363
 9171SOL     OW38971   1.688   2.347   1.952  0.0683  0.2339  0.3105
 9171SOL    HW138972   1.666   2.279   1.888  2.5309 -0.0073 -0.2687
 9171SOL    HW238973   1.759   2.393   1.907  1.0655 -0.5127  1.1154
 9172SOL     OW38974   3.164   0.703   3.989  0.1438  0.5122  0.7700
 9172SOL    HW138975   3.194   0.703   4.080  0.7178 -0.4811  0.5812
 9172SOL    HW238976   3.197   0.790   3.964  0.0215  0.1781 -0.5535
 9173SOL     OW38977   3.694   1.558   8.830  0.2733 -0.1469  0.2305
 9173SOL    HW138978   3.677   1.551   8.924  1.0245 -2.5710  0.1624
 9173SOL    HW238979   3.627   1.498   8.798  1.0314 -0.9543  0.1597
 9174SOL     OW38980   0.223   2.075   1.501 -0.0187  0.1958 -0.9108
 9174SOL    HW138981   0.261   2.056   1.415 -0.5903 -3.8274 -0.2699
 9174SOL    HW238982   0.290   2.032   1.555  0.7407  1.0313 -1.1810
 9175SOL     OW38983   1.794   0.317  10.388  0.7952 -0.5973  0.0211
 9175SOL    HW138984   1.832   0.382  10.447 -0.2188 -2.1657  2.4055
 9175SOL    HW238985   1.705   0.336  10.417  0.0660 -2.6013 -0.9066
 9176SOL     OW38986   1.652   2.706   2.062  0.0264  0.7291 -0.5037
 9176SOL    HW138987   1.635   2.627   2.112  0.6151  0.5833 -0.5287
 9176SOL    HW238988   1.570   2.755   2.065 -0.3187 -0.0599  2.4171
 9177SOL     OW38989   1.439   2.017  12.600  0.2699 -0.0340  0.3742
 9177SOL    HW138990   1.534   2.006  12.594  0.2021  0.2864 -1.4178
 9177SOL    HW238991   1.407   1.928  12.588 -0.5096  0.6813 -2.9754
 9178SOL     OW38992   4.595   4.292   2.796 -0.2537  0.2675  0.0528
 9178SOL    HW138993   4.502   4.274   2.779 -0.7450  2.6750  0.2423
 9178SOL    HW238994   4.610   4.223   2.860  1.3639 -1.4609 -2.1987
 9179SOL     OW38995   2.011   3.097  15.253  0.0698  0.4066  0.2939
 9179SOL    HW138996   1.928   3.057  15.279  1.2393 -2.1028  0.2025
 9179SOL    HW238997   2.077   3.035  15.283 -0.4942 -0.9737 -1.3297
 9180SOL     OW38998   2.946   3.885   4.118 -0.0473 -0.1057 -0.6429
 9180SOL    HW138999   3.040   3.882   4.138 -0.2540 -0.7736  0.2234
 9180SOL    HW239000   2.910   3.835   4.192 -0.5811  2.1525  0.6269
 9181SOL     OW39001   4.033   0.840   2.993  0.3623  0.1960  0.3122
 9181SOL    HW139002   3.951   0.823   3.040 -0.6607  2.5495 -0.6255
 9181SOL    HW239003   4.097   0.783   3.035 -0.4371 -1.3413 -0.5500
 9182SOL     OW39004   2.915   4.521   1.562  0.1023  0.3874 -0.0442
 9182SOL    HW139005   2.827   4.485   1.551  0.2929  0.5403 -2.0497
 9182SOL    HW239006   2.923   4.595   1.502  1.6384 -0.5419 -0.9643
 9183SOL     OW39007   1.290   1.010   3.895  0.1390  0.2199 -0.3938
 9183SOL    HW139008   1.310   1.055   3.977  0.3918  0.3877 -0.5493
 9183SOL    HW239009   1.258   1.084   3.843 -1.5551 -2.6993 -3.5137
 9184SOL     OW39010   2.688   3.926   3.953  0.7093 -0.1937 -0.0028
 9184SOL    HW139011   2.771   3.896   3.990  0.1554 -1.3580  0.2851
 9184SOL    HW239012   2.722   3.965   3.872 -1.8200  3.4471  0.7005
 9185SOL     OW39013   1.620   2.216  12.108 -0.9067  0.2455  0.7473
 9185SOL    HW139014   1.700   2.219  12.057 -1.4244  1.6692  0.0217
 9185SOL    HW239015   1.654   2.169  12.184  4.3169 -0.5709 -2.0820
 9186SOL     OW39016   4.271   3.028   8.733 -0.0791  0.2044  0.3963
 9186SOL    HW139017   4.233   2.991   8.813 -0.3174 -1.3184 -0.4239
 9186SOL    HW239018   4.208   3.021   8.662  0.8221 -3.1461 -0.0637
 9187SOL     OW39019   3.650   0.452   8.158 -0.3550 -0.2305 -0.3786
 9187SOL    HW139020   3.559   0.461   8.128  0.1582  1.6791 -1.3657
 9187SOL    HW239021   3.685   0.536   8.130  0.5267 -0.1658  0.9694
 9188SOL     OW39022   2.036   0.909   1.957  0.1145  0.4613  0.6967
 9188SOL    HW139023   1.970   0.976   1.976 -0.0967  0.3533  0.3475
 9188SOL    HW239024   2.068   0.885   2.043  1.1152 -3.5612 -0.7957
 9189SOL     OW39025   2.129   1.606   1.003  0.0373 -0.2585 -0.0680
 9189SOL    HW139026   2.106   1.639   1.090 -0.4416  0.5845 -0.5133
 9189SOL    HW239027   2.077   1.667   0.950 -0.7379 -2.0534 -1.3630
 9190SOL     OW39028   3.666   3.567   2.546 -0.4445 -0.3130  0.4121
 9190SOL    HW139029   3.666   3.511   2.468 -1.1288  1.4162 -0.8429
 9190SOL    HW239030   3.575   3.597   2.543  0.5405  2.5719 -0.8526
 9191SOL     OW39031   1.546   3.351  15.579  0.2841  0.7360 -0.1907
 9191SOL    HW139032   1.634   3.313  15.574  0.5633  1.2092  1.1055
 9191SOL    HW239033   1.527   3.330  15.670 -4.2099  2.8390 -0.6728
 9192SOL     OW39034   1.756   2.420   7.126  0.0246  0.2636  0.2739
 9192SOL    HW139035   1.810   2.388   7.054 -0.9424  0.1561 -0.4169
 9192SOL    HW239036   1.669   2.424   7.085  1.2398 -2.5194 -2.5783
 9193SOL     OW39037   2.353   0.348   5.115  0.9305 -0.3481 -0.3772
 9193SOL    HW139038   2.320   0.268   5.156  0.8644 -0.3731 -0.4825
 9193SOL    HW239039   2.345   0.323   5.023  1.7336  2.3448 -1.1842
 9194SOL     OW39040   3.286   3.708   9.685 -0.5033  0.6569  0.1059
 9194SOL    HW139041   3.222   3.770   9.720 -0.4265  1.6329 -1.4807
 9194SOL    HW239042   3.280   3.728   9.591  2.0480 -0.8041 -0.3651
 9195SOL     OW39043   2.178   3.960   5.017  0.2897 -0.0065  0.3894
 9195SOL    HW139044   2.224   3.919   5.090  1.6181 -1.2778 -1.1694
 9195SOL    HW239045   2.254   3.997   4.971  0.1997 -1.2019 -0.6888
 9196SOL     OW39046   3.932   0.836   8.697  0.0948  0.4408 -0.2061
 9196SOL    HW139047   3.988   0.797   8.629 -1.6295 -3.7768  0.8206
 9196SOL    HW239048   3.892   0.759   8.738 -2.1055  0.7891 -1.6847
 9197SOL     OW39049   1.672   1.889  12.576 -0.1916 -0.2626 -0.5653
 9197SOL    HW139050   1.635   1.836  12.646 -0.6481 -0.4900 -0.9809
 9197SOL    HW239051   1.737   1.826  12.546 -0.9366 -1.3999  0.2387
 9198SOL     OW39052   2.272   2.714  10.276  0.4885  0.3327 -0.1094
 9198SOL    HW139053   2.254   2.641  10.335 -0.3324  0.4629 -0.2028
 9198SOL    HW239054   2.337   2.764  10.325  1.0383 -1.4187  0.9170
 9199SOL     OW39055   1.406   4.516   3.093 -0.5878 -1.0454  0.0301
 9199SOL    HW139056   1.423   4.519   3.187 -1.2937 -1.7834  0.1858
 9199SOL    HW239057   1.317   4.483   3.080 -0.5033 -0.9648 -0.7346
 9200SOL     OW39058   1.981   2.543   6.649  0.2462  0.0411  0.4520
 9200SOL    HW139059   1.947   2.620   6.605 -0.2919  0.1654  1.0911
 9200SOL    HW239060   1.905   2.527   6.705 -0.4317 -1.3663 -0.8738
 9201SOL     OW39061   3.874   0.351   6.542 -0.0462  0.1733 -0.0517
 9201SOL    HW139062   3.868   0.376   6.634  0.9582 -1.4592  0.4624
 9201SOL    HW239063   3.903   0.261   6.558  2.0560  0.3760 -2.7035
 9202SOL     OW39064   1.909   4.654   7.149  0.1310 -0.1399 -0.2042
 9202SOL    HW139065   1.878   4.694   7.068 -0.2507  0.7202  0.3798
 9202SOL    HW239066   2.005   4.660   7.156  0.1521 -1.3771  0.6847
 9203SOL     OW39067   4.569   3.409  10.007  0.5828 -0.1732 -0.2361
 9203SOL    HW139068   4.628   3.483   9.991 -0.1646  0.2200 -1.2395
 9203SOL    HW239069   4.602   3.346   9.942 -1.4469 -1.1690 -0.3205
 9204SOL     OW39070   4.357   2.445   1.698 -0.6294 -0.1110  0.3366
 9204SOL    HW139071   4.317   2.408   1.619 -1.1774 -0.0095  0.5640
 9204SOL    HW239072   4.452   2.441   1.691 -0.6048 -0.3468  0.8567
 9205SOL     OW39073   3.459   4.600   1.846 -0.0022 -0.0593 -0.0505
 9205SOL    HW139074   3.497   4.626   1.762  0.2418  0.5016  0.2346
 9205SOL    HW239075   3.505   4.522   1.878  1.0732 -0.2734 -2.1172
 9206SOL     OW39076   0.051   3.668   9.414 -0.2053  0.2408 -0.0933
 9206SOL    HW139077   0.012   3.653   9.328 -1.3672 -0.9812  0.6616
 9206SOL    HW239078   0.132   3.618   9.420 -0.1508  0.4887  1.2297
 9207SOL     OW39079   1.417   4.478  12.091  0.1703  0.2882 -0.0687
 9207SOL    HW139080   1.391   4.512  12.176 -1.9822  0.8269 -0.9281
 9207SOL    HW239081   1.448   4.558  12.047  0.4842  0.7549  0.9920
 9208SOL     OW39082   3.759   2.365   7.646 -0.8579  0.4026 -0.0781
 9208SOL    HW139083   3.791   2.379   7.557 -0.4015 -0.5355 -0.0620
 9208SOL    HW239084   3.764   2.460   7.656  0.6319  0.1129  1.7331
 9209SOL     OW39085   3.897   3.041   7.205 -0.8428 -0.4481 -0.3081
 9209SOL    HW139086   3.850   2.970   7.248  1.1610 -1.4255  0.2453
 9209SOL    HW239087   3.918   3.096   7.280 -0.6225  0.4519 -1.0348
 9210SOL     OW39088   2.812   4.670   7.473 -0.2679  0.1569 -0.1280
 9210SOL    HW139089   2.877   4.630   7.531  0.4256  1.8454  0.2568
 9210SOL    HW239090   2.730   4.662   7.522 -0.1267 -0.6352 -0.0184
 9211SOL     OW39091   0.947   0.798   5.725  0.2486  0.1603  0.0740
 9211SOL    HW139092   0.959   0.706   5.750  2.0651  0.2973 -0.2637
 9211SOL    HW239093   0.902   0.779   5.643 -1.0302  1.0917  0.5549
 9212SOL     OW39094   2.153   3.906   8.728  0.2412  0.4189 -0.1612
 9212SOL    HW139095   2.201   3.947   8.799  0.4892 -0.0875 -0.0362
 9212SOL    HW239096   2.074   3.960   8.734 -0.1391 -0.2158  0.5213
 9213SOL     OW39097   3.426   1.909   3.588  0.0907 -0.1509 -0.3880
 9213SOL    HW139098   3.407   1.872   3.502  1.4820 -2.1099  0.1670
 9213SOL    HW239099   3.362   1.980   3.598 -0.9473 -1.1071 -0.1266
 9214SOL     OW39100   3.163   2.070   1.698  0.1516  0.0122  0.1348
 9214SOL    HW139101   3.180   2.149   1.647  1.0878 -0.5090 -0.3580
 9214SOL    HW239102   3.219   2.086   1.774 -0.6636 -1.5575  1.0791
 9215SOL     OW39103   1.887   1.274   7.302 -0.2081 -0.4701 -0.6358
 9215SOL    HW139104   1.812   1.214   7.303 -1.8559  1.5447 -1.9721
 9215SOL    HW239105   1.962   1.216   7.297  0.2822  0.0342  0.7483
 9216SOL     OW39106   2.025   1.635   9.842  0.6199 -0.3231  0.4483
 9216SOL    HW139107   2.074   1.563   9.881 -0.1939 -1.9572 -1.5576
 9216SOL    HW239108   1.996   1.697   9.909  0.1453  1.4495 -1.3865
 9217SOL     OW39109   0.153   0.802   9.448 -0.0401  0.4395  0.2260
 9217SOL    HW139110   0.215   0.730   9.457  0.7367  0.7432 -2.6359
 9217SOL    HW239111   0.136   0.824   9.540 -2.4926 -1.3420  0.2086
 9218SOL     OW39112   1.778   0.679   7.833 -0.5427  0.4782 -0.4203
 9218SOL    HW139113   1.721   0.749   7.800 -0.6384 -1.2853 -3.9857
 9218SOL    HW239114   1.831   0.729   7.895  0.8822  1.2774 -2.3136
 9219SOL     OW39115   2.390   2.118   2.467 -0.7471  0.4492  0.1493
 9219SOL    HW139116   2.364   2.205   2.437  3.3506  2.3986  2.2261
 9219SOL    HW239117   2.485   2.114   2.457 -1.0042  0.6565 -2.3897
 9220SOL     OW39118   0.031   1.603  14.916  0.3583  0.2655  0.0046
 9220SOL    HW139119   0.067   1.636  14.834  0.6577 -0.4635 -0.1578
 9220SOL    HW239120   4.710   1.679  14.952  3.3638  2.3005 -0.3390
 9221SOL     OW39121   2.188   2.770   6.253  0.0066  0.3991  0.0618
 9221SOL    HW139122   2.243   2.848   6.254  0.1553  0.3279 -2.4536
 9221SOL    HW239123   2.103   2.801   6.222 -0.8890 -3.2345 -1.0593
 9222SOL     OW39124   2.811   1.929   0.184  0.1736  0.8060 -0.0949
 9222SOL    HW139125   2.892   1.879   0.198  0.1841  0.6484 -0.6997
 9222SOL    HW239126   2.843   2.013   0.215 -1.2818  1.2877  0.0987
 9223SOL     OW39127   2.731   3.191   4.647  0.6688  0.6805  0.3258
 9223SOL    HW139128   2.755   3.136   4.722 -0.0102 -1.8976 -1.3423
 9223SOL    HW239129   2.751   3.283   4.665 -0.0695  1.2524 -1.7725
 9224SOL     OW39130   4.080   0.423   6.804 -0.5757 -0.3082 -0.1328
 9224SOL    HW139131   4.087   0.513   6.773  1.1093 -0.5910 -0.5438
 9224SOL    HW239132   3.987   0.409   6.786 -0.6853  0.2990 -0.0431
 9225SOL     OW39133   1.544   1.414   4.633  0.6289  0.0845  0.9438
 9225SOL    HW139134   1.532   1.319   4.632  0.4403  0.1263 -0.2335
 9225SOL    HW239135   1.618   1.433   4.576 -0.9650 -0.1690 -1.2072
 9226SOL     OW39136   3.421   1.642   8.541 -0.0100 -0.0666  0.2929
 9226SOL    HW139137   3.449   1.661   8.451 -2.2018 -2.0113 -0.7991
 9226SOL    HW239138   3.358   1.714   8.546 -0.0819 -0.0897 -0.3115
 9227SOL     OW39139   0.149   1.598   1.912  0.0336  0.0466  0.6498
 9227SOL    HW139140   0.080   1.657   1.880  0.2486  0.4082  0.8483
 9227SOL    HW239141   0.176   1.551   1.833  0.2787  1.6565 -0.2254
 9228SOL     OW39142   4.618   1.528  12.290  0.5427  0.4501  0.6815
 9228SOL    HW139143   4.669   1.454  12.322 -0.8402 -0.5155  0.6520
 9228SOL    HW239144   4.687   1.594  12.286  0.8232  0.0722 -0.6994
 9229SOL     OW39145   4.084   3.342   4.088  0.0397 -0.1711  0.5609
 9229SOL    HW139146   3.997   3.323   4.053 -0.2946 -0.9381  1.8040
 9229SOL    HW239147   4.134   3.326   4.008 -0.4237 -1.9523  0.6156
 9230SOL     OW39148   3.333   2.988  16.543  0.5034 -0.7145  0.3091
 9230SOL    HW139149   3.291   3.056  16.596 -0.1654 -1.2376  0.4621
 9230SOL    HW239150   3.298   3.002  16.455 -0.7042 -1.3089  0.6871
 9231SOL     OW39151   0.644   4.351   5.346  0.1115 -0.1716  0.1815
 9231SOL    HW139152   0.727   4.397   5.361  1.1561 -1.2086 -2.3017
 9231SOL    HW239153   0.668   4.264   5.379 -0.7781 -0.2592  0.5955
 9232SOL     OW39154   2.646   1.818  17.500 -0.1047 -0.6446  0.3773
 9232SOL    HW139155   2.597   1.783  17.426 -2.2346  1.5284  0.7739
 9232SOL    HW239156   2.629   1.750  17.565 -2.5513  1.6588  2.1502
 9233SOL     OW39157   2.058   3.002  12.872  0.2305 -0.5409  0.3077
 9233SOL    HW139158   2.081   2.965  12.787  3.1435  0.9952  0.4332
 9233SOL    HW239159   2.040   3.095  12.856 -2.0518 -1.0813 -0.1705
 9234SOL     OW39160   3.574   2.227  14.381  0.0940  0.4620 -0.3187
 9234SOL    HW139161   3.507   2.253  14.318 -2.3592 -1.6818  1.3610
 9234SOL    HW239162   3.632   2.191  14.314  0.9761 -1.5184  1.5132
 9235SOL     OW39163   3.700   3.456   5.364  0.1241  0.1238  0.1528
 9235SOL    HW139164   3.744   3.398   5.426 -0.3959 -2.0511 -1.4645
 9235SOL    HW239165   3.636   3.503   5.416 -0.3094 -0.0050 -0.2638
 9236SOL     OW39166   4.283   2.826  15.969 -0.2218  0.4147  0.2275
 9236SOL    HW139167   4.305   2.914  15.939  0.5200  0.0094 -0.4232
 9236SOL    HW239168   4.296   2.820  16.064 -2.2024 -0.5876  0.4415
 9237SOL     OW39169   2.853   1.312   6.213 -0.1224  0.8336 -0.2031
 9237SOL    HW139170   2.771   1.266   6.230 -0.1787  0.3410 -1.8224
 9237SOL    HW239171   2.834   1.328   6.120  0.7685  1.9353 -0.1972
 9238SOL     OW39172   0.546   2.660  14.112  0.2150  0.0434 -0.1039
 9238SOL    HW139173   0.546   2.569  14.082  0.3331 -0.3509  1.0598
 9238SOL    HW239174   0.592   2.649  14.195 -0.6445  0.1671  0.3931
 9239SOL     OW39175   3.430   1.570   1.115  0.1537  0.0409 -0.3328
 9239SOL    HW139176   3.354   1.536   1.161 -0.8085  1.9952 -0.4635
 9239SOL    HW239177   3.434   1.525   1.030  0.2889 -2.1206  0.8277
 9240SOL     OW39178   3.121   2.471   5.055 -0.3171 -0.3183 -0.1087
 9240SOL    HW139179   3.153   2.561   5.053 -0.4205 -0.2640  0.9615
 9240SOL    HW239180   3.030   2.494   5.034 -0.7814 -2.1766 -0.1409
 9241SOL     OW39181   3.761   3.267   8.641  0.7509 -0.0879 -0.4213
 9241SOL    HW139182   3.730   3.184   8.605 -0.8630 -0.0834  0.9534
 9241SOL    HW239183   3.805   3.244   8.722  0.5766  0.4819 -0.1668
 9242SOL     OW39184   1.647   0.199  16.977  0.0598  0.5203 -0.2924
 9242SOL    HW139185   1.580   0.181  16.911  0.1851  1.6206 -0.7111
 9242SOL    HW239186   1.594   0.250  17.038 -3.1827 -1.1736 -1.7030
 9243SOL     OW39187   0.122   3.783   4.726  0.9420 -0.4889 -0.3025
 9243SOL    HW139188   0.097   3.700   4.684  1.3489 -0.8999  0.2761
 9243SOL    HW239189   0.207   3.804   4.686  0.8217  0.3775 -0.1036
 9244SOL     OW39190   1.705   1.379   7.913  0.3585 -0.1892  0.4989
 9244SOL    HW139191   1.631   1.381   7.852  2.4746 -0.0786 -2.1040
 9244SOL    HW239192   1.663   1.361   7.997 -1.2217  0.4734 -0.1536
 9245SOL     OW39193   3.674   1.552   5.264  0.1323 -0.0561  0.6790
 9245SOL    HW139194   3.714   1.465   5.265  0.6592  0.1817  0.0541
 9245SOL    HW239195   3.722   1.591   5.190 -1.2388 -0.4999 -0.4418
 9246SOL     OW39196   2.046   2.818   0.627  0.1397  0.3168 -0.3146
 9246SOL    HW139197   2.140   2.797   0.630  0.8481  3.2759 -1.6855
 9246SOL    HW239198   2.043   2.895   0.683  0.0117  0.7442 -0.9167
 9247SOL     OW39199   4.288   0.372   1.266 -0.0598  0.5287 -0.0602
 9247SOL    HW139200   4.277   0.463   1.237  0.1798  0.6031  0.0846
 9247SOL    HW239201   4.376   0.383   1.302  0.3513 -3.2314  0.0330
 9248SOL     OW39202   1.665   0.214   9.159 -0.3139 -0.2740  0.5016
 9248SOL    HW139203   1.573   0.188   9.151 -1.2096  2.8020  0.7530
 9248SOL    HW239204   1.673   0.273   9.234 -1.4888 -0.9267  1.1346
 9249SOL     OW39205   3.374   3.917   2.537 -0.0771 -0.2739  0.0783
 9249SOL    HW139206   3.375   3.823   2.520 -0.0851 -0.2311 -0.1567
 9249SOL    HW239207   3.419   3.922   2.622  0.7778  1.5790 -0.4785
 9250SOL     OW39208   1.327   0.377   4.704  0.0444 -0.0687 -0.1591
 9250SOL    HW139209   1.323   0.351   4.612  0.6705  2.3841 -0.8867
 9250SOL    HW239210   1.422   0.372   4.718  0.2269  0.2969 -1.3121
 9251SOL     OW39211   0.769   4.679   5.453 -0.2777 -0.1059 -0.5302
 9251SOL    HW139212   0.704   4.673   5.384  1.8367 -0.6807 -2.4893
 9251SOL    HW239213   0.771   0.048   5.465  0.5806 -0.3727  1.4371
 9252SOL     OW39214   3.356   3.055   6.104  0.1020 -0.6608 -0.0404
 9252SOL    HW139215   3.302   3.077   6.028  1.3139 -1.7559 -1.2087
 9252SOL    HW239216   3.348   2.960   6.101 -1.6962 -0.4815 -1.3393
 9253SOL     OW39217   1.235   4.269   2.630  0.4554  0.1128  0.2417
 9253SOL    HW139218   1.159   4.238   2.581 -1.2323  0.9475  2.2919
 9253SOL    HW239219   1.227   4.237   2.720  1.8745  2.3989  1.1956
 9254SOL     OW39220   4.175   3.808   3.830 -0.4370  0.0699  0.1673
 9254SOL    HW139221   4.177   3.743   3.759  2.8543 -1.8453  2.0157
 9254SOL    HW239222   4.161   3.753   3.907 -1.9826 -0.3427 -0.4182
 9255SOL     OW39223   2.572   1.951   7.357 -0.3606  0.3247  0.3034
 9255SOL    HW139224   2.542   2.033   7.319 -1.7815 -0.1321  0.4470
 9255SOL    HW239225   2.547   1.972   7.447 -1.6994  0.4450 -0.0970
 9256SOL     OW39226   4.692   0.309   1.007  0.0693 -0.0716  0.4616
 9256SOL    HW139227   0.048   0.264   1.024 -0.1669 -0.6078  0.1870
 9256SOL    HW239228   0.010   0.382   0.964 -2.3702 -1.3796 -4.2616
 9257SOL     OW39229   4.016   3.916   5.726  0.1910  0.6145  0.2978
 9257SOL    HW139230   4.068   3.840   5.750  0.8884  0.7040 -0.9486
 9257SOL    HW239231   4.062   3.939   5.645 -0.2317 -1.8592 -0.6325
 9258SOL     OW39232   3.745   2.547   8.705 -0.3092  0.5563 -0.1747
 9258SOL    HW139233   3.796   2.618   8.742  0.0454 -1.1209  2.4947
 9258SOL    HW239234   3.722   2.496   8.783  0.8151  1.3382  0.6615
 9259SOL     OW39235   1.980   3.678   5.616  0.2558 -0.0041  0.2906
 9259SOL    HW139236   2.038   3.636   5.552 -0.1121  1.2230 -0.8435
 9259SOL    HW239237   2.013   3.767   5.620 -0.7444  0.4235 -0.9408
 9260SOL     OW39238   4.276   1.516   1.955 -0.1697  0.3561  0.3731
 9260SOL    HW139239   4.205   1.578   1.974 -1.1588 -0.1162 -1.8295
 9260SOL    HW239240   4.237   1.429   1.960 -0.9034  0.5078 -2.7456
 9261SOL     OW39241   0.186   2.237   6.006  0.0783 -0.0164 -0.3320
 9261SOL    HW139242   0.234   2.254   6.087  1.3273 -0.0442 -1.0620
 9261SOL    HW239243   0.255   2.230   5.940 -0.0687  0.4936 -0.5381
 9262SOL     OW39244   2.622   0.454   3.002 -1.0713 -0.3545 -0.7251
 9262SOL    HW139245   2.665   0.518   2.945 -1.7638 -0.0510 -0.9078
 9262SOL    HW239246   2.644   0.369   2.965  0.0652 -0.0675 -0.6987
 9263SOL     OW39247   0.961   1.453   3.197 -0.2134 -0.0157 -0.6445
 9263SOL    HW139248   0.968   1.537   3.242  1.3581 -0.1588 -0.6447
 9263SOL    HW239249   0.987   1.396   3.269 -1.3250  1.8282  1.2207
 9264SOL     OW39250   3.606   4.512   6.667 -0.0677  0.4412  0.2238
 9264SOL    HW139251   3.555   4.480   6.594  1.2765  3.9038 -2.2226
 9264SOL    HW239252   3.644   4.428   6.694 -0.3511 -0.7223 -3.1005
 9265SOL     OW39253   0.776   2.251   2.214  0.0531  0.2954  0.3770
 9265SOL    HW139254   0.846   2.279   2.274  0.6029  1.6790 -0.8982
 9265SOL    HW239255   0.790   2.158   2.233 -0.6557  0.5333  2.0213
 9266SOL     OW39256   4.183   3.523  16.515 -0.1942  0.1070  0.0572
 9266SOL    HW139257   4.179   3.614  16.485  0.6876  0.1294  0.0305
 9266SOL    HW239258   4.090   3.499  16.516 -0.2285  0.3360  2.3504
 9267SOL     OW39259   0.927   0.828   8.077 -0.2698  0.6900  0.0926
 9267SOL    HW139260   0.934   0.904   8.135 -1.7410 -0.2885  1.5762
 9267SOL    HW239261   1.015   0.827   8.041  0.3714 -0.8600  1.7012
 9268SOL     OW39262   0.475   4.279  15.151 -0.0739 -0.2399 -0.1261
 9268SOL    HW139263   0.387   4.255  15.122  1.0752 -1.9008 -2.3098
 9268SOL    HW239264   0.469   4.375  15.147  0.8266 -0.2584 -2.2567
 9269SOL     OW39265   1.508   2.116   3.318  0.5492 -0.0164 -0.2886
 9269SOL    HW139266   1.473   2.078   3.399 -0.8108  0.7613 -0.5235
 9269SOL    HW239267   1.477   2.206   3.322 -2.3250 -0.9793 -1.2464
 9270SOL     OW39268   3.517   0.104   5.213 -0.0932  0.6799 -0.0091
 9270SOL    HW139269   3.608   0.127   5.196  1.0056 -2.5387  1.5924
 9270SOL    HW239270   3.490   0.176   5.272  0.5783  1.2982 -0.4571
 9271SOL     OW39271   1.779   1.864   5.383  0.3901  0.2815  0.3814
 9271SOL    HW139272   1.824   1.790   5.424 -1.3828 -1.7810 -1.4167
 9271SOL    HW239273   1.832   1.932   5.424  1.7734  0.0519 -1.0326
 9272SOL     OW39274   0.939   2.613   5.535 -0.4518 -0.0563  0.3141
 9272SOL    HW139275   0.893   2.529   5.532  1.0034 -0.7330 -2.6514
 9272SOL    HW239276   1.028   2.579   5.542 -0.6788 -0.6355  0.4131
 9273SOL     OW39277   1.959   3.963   3.577  0.9642 -0.4684  0.0489
 9273SOL    HW139278   1.890   3.979   3.641  3.4302  0.3975  2.4839
 9273SOL    HW239279   2.014   3.909   3.634  3.4538  1.2139 -0.7803
 9274SOL     OW39280   1.128   2.198   8.727  0.2840 -0.6330  0.3519
 9274SOL    HW139281   1.035   2.188   8.706  0.7801  0.5161 -2.3413
 9274SOL    HW239282   1.149   2.287   8.701 -0.6492 -0.0837  1.4892
 9275SOL     OW39283   1.469   2.731  15.167  0.0929 -0.1200  0.2646
 9275SOL    HW139284   1.392   2.788  15.161 -0.0663  0.0870  4.3816
 9275SOL    HW239285   1.532   2.799  15.191 -0.5615  1.2061 -1.7979
 9276SOL     OW39286   2.652   0.496   4.060 -0.7121  0.1874  0.5137
 9276SOL    HW139287   2.711   0.558   4.016 -1.8578  1.2269  0.4596
 9276SOL    HW239288   2.593   0.468   3.990 -2.6487  0.9646  1.8515
 9277SOL     OW39289   1.609   2.780   6.204  0.0880  0.1121  0.3079
 9277SOL    HW139290   1.554   2.702   6.210 -2.7750  2.0014 -1.2790
 9277SOL    HW239291   1.550   2.835   6.151 -0.0102  1.1281  1.4584
 9278SOL     OW39292   1.149   3.658   9.923  0.0431 -0.4720  0.2060
 9278SOL    HW139293   1.174   3.742   9.883 -0.8286  0.0468  0.7524
 9278SOL    HW239294   1.134   3.682  10.014  2.3319 -0.0417  0.4775
 9279SOL     OW39295   0.879   4.269   1.405 -0.0722  0.3074 -0.4960
 9279SOL    HW139296   0.856   4.187   1.450 -0.2762  0.0234 -1.1122
 9279SOL    HW239297   0.972   4.247   1.396 -1.1476 -3.8435 -2.0423
 9280SOL     OW39298   3.348   1.332   6.834 -0.2934 -0.2309 -0.3608
 9280SOL    HW139299   3.348   1.354   6.927 -0.4712  0.3406 -0.4925
 9280SOL    HW239300   3.335   1.238   6.836 -0.7524 -0.1227  1.3200
 9281SOL     OW39301   1.780   0.990   0.061  0.7510  0.2125  0.1542
 9281SOL    HW139302   1.719   1.005   0.133 -0.1575  0.4724 -0.6722
 9281SOL    HW239303   1.845   1.055   0.088  0.2687  0.7619  0.0008
 9282SOL     OW39304   4.422   4.623   7.606 -0.3819 -0.6641 -0.1119
 9282SOL    HW139305   4.405   4.579   7.690 -0.5287 -1.9392 -0.8102
 9282SOL    HW239306   4.443   4.712   7.634 -0.2859 -0.9694  0.8022
 9283SOL     OW39307   4.210   1.871   3.153  0.1593 -0.3113 -0.0258
 9283SOL    HW139308   4.170   1.813   3.217  0.5621 -1.1193 -0.5022
 9283SOL    HW239309   4.286   1.814   3.140  1.4722  0.6997  3.1147
 9284SOL     OW39310   3.790   2.436   5.279 -0.5303  0.3033  0.1190
 9284SOL    HW139311   3.711   2.461   5.326 -1.2293 -1.8405  0.0898
 9284SOL    HW239312   3.790   2.496   5.204  0.3476 -0.8780 -0.8263
 9285SOL     OW39313   1.203   3.934   5.283 -0.0222 -0.2553 -0.7496
 9285SOL    HW139314   1.118   3.966   5.313  0.6380  0.0819  0.7797
 9285SOL    HW239315   1.267   4.003   5.303 -0.3779 -0.3743  0.8113
 9286SOL     OW39316   0.384   3.403   7.322  0.0064 -0.0848  0.1063
 9286SOL    HW139317   0.422   3.336   7.265 -1.7797 -1.0778  0.0616
 9286SOL    HW239318   0.350   3.462   7.254 -1.1662 -1.4417 -0.4694
 9287SOL     OW39319   3.146   0.167   9.460  0.1854 -0.0264  0.1797
 9287SOL    HW139320   3.186   0.086   9.428  1.0722  1.7902 -3.2976
 9287SOL    HW239321   3.218   0.226   9.438  0.7966 -0.2314  1.6147
 9288SOL     OW39322   4.071   2.261   3.426  0.0668 -0.1004 -0.4028
 9288SOL    HW139323   4.150   2.273   3.480 -0.6022 -0.1930  0.5957
 9288SOL    HW239324   4.106   2.227   3.343  2.6152  0.6817  0.3371
 9289SOL     OW39325   2.186   3.681   1.090 -0.4500 -0.7250 -0.1970
 9289SOL    HW139326   2.179   3.712   1.000  2.0647  0.1988 -0.0550
 9289SOL    HW239327   2.251   3.735   1.135 -1.0223  0.7451 -1.1384
 9290SOL     OW39328   3.341   3.973   4.657 -0.0976  0.0830  0.4291
 9290SOL    HW139329   3.322   4.066   4.673 -1.2400 -0.1193  0.2675
 9290SOL    HW239330   3.294   3.949   4.577  0.6674 -0.0596  0.0309
 9291SOL     OW39331   2.739   1.548   9.043 -0.3311  0.4403 -0.1997
 9291SOL    HW139332   2.825   1.511   9.024  0.4067  1.4498  1.1363
 9291SOL    HW239333   2.703   1.585   8.962 -0.0471 -1.0558 -1.0069
 9292SOL     OW39334   1.203   1.964   4.210 -0.3019 -0.1499 -0.5067
 9292SOL    HW139335   1.187   2.055   4.234  1.2381 -0.5701  2.1300
 9292SOL    HW239336   1.295   1.967   4.184  0.0693  0.5827  0.8968
 9293SOL     OW39337   3.914   4.716  15.087 -0.6734 -0.2777  0.0755
 9293SOL    HW139338   3.876   4.713  15.175 -1.4019  2.5640 -0.1552
 9293SOL    HW239339   3.907   4.624  15.060 -2.0144 -0.6282  1.6448
 9294SOL     OW39340   4.571   0.908  12.892  0.2327  0.0006 -0.3815
 9294SOL    HW139341   4.634   0.917  12.964 -0.7275 -2.0696  0.7181
 9294SOL    HW239342   4.497   0.952  12.934 -0.7845 -0.6504 -1.4960
 9295SOL     OW39343   1.824   1.537   6.859  0.0234 -0.3101 -0.6789
 9295SOL    HW139344   1.743   1.586   6.842  0.5640  1.0474  0.6195
 9295SOL    HW239345   1.813   1.511   6.951  1.4531  0.8974 -0.1540
 9296SOL     OW39346   4.567   1.469   7.968  0.0687  0.7469 -0.2670
 9296SOL    HW139347   4.513   1.461   8.047  0.2169 -2.1341 -0.4397
 9296SOL    HW239348   4.566   1.383   7.926 -0.4447  0.6213 -0.0043
 9297SOL     OW39349   4.086   3.342   7.147 -0.6268  0.2669 -0.3201
 9297SOL    HW139350   4.179   3.334   7.168 -1.5101 -1.4927  2.9397
 9297SOL    HW239351   4.056   3.252   7.134  2.4319 -0.8632  0.4097
 9298SOL     OW39352   3.805   1.460   7.333  0.4639  0.8098 -0.1567
 9298SOL    HW139353   3.731   1.413   7.294 -0.0136  0.3314  1.3138
 9298SOL    HW239354   3.877   1.461   7.270  0.7097 -0.1789  0.1051
 9299SOL     OW39355   3.762   0.492  17.627 -0.1232 -0.2577 -0.7911
 9299SOL    HW139356   3.677   0.475  17.587 -0.4056  1.9001 -1.1142
 9299SOL    HW239357   3.816   0.450  17.560  2.7622  0.4013  1.0683
 9300SOL     OW39358   3.498   1.611   6.388 -0.0512  0.3914  0.0134
 9300SOL    HW139359   3.420   1.598   6.443  0.3938  2.0488  1.0533
 9300SOL    HW239360   3.547   1.663   6.452 -0.8804  0.9370  0.2148
 9301SOL     OW39361   3.826   0.089   6.582 -0.2411 -0.4133  0.1643
 9301SOL    HW139362   3.788   0.073   6.495 -0.1601  0.5681 -0.0498
 9301SOL    HW239363   3.757   0.069   6.645 -0.4515  0.3206  0.1689
 9302SOL     OW39364   3.001   4.205  11.860  0.3648  0.0256  0.3271
 9302SOL    HW139365   3.012   4.117  11.824  1.6107 -0.2354  1.3517
 9302SOL    HW239366   2.957   4.185  11.943 -0.7174 -0.6912 -0.4193
 9303SOL     OW39367   1.095   3.822   5.064 -0.3184 -0.8814 -0.7386
 9303SOL    HW139368   1.144   3.853   5.140  0.5472 -1.8508 -0.8919
 9303SOL    HW239369   1.137   3.871   4.993 -0.3010 -0.6062 -0.5376
 9304SOL     OW39370   3.471   3.560   7.706 -0.0495 -0.2258 -0.4200
 9304SOL    HW139371   3.562   3.587   7.715 -0.6968  2.4497 -1.6758
 9304SOL    HW239372   3.476   3.466   7.724 -0.1103  0.2502  2.0596
 9305SOL     OW39373   3.043   1.265  16.320 -0.1574 -0.4499 -0.0873
 9305SOL    HW139374   3.046   1.311  16.404 -0.2530 -0.2200 -0.2099
 9305SOL    HW239375   3.036   1.178  16.360  1.0929 -1.3916 -1.9149
 9306SOL     OW39376   2.883   3.503  14.546 -0.4758  0.4620  0.2412
 9306SOL    HW139377   2.790   3.514  14.569 -0.9897 -4.4493  0.6143
 9306SOL    HW239378   2.867   3.461  14.461  1.9312 -0.8030  0.4209
 9307SOL     OW39379   4.529   1.935  10.463 -0.1564  0.7236  0.3137
 9307SOL    HW139380   4.529   1.950  10.368  0.2321 -1.9720 -0.1271
 9307SOL    HW239381   4.534   1.839  10.469  1.1757  0.8429  1.2105
 9308SOL     OW39382   2.303   1.002   2.922 -0.2036 -0.3703  0.0719
 9308SOL    HW139383   2.285   0.996   2.828  0.3722  0.5764 -0.0972
 9308SOL    HW239384   2.348   0.917   2.932  2.7619  1.2562  0.7005
 9309SOL     OW39385   2.165   0.797   9.552 -0.3748  0.3439 -0.0637
 9309SOL    HW139386   2.207   0.851   9.485 -2.0898 -1.7538 -2.8392
 9309SOL    HW239387   2.233   0.730   9.563  0.8484  1.7276  0.7402
 9310SOL     OW39388   0.188   3.713  12.632  0.1906  0.2146  0.5371
 9310SOL    HW139389   0.206   3.711  12.726 -2.1745  3.1593  1.0310
 9310SOL    HW239390   0.147   3.627  12.625  0.7552  0.2025 -2.4530
 9311SOL     OW39391   2.706   1.744   5.529 -0.3315 -0.2932 -0.9815
 9311SOL    HW139392   2.768   1.729   5.458  1.3875 -0.2802  0.5307
 9311SOL    HW239393   2.728   1.830   5.564  0.6327 -0.5933 -0.8375
 9312SOL     OW39394   4.677   0.144   6.928  0.2612 -0.3131  0.1481
 9312SOL    HW139395   4.692   0.231   6.965 -0.4189 -1.3743  2.9392
 9312SOL    HW239396   4.625   0.107   7.000 -0.6356  1.8309  0.6099
 9313SOL     OW39397   2.203   4.143   7.941  0.3022  0.2948 -0.5366
 9313SOL    HW139398   2.140   4.200   7.987 -0.4317  0.8735 -2.2835
 9313SOL    HW239399   2.251   4.111   8.018  1.4721  1.9504 -0.5801
 9314SOL     OW39400   1.973   0.061   3.769  0.3235 -0.8246  0.0095
 9314SOL    HW139401   1.932   4.700   3.769 -2.5102  0.5024 -0.3196
 9314SOL    HW239402   1.983   0.069   3.864 -1.0680  0.2333  0.0634
 9315SOL     OW39403   0.022   4.570   1.833 -0.4347  0.3947  0.1218
 9315SOL    HW139404   0.020   4.483   1.792 -0.5976  0.2572  0.4181
 9315SOL    HW239405   0.050   4.627   1.762 -1.0164  0.5332  0.0042
 9316SOL     OW39406   2.153   4.526   4.645 -0.0772 -0.2297 -0.5164
 9316SOL    HW139407   2.225   4.572   4.602  0.9157 -1.0601  0.2569
 9316SOL    HW239408   2.144   4.446   4.593 -1.1495  0.3920 -1.2888
 9317SOL     OW39409   0.387   0.068   0.778  0.2951  0.4149  0.0520
 9317SOL    HW139410   0.459   0.011   0.751 -0.0985  0.9325 -2.0458
 9317SOL    HW239411   0.348   0.010   0.843  1.1511  0.8130  0.9378
 9318SOL     OW39412   4.494   3.841   4.250  0.1242  0.4719  0.0321
 9318SOL    HW139413   4.515   3.780   4.178 -1.2538 -2.7756  2.3724
 9318SOL    HW239414   4.420   3.886   4.209  0.3470 -0.0252 -0.9225
 9319SOL     OW39415   4.127   0.983  10.436 -0.5696 -0.1010 -0.7385
 9319SOL    HW139416   4.119   0.986  10.340 -1.3461 -0.5356 -0.6907
 9319SOL    HW239417   4.221   0.982  10.453 -0.4817  0.7582 -1.1871
 9320SOL     OW39418   1.899   2.411   4.680 -0.0133 -0.0947  0.4575
 9320SOL    HW139419   1.949   2.388   4.601  1.4879  0.9744  1.0909
 9320SOL    HW239420   1.962   2.402   4.752 -0.2886 -3.9992  0.1880
 9321SOL     OW39421   0.728   4.483   2.503 -0.6801  0.5187  0.1224
 9321SOL    HW139422   0.667   4.513   2.435  0.2683  1.7786 -0.1839
 9321SOL    HW239423   0.742   4.392   2.477 -1.7407 -0.2313  2.1670
 9322SOL     OW39424   3.098   0.821   8.170  0.1108  0.4284 -0.0606
 9322SOL    HW139425   3.015   0.774   8.166 -0.6774  1.6223  1.9157
 9322SOL    HW239426   3.066   0.912   8.177 -0.4101  0.4771 -3.2943
 9323SOL     OW39427   1.078   3.817  17.004  0.1757 -0.0669  0.5402
 9323SOL    HW139428   1.088   3.736  16.955 -0.4833 -1.5496  2.8895
 9323SOL    HW239429   1.000   3.854  16.963  1.6515  1.5143 -0.8658
 9324SOL     OW39430   0.133   0.242  15.470 -0.4829 -0.0894 -0.0099
 9324SOL    HW139431   0.197   0.281  15.529  1.7665  0.5367 -2.8903
 9324SOL    HW239432   0.105   0.165  15.519 -1.5790  0.1414 -0.2809
 9325SOL     OW39433   3.648   2.232   2.303 -0.6085 -0.0674  0.1155
 9325SOL    HW139434   3.696   2.242   2.220  3.9002  0.7961  2.8346
 9325SOL    HW239435   3.569   2.278   2.277  0.3120  0.8104 -1.1767
 9326SOL     OW39436   3.263   1.580   4.408  0.6397 -0.1928  0.6018
 9326SOL    HW139437   3.294   1.669   4.389 -0.4534  0.8364  3.7136
 9326SOL    HW239438   3.338   1.547   4.458  0.7433 -0.1957  0.4455
 9327SOL     OW39439   3.359   1.069   2.304  0.3757 -0.1263  0.2662
 9327SOL    HW139440   3.450   1.068   2.336  0.6807  0.8838 -0.5578
 9327SOL    HW239441   3.380   1.084   2.212 -3.4861  3.2570 -0.0610
 9328SOL     OW39442   4.426   4.047   0.471 -0.3842 -0.8465  0.4331
 9328SOL    HW139443   4.353   4.097   0.434 -0.2346 -1.6811 -1.0305
 9328SOL    HW239444   4.422   4.080   0.560 -1.0150  0.1864  0.0318
 9329SOL     OW39445   1.677   1.582   5.274 -0.4125 -0.0352 -0.4068
 9329SOL    HW139446   1.737   1.512   5.250 -1.4929 -1.1686  0.1499
 9329SOL    HW239447   1.732   1.658   5.293 -1.0343  0.0561  1.0394
 9330SOL     OW39448   1.759   3.543   8.564  0.6079  0.4611 -0.0954
 9330SOL    HW139449   1.723   3.621   8.607  0.5273  0.5749 -0.3690
 9330SOL    HW239450   1.832   3.537   8.625 -0.1447  2.4655  0.9987
 9331SOL     OW39451   2.146   1.655   6.926 -0.1147  0.1607 -0.1598
 9331SOL    HW139452   2.082   1.724   6.946 -0.7582  0.1020 -1.9308
 9331SOL    HW239453   2.107   1.630   6.841  1.9281  1.2994 -1.4290
 9332SOL     OW39454   0.425   4.356   7.959 -0.1989 -0.0038  0.2758
 9332SOL    HW139455   0.487   4.285   7.941 -0.2255 -1.1392  4.6987
 9332SOL    HW239456   0.476   4.431   7.991 -1.4480  0.5499  0.9690
 9333SOL     OW39457   1.253   4.272   5.072  0.6914 -0.0920  0.3470
 9333SOL    HW139458   1.203   4.332   5.129 -0.4841 -0.9558  0.2101
 9333SOL    HW239459   1.281   4.208   5.138 -0.9472 -1.4466 -0.2969
 9334SOL     OW39460   1.065   2.530   7.829  0.3193 -0.4620 -0.4034
 9334SOL    HW139461   1.158   2.551   7.835 -0.2183  1.5737  0.9161
 9334SOL    HW239462   1.043   2.491   7.914  0.7613  0.2497  0.0367
 9335SOL     OW39463   1.179   2.699   8.202  0.6486  0.2704  0.0022
 9335SOL    HW139464   1.136   2.745   8.130 -1.7278  2.0859  2.5453
 9335SOL    HW239465   1.227   2.771   8.244  0.9727  0.3740 -0.5428
 9336SOL     OW39466   3.812   4.658   7.054  0.2504 -0.4905  0.5523
 9336SOL    HW139467   3.753   4.588   7.083 -0.6621 -0.7234 -1.8795
 9336SOL    HW239468   3.874   4.603   7.008 -1.9513 -1.3910 -1.3236
 9337SOL     OW39469   1.754   1.511   1.516 -0.2631  0.6375  0.1585
 9337SOL    HW139470   1.676   1.464   1.546  0.5407  1.0009  2.7902
 9337SOL    HW239471   1.744   1.604   1.535  1.8381  0.9849 -0.4962
 9338SOL     OW39472   1.085   0.068   8.022  0.5239  0.3209 -0.2949
 9338SOL    HW139473   1.118   0.157   8.017  0.1614  0.4818  0.1076
 9338SOL    HW239474   1.078   0.049   7.928  0.6637  0.7741 -0.3962
 9339SOL     OW39475   4.038   3.024   3.404  0.1901  0.2284  0.4322
 9339SOL    HW139476   4.048   3.013   3.309 -4.1137  0.0683 -0.0157
 9339SOL    HW239477   4.031   3.118   3.420 -2.1493  0.0119  0.6319
 9340SOL     OW39478   3.266   4.087   5.460 -0.6963 -0.2225  0.0510
 9340SOL    HW139479   3.309   4.030   5.397 -2.0672 -0.5705 -0.5626
 9340SOL    HW239480   3.305   4.066   5.545  2.0950 -0.0813 -1.1990
 9341SOL     OW39481   3.543   2.686   5.936  0.4841  0.5274 -0.2967
 9341SOL    HW139482   3.596   2.638   5.999 -0.4838 -0.3484 -0.1479
 9341SOL    HW239483   3.460   2.687   5.985 -0.7347  1.3539 -2.4035
 9342SOL     OW39484   2.505   1.303   4.831 -0.1026  0.8446 -0.2524
 9342SOL    HW139485   2.466   1.311   4.743 -3.3985  3.5656  1.4475
 9342SOL    HW239486   2.481   1.214   4.858  2.0872 -0.0528 -1.2442
 9343SOL     OW39487   1.400   1.628  10.163 -0.6188 -0.2726 -0.0058
 9343SOL    HW139488   1.357   1.648  10.079 -0.2767  1.2775  0.1801
 9343SOL    HW239489   1.493   1.620  10.141 -0.0729  0.6527  1.9846
 9344SOL     OW39490   3.440   0.804  10.200 -0.3218 -0.2300 -0.2850
 9344SOL    HW139491   3.446   0.716  10.238  0.7817  0.4119  1.0315
 9344SOL    HW239492   3.433   0.786  10.107 -3.4843  0.8448 -0.2783
 9345SOL     OW39493   0.525   3.657  15.933  0.1941 -0.1164 -0.3029
 9345SOL    HW139494   0.500   3.715  15.861 -1.0818 -0.0539  0.1856
 9345SOL    HW239495   0.568   3.726  15.984  1.5367 -0.3289 -1.1613
 9346SOL     OW39496   4.315   4.182   0.669  0.1268  0.2677  0.0758
 9346SOL    HW139497   4.288   4.265   0.707  1.4273  0.8330 -0.2204
 9346SOL    HW239498   4.245   4.122   0.643 -0.7593  0.5067  1.8849
 9347SOL     OW39499   4.347   0.346   5.067 -0.0535  0.2126 -0.0092
 9347SOL    HW139500   4.366   0.417   5.128  0.0968 -0.3436  0.5940
 9347SOL    HW239501   4.314   0.387   4.987 -1.4157 -0.3885  0.2553
 9348SOL     OW39502   3.334   0.238   7.634 -0.4005 -0.1828  0.6238
 9348SOL    HW139503   3.261   0.205   7.582 -0.8027 -0.1077  1.1361
 9348SOL    HW239504   3.295   0.319   7.668  1.7071  0.7655  0.7879
 9349SOL     OW39505   2.287   0.528   4.786 -0.0769  0.1485  0.2395
 9349SOL    HW139506   2.225   0.600   4.786 -0.4728 -0.1932  1.3195
 9349SOL    HW239507   2.221   0.463   4.811  0.6322 -0.2712  1.0731
 9350SOL     OW39508   2.898   0.649   6.147 -0.4350  0.1229  0.5385
 9350SOL    HW139509   2.839   0.581   6.117 -0.9698  1.3667 -1.2541
 9350SOL    HW239510   2.976   0.635   6.094 -0.1625  0.7202  0.7784
 9351SOL     OW39511   2.322   1.425   1.048 -0.1276  0.1529  0.3980
 9351SOL    HW139512   2.263   1.352   1.068 -0.8026  1.2995  2.5029
 9351SOL    HW239513   2.253   1.487   1.025 -1.1641 -0.9643  0.4659
 9352SOL     OW39514   4.330   2.426   5.259 -0.3259  0.1220 -0.0747
 9352SOL    HW139515   4.383   2.505   5.268 -1.3093  1.0810 -2.7413
 9352SOL    HW239516   4.336   2.398   5.167 -1.3013 -0.6224  0.0926
 9353SOL     OW39517   1.844   4.712   9.178 -0.2277 -0.3253  0.0363
 9353SOL    HW139518   1.772   0.048   9.164  1.0495  0.9288 -0.9786
 9353SOL    HW239519   1.915   0.050   9.167 -0.1351 -0.7966 -2.1543
 9354SOL     OW39520   2.876   0.946  10.075  0.2868  0.0938 -0.6286
 9354SOL    HW139521   2.877   0.913  10.165 -1.3425 -0.6318 -0.8865
 9354SOL    HW239522   2.824   1.026  10.086  3.2775  1.7139  1.8574
 9355SOL     OW39523   2.309   4.410   6.778 -0.8755 -0.0860  0.4195
 9355SOL    HW139524   2.396   4.445   6.798 -0.2107  0.4016 -3.3739
 9355SOL    HW239525   2.298   4.436   6.686  0.8209 -0.4838  0.1007
 9356SOL     OW39526   0.305   1.579   7.235  0.2171  0.2611  0.3802
 9356SOL    HW139527   0.227   1.532   7.265  0.7536 -1.0497 -0.2725
 9356SOL    HW239528   0.263   1.649   7.187  3.0085  0.0438 -2.3772
 9357SOL     OW39529   1.300   4.642   6.792  0.1859 -0.4759 -0.3028
 9357SOL    HW139530   1.282   4.673   6.881 -0.4255 -0.3121 -0.4842
 9357SOL    HW239531   1.319   4.726   6.749 -2.4430  1.1013  1.6933
 9358SOL     OW39532   3.710   2.950   1.242  0.3127  0.5168  0.5167
 9358SOL    HW139533   3.786   2.958   1.299 -0.1109  0.9726  1.0230
 9358SOL    HW239534   3.689   3.041   1.220 -0.0741  0.7281  1.7701
 9359SOL     OW39535   1.804   1.070   6.736  0.6199 -0.4349 -0.0496
 9359SOL    HW139536   1.830   1.081   6.828  0.4264  1.2214 -0.1882
 9359SOL    HW239537   1.894   1.075   6.704  0.2333 -0.0871 -1.0692
 9360SOL     OW39538   2.806   1.592   1.518 -0.2551 -0.0276  0.0587
 9360SOL    HW139539   2.743   1.657   1.550 -1.7446 -1.2292 -0.4420
 9360SOL    HW239540   2.759   1.508   1.517 -1.2361  0.4972  1.1135
 9361SOL     OW39541   0.877   0.597   3.661  0.4252  0.2096  0.0594
 9361SOL    HW139542   0.884   0.691   3.643  3.5039  0.1540  0.9379
 9361SOL    HW239543   0.782   0.583   3.670  0.5403 -0.1572  0.7585
 9362SOL     OW39544   1.511   0.788   3.387  0.2396  0.6048  0.0816
 9362SOL    HW139545   1.548   0.799   3.475  0.1692 -1.1874  0.3271
 9362SOL    HW239546   1.418   0.793   3.406  0.4534 -0.6837  1.4672
 9363SOL     OW39547   4.529   4.645  12.817 -0.3440  0.2015 -0.4120
 9363SOL    HW139548   4.576   4.566  12.842  2.7253  2.5323  1.3484
 9363SOL    HW239549   4.455   4.643  12.878  0.0660 -2.0318  0.0120
 9364SOL     OW39550   1.523   1.864   2.066  0.0563  0.0130  0.3091
 9364SOL    HW139551   1.485   1.809   1.997 -0.2188  0.8343 -0.2055
 9364SOL    HW239552   1.444   1.906   2.101  0.9733  3.3760 -1.6049
 9365SOL     OW39553   4.378   2.654   7.170  0.3127  1.2300  0.2878
 9365SOL    HW139554   4.403   2.679   7.081 -0.8088  0.1104 -0.3243
 9365SOL    HW239555   4.287   2.679   7.181 -0.1700 -0.2538 -0.3754
 9366SOL     OW39556   2.557   0.384   9.592 -0.0216 -1.1214  0.4142
 9366SOL    HW139557   2.615   0.385   9.668  2.0268 -0.4322 -1.1540
 9366SOL    HW239558   2.608   0.429   9.525 -1.0147 -1.1017 -0.3382
 9367SOL     OW39559   4.579   0.600   6.304  0.2573 -0.2909  0.4550
 9367SOL    HW139560   4.645   0.537   6.277  0.2481  0.4470 -1.2450
 9367SOL    HW239561   4.627   0.663   6.359 -0.6406  0.1861  0.6919
 9368SOL     OW39562   3.873   2.348  15.608  0.4598  0.1090  0.4180
 9368SOL    HW139563   3.834   2.328  15.693  0.2185 -2.6639 -0.3476
 9368SOL    HW239564   3.789   2.380  15.575 -0.1145 -2.0526 -0.2478
 9369SOL     OW39565   2.541   3.586  14.230 -0.0229 -0.5480  0.4539
 9369SOL    HW139566   2.533   3.493  14.249 -2.9842 -0.4959 -0.5741
 9369SOL    HW239567   2.502   3.625  14.308  0.5929  0.1540  0.4170
 9370SOL     OW39568   3.985   4.399   6.513 -0.2990  0.8971 -0.5941
 9370SOL    HW139569   3.897   4.374   6.539 -1.2348  1.0110 -3.6796
 9370SOL    HW239570   4.026   4.382   6.598 -0.9712  0.8888 -0.2764
 9371SOL     OW39571   2.979   3.090   1.191  0.2152  0.2068 -0.3038
 9371SOL    HW139572   2.886   3.073   1.207  0.0795  2.2441  1.0856
 9371SOL    HW239573   2.992   3.031   1.116 -2.7108  0.3317 -0.9011
 9372SOL     OW39574   4.629   2.952   1.609  0.1077  0.4543  0.2599
 9372SOL    HW139575   4.722   2.942   1.588 -0.7675 -5.0324 -1.0524
 9372SOL    HW239576   4.617   2.898   1.687  0.0616 -2.4151 -1.7539
 9373SOL     OW39577   4.012   2.783  12.652  0.0569  0.2233 -0.0530
 9373SOL    HW139578   4.098   2.798  12.613 -1.0099  1.6845 -1.8922
 9373SOL    HW239579   3.964   2.764  12.571 -0.5832 -2.9714  1.0932
 9374SOL     OW39580   3.453   2.262  15.683  0.0610  0.5350 -0.3526
 9374SOL    HW139581   3.511   2.277  15.758  1.8009 -1.5338 -1.2942
 9374SOL    HW239582   3.492   2.324  15.621  4.2081 -1.2597  0.4171
 9375SOL     OW39583   3.276   2.309  17.659 -0.1367 -0.4042  0.1644
 9375SOL    HW139584   3.234   2.349  17.582  1.0497 -1.4153 -1.0137
 9375SOL    HW239585   3.254   2.217  17.648  0.0865 -0.4534  0.1204
 9376SOL     OW39586   1.586   1.130   3.482 -0.4819  0.9175 -0.4157
 9376SOL    HW139587   1.664   1.107   3.432  0.4466  1.8126  0.6288
 9376SOL    HW239588   1.561   1.044   3.516 -1.5099  1.1624 -0.5363
 9377SOL     OW39589   3.417   1.098   4.284 -0.1389  0.0488 -0.4599
 9377SOL    HW139590   3.380   1.020   4.242  0.0079 -0.8047  0.9888
 9377SOL    HW239591   3.431   1.146   4.203  0.2504 -1.2944 -1.1899
 9378SOL     OW39592   3.989   2.599   8.184 -0.2941  0.1122 -0.0586
 9378SOL    HW139593   4.034   2.522   8.218  0.0341 -0.5273 -1.9484
 9378SOL    HW239594   3.974   2.570   8.094 -1.4689 -1.7340  0.7291
 9379SOL     OW39595   0.660   3.264  15.077 -0.8727  0.0814 -0.2785
 9379SOL    HW139596   0.730   3.210  15.041 -0.5431  0.8914 -0.8784
 9379SOL    HW239597   0.658   3.229  15.165  0.4638  0.2955 -0.1716
 9380SOL     OW39598   2.195   0.306  11.988  0.4565 -0.2410  0.4921
 9380SOL    HW139599   2.169   0.217  12.013 -2.5296  0.5945  0.3916
 9380SOL    HW239600   2.201   0.287  11.895  2.0106  1.6821  0.2107
 9381SOL     OW39601   2.930   4.099   8.727  0.7307 -0.1617 -0.0677
 9381SOL    HW139602   2.919   4.123   8.635 -0.3597 -1.7617 -0.3576
 9381SOL    HW239603   2.844   4.116   8.766  0.7432  0.5830 -0.3700
 9382SOL     OW39604   0.547   0.803   5.024 -0.0550  0.7894 -0.0808
 9382SOL    HW139605   0.613   0.811   4.955  0.4818  1.2033  0.4870
 9382SOL    HW239606   0.554   0.887   5.070  0.7102  0.5035  0.3223
 9383SOL     OW39607   2.871   3.028   9.278 -0.2809 -0.0391  0.0020
 9383SOL    HW139608   2.945   3.061   9.328  0.0641 -1.0564  0.1498
 9383SOL    HW239609   2.922   2.970   9.222 -0.0741  0.3336 -0.2006
 9384SOL     OW39610   3.026   3.098   7.548  0.3439  0.0710 -0.8636
 9384SOL    HW139611   3.108   3.059   7.579 -0.5402  1.1006  2.7006
 9384SOL    HW239612   3.027   3.054   7.463 -1.8957 -1.0673 -0.2893
 9385SOL     OW39613   0.575   0.246  11.524  0.4623  0.3787 -0.9838
 9385SOL    HW139614   0.481   0.250  11.540  1.0155  1.6189  1.8239
 9385SOL    HW239615   0.582   0.315  11.457 -1.7472  0.5531 -1.0128
 9386SOL     OW39616   4.001   0.416  10.906 -0.1810 -0.1846  0.2136
 9386SOL    HW139617   4.028   0.363  10.831  0.0057  0.8060 -0.4108
 9386SOL    HW239618   4.033   0.359  10.976  0.7914  0.3572  0.2016
 9387SOL     OW39619   0.989   4.032   9.470 -0.0844 -0.8067  0.5992
 9387SOL    HW139620   1.082   4.051   9.479  0.3897 -1.8362 -1.9528
 9387SOL    HW239621   0.953   4.063   9.553  0.6635  2.9904 -0.4834
 9388SOL     OW39622   2.028   2.047   6.927  0.1272 -0.0993  0.2352
 9388SOL    HW139623   2.085   2.030   7.002  0.8061 -2.9523 -0.9530
 9388SOL    HW239624   2.082   2.023   6.852 -0.9510  0.6809 -0.7857
 9389SOL     OW39625   4.179   2.763   5.791 -0.3313  0.2396  0.3556
 9389SOL    HW139626   4.222   2.691   5.745 -0.4071 -1.0856  2.3294
 9389SOL    HW239627   4.152   2.816   5.717 -1.1360 -0.8505 -0.1327
 9390SOL     OW39628   2.500   2.326  10.649  0.1670 -0.1533  0.1550
 9390SOL    HW139629   2.526   2.275  10.572  1.0539 -0.4412  0.6453
 9390SOL    HW239630   2.525   2.412  10.617 -0.4203  0.4876  1.4000
 9391SOL     OW39631   4.394   1.008   9.072  0.6285 -0.1234 -0.7206
 9391SOL    HW139632   4.368   0.966   9.154  1.9419  0.8095  0.1588
 9391SOL    HW239633   4.327   1.069   9.042 -0.1892  0.2723  1.9084
 9392SOL     OW39634   4.218   1.006   7.749 -0.2377 -0.5213 -0.5603
 9392SOL    HW139635   4.274   1.053   7.687 -2.3168  0.2851 -1.8017
 9392SOL    HW239636   4.277   0.934   7.773  0.6781  1.2655  2.4677
 9393SOL     OW39637   3.479   1.151  11.861  0.4354  0.0190  0.4916
 9393SOL    HW139638   3.406   1.130  11.919  0.4857 -1.7142 -0.0694
 9393SOL    HW239639   3.493   1.243  11.882  1.5451  0.0193 -0.2574
 9394SOL     OW39640   2.902   0.511   9.997  0.3564  0.1775 -0.6774
 9394SOL    HW139641   2.950   0.453   9.938  2.1366 -0.1793  1.1351
 9394SOL    HW239642   2.925   0.482  10.085 -2.2038  0.5445  0.1145
 9395SOL     OW39643   4.326   1.949  12.468 -0.0394 -0.4090 -0.3295
 9395SOL    HW139644   4.259   1.918  12.406  0.1747  1.0030 -1.2653
 9395SOL    HW239645   4.361   1.860  12.479 -0.9225 -0.7646 -0.3450
 9396SOL     OW39646   1.445   3.144  10.677 -0.9893  0.3109 -0.1397
 9396SOL    HW139647   1.426   3.050  10.681  0.3418 -0.0223 -1.6152
 9396SOL    HW239648   1.378   3.181  10.734 -0.1727 -1.0965  1.7369
 9397SOL     OW39649   4.601   4.076  10.639  0.2415 -0.0032  0.3690
 9397SOL    HW139650   4.533   4.126  10.683 -0.4979  0.5804 -1.4497
 9397SOL    HW239651   4.565   4.055  10.553  0.4833 -1.1015  0.5280
 9398SOL     OW39652   0.743   1.775   7.686 -0.0539  0.1759 -0.0005
 9398SOL    HW139653   0.720   1.707   7.623 -0.3474 -0.7307  1.0670
 9398SOL    HW239654   0.695   1.738   7.760  0.4981 -0.3704  0.0834
 9399SOL     OW39655   1.363   0.860   7.036 -0.0056  0.1879 -0.2675
 9399SOL    HW139656   1.425   0.822   7.099 -0.0085 -0.2319 -0.5099
 9399SOL    HW239657   1.393   0.950   7.050 -2.0454  0.9844 -1.1335
 9400SOL     OW39658   1.001   1.020  14.161 -0.6190  0.1949  0.4050
 9400SOL    HW139659   0.974   1.015  14.070 -1.7455 -3.0573  0.9361
 9400SOL    HW239660   0.920   1.050  14.202  0.9598  1.8890  2.3081
 9401SOL     OW39661   0.966   4.375   4.404  0.2495  0.5090  0.1985
 9401SOL    HW139662   0.913   4.443   4.364  0.9105  0.1714 -1.2321
 9401SOL    HW239663   1.043   4.421   4.436 -0.8775  2.8629 -0.5217
 9402SOL     OW39664   2.831   1.319   1.211 -0.4688  0.0292 -0.1420
 9402SOL    HW139665   2.763   1.254   1.193 -0.6543 -0.1808  1.3025
 9402SOL    HW239666   2.777   1.377   1.264  0.2380  0.0072  0.6008
 9403SOL     OW39667   3.458   3.055   7.394  0.2225 -0.5798 -0.0230
 9403SOL    HW139668   3.391   3.050   7.462 -0.4280 -0.1839 -0.6329
 9403SOL    HW239669   3.495   2.967   7.395 -0.6580 -0.9435  0.3346
 9404SOL     OW39670   0.077   0.324   6.732 -0.0403  0.1239 -0.4328
 9404SOL    HW139671   0.039   0.244   6.696 -0.3475  0.7596 -1.5406
 9404SOL    HW239672   0.001   0.378   6.712 -0.0959  0.6538  1.2018
 9405SOL     OW39673   0.321   3.681   4.365 -0.0757  0.8088 -0.6553
 9405SOL    HW139674   0.366   3.597   4.369 -1.2274  0.1298 -1.8272
 9405SOL    HW239675   0.232   3.645   4.369  1.3332 -2.1586  3.4977
 9406SOL     OW39676   3.310   3.443   6.387 -0.0686  0.8977  0.9383
 9406SOL    HW139677   3.303   3.357   6.347  2.2313  1.2642 -0.2960
 9406SOL    HW239678   3.383   3.475   6.333 -1.1690  0.4814 -0.7657
 9407SOL     OW39679   2.734   1.940   1.203  0.0886 -0.0537 -0.1992
 9407SOL    HW139680   2.728   1.886   1.282 -0.6481  2.7692  1.6615
 9407SOL    HW239681   2.663   2.003   1.214  0.1975 -0.2634  1.5960
 9408SOL     OW39682   2.800   0.204  11.445 -0.2688 -0.4058  0.0484
 9408SOL    HW139683   2.846   0.163  11.372 -1.2741 -1.4017 -0.0291
 9408SOL    HW239684   2.713   0.178  11.416  0.3636 -3.1095  0.5232
 9409SOL     OW39685   3.741   0.543   8.537  0.2076  0.3432  0.9403
 9409SOL    HW139686   3.768   0.612   8.477 -0.2928 -0.3417 -0.0552
 9409SOL    HW239687   3.663   0.501   8.502 -0.3086  0.1503  2.3324
 9410SOL     OW39688   0.646   0.624   6.402  0.3967 -0.7953 -0.2768
 9410SOL    HW139689   0.681   0.537   6.380 -1.4099 -1.7732  0.6825
 9410SOL    HW239690   0.694   0.641   6.483  2.7559 -1.7206 -1.4928
 9411SOL     OW39691   2.745   0.523   7.357 -0.4754  0.0863  0.5296
 9411SOL    HW139692   2.802   0.598   7.341 -0.8861  0.6589  1.7326
 9411SOL    HW239693   2.676   0.579   7.395 -1.4649 -1.2135  0.6511
 9412SOL     OW39694   4.208   3.389   3.850 -0.0323  0.3224  0.0146
 9412SOL    HW139695   4.171   3.330   3.785 -2.3183  1.9405 -0.1386
 9412SOL    HW239696   4.290   3.403   3.803 -0.7938  2.1361 -0.7718
 9413SOL     OW39697   2.722   4.642  16.228 -0.4367  0.4966 -0.6047
 9413SOL    HW139698   2.685   4.598  16.305  0.1108  0.2092 -0.5121
 9413SOL    HW239699   2.814   4.615  16.230 -0.1849  1.3841  0.0022
 9414SOL     OW39700   2.863   1.562  10.566 -0.2319  0.9145  0.2214
 9414SOL    HW139701   2.810   1.501  10.618  1.2029  0.5377  1.2372
 9414SOL    HW239702   2.863   1.641  10.621  1.8361  0.2883  1.1235
 9415SOL     OW39703   4.195   1.526  11.903 -0.3876  0.0333  0.3676
 9415SOL    HW139704   4.246   1.533  11.823 -1.6597 -0.3732 -0.4712
 9415SOL    HW239705   4.266   1.522  11.968 -1.4847 -2.5895  1.4067
 9416SOL     OW39706   0.197   1.699   5.633 -0.0849  0.2150 -0.4798
 9416SOL    HW139707   0.189   1.791   5.659  1.8270  0.2902 -0.0942
 9416SOL    HW239708   0.207   1.702   5.537 -2.0085 -0.1159 -0.6812
 9417SOL     OW39709   2.755   3.703  13.398 -0.0311 -0.1055  0.2255
 9417SOL    HW139710   2.803   3.718  13.479 -0.8124  0.3837  0.6025
 9417SOL    HW239711   2.709   3.786  13.383 -1.9852 -1.2220  0.0099
 9418SOL     OW39712   1.837   1.043   3.463  0.0630  0.2750  0.4439
 9418SOL    HW139713   1.925   1.061   3.430 -0.9226  1.3923 -1.5578
 9418SOL    HW239714   1.841   0.949   3.481 -1.8186 -0.0084 -0.6269
 9419SOL     OW39715   4.390   0.953   1.259  0.1973  0.2157  0.1971
 9419SOL    HW139716   4.447   0.886   1.295 -1.0079  0.0920  1.8778
 9419SOL    HW239717   4.418   1.033   1.303 -2.2629  1.5843 -0.6647
 9420SOL     OW39718   2.782   4.229  16.200 -0.3921 -0.0231 -0.0831
 9420SOL    HW139719   2.757   4.234  16.292  1.6072 -1.6049  0.5535
 9420SOL    HW239720   2.845   4.301  16.207 -1.6477  1.2499 -1.9301
 9421SOL     OW39721   4.110   0.021   6.783  0.1073  0.7304 -1.3150
 9421SOL    HW139722   4.097   0.114   6.803  1.6779  0.6829  0.0031
 9421SOL    HW239723   4.162   0.018   6.703  0.9390  0.5739 -0.7784
 9422SOL     OW39724   1.591   0.570  13.576  0.0100 -0.6239 -0.0953
 9422SOL    HW139725   1.681   0.586  13.607 -0.2719 -1.2768  1.0502
 9422SOL    HW239726   1.592   0.625  13.497  0.8910 -3.5388 -2.1282
 9423SOL     OW39727   1.530   2.546   6.952 -0.7306  0.3074  0.5471
 9423SOL    HW139728   1.475   2.503   7.018 -2.1185  0.4314 -0.5292
 9423SOL    HW239729   1.502   2.635   6.973  1.0727  0.8734  0.5552
 9424SOL     OW39730   3.553   1.426  14.212 -0.0857 -0.2202  0.1134
 9424SOL    HW139731   3.647   1.425  14.228  0.1372  2.4725 -0.9870
 9424SOL    HW239732   3.541   1.335  14.185  0.2033 -0.1323 -0.3129
 9425SOL     OW39733   2.060   4.464   2.579  0.1668 -0.2638 -0.3204
 9425SOL    HW139734   2.081   4.557   2.571  0.9062 -0.3345  0.6960
 9425SOL    HW239735   1.998   4.473   2.652 -0.6358  0.1270 -1.0465
 9426SOL     OW39736   1.411   3.857  14.557  0.3129 -0.4423 -0.7831
 9426SOL    HW139737   1.499   3.827  14.580 -0.2648 -2.5771 -1.3780
 9426SOL    HW239738   1.350   3.788  14.582 -0.4557  0.3368 -0.4887
 9427SOL     OW39739   0.353   4.554   2.734 -0.9209  0.5319  0.4655
 9427SOL    HW139740   0.329   4.509   2.654 -0.8797  0.8358  0.2812
 9427SOL    HW239741   0.270   4.574   2.776 -0.0956 -1.9738  3.3206
 9428SOL     OW39742   1.423   0.043   4.749 -0.3285 -0.0808 -0.1024
 9428SOL    HW139743   1.378   0.029   4.832 -2.1590 -0.1327 -1.0974
 9428SOL    HW239744   1.385   0.128   4.728 -0.9720 -0.1900  0.6201
 9429SOL     OW39745   0.712   3.817   2.507  0.3329 -0.2076  0.2847
 9429SOL    HW139746   0.694   3.772   2.589  2.1273  1.8081  1.7804
 9429SOL    HW239747   0.630   3.793   2.464  0.5898 -1.0837  0.2908
 9430SOL     OW39748   1.030   2.258   2.324 -0.0148  0.6270 -0.7886
 9430SOL    HW139749   1.120   2.235   2.302 -0.5603 -0.6176 -1.6847
 9430SOL    HW239750   1.017   2.215   2.409  0.1722  1.9384 -0.0884
 9431SOL     OW39751   3.829   2.754  11.122  0.4857  0.0567 -0.6229
 9431SOL    HW139752   3.910   2.711  11.096  0.9437 -0.2916  1.4435
 9431SOL    HW239753   3.846   2.764  11.216  0.5777 -0.6769 -0.5678
 9432SOL     OW39754   4.090   0.710  11.979 -0.1183 -0.6688  0.0453
 9432SOL    HW139755   4.126   0.686  11.893 -0.7173  0.7069 -0.5872
 9432SOL    HW239756   4.080   0.805  11.970  2.0027 -0.3676  0.8214
 9433SOL     OW39757   3.461   1.344   8.812  0.2553  0.5572 -0.1687
 9433SOL    HW139758   3.375   1.368   8.780  0.6342  0.8218 -0.9999
 9433SOL    HW239759   3.438   1.303   8.895 -0.4041  2.3132  0.5124
 9434SOL     OW39760   3.351   0.507   3.916  0.1847  0.4772  0.0128
 9434SOL    HW139761   3.366   0.482   3.825  1.1284 -0.0835  0.3252
 9434SOL    HW239762   3.297   0.585   3.906 -0.2048  0.1947 -0.0899
 9435SOL     OW39763   3.450   1.335   4.689 -0.1455 -0.8051  0.0902
 9435SOL    HW139764   3.458   1.375   4.603 -3.0976 -1.3704 -0.4525
 9435SOL    HW239765   3.354   1.329   4.695 -0.2987  0.8183 -0.8055
 9436SOL     OW39766   3.485   0.057  17.658 -0.1752 -0.0645 -0.1216
 9436SOL    HW139767   3.389   0.060  17.651 -0.1068 -0.1838 -1.1011
 9436SOL    HW239768   3.495   4.696  17.697  1.0976 -0.8156 -2.1279
 9437SOL     OW39769   2.644   1.772   6.426 -0.2001 -0.2987 -0.0015
 9437SOL    HW139770   2.579   1.766   6.356 -0.2125 -0.0245 -0.0131
 9437SOL    HW239771   2.701   1.698   6.405 -0.7102 -1.7655  3.6661
 9438SOL     OW39772   4.262   1.793   8.224 -0.3747  0.5971 -0.5773
 9438SOL    HW139773   4.229   1.708   8.194 -2.8396  0.7005  1.9494
 9438SOL    HW239774   4.214   1.794   8.306  0.3180 -0.4440 -0.1490
 9439SOL     OW39775   4.296   1.902   1.092  0.5110 -0.6849  0.4643
 9439SOL    HW139776   4.281   1.996   1.080  0.5334 -0.5807  1.2585
 9439SOL    HW239777   4.386   1.892   1.061  0.6430 -0.5955  0.8255
 9440SOL     OW39778   1.192   3.461   5.003 -0.1871 -0.0931  0.4721
 9440SOL    HW139779   1.280   3.446   4.968  1.1476  3.2187  2.4547
 9440SOL    HW239780   1.146   3.390   4.958  0.7478 -1.2408  1.2873
 9441SOL     OW39781   0.122   2.586   3.520  0.6300 -0.1738 -0.2034
 9441SOL    HW139782   0.127   2.614   3.429 -1.4127  1.1381  0.0918
 9441SOL    HW239783   0.215   2.584   3.542  0.7273  1.2471 -0.5217
 9442SOL     OW39784   2.592   3.738  15.982  0.2336 -0.1210 -0.0029
 9442SOL    HW139785   2.638   3.709  15.903 -0.2024 -3.2516  0.8912
 9442SOL    HW239786   2.660   3.794  16.020 -0.8835  0.0991  1.6744
 9443SOL     OW39787   4.516   4.006   5.388 -0.0696  0.2795 -0.7830
 9443SOL    HW139788   4.490   4.067   5.457  3.0759 -0.9471  1.5178
 9443SOL    HW239789   4.455   3.935   5.405 -0.9343  0.9967 -0.8856
 9444SOL     OW39790   0.161   0.095   8.267  0.5692 -0.1480 -0.3844
 9444SOL    HW139791   0.135   0.174   8.314  0.6558 -1.1930  1.4620
 9444SOL    HW239792   0.170   0.032   8.339  3.2962 -0.2947 -0.8501
 9445SOL     OW39793   3.524   0.292   4.306  0.4207  0.2771 -0.2495
 9445SOL    HW139794   3.475   0.221   4.265  1.3890  0.4288 -1.6984
 9445SOL    HW239795   3.569   0.329   4.229  0.6682 -1.1648 -0.8041
 9446SOL     OW39796   0.638   2.116   3.381 -0.4599  0.1535 -0.4636
 9446SOL    HW139797   0.680   2.096   3.297  1.0905 -1.9068  0.7864
 9446SOL    HW239798   0.663   2.032   3.419 -1.3869 -0.0337 -0.2696
 9447SOL     OW39799   2.632   4.692  12.722 -0.4452 -0.0669 -0.5637
 9447SOL    HW139800   2.575   4.616  12.729 -2.5631  1.6411  1.1291
 9447SOL    HW239801   2.573   0.031  12.682  0.5365 -1.1672 -3.7622
 9448SOL     OW39802   4.141   2.883   4.665  0.2282 -0.3865  1.0719
 9448SOL    HW139803   4.162   2.930   4.745 -0.5762 -1.5739  1.9931
 9448SOL    HW239804   4.230   2.885   4.629  0.8810 -1.0154  2.6756
 9449SOL     OW39805   3.809   1.424   0.630 -0.5098  0.6481 -0.3473
 9449SOL    HW139806   3.865   1.418   0.552 -2.1422 -0.1680 -1.4580
 9449SOL    HW239807   3.739   1.364   0.607  0.4787 -0.0903 -1.4335
 9450SOL     OW39808   4.651   1.030   2.720 -0.5513  0.3772 -0.7555
 9450SOL    HW139809   4.579   0.973   2.694 -0.0642 -2.0643  3.2018
 9450SOL    HW239810   4.605   1.097   2.771  0.0677  1.3741 -1.5118
 9451SOL     OW39811   1.948   2.052   3.357 -0.1621 -0.8788 -0.7278
 9451SOL    HW139812   1.899   2.065   3.275 -0.1195  2.5725 -0.2209
 9451SOL    HW239813   1.894   1.990   3.406  1.5880 -0.4574  1.7394
 9452SOL     OW39814   2.285   2.766   4.029  0.0940 -0.1994 -0.2181
 9452SOL    HW139815   2.296   2.702   3.958  0.1015  0.6776 -1.0199
 9452SOL    HW239816   2.265   2.847   3.982  1.2886  2.1693  3.3873
 9453SOL     OW39817   0.470   2.625   2.269 -0.0032 -0.4383  0.2620
 9453SOL    HW139818   0.499   2.534   2.263  1.4313 -0.1181  2.4140
 9453SOL    HW239819   0.486   2.638   2.362 -0.8790 -2.2835  0.6580
 9454SOL     OW39820   2.428   4.726   1.775  0.0447 -0.3265 -0.0414
 9454SOL    HW139821   2.417   0.049   1.857  1.7916 -0.6124  0.3681
 9454SOL    HW239822   2.522   4.720   1.758 -0.2667  0.3691 -1.9998
 9455SOL     OW39823   3.399   0.965  10.404 -0.4961  0.9501  0.2586
 9455SOL    HW139824   3.392   0.898  10.471  2.4130  1.2721  0.8413
 9455SOL    HW239825   3.434   0.914  10.331 -4.3894 -1.0326 -0.2580
 9456SOL     OW39826   0.156   3.408  10.259  0.4385  0.1491 -0.8153
 9456SOL    HW139827   0.082   3.356  10.291  0.1028  0.1586 -1.5852
 9456SOL    HW239828   0.110   3.485  10.225  2.4126  1.3944 -0.6264
 9457SOL     OW39829   0.189   3.627   5.896 -0.2347  0.0013 -0.4859
 9457SOL    HW139830   0.097   3.610   5.914 -0.1467  0.4417  0.3825
 9457SOL    HW239831   0.219   3.583   5.976 -4.2860  0.9311  1.5275
 9458SOL     OW39832   3.187   2.455   2.557 -0.1080 -0.5180 -0.0774
 9458SOL    HW139833   3.122   2.522   2.575 -0.3197 -0.9516  0.7874
 9458SOL    HW239834   3.261   2.479   2.613 -1.3460 -0.1646  1.4081
 9459SOL     OW39835   3.385   2.299   8.428  0.1617  0.3495  0.3804
 9459SOL    HW139836   3.325   2.315   8.356  0.3309 -1.0495 -0.0818
 9459SOL    HW239837   3.331   2.243   8.484  0.6770 -3.5948 -3.0599
 9460SOL     OW39838   3.510   1.283   4.082 -0.3698 -0.0563  0.1164
 9460SOL    HW139839   3.469   1.359   4.041  0.3501 -0.9980 -2.3046
 9460SOL    HW239840   3.580   1.324   4.134 -0.2626 -0.7497  0.5221
 9461SOL     OW39841   0.866   1.279   8.055  0.1694  0.4659  0.5587
 9461SOL    HW139842   0.794   1.331   8.091 -1.6526 -1.2811 -0.5778
 9461SOL    HW239843   0.825   1.199   8.023  1.1157 -1.2991  3.7388
 9462SOL     OW39844   1.424   2.849  12.464 -0.5824 -0.1510 -0.1620
 9462SOL    HW139845   1.493   2.883  12.407 -1.8960  0.4890 -1.3912
 9462SOL    HW239846   1.474   2.808  12.534  0.8377  1.3375 -0.3106
 9463SOL     OW39847   2.894   0.777  11.541  0.0626 -0.5260  0.1762
 9463SOL    HW139848   2.925   0.847  11.483  0.3167 -1.0175 -0.2714
 9463SOL    HW239849   2.803   0.805  11.536  0.6197  1.0485 -1.1867
 9464SOL     OW39850   2.183   3.459   6.513  0.5993  0.8211 -0.3529
 9464SOL    HW139851   2.215   3.401   6.581  0.7000  0.8659 -0.3612
 9464SOL    HW239852   2.155   3.533   6.566  1.5648  0.6244  0.4363
 9465SOL     OW39853   2.033   3.968   4.788 -0.2327  0.2242 -0.4223
 9465SOL    HW139854   2.085   3.964   4.869 -0.1171 -2.0214 -0.6301
 9465SOL    HW239855   1.949   3.976   4.833  0.8925  1.6698  1.4532
 9466SOL     OW39856   0.084   2.653   7.765 -0.0453  0.1919  0.2592
 9466SOL    HW139857   0.122   2.565   7.772 -0.5349 -0.0321  0.0807
 9466SOL    HW239858   0.112   2.678   7.853 -0.0762  1.1687 -0.0078
 9467SOL     OW39859   1.960   2.354   2.914  0.4718 -0.6934  0.3173
 9467SOL    HW139860   1.919   2.392   2.836  0.6163 -2.1439 -0.4576
 9467SOL    HW239861   2.029   2.419   2.930  1.1090 -1.0107 -1.1730
 9468SOL     OW39862   2.844   3.394  15.912  0.6250 -0.1893  0.6399
 9468SOL    HW139863   2.801   3.446  15.981  0.4485  0.2302  0.2092
 9468SOL    HW239864   2.799   3.309  15.922 -0.2157  0.1684 -0.1106
 9469SOL     OW39865   1.106   3.036   4.799  0.5663  0.3201  0.7913
 9469SOL    HW139866   1.059   2.975   4.742  1.3767 -1.1299  1.6841
 9469SOL    HW239867   1.160   2.973   4.847  2.7404  1.2617 -0.4237
 9470SOL     OW39868   1.382   4.626  10.637  0.5295  0.3672  0.1078
 9470SOL    HW139869   1.430   4.560  10.687 -2.7873 -2.7543 -0.8546
 9470SOL    HW239870   1.445   4.697  10.651 -0.0997  1.0203 -0.3604
 9471SOL     OW39871   4.625   0.736   5.620 -0.3368  0.4972 -0.1412
 9471SOL    HW139872   4.619   0.831   5.611  1.7788  0.5043 -1.5095
 9471SOL    HW239873   4.582   0.737   5.705  0.4646 -1.1793  0.2826
 9472SOL     OW39874   0.262   0.778   7.873 -0.8265  0.1731 -0.1578
 9472SOL    HW139875   0.232   0.768   7.783 -0.4741 -0.8534 -0.1604
 9472SOL    HW239876   0.355   0.792   7.858 -0.2808 -0.8699  2.2374
 9473SOL     OW39877   2.396   1.495   0.024  0.0398  0.1187 -0.0979
 9473SOL    HW139878   2.338   1.421   0.003  0.1582 -0.3815  1.3203
 9473SOL    HW239879   2.352   1.535   0.099 -1.0454 -0.6104 -0.3347
 9474SOL     OW39880   1.596   1.323  11.379 -0.0017  0.4212  0.3352
 9474SOL    HW139881   1.606   1.236  11.418 -0.5089  0.1559 -0.1286
 9474SOL    HW239882   1.683   1.354  11.404 -0.0680  3.0598 -2.6239
 9475SOL     OW39883   2.077   3.338   3.448  0.5815  0.2745 -0.2601
 9475SOL    HW139884   2.147   3.338   3.513  0.2540  1.4607  0.0951
 9475SOL    HW239885   2.104   3.414   3.397  0.1084  2.0231  2.0962
 9476SOL     OW39886   2.703   3.785  14.088  0.7190  0.0103  0.3739
 9476SOL    HW139887   2.642   3.840  14.040  1.1076  0.5712  0.5261
 9476SOL    HW239888   2.664   3.708  14.129  1.4191 -0.6002 -0.1002
 9477SOL     OW39889   0.643   4.080   9.161 -0.5956 -0.1469 -0.3423
 9477SOL    HW139890   0.638   4.062   9.067 -0.6921 -1.4920 -0.0776
 9477SOL    HW239891   0.648   3.990   9.192  2.1650  0.1822  0.2068
 9478SOL     OW39892   3.084   1.169   3.151 -0.2502 -0.0493  0.7899
 9478SOL    HW139893   3.171   1.161   3.112 -0.7442  0.1930 -0.3576
 9478SOL    HW239894   3.056   1.079   3.136  0.0742 -0.1536  0.8286
 9479SOL     OW39895   0.004   3.913   0.597  0.0229 -0.1092  0.1973
 9479SOL    HW139896   4.646   3.939   0.636  0.5613  0.3858  1.0131
 9479SOL    HW239897   0.070   3.937   0.662  0.3260  1.0365 -0.5120
 9480SOL     OW39898   3.087   0.250   8.435 -0.4040 -0.3654  0.0597
 9480SOL    HW139899   3.050   0.280   8.352  0.8239 -2.7877 -1.3394
 9480SOL    HW239900   3.164   0.306   8.433  0.4510 -1.5899 -0.7179
 9481SOL     OW39901   2.218   4.126   5.763 -0.2021  0.4852 -0.1209
 9481SOL    HW139902   2.299   4.160   5.726 -1.0514  1.0884 -1.4325
 9481SOL    HW239903   2.233   4.069   5.839  1.1811 -0.5917 -1.2108
 9482SOL     OW39904   4.502   1.594   2.580 -0.7124  0.6993  0.5233
 9482SOL    HW139905   4.523   1.668   2.522  1.6815 -1.4501 -1.3888
 9482SOL    HW239906   4.519   1.637   2.664  0.0227 -0.5851  1.0216
 9483SOL     OW39907   2.550   2.946   3.856  0.2767 -0.0836 -0.4190
 9483SOL    HW139908   2.578   2.997   3.932 -2.4847 -1.7965  1.7334
 9483SOL    HW239909   2.456   2.962   3.866  0.4940  1.5047 -1.0304
 9484SOL     OW39910   2.174   2.886   9.653  0.2409  0.3731  0.2032
 9484SOL    HW139911   2.250   2.916   9.704 -0.5676  0.4623  1.3472
 9484SOL    HW239912   2.141   2.816   9.709  1.0229  0.4633  0.7808
 9485SOL     OW39913   0.578   0.903   1.609 -0.3893  0.1749  0.0107
 9485SOL    HW139914   0.646   0.836   1.615 -0.3065  0.0881 -1.8090
 9485SOL    HW239915   0.502   0.847   1.621  0.7647 -1.4449 -0.1968
 9486SOL     OW39916   2.748   0.261   7.280 -0.7968  0.3234  0.5359
 9486SOL    HW139917   2.685   0.198   7.316  1.2345 -2.0029  0.0407
 9486SOL    HW239918   2.737   0.343   7.328 -1.7131  0.9081 -0.6654
 9487SOL     OW39919   4.120   3.697   2.597 -0.5231 -0.0049  0.3983
 9487SOL    HW139920   4.026   3.705   2.615 -0.6955 -2.4164  0.6574
 9487SOL    HW239921   4.137   3.604   2.616 -0.4377 -0.0213  0.2394
 9488SOL     OW39922   2.281   0.475   2.256 -0.1880 -0.1559  0.2274
 9488SOL    HW139923   2.201   0.467   2.205  1.0685 -0.9694 -1.6322
 9488SOL    HW239924   2.268   0.407   2.322  0.9519 -0.6570 -0.0632
 9489SOL     OW39925   3.657   1.341  15.010  0.0637 -0.2610  0.1265
 9489SOL    HW139926   3.749   1.319  14.998  0.6987  1.7504  1.2461
 9489SOL    HW239927   3.644   1.305  15.098 -2.2958  1.4123  0.4698
 9490SOL     OW39928   4.475   2.637  10.687 -0.1758  0.5968  0.0310
 9490SOL    HW139929   4.529   2.646  10.608  0.6603 -0.2058  0.5116
 9490SOL    HW239930   4.541   2.604  10.747 -0.3574 -1.3786 -0.8494
 9491SOL     OW39931   3.273   1.047   7.570 -1.0153  0.5342  0.1660
 9491SOL    HW139932   3.259   0.991   7.493  1.5712 -1.0363  0.8385
 9491SOL    HW239933   3.261   1.133   7.529 -2.2628  0.2598 -0.0490
 9492SOL     OW39934   0.854   0.659  16.609 -0.7439 -0.5659  0.5908
 9492SOL    HW139935   0.848   0.691  16.699 -1.1555  0.8326  0.0607
 9492SOL    HW239936   0.790   0.715  16.564  0.0898 -0.6046 -0.6488
 9493SOL     OW39937   4.436   2.948   4.693 -0.3096  0.2442 -0.0667
 9493SOL    HW139938   4.508   2.893   4.725  0.5276 -0.0961 -2.5721
 9493SOL    HW239939   4.433   3.022   4.754 -1.4683  0.1909 -0.0720
 9494SOL     OW39940   3.729   1.127   8.138  0.0778 -0.3728 -0.2596
 9494SOL    HW139941   3.791   1.157   8.204 -1.1836  0.8569  0.3619
 9494SOL    HW239942   3.785   1.135   8.061  1.4417  0.6508  0.8282
 9495SOL     OW39943   4.567   1.809  14.589  0.3396 -0.0093 -0.0698
 9495SOL    HW139944   4.566   1.795  14.494 -0.9735  1.0092 -0.2010
 9495SOL    HW239945   4.477   1.778  14.602 -0.2405  1.6138 -0.2798
 9496SOL     OW39946   3.026   1.775   9.750 -0.0637 -0.3056  0.7998
 9496SOL    HW139947   2.999   1.802   9.838 -0.2094  0.2406  0.5870
 9496SOL    HW239948   2.996   1.684   9.754 -1.0474 -0.0924 -2.2775
 9497SOL     OW39949   1.012   1.796   6.514  0.3524  0.2730  0.3370
 9497SOL    HW139950   1.025   1.830   6.602 -2.1105 -0.0496  0.8387
 9497SOL    HW239951   0.931   1.746   6.526  0.2883  0.1246 -0.6601
 9498SOL     OW39952   3.419   2.476  14.543 -0.2100  0.5035  0.1570
 9498SOL    HW139953   3.473   2.532  14.599  1.4693 -0.2999 -0.6674
 9498SOL    HW239954   3.480   2.415  14.503  1.5097  2.8701 -0.8377
 9499SOL     OW39955   0.899   0.047   1.860 -0.0428  0.1223  0.9411
 9499SOL    HW139956   0.980   0.095   1.842 -1.5872  1.7153 -1.7850
 9499SOL    HW239957   0.922   4.703   1.922  1.3980  0.1485  0.4452
 9500SOL     OW39958   2.153   2.033   4.739 -0.0943  0.6511 -0.0287
 9500SOL    HW139959   2.244   2.044   4.712  0.6285 -0.1771  2.0781
 9500SOL    HW239960   2.107   2.066   4.662 -0.7798 -0.5651 -0.1391
 9501SOL     OW39961   0.384   4.078   5.760 -0.6363 -0.3315 -0.0519
 9501SOL    HW139962   0.468   4.111   5.793 -0.8567  0.2382 -0.0531
 9501SOL    HW239963   0.419   3.995   5.728 -2.5012 -2.2937  2.9908
 9502SOL     OW39964   1.826   4.606  12.104  0.1349 -0.4433 -0.0913
 9502SOL    HW139965   1.890   4.666  12.144  0.7305 -0.9310 -0.3129
 9502SOL    HW239966   1.796   4.664  12.034  2.0004 -0.2313 -0.7122
 9503SOL     OW39967   0.473   0.926   8.780 -0.1239 -0.0934  0.5364
 9503SOL    HW139968   0.469   1.003   8.724 -0.2824 -0.2126  0.3820
 9503SOL    HW239969   0.507   0.955   8.864 -1.6923 -0.7627  1.4094
 9504SOL     OW39970   0.857   2.331   7.323 -0.0252  0.0014  0.5781
 9504SOL    HW139971   0.889   2.403   7.269  1.0913 -1.3189 -0.5120
 9504SOL    HW239972   0.934   2.274   7.331  0.2952  0.6773  2.5079
 9505SOL     OW39973   2.007   4.092   6.841 -0.7832  0.6868  0.2533
 9505SOL    HW139974   2.094   4.128   6.862 -0.4086  0.1663 -0.4038
 9505SOL    HW239975   2.023   4.003   6.870  0.9413  1.2987  1.2210
 9506SOL     OW39976   2.094   2.767   8.367  0.3380 -0.3851  0.5603
 9506SOL    HW139977   2.037   2.689   8.362 -2.4118  1.6614  0.1771
 9506SOL    HW239978   2.099   2.765   8.463  0.6050 -0.6107  0.5438
 9507SOL     OW39979   4.627   1.084   7.314  0.1222 -0.5726  0.1070
 9507SOL    HW139980   4.549   1.134   7.290  0.2512 -0.3871  0.0754
 9507SOL    HW239981   4.598   0.996   7.291 -1.7217  0.5724 -1.9663
 9508SOL     OW39982   0.845   4.391   8.839 -0.2333  0.0898  1.0515
 9508SOL    HW139983   0.811   4.392   8.749  1.2779 -0.7395  0.4837
 9508SOL    HW239984   0.785   4.444   8.892  0.0793  1.8599 -0.3504
 9509SOL     OW39985   3.525   0.801   2.344  0.0429  0.2540 -0.0183
 9509SOL    HW139986   3.557   0.890   2.357 -1.7153  0.9410 -0.4172
 9509SOL    HW239987   3.604   0.754   2.369 -0.9350  0.9235  4.2327
 9510SOL     OW39988   3.819   4.305   2.520  0.0734 -0.4322  1.0360
 9510SOL    HW139989   3.728   4.278   2.507  0.4719 -1.1607 -0.1546
 9510SOL    HW239990   3.811   4.396   2.492  1.1522 -0.4015  0.8179
 9511SOL     OW39991   4.176   1.856  10.686  0.3461  0.1191  0.8438
 9511SOL    HW139992   4.223   1.816  10.613 -2.7347 -0.7018 -0.6860
 9511SOL    HW239993   4.093   1.813  10.666  0.1843  1.3638 -1.1859
 9512SOL     OW39994   3.596   3.471   5.946 -0.2550  0.4346 -0.3158
 9512SOL    HW139995   3.578   3.377   5.956  0.7389  0.3701  0.9122
 9512SOL    HW239996   3.654   3.489   6.021 -1.1940 -0.2520  0.5826
 9513SOL     OW39997   3.538   4.691   9.104 -0.1205 -0.0249 -0.2528
 9513SOL    HW139998   3.494   0.016   9.036 -1.6048 -1.3032 -0.2412
 9513SOL    HW239999   3.504   4.605   9.081  0.0612  0.3883 -2.0321
 9514SOL     OW40000   0.469   1.750   0.223  0.0303  0.2987  0.0054
 9514SOL    HW140001   0.562   1.731   0.209  0.3572  0.7544  1.5911
 9514SOL    HW240002   0.478   1.845   0.230 -1.7295  0.3107  1.9522
 9515SOL     OW40003   3.667   4.068  13.124  0.1962  0.3787 -0.8505
 9515SOL    HW140004   3.661   4.159  13.154  1.6312 -0.0150  0.6408
 9515SOL    HW240005   3.674   4.016  13.204 -1.8243  0.5827 -0.5530
 9516SOL     OW40006   2.697   3.623   0.335  0.0380 -0.1777  0.4793
 9516SOL    HW140007   2.770   3.574   0.374 -0.4439  0.9856  2.8126
 9516SOL    HW240008   2.661   3.673   0.408 -0.7126 -1.2953  0.8768
 9517SOL     OW40009   1.310   1.975   3.167  0.0417  0.0583  0.3960
 9517SOL    HW140010   1.358   2.056   3.188  0.4563  0.0915 -0.6548
 9517SOL    HW240011   1.271   1.966   3.253 -1.3790 -1.3401 -0.4019
 9518SOL     OW40012   1.516   4.722   3.759  0.6224  0.1946  0.4843
 9518SOL    HW140013   1.425   4.696   3.766  0.4861  0.7100  0.6504
 9518SOL    HW240014   1.514   0.071   3.818  0.6997 -0.3989  1.2397
 9519SOL     OW40015   1.029   3.799   9.297  0.2443  0.2217  0.1340
 9519SOL    HW140016   1.045   3.861   9.368 -0.6216  1.8581 -1.1016
 9519SOL    HW240017   1.031   3.857   9.222 -0.5531 -0.1505 -0.1742
 9520SOL     OW40018   4.041   2.666  15.926 -0.0212  0.1967  0.5776
 9520SOL    HW140019   4.000   2.581  15.941 -0.5396  0.0478 -1.6226
 9520SOL    HW240020   3.988   2.728  15.976 -1.6624 -0.7307 -0.0396
 9521SOL     OW40021   3.095   0.328   4.591  0.6358 -0.7544  0.9341
 9521SOL    HW140022   3.031   0.350   4.659 -0.2049  2.1620 -0.7510
 9521SOL    HW240023   3.055   0.255   4.543  0.1993  1.6895 -2.4422
 9522SOL     OW40024   2.491   2.884   4.921  0.1075  0.1347  0.2616
 9522SOL    HW140025   2.526   2.963   4.962 -0.2902 -0.2357  1.3396
 9522SOL    HW240026   2.552   2.828   4.970  0.7160  1.3383  0.8897
 9523SOL     OW40027   0.629   2.041   6.405 -0.2701  0.2092  0.2198
 9523SOL    HW140028   0.618   1.964   6.460 -2.1790  2.1406  2.5314
 9523SOL    HW240029   0.570   2.011   6.336 -0.8490 -0.7432  1.1255
 9524SOL     OW40030   0.641   3.430  16.143 -0.0615 -0.0392  0.1612
 9524SOL    HW140031   0.661   3.376  16.219 -3.5140  0.2714  1.3208
 9524SOL    HW240032   0.547   3.441  16.157  0.3266  1.1704  1.8407
 9525SOL     OW40033   2.566   4.632   7.568 -0.0407  0.0955  0.2916
 9525SOL    HW140034   2.558   4.536   7.571 -3.8157  0.4029  0.7235
 9525SOL    HW240035   2.515   4.661   7.643 -1.1321 -0.1541 -0.3457
 9526SOL     OW40036   1.297   2.606   6.500 -0.2191 -0.2576 -0.5246
 9526SOL    HW140037   1.321   2.635   6.588 -1.3165  2.4348 -1.0973
 9526SOL    HW240038   1.334   2.677   6.447  2.6245 -4.3341 -3.9697
 9527SOL     OW40039   2.558   4.514   6.792 -0.1692  0.0697 -0.0630
 9527SOL    HW140040   2.582   4.582   6.855 -0.8290  0.0892  0.1606
 9527SOL    HW240041   2.619   4.511   6.718  0.0314 -0.5413  0.1286
 9528SOL     OW40042   3.471   1.639   4.616  0.3191 -0.2699  0.1266
 9528SOL    HW140043   3.445   1.728   4.591  1.0696  0.0733  0.5840
 9528SOL    HW240044   3.550   1.621   4.564  1.1474 -2.4609  2.1482
 9529SOL     OW40045   2.158   2.203  14.738  0.2535  0.6755 -0.5628
 9529SOL    HW140046   2.067   2.207  14.765  0.2927 -1.1692 -0.1535
 9529SOL    HW240047   2.164   2.254  14.657  0.5101 -0.5600 -1.3333
 9530SOL     OW40048   4.116   1.572  15.058 -0.2435  0.2058  0.0256
 9530SOL    HW140049   4.192   1.533  15.101  0.9378  0.5868 -1.6790
 9530SOL    HW240050   4.138   1.555  14.966 -1.6126 -1.4105 -0.0044
 9531SOL     OW40051   2.339   1.897  17.130  0.1259  0.3725 -0.1789
 9531SOL    HW140052   2.343   1.989  17.103 -0.4191  0.7714  1.0975
 9531SOL    HW240053   2.305   1.900  17.219 -2.3612  0.6267 -1.1276
 9532SOL     OW40054   0.867   2.034  10.218  0.3442  0.1164 -0.6028
 9532SOL    HW140055   0.860   1.939  10.204  0.7929  0.0053 -0.0728
 9532SOL    HW240056   0.803   2.068  10.156  0.2823 -2.1949 -1.8225
 9533SOL     OW40057   0.594   1.233   4.007  0.2967  0.3967 -0.1621
 9533SOL    HW140058   0.541   1.300   4.050 -0.0313 -0.4808  0.8101
 9533SOL    HW240059   0.676   1.269   4.039  0.1341 -0.2411  0.9715
 9534SOL     OW40060   3.371   2.587   3.692 -0.1357  0.1146  0.1440
 9534SOL    HW140061   3.449   2.643   3.691  0.0838 -0.1666  1.4170
 9534SOL    HW240062   3.314   2.637   3.750 -1.0305 -1.7107  0.8309
 9535SOL     OW40063   2.743   2.981   2.754  0.3211 -0.1811 -0.2184
 9535SOL    HW140064   2.664   3.022   2.719  0.4714 -0.0097 -0.3619
 9535SOL    HW240065   2.741   3.026   2.838  1.3774  0.5800 -0.5887
 9536SOL     OW40066   2.683   1.533   2.531  0.3287  0.5399  0.4587
 9536SOL    HW140067   2.747   1.583   2.479  1.4361 -0.0062  1.3042
 9536SOL    HW240068   2.632   1.595   2.582 -2.8184 -0.6075 -1.3343
 9537SOL     OW40069   3.570   2.266   7.798 -0.4098  0.6351 -0.1769
 9537SOL    HW140070   3.631   2.286   7.728  0.0073 -1.4153 -0.4145
 9537SOL    HW240071   3.518   2.193   7.764  3.1204 -1.8778 -0.2929
 9538SOL     OW40072   2.120   1.486   5.491 -0.2260 -0.7943 -0.1128
 9538SOL    HW140073   2.136   1.513   5.401 -1.2247  0.0606 -0.0337
 9538SOL    HW240074   2.076   1.402   5.477 -1.9242  0.4675 -2.3242
 9539SOL     OW40075   3.892   3.290   3.493  0.0850 -0.2631  0.2630
 9539SOL    HW140076   3.836   3.301   3.416  0.8338 -2.2477 -0.5758
 9539SOL    HW240077   3.973   3.335   3.469  0.4501 -0.3124  1.4271
 9540SOL     OW40078   2.591   1.674   4.788  0.2091 -0.3933  0.0573
 9540SOL    HW140079   2.590   1.579   4.777 -0.6238 -0.6079  1.8731
 9540SOL    HW240080   2.552   1.707   4.707 -0.4727 -0.3636  0.3928
 9541SOL     OW40081   4.049   2.708   8.465 -0.6567 -0.3848 -0.8459
 9541SOL    HW140082   4.070   2.662   8.547 -0.1940  0.6326 -0.3856
 9541SOL    HW240083   3.961   2.676   8.446 -1.2432  0.3323  0.6120
 9542SOL     OW40084   4.128   1.901   2.329 -0.5172  0.0952  0.0704
 9542SOL    HW140085   4.043   1.857   2.336 -0.6845  0.6370  1.4415
 9542SOL    HW240086   4.098   1.990   2.313 -1.0120 -0.4966 -2.3784
 9543SOL     OW40087   2.515   0.094  11.871 -0.2731 -0.0687  0.2414
 9543SOL    HW140088   2.595   0.129  11.910  0.0334  1.2513 -1.6160
 9543SOL    HW240089   2.549   0.052  11.792  2.9573 -1.7570  2.5088
 9544SOL     OW40090   0.379   1.423   1.874 -0.7587 -0.0858  0.0337
 9544SOL    HW140091   0.460   1.437   1.827 -0.1993  0.6952  1.2205
 9544SOL    HW240092   0.320   1.475   1.820 -0.8542 -2.6336 -2.3034
 9545SOL     OW40093   0.240   0.564  11.624 -0.1919 -0.2122  0.1178
 9545SOL    HW140094   0.194   0.590  11.544  0.6797  1.7220  0.2394
 9545SOL    HW240095   0.242   0.643  11.679 -4.5100 -0.3902  0.5123
 9546SOL     OW40096   2.377   4.052   8.450  0.2388 -0.4915 -0.3256
 9546SOL    HW140097   2.439   4.045   8.378 -0.0016  1.1913 -0.6984
 9546SOL    HW240098   2.382   4.147   8.460  0.4077 -0.5839  0.4056
 9547SOL     OW40099   4.246   1.949   3.776 -0.3489 -0.7764 -0.1996
 9547SOL    HW140100   4.261   1.863   3.736  0.8824 -0.1339 -1.0992
 9547SOL    HW240101   4.332   1.989   3.781 -0.4140 -0.7940  1.1339
 9548SOL     OW40102   3.520   4.697   4.825  0.0944  0.4553  0.1235
 9548SOL    HW140103   3.569   0.053   4.827  4.0631 -1.8259 -3.4637
 9548SOL    HW240104   3.462   4.695   4.901  0.1776 -0.6813  0.1530
 9549SOL     OW40105   1.735   0.229   2.041  0.2197 -0.6057  0.9631
 9549SOL    HW140106   1.669   0.161   2.028  0.3708 -0.3887 -0.9862
 9549SOL    HW240107   1.813   0.181   2.066  2.7804  1.3893 -3.1882
 9550SOL     OW40108   2.233   0.780   1.778  0.2303  0.1658  0.0644
 9550SOL    HW140109   2.257   0.853   1.720  0.1394  1.3095  1.4541
 9550SOL    HW240110   2.169   0.816   1.839  1.2965  0.3838  1.0644
 9551SOL     OW40111   4.325   0.637   6.726  0.2877 -0.4604  0.3820
 9551SOL    HW140112   4.231   0.618   6.718  0.2588 -0.4603  0.7337
 9551SOL    HW240113   4.328   0.726   6.691 -1.4800 -0.5333  0.0294
 9552SOL     OW40114   4.724   1.503  11.958  0.0849 -0.4666 -0.1810
 9552SOL    HW140115   0.063   1.566  11.929 -0.0339 -0.5646 -0.6567
 9552SOL    HW240116   4.658   1.557  12.000 -1.8701 -3.0936  0.1382
 9553SOL     OW40117   2.385   2.371   4.177 -0.3915 -0.3673  0.0085
 9553SOL    HW140118   2.412   2.463   4.178 -0.6926 -0.2631 -0.7360
 9553SOL    HW240119   2.412   2.338   4.262  2.1177 -0.4338 -0.8296
 9554SOL     OW40120   2.362   0.148   2.040  0.5690  0.3196 -0.1540
 9554SOL    HW140121   2.275   0.188   2.034  0.7509  0.6127 -0.8199
 9554SOL    HW240122   2.344   0.069   2.091  2.1245 -0.0261 -0.1428
 9555SOL     OW40123   3.196   0.226   7.939  0.1083  0.0279  0.0168
 9555SOL    HW140124   3.285   0.207   7.970  0.1488  0.4831  0.1846
 9555SOL    HW240125   3.194   0.320   7.957  1.5724 -0.2095  1.4359
 9556SOL     OW40126   0.024   3.800   8.182  0.0206 -0.0891  0.0572
 9556SOL    HW140127   0.035   3.749   8.102 -0.3558 -2.4534  1.5141
 9556SOL    HW240128   4.688   3.866   8.151  2.7096  1.2905 -2.3924
 9557SOL     OW40129   1.020   4.003  10.288  0.3062  0.0453  0.2497
 9557SOL    HW140130   1.078   3.934  10.319  0.2529  0.2258  0.7615
 9557SOL    HW240131   1.055   4.078  10.337 -1.0424  1.7118 -1.3613
 9558SOL     OW40132   3.899   3.533  10.262 -0.1354 -0.3522 -0.2139
 9558SOL    HW140133   3.900   3.463  10.328 -1.4192  0.1775  0.3630
 9558SOL    HW240134   3.861   3.481  10.191  1.3011 -1.9814  0.2025
 9559SOL     OW40135   1.062   3.986   3.174  0.0612  0.3002 -0.2834
 9559SOL    HW140136   1.143   3.963   3.128  0.3044 -0.7299  0.6743
 9559SOL    HW240137   1.091   3.984   3.265  2.9818 -2.0796 -1.2745
 9560SOL     OW40138   0.690   0.204   4.223 -0.3629 -0.0310  0.1293
 9560SOL    HW140139   0.620   0.138   4.219  0.8175 -1.4525  3.0861
 9560SOL    HW240140   0.701   0.211   4.128 -3.3125 -0.2596 -0.2332
 9561SOL     OW40141   0.544   1.259  17.511 -0.1979  0.4948  0.0892
 9561SOL    HW140142   0.601   1.276  17.586 -0.2573 -1.3753  0.5726
 9561SOL    HW240143   0.460   1.289  17.544 -0.3144  0.7335 -0.4207
 9562SOL     OW40144   3.197   2.052   8.407 -0.4058 -0.4001  0.0836
 9562SOL    HW140145   3.176   2.006   8.325  0.0491 -2.3847  1.0972
 9562SOL    HW240146   3.117   2.103   8.421 -0.4135 -0.8903  1.7948
 9563SOL     OW40147   1.569   2.286   3.710 -0.0174  0.5345  0.2879
 9563SOL    HW140148   1.634   2.216   3.721 -1.2038 -0.6095 -0.0542
 9563SOL    HW240149   1.522   2.278   3.793  0.0972 -0.6980  0.2272
 9564SOL     OW40150   3.532   3.375   4.695  0.0164  0.4011  0.3187
 9564SOL    HW140151   3.565   3.450   4.647 -0.5577 -0.0202 -0.7541
 9564SOL    HW240152   3.494   3.419   4.772 -1.6302  0.1692 -0.3472
 9565SOL     OW40153   3.704   2.678   8.183  0.3137 -0.1265  0.7135
 9565SOL    HW140154   3.754   2.655   8.261  0.5258  0.5298  0.7700
 9565SOL    HW240155   3.781   2.702   8.131  0.2183 -2.1483 -0.3953
   4.72601   4.72601  17.70520
