Membrane in water
40155
    1TCq1    O1    1   2.439   1.764  11.228  0.3958  0.1002  0.3829
    1TCq1    C1    2   2.413   1.707  11.113  0.1415  0.4764  0.3503
    1TCq1    O2    3   2.492   1.705  11.018  0.6599  0.0684  0.2770
    1TCq1    C2    4   2.276   1.662  11.114 -0.2504 -0.1382 -0.4359
    1TCq1    C3    5   2.208   1.666  11.001  0.6580  0.1086 -0.5027
    1TCq1    C4    6   2.077   1.634  11.008  0.1645  0.7270  0.1316
    1TCq1    C5    7   2.025   1.584  11.126  0.1792 -0.1405 -0.2304
    1TCq1    C6    8   2.101   1.587  11.240  0.1417  0.5411  0.4756
    1TCq1    C7    9   2.229   1.621  11.238  0.7190 -0.3426 -0.2082
    1TCq1    C8   10   2.046   1.562  11.375  0.5088 -1.2619 -0.1942
    1TCq1    O4   11   2.118   1.594  11.476  0.4757  0.1920  0.2623
    1TCq1    C9   12   1.987   1.653  10.896 -0.3917  0.2944 -0.1775
    1TCq1    O5   13   2.036   1.675  10.782  0.0879 -0.0651  0.2470
    1TCq1    O6   14   1.866   1.630  10.917  0.1141 -0.5796 -0.1254
    1TCq1    H1   15   2.357   1.784  11.278 -0.4398  1.0483 -1.3396
    1TCq1    H2   16   2.240   1.697  10.902  0.5346 -0.7753 -0.8222
    1TCq1    H3   17   1.918   1.568  11.132  0.2751 -0.2293  1.3696
    1TCq1    H4   18   2.296   1.603  11.321  0.4318  1.6204  0.4332
    2MPD2     C   19   1.743   1.269  11.679  0.6737 -0.3181  0.6278
    2MPD2    C1   20   1.834   1.367  11.709 -0.3797 -0.9978  0.4194
    2MPD2    C2   21   1.899   1.431  11.611 -0.1072 -0.0326 -0.0048
    2MPD2    C3   22   1.877   1.403  11.478  0.0139 -0.0251 -0.1409
    2MPD2    C4   23   1.786   1.314  11.446 -0.0757 -0.8999 -0.9732
    2MPD2    C5   24   1.720   1.245  11.547 -0.1323 -0.0901  0.5681
    2MPD2     H   25   1.962   1.511  11.648 -2.3208  1.6406  0.1409
    2MPD2    H1   26   1.761   1.291  11.343 -0.5881  0.4241 -1.1488
    2MPD2    H2   27   1.697   1.211  11.758 -3.0914  2.3636  0.3650
    2MPD2    H3   28   1.661   1.157  11.523  0.9474 -0.5959 -0.1890
    2MPD2     N   29   1.942   1.478  11.369 -0.0564 -0.0574 -0.2641
    2MPD2    H5   30   1.917   1.458  11.273 -0.9688 -0.0365 -0.0348
    2MPD2    N1   31   1.843   1.424  11.835 -0.0956 -0.5512  0.0210
    2MPD2    H7   32   1.866   1.522  11.842 -3.8444  0.5157 -2.8448
    3TCq1    O1   33   1.213   2.800  10.708  0.0089  0.1743  0.4441
    3TCq1    C1   34   1.239   2.848  10.831 -0.5326  0.5152 -0.2685
    3TCq1    O2   35   1.321   2.936  10.857  0.3824 -1.0078  0.1764
    3TCq1    C2   36   1.163   2.784  10.934  0.0524 -0.3259 -0.7446
    3TCq1    C3   37   1.144   2.656  10.922 -0.5696 -0.2251 -0.6947
    3TCq1    C4   38   1.062   2.592  11.007 -0.1246  0.0917 -0.0248
    3TCq1    C5   39   1.000   2.660  11.110  0.3651  0.1067  0.0915
    3TCq1    C6   40   1.023   2.794  11.119  0.3459  0.1544 -0.6254
    3TCq1    C7   41   1.108   2.861  11.028 -0.4865 -0.3327 -0.0909
    3TCq1    C8   42   0.952   2.860  11.223 -0.2667 -0.6560 -0.1878
    3TCq1    O4   43   0.880   2.792  11.293 -0.0545 -0.4546  0.1401
    3TCq1    C9   44   1.036   2.452  10.990 -0.1245 -0.2185  0.1745
    3TCq1    O5   45   1.091   2.390  10.895  0.0370 -0.2977 -0.5740
    3TCq1    O6   46   0.935   2.412  11.053  0.5107 -0.2474  0.0316
    3TCq1    H1   47   1.131   2.746  10.702 -1.3588  2.3009 -0.2837
    3TCq1    H2   48   1.197   2.592  10.853  2.3783  0.7455  0.6696
    3TCq1    H3   49   0.942   2.603  11.181 -2.1005  2.9631  0.3517
    3TCq1    H4   50   1.141   2.964  11.028  0.8572 -0.7514  2.0083
    4MPD2     C   51   0.742   3.263  11.467  0.2697 -0.3618  0.2736
    4MPD2    C1   52   0.819   3.308  11.360  0.7129 -0.5242  0.1844
    4MPD2    C2   53   0.886   3.220  11.269  0.4474  0.6893 -0.3769
    4MPD2    C3   54   0.883   3.085  11.301  0.0288  0.5732  0.2120
    4MPD2    C4   55   0.812   3.039  11.415  0.3377  0.2322  1.0212
    4MPD2    C5   56   0.740   3.129  11.490  0.7990  0.6720 -0.4852
    4MPD2     H   57   0.930   3.254  11.176 -1.5844 -1.3256 -2.0729
    4MPD2    H1   58   0.811   2.934  11.444 -2.1631 -0.0372 -0.1044
    4MPD2    H2   59   0.674   3.324  11.525 -1.1276 -1.1354 -0.5550
    4MPD2    H3   60   0.673   3.087  11.564  1.0987 -0.1236 -0.6733
    4MPD2     N   61   0.956   2.999  11.211  0.0420 -0.1165 -0.1020
    4MPD2    H5   62   1.013   3.043  11.140 -1.3519 -1.0564 -1.8012
    4MPD2    N1   63   0.821   3.443  11.333  0.0467  0.0288 -0.1107
    4MPD2    H7   64   0.857   3.469  11.242  0.0926  0.1292 -0.0645
    5TCq1    O1   65   1.245   4.537   9.733 -0.4709 -0.3745  0.0718
    5TCq1    C1   66   1.375   4.548   9.751  1.0983  0.1757  0.2052
    5TCq1    O2   67   1.458   4.503   9.671 -0.9816 -0.0923  0.4987
    5TCq1    C2   68   1.409   4.545   9.889 -0.5702 -0.5241 -0.2389
    5TCq1    C3   69   1.320   4.596   9.987 -0.2177  0.3332  0.7396
    5TCq1    C4   70   1.339   4.556  10.118 -0.2997  0.8323  0.0846
    5TCq1    C5   71   1.435   4.472  10.153 -0.3123  0.1554  0.0733
    5TCq1    C6   72   1.523   4.430  10.062  0.2946 -0.5486  0.2118
    5TCq1    C7   73   1.509   4.465   9.929  0.4545 -0.1078  0.1865
    5TCq1    C8   74   1.638   4.365  10.112 -0.2651  0.9572  0.5632
    5TCq1    O4   75   1.621   4.289  10.211  0.1590 -0.0937 -0.0668
    5TCq1    C9   76   1.234   4.583  10.211 -0.0929  0.2783 -0.9449
    5TCq1    O5   77   1.120   4.609  10.166 -0.3798 -0.0821  0.1931
    5TCq1    O6   78   1.263   4.571  10.333 -0.1221  0.2534 -0.2262
    5TCq1    H1   79   1.206   4.550   9.822  0.2313  1.8014  0.0751
    5TCq1    H2   80   1.242   4.667   9.962  1.9478  1.5924 -2.4327
    5TCq1    H3   81   1.433   4.435  10.255 -1.8245  1.7229  0.6178
    5TCq1    H4   82   1.576   4.418   9.859  1.2376 -1.3081  1.7390
    6MPD2     C   83   1.977   4.346   9.987  0.0727  0.3640  0.0450
    6MPD2    C1   84   1.867   4.305  10.056  0.2695 -0.3503  0.2870
    6MPD2    C2   85   1.885   4.194  10.140 -0.9173  0.9766 -0.0159
    6MPD2    C3   86   2.004   4.132  10.156 -0.5258  0.1023 -0.0795
    6MPD2    C4   87   2.110   4.173  10.081  0.5814 -0.1986 -0.9663
    6MPD2    C5   88   2.096   4.277   9.991  0.4618  0.3475  0.3936
    6MPD2     H   89   1.813   4.138  10.199 -0.3380  0.7269  0.4590
    6MPD2    H1   90   2.213   4.143  10.096  0.6981 -0.7518 -2.8465
    6MPD2    H2   91   1.979   4.425   9.913 -2.3362  1.2921  0.9903
    6MPD2    H3   92   2.184   4.320   9.944 -0.0907  0.5147 -0.4881
    6MPD2     N   93   2.010   4.029  10.253  0.4542  0.0992  0.2794
    6MPD2    H5   94   1.928   4.019  10.312 -0.8550  1.7592 -1.2825
    6MPD2    N1   95   1.753   4.387  10.042 -0.2540  0.3138  0.0649
    6MPD2    H7   96   1.760   4.464   9.976 -1.0303  0.1691 -0.1789
    7TCq1    O1   97   3.767   4.654  13.452 -0.4657 -0.1150 -0.4877
    7TCq1    C1   98   3.803   4.664  13.324 -0.7404 -0.3791 -0.6864
    7TCq1    O2   99   3.835   0.046  13.270 -0.7822  0.0890 -0.4055
    7TCq1    C2  100   3.820   4.529  13.275 -0.0791 -0.1523  0.5045
    7TCq1    C3  101   3.744   4.506  13.159 -0.4214  0.3297 -0.6147
    7TCq1    C4  102   3.718   4.372  13.129  0.0675  0.6233  0.5546
    7TCq1    C5  103   3.762   4.273  13.210  0.0740 -0.7080 -0.0874
    7TCq1    C6  104   3.829   4.305  13.329  0.8531  0.1111 -0.3300
    7TCq1    C7  105   3.850   4.433  13.373  0.1699  0.1782 -0.1295
    7TCq1    C8  106   3.883   4.190  13.399 -0.0776  0.4482  0.6732
    7TCq1    O4  107   3.872   4.085  13.335 -0.3982  0.0436  0.4229
    7TCq1    C9  108   3.638   4.337  13.009  0.1024 -0.0428 -0.0646
    7TCq1    O5  109   3.584   4.221  13.012 -0.6718 -0.1637 -0.0838
    7TCq1    O6  110   3.594   4.429  12.941  0.1932  0.4650  0.6992
    7TCq1    H1  111   3.718   4.570  13.469 -0.7596  0.2872  0.6699
    7TCq1    H2  112   3.704   4.584  13.096 -0.0772 -2.8662 -4.7146
    7TCq1    H3  113   3.748   4.170  13.180 -2.5035 -0.2603 -0.4376
    7TCq1    H4  114   3.909   4.457  13.461 -1.8714  1.6678  0.8293
    8MPD2     C  115   4.219   3.990  13.727  0.2018 -0.5834  0.1911
    8MPD2    C1  116   4.179   3.946  13.603  0.1218  0.0341  0.0259
    8MPD2    C2  117   4.087   4.020  13.538  0.1726  0.1762 -0.4382
    8MPD2    C3  118   4.033   4.137  13.597 -0.5143 -0.0382 -0.1255
    8MPD2    C4  119   4.069   4.171  13.726 -0.1100 -0.0705 -0.5407
    8MPD2    C5  120   4.156   4.092  13.791 -0.1081 -0.1487 -0.1159
    8MPD2     H  121   4.065   3.994  13.435 -1.7745 -1.2689  0.3504
    8MPD2    H1  122   4.029   4.259  13.775 -1.6563 -0.8564 -0.3684
    8MPD2    H2  123   4.296   3.943  13.788 -1.0331 -3.0849 -0.2055
    8MPD2    H3  124   4.183   4.124  13.891  1.2859  0.7312 -0.7790
    8MPD2     N  125   3.951   4.226  13.515  0.1868 -0.0881  0.2293
    8MPD2    H5  126   3.921   4.308  13.568 -0.8576 -0.0082 -0.4843
    8MPD2    N1  127   4.242   3.837  13.551  0.4913 -0.7648 -1.2781
    8MPD2    H7  128   4.315   3.793  13.606 -1.8459 -2.4210  0.5151
    9TCq1    O1  129   1.908   1.845  10.626  0.0759  0.1272 -0.1043
    9TCq1    C1  130   1.886   1.971  10.674 -0.2461  0.1934 -0.8162
    9TCq1    O2  131   1.805   2.046  10.620 -0.0737 -0.1763  0.0063
    9TCq1    C2  132   2.000   2.017  10.748  0.2636  0.1291  0.3531
    9TCq1    C3  133   2.124   1.963  10.733  0.3305  0.5755  0.2830
    9TCq1    C4  134   2.227   2.029  10.797 -0.4439 -0.1439 -0.4681
    9TCq1    C5  135   2.209   2.147  10.852 -0.3537  0.1694  0.0005
    9TCq1    C6  136   2.085   2.200  10.868  0.5216 -0.3665 -1.0499
    9TCq1    C7  137   1.975   2.130  10.818 -0.1461 -0.6010 -0.6956
    9TCq1    C8  138   2.078   2.337  10.912  0.1592 -0.1771  0.3771
    9TCq1    O4  139   2.185   2.399  10.919 -0.0634  0.0616  0.2891
    9TCq1    C9  140   2.353   1.963  10.809  0.5109 -0.1667 -0.7165
    9TCq1    O5  141   2.369   1.871  10.729  0.4116  0.5575 -0.2758
    9TCq1    O6  142   2.440   2.025  10.869 -0.0020 -0.0065 -0.7452
    9TCq1    H1  143   1.967   1.792  10.685 -1.3281 -0.3108  0.9078
    9TCq1    H2  144   2.141   1.866  10.688 -2.2389  0.2148  0.1081
    9TCq1    H3  145   2.281   2.194  10.918 -0.0885  1.5903 -1.3017
    9TCq1    H4  146   1.879   2.178  10.804 -0.0139  0.2387  1.2829
   10MPD2     C  147   1.989   2.596  10.983  0.0633  0.1774 -0.3594
   10MPD2    C1  148   1.930   2.480  11.038 -0.4491 -0.0595  0.0985
   10MPD2    C2  149   1.841   2.486  11.148 -1.0178  0.0233 -0.5952
   10MPD2    C3  150   1.831   2.611  11.206  0.3281 -0.3164 -0.0059
   10MPD2    C4  151   1.887   2.723  11.155  0.0542  0.0584 -0.6316
   10MPD2    C5  152   1.968   2.715  11.040 -0.5422  0.5180  1.0159
   10MPD2     H  153   1.796   2.394  11.184 -0.0576  0.5080  1.8461
   10MPD2    H1  154   1.865   2.816  11.206  0.1081 -1.1568  1.6457
   10MPD2    H2  155   2.058   2.595  10.900 -1.4266 -1.0563 -1.5709
   10MPD2    H3  156   2.021   2.797  10.993 -1.9622  0.6874 -0.2910
   10MPD2     N  157   1.761   2.628  11.332  0.6189 -0.5634 -0.0115
   10MPD2    H5  158   1.762   2.719  11.376 -1.5367 -0.6753  0.3127
   10MPD2    N1  159   1.961   2.359  10.981  0.0619 -0.0341  0.5852
   10MPD2    H7  160   1.889   2.291  11.003 -0.8372  0.7951  0.2224
   11TCq1    O1  161   2.223   3.490  13.894  0.2140  0.0857  0.2773
   11TCq1    C1  162   2.284   3.459  13.778 -0.6378 -0.3925  0.5988
   11TCq1    O2  163   2.336   3.540  13.699 -0.3027  0.0784  0.5560
   11TCq1    C2  164   2.220   3.337  13.736 -0.1034 -0.5503 -0.3334
   11TCq1    C3  165   2.177   3.333  13.601 -0.4777  0.3365  1.0310
   11TCq1    C4  166   2.113   3.222  13.554 -0.3217  0.0614 -0.4079
   11TCq1    C5  167   2.088   3.116  13.635  0.4081 -0.2731  0.0748
   11TCq1    C6  168   2.129   3.117  13.768  0.5588 -1.0379 -0.8152
   11TCq1    C7  169   2.194   3.230  13.819 -0.0179 -0.1499  0.2086
   11TCq1    C8  170   2.185   2.992  13.820  0.1469 -0.1136  0.0294
   11TCq1    O4  171   2.272   3.001  13.905  0.5408 -0.0793  0.2421
   11TCq1    C9  172   2.088   3.203  13.411 -0.7111 -0.2093  0.0039
   11TCq1    O5  173   2.070   3.086  13.377 -0.2493  0.1237  0.1673
   11TCq1    O6  174   2.119   3.299  13.334  0.4811 -0.6779 -0.7834
   11TCq1    H1  175   2.171   3.424  13.944  0.9632  0.3732  1.4334
   11TCq1    H2  176   2.194   3.417  13.535  1.1554 -0.7586  0.0537
   11TCq1    H3  177   2.029   3.031  13.600  0.7256 -0.7242  0.6313
   11TCq1    H4  178   2.253   3.220  13.909  1.2379 -0.1978 -0.6279
   12MPD2     C  179   2.274   2.714  13.866  0.3020 -0.1277 -0.6168
   12MPD2    C1  180   2.165   2.747  13.787 -0.1852  0.1498  0.2377
   12MPD2    C2  181   2.104   2.647  13.719 -0.5474  0.1463  0.1581
   12MPD2    C3  182   2.141   2.513  13.724 -0.0338 -0.2111 -0.2354
   12MPD2    C4  183   2.243   2.483  13.809  0.8843  0.0644  0.2992
   12MPD2    C5  184   2.312   2.582  13.871  0.1858  1.2045  0.0805
   12MPD2     H  185   2.023   2.684  13.658 -1.7299  1.3233  2.4342
   12MPD2    H1  186   2.282   2.382  13.806 -0.9370 -0.6513  0.7681
   12MPD2    H2  187   2.323   2.794  13.921 -0.6811 -0.1046  0.2200
   12MPD2    H3  188   2.405   2.555  13.920  0.3830  0.7110 -0.5637
   12MPD2     N  189   2.076   2.406  13.664  0.2378 -0.1383  0.8688
   12MPD2    H5  190   2.101   2.312  13.690  1.3869  0.4185  1.7584
   12MPD2    N1  191   2.125   2.882  13.764  0.4794 -0.2047  0.9369
   12MPD2    H7  192   2.047   2.897  13.700 -0.1204 -1.2582  1.4328
   13TCq1    O1  193   1.497   2.587  10.400  0.2012  0.0963  0.3440
   13TCq1    C1  194   1.589   2.510  10.340 -0.6252 -0.1534  0.6592
   13TCq1    O2  195   1.681   2.543  10.269 -0.2881  0.4583  0.0841
   13TCq1    C2  196   1.587   2.370  10.376  0.7313 -0.2287  0.5210
   13TCq1    C3  197   1.634   2.276  10.278 -1.3387 -0.3248 -0.4184
   13TCq1    C4  198   1.608   2.143  10.294  0.1224  0.4451  0.0256
   13TCq1    C5  199   1.538   2.098  10.407 -0.2382 -0.1415  0.4412
   13TCq1    C6  200   1.500   2.191  10.503 -0.2384  0.2395  0.6926
   13TCq1    C7  201   1.516   2.328  10.487  0.0735  1.0123 -0.4387
   13TCq1    C8  202   1.471   2.144  10.642  0.1970 -0.3964 -0.4426
   13TCq1    O4  203   1.456   2.228  10.734 -0.3564 -0.6710  0.3656
   13TCq1    C9  204   1.644   2.051  10.185 -0.2378 -0.1692 -0.5325
   13TCq1    O5  205   1.673   1.936  10.225  0.0711 -0.4516 -0.1211
   13TCq1    O6  206   1.660   2.096  10.072 -0.6832  0.5522  0.1865
   13TCq1    H1  207   1.420   2.545  10.445 -0.0825  0.7863  0.5058
   13TCq1    H2  208   1.683   2.307  10.186  0.7974 -0.6945  0.6056
   13TCq1    H3  209   1.524   1.991  10.407  1.5913 -0.3830 -1.6180
   13TCq1    H4  210   1.468   2.400  10.551 -0.5001  0.5863 -0.3857
   14MPD2     C  211   1.466   1.790  10.766  0.1365  0.6476 -0.1957
   14MPD2    C1  212   1.456   1.926  10.770  0.8255  0.6120  0.6450
   14MPD2    C2  213   1.408   1.981  10.887 -0.5177 -0.0861  0.5278
   14MPD2    C3  214   1.376   1.906  10.998 -0.2333  0.1436  0.1652
   14MPD2    C4  215   1.390   1.765  10.989  0.1995 -0.9420  0.4709
   14MPD2    C5  216   1.437   1.712  10.870  0.3462  0.2627  0.3335
   14MPD2     H  217   1.383   2.087  10.887 -0.3103 -0.0283  2.4562
   14MPD2    H1  218   1.376   1.702  11.076  0.3090  0.2275  1.3237
   14MPD2    H2  219   1.488   1.726  10.681  1.9474 -0.9893  1.5011
   14MPD2    H3  220   1.441   1.603  10.865  0.0698  0.2787 -0.1385
   14MPD2     N  221   1.317   1.975  11.108  0.5316  0.4278  0.2685
   14MPD2    H5  222   1.303   2.074  11.097  1.2406  0.7101  1.9477
   14MPD2    N1  223   1.480   2.004  10.651  0.2470 -0.3237 -0.0301
   14MPD2    H7  224   1.500   1.944  10.572 -0.5804  0.2284 -0.6554
   15TCq1    O1  225   3.042   2.270   2.117  0.2363 -0.0589 -0.0040
   15TCq1    C1  226   3.150   2.232   2.187  0.4063  0.4646  0.9811
   15TCq1    O2  227   3.174   2.282   2.295 -0.2627 -0.3082  0.3381
   15TCq1    C2  228   3.173   2.097   2.142  0.3689 -0.4645 -0.5172
   15TCq1    C3  229   3.212   2.001   2.237  0.1330 -0.3585  0.5101
   15TCq1    C4  230   3.262   1.880   2.190  0.3535 -0.0528  0.1822
   15TCq1    C5  231   3.271   1.851   2.053  0.7889  0.6689 -0.0001
   15TCq1    C6  232   3.243   1.953   1.966  0.3035  0.1277 -0.1832
   15TCq1    C7  233   3.210   2.078   2.013 -0.2974  0.7156  0.5640
   15TCq1    C8  234   3.224   1.926   1.826  0.1255 -0.1880 -0.4525
   15TCq1    O4  235   3.160   2.009   1.763 -0.1515  0.0532  0.4416
   15TCq1    C9  236   3.296   1.787   2.296 -0.6435  0.2756 -0.3958
   15TCq1    O5  237   3.320   1.667   2.261  0.2077 -0.6346  0.1601
   15TCq1    O6  238   3.317   1.833   2.412 -0.1150 -0.1039 -0.4677
   15TCq1    H1  239   3.008   2.208   2.049 -0.4857 -0.8099  1.0410
   15TCq1    H2  240   3.208   2.021   2.343  0.2940  0.8141  0.2985
   15TCq1    H3  241   3.275   1.749   2.018  0.5955  0.6209  0.1173
   15TCq1    H4  242   3.210   2.162   1.945 -0.9384 -0.4016 -0.8089
   16MPD2     C  243   3.219   1.820   1.542 -0.1009 -0.5693  0.3480
   16MPD2    C1  244   3.297   1.769   1.646  0.1304  0.6046  0.5558
   16MPD2    C2  245   3.379   1.659   1.617  0.0135 -0.4330 -0.0163
   16MPD2    C3  246   3.395   1.610   1.493  0.1591 -0.4974  0.2217
   16MPD2    C4  247   3.324   1.675   1.391  0.1287 -0.2537  0.0871
   16MPD2    C5  248   3.236   1.774   1.418 -0.2451 -0.5512 -0.1559
   16MPD2     H  249   3.433   1.614   1.700  1.2276 -2.3020 -1.8389
   16MPD2    H1  250   3.323   1.645   1.287 -2.0952 -0.4848  0.1807
   16MPD2    H2  251   3.146   1.899   1.558  1.2151  0.7615 -0.2485
   16MPD2    H3  252   3.166   1.812   1.344 -0.5725  0.7751  0.8286
   16MPD2     N  253   3.500   1.516   1.477 -0.0016 -0.5898  0.1603
   16MPD2    H5  254   3.567   1.517   1.553 -1.4431 -0.1996  1.4298
   16MPD2    N1  255   3.280   1.809   1.780 -0.5164  0.3141 -0.2090
   16MPD2    H7  256   3.323   1.752   1.853  1.4095 -0.3791 -1.8739
   17TCq1    O1  257   1.217   0.927  10.655  0.4051 -0.0163 -0.4303
   17TCq1    C1  258   1.288   0.898  10.544  0.4700 -0.0314  0.0419
   17TCq1    O2  259   1.245   0.840  10.445  0.0741 -0.3578 -0.1778
   17TCq1    C2  260   1.388   0.996  10.533 -0.0269  0.6603 -0.2869
   17TCq1    C3  261   1.421   1.038  10.408 -0.0045 -0.5169  0.7525
   17TCq1    C4  262   1.529   1.116  10.381 -0.5490  0.5412  0.1755
   17TCq1    C5  263   1.609   1.156  10.474  0.0501  0.1321 -0.5854
   17TCq1    C6  264   1.585   1.113  10.600 -0.3107  0.2894  0.8076
   17TCq1    C7  265   1.475   1.030  10.633  0.2020 -0.4388  0.4752
   17TCq1    C8  266   1.684   1.136  10.704  0.2537  0.2314  0.3861
   17TCq1    O4  267   1.641   1.134  10.822 -0.4145  0.5378  0.2032
   17TCq1    C9  268   1.548   1.170  10.246 -0.1308 -0.3305 -0.1934
   17TCq1    O5  269   1.639   1.263  10.237 -0.6934 -0.6946 -0.2681
   17TCq1    O6  270   1.445   1.157  10.170 -0.6772 -0.0872  0.5470
   17TCq1    H1  271   1.250   1.006  10.704 -2.4636  1.3721 -0.7316
   17TCq1    H2  272   1.359   1.006  10.325 -0.0582  0.1071  0.5528
   17TCq1    H3  273   1.675   1.242  10.460  0.8047 -0.0775  1.6202
   17TCq1    H4  274   1.464   0.996  10.735 -0.4285 -0.2003  0.4887
   18MPD2     C  275   1.921   1.216  10.872 -0.5478 -0.4405  0.2250
   18MPD2    C1  276   1.932   1.181  10.737  0.3091 -0.2585 -0.3342
   18MPD2    C2  277   2.054   1.190  10.676  0.3710  0.4399  0.5504
   18MPD2    C3  278   2.163   1.230  10.736 -0.0582 -0.4157  0.0752
   18MPD2    C4  279   2.151   1.269  10.869 -0.0998 -0.2537  0.5505
   18MPD2    C5  280   2.033   1.272  10.932  0.4934 -0.0897  0.2929
   18MPD2     H  281   2.059   1.177  10.568 -0.9586  0.7337  0.4607
   18MPD2    H1  282   2.239   1.300  10.924 -0.8681  1.7113  0.6638
   18MPD2    H2  283   1.833   1.197  10.932 -0.5485 -0.2009  0.3008
   18MPD2    H3  284   2.028   1.293  11.038 -1.3440 -1.0030  0.3879
   18MPD2     N  285   2.284   1.248  10.673 -0.6937 -0.8613 -0.6043
   18MPD2    H5  286   2.356   1.296  10.726 -3.0798  0.0231  1.7791
   18MPD2    N1  287   1.814   1.149  10.658 -0.1465  0.4038 -0.3158
   18MPD2    H7  288   1.837   1.145  10.559 -1.2591 -1.9522 -0.4990
   19TMC2    C1  289   3.324   2.491  13.834 -0.1217  0.1955 -0.1864
   19TMC2    C2  290   3.285   2.562  13.722  0.0729 -0.2850  0.2240
   19TMC2    C3  291   3.158   2.593  13.696  1.1055 -0.5567  0.2166
   19TMC2    C4  292   3.230   2.446  13.923  0.0417  0.3107  0.2924
   19TMC2    C5  293   3.098   2.465  13.892  0.4030 -0.2905  0.4108
   19TMC2    C6  294   3.055   2.545  13.779  0.5003  0.6679  0.3226
   19TMC2     C  295   3.467   2.447  13.834 -0.1227 -0.4413 -0.2252
   19TMC2     O  296   3.533   2.498  13.739 -0.7538  0.4182 -0.2069
   19TMC2     H  297   3.361   2.580  13.647 -0.3563  1.5032  0.2151
   19TMC2    H1  298   3.245   2.376  14.005  1.1623 -0.6235 -0.7111
   19TMC2    H2  299   2.950   2.555  13.755  0.3354 -0.9861  0.3216
   19TMC2    C7  300   3.011   2.354  13.934 -0.2167  0.3797  0.6987
   19TMC2    C8  301   3.115   2.620  13.563 -0.3987  0.2218 -0.3832
   19TMC2    O1  302   3.059   2.246  13.966  0.3018  0.1911 -0.0264
   19TMC2    O2  303   3.012   2.573  13.519  0.6810 -0.4073  0.3653
   19TMC2    O5  304   3.215   2.674  13.484 -0.8721 -0.1055 -0.3346
   19TMC2    H5  305   3.282   2.732  13.528  0.5890 -2.0329 -0.0036
   20MPD2     C  306   3.736   2.328  13.846  0.2459  0.7808  0.2298
   20MPD2    C1  307   3.637   2.311  13.944  0.2762 -0.5974 -0.3772
   20MPD2    C2  308   3.651   2.232  14.059 -1.0028 -0.0044 -0.6067
   20MPD2    C3  309   3.771   2.160  14.079 -0.1874 -0.1696  0.1654
   20MPD2    C4  310   3.869   2.173  13.988 -0.6391 -0.4711 -0.2074
   20MPD2    C5  311   3.850   2.253  13.880  0.5427 -0.1166 -0.0661
   20MPD2     H  312   3.579   2.238  14.140  0.7435  0.5828  0.9131
   20MPD2    H1  313   3.960   2.114  13.996 -1.0068 -0.9727  0.3415
   20MPD2    H2  314   3.719   2.371  13.748  0.2025 -2.0409 -0.9894
   20MPD2    H3  315   3.932   2.257  13.809  0.2092  0.7767 -0.4006
   20MPD2     N  316   3.809   2.078  14.194  0.3601 -0.6040  0.3715
   20MPD2    H5  317   3.895   2.024  14.196 -1.0547 -2.8713  0.5514
   20MPD2    N1  318   3.503   2.362  13.936 -0.0690  0.2425  0.4631
   20MPD2    H7  319   3.432   2.328  14.000 -0.1369  0.8315  0.7002
   21MPD2     C  320   1.640   2.935  14.501  0.4489  0.3808 -0.0754
   21MPD2    C1  321   1.612   2.827  14.420 -0.0470 -0.3132  0.5538
   21MPD2    C2  322   1.479   2.787  14.409 -0.4717 -0.3317  0.4564
   21MPD2    C3  323   1.377   2.852  14.474 -0.2999 -0.3448 -0.1275
   21MPD2    C4  324   1.404   2.961  14.549 -0.0879 -0.1053 -0.3487
   21MPD2    C5  325   1.537   3.001  14.565  0.2932 -0.4152 -0.3795
   21MPD2     H  326   1.467   2.706  14.338  1.7982  1.1764 -1.6787
   21MPD2    H1  327   1.339   3.002  14.627 -1.6617  0.4527 -1.9600
   21MPD2    H2  328   1.739   2.977  14.515  0.2390  0.7152  0.3887
   21MPD2    H3  329   1.562   3.085  14.630  0.0685 -0.2996 -0.4424
   21MPD2     N  330   1.243   2.815  14.452 -0.4381  0.7851  0.0427
   21MPD2    H5  331   1.179   2.876  14.503 -1.8732 -0.3697 -0.3854
   21MPD2    N1  332   1.711   2.762  14.344 -0.4050  0.1826  0.3009
   21MPD2    H7  333   1.674   2.707  14.267  1.3202  0.4550 -0.7221
   22TCq2    C1  334   1.203   2.695  14.388  0.4907 -0.9797 -0.5920
   22TCq2    O2  335   1.272   2.593  14.362 -0.2794  0.3452 -0.0029
   22TCq2    C2  336   1.059   2.674  14.390  0.5402  0.4761 -0.1096
   22TCq2    C3  337   1.024   2.544  14.423  0.7508  0.5191 -0.1115
   22TCq2    C4  338   0.894   2.519  14.452 -0.2168 -0.6608  0.3857
   22TCq2    C5  339   0.799   2.611  14.466  0.1713 -0.6778 -0.3929
   22TCq2    C6  340   0.845   2.740  14.448 -0.2968  0.2831 -0.1674
   22TCq2    C7  341   0.972   2.772  14.415  1.0630  0.4556  0.7924
   22TCq2    C8  342   0.781   2.840  14.524  0.1392  0.2047  0.0471
   22TCq2    O4  343   0.833   2.884  14.628  0.2206 -0.8944 -0.1392
   22TCq2    C9  344   0.857   2.382  14.462  0.1308  0.2857  0.5521
   22TCq2    O5  345   0.944   2.290  14.492  0.1645  0.1469 -0.7122
   22TCq2    O6  346   0.734   2.354  14.465  0.1307  0.0776  0.1587
   22TCq2    H2  347   1.092   2.460  14.411 -1.1973 -0.9751 -0.8089
   22TCq2    H3  348   0.695   2.587  14.487  0.0754  0.2781  0.2519
   22TCq2    H4  349   0.995   2.877  14.401 -2.7221  1.2457  0.5320
   23MPD2     C  350   2.310   3.582  14.470  0.3259  1.0670  0.1087
   23MPD2    C1  351   2.250   3.507  14.572 -0.3661 -0.2012  0.2145
   23MPD2    C2  352   2.121   3.466  14.556 -0.5024 -0.6930 -0.3981
   23MPD2    C3  353   2.049   3.505  14.446  0.2161 -0.0825 -0.0470
   23MPD2    C4  354   2.104   3.568  14.339  0.1952  0.6940  0.1572
   23MPD2    C5  355   2.242   3.596  14.349 -0.0703 -0.6816 -0.7710
   23MPD2     H  356   2.086   3.402  14.636 -1.8381  1.3590  0.6449
   23MPD2    H1  357   2.053   3.579  14.244  0.9889 -2.0656 -0.5887
   23MPD2    H2  358   2.413   3.614  14.478  1.5234 -2.5777 -0.7048
   23MPD2    H3  359   2.299   3.635  14.266 -0.5935  0.6443 -0.5016
   23MPD2     N  360   1.912   3.486  14.425 -0.1664  0.5587 -0.0854
   23MPD2    H5  361   1.866   3.519  14.341  1.8136  0.8827 -1.0474
   23MPD2    N1  362   2.318   3.470  14.693  0.1750  0.5887  0.0231
   23MPD2    H7  363   2.258   3.440  14.769  2.4117 -0.8114  1.2218
   24TCq2    C1  364   1.834   3.419  14.519  0.0769  0.0094  0.2155
   24TCq2    O2  365   1.852   3.386  14.634  0.5784 -0.7120  0.1379
   24TCq2    C2  366   1.693   3.441  14.488 -0.4981  0.5481 -0.7708
   24TCq2    C3  367   1.604   3.431  14.590 -0.0253  0.2132  0.3201
   24TCq2    C4  368   1.473   3.423  14.568  0.1907 -0.2896 -0.1897
   24TCq2    C5  369   1.428   3.436  14.444 -0.0262  0.1072  0.0331
   24TCq2    C6  370   1.520   3.457  14.342 -0.3748  0.1951 -0.6663
   24TCq2    C7  371   1.654   3.453  14.361  0.6921 -0.1439 -0.0973
   24TCq2    C8  372   1.475   3.469  14.207  0.3395  0.0718  0.2324
   24TCq2    O4  373   1.553   3.510  14.121 -0.6051 -0.2691  1.0887
   24TCq2    C9  374   1.379   3.407  14.668 -0.0119  1.0206 -0.1158
   24TCq2    O5  375   1.405   3.447  14.780  0.1782 -0.1683 -0.1707
   24TCq2    O6  376   1.273   3.342  14.643 -0.2734 -0.7847 -0.2355
   24TCq2    H2  377   1.633   3.413  14.693 -0.1907  3.3949  0.9295
   24TCq2    H3  378   1.323   3.460  14.439  0.3004  1.4430 -0.3956
   24TCq2    H4  379   1.716   3.455  14.272 -0.6704 -0.7770 -1.0650
   25TMC2    C1  380   1.156   1.262  11.630 -0.8745  0.8185 -0.2286
   25TMC2    C2  381   1.266   1.323  11.667 -0.1894 -0.6880 -0.5613
   25TMC2    C3  382   1.254   1.393  11.783  0.8297  0.2216  0.1286
   25TMC2    C4  383   1.038   1.257  11.705  0.1191 -0.5735  0.5592
   25TMC2    C5  384   1.030   1.342  11.806  0.6222  0.3581 -0.3027
   25TMC2    C6  385   1.141   1.398  11.856  0.1494 -0.5149 -0.4537
   25TMC2     C  386   1.163   1.183  11.510  0.2016 -1.0147  0.2120
   25TMC2     O  387   1.276   1.176  11.458 -0.1022 -0.3301  0.1272
   25TMC2     H  388   1.359   1.327  11.610 -1.1140  3.6690 -1.7460
   25TMC2    H1  389   0.958   1.187  11.685 -1.5006  1.0167  1.4898
   25TMC2    H2  390   1.138   1.459  11.946 -1.4262 -0.3019 -0.6392
   25TMC2    C7  391   0.909   1.365  11.878 -0.2410  0.5041  0.0354
   25TMC2    C8  392   1.364   1.468  11.835  0.0651  0.1840  0.5795
   25TMC2    O1  393   0.913   1.386  12.001 -0.4058 -0.0849 -0.2851
   25TMC2    O2  394   1.482   1.428  11.831 -0.0852 -0.0936 -0.0773
   25TMC2    O5  395   1.329   1.600  11.826  0.1712  0.4544  0.3044
   25TMC2    H5  396   1.242   1.603  11.782  1.9351  3.4088 -2.9236
   26MPD2     C  397   0.965   0.904  11.143 -0.2306  0.7010 -0.3841
   26MPD2    C1  398   0.871   0.904  11.242 -0.6461 -0.5390  0.5214
   26MPD2    C2  399   0.899   0.979  11.357 -0.3698 -0.0547  0.4127
   26MPD2    C3  400   1.022   1.043  11.366  0.0468 -1.3000  0.0601
   26MPD2    C4  401   1.107   1.048  11.260  0.5737  0.0574  0.1293
   26MPD2    C5  402   1.076   0.982  11.147  0.1589  0.3332  0.8597
   26MPD2     H  403   0.826   0.991  11.436  0.2734  1.6546  0.7340
   26MPD2    H1  404   1.199   1.105  11.265 -0.4504  1.6885  0.1803
   26MPD2    H2  405   0.943   0.847  11.053 -0.1174  1.8599 -1.1416
   26MPD2    H3  406   1.149   0.974  11.067 -0.5222  1.1487  0.1656
   26MPD2     N  407   1.047   1.116  11.480  0.2864  0.1920  0.0461
   26MPD2    H5  408   0.972   1.137  11.545  1.3765 -0.3473  1.4805
   26MPD2    N1  409   0.748   0.847  11.205 -0.3706 -0.1536 -0.3011
   26MPD2    H7  410   0.749   0.817  11.108  0.0122  2.0415 -0.9728
   27TMC2    C1  411   0.035   2.893  11.808  0.5892  0.2302  0.0508
   27TMC2    C2  412   0.159   2.946  11.766  0.3145  0.0583  0.2184
   27TMC2    C3  413   0.151   3.070  11.704  0.3339  0.3874  0.1879
   27TMC2    C4  414   4.637   2.942  11.763 -0.2001 -0.5022  0.1555
   27TMC2    C5  415   4.627   3.059  11.707 -0.7144 -0.3733 -0.2204
   27TMC2    C6  416   0.024   3.121  11.681 -0.4553 -0.4249  0.0209
   27TMC2     C  417   0.022   2.839  11.944  0.0746 -0.6399  0.2993
   27TMC2     O  418   0.113   2.769  11.981  0.2480  0.1058  0.1832
   27TMC2     H  419   0.251   2.897  11.793  0.7662  0.6258 -0.2673
   27TMC2    H1  420   4.545   2.890  11.787  0.3914 -0.7876  1.8337
   27TMC2    H2  421   0.035   3.216  11.631  1.4215  1.0313  3.2164
   27TMC2    C7  422   4.540   3.141  11.784 -0.1754  0.1225 -0.2678
   27TMC2    C8  423   0.268   3.156  11.697  0.1415 -0.6973  0.1710
   27TMC2    O1  424   4.499   3.104  11.887  0.4457 -0.3687  0.2207
   27TMC2    O2  425   0.267   3.271  11.738 -0.2650  0.4628 -0.0375
   27TMC2    O5  426   0.367   3.076  11.654 -0.0094  0.0519  0.1911
   27TMC2    H5  427   0.335   2.991  11.616 -1.7377  0.1375  1.4754
   28MPD2     C  428   4.560   2.837  12.407 -0.6370 -0.1159 -0.4377
   28MPD2    C1  429   4.500   2.944  12.344 -0.3045 -0.1681  0.0478
   28MPD2    C2  430   4.534   2.970  12.212  0.2512 -0.1784 -0.1569
   28MPD2    C3  431   4.619   2.883  12.143 -0.1081 -0.4980 -0.3281
   28MPD2    C4  432   4.654   2.764  12.208  0.1948  0.4617 -0.3961
   28MPD2    C5  433   4.632   2.746  12.338  0.3351  0.2429 -0.5332
   28MPD2     H  434   4.500   3.061  12.163  1.2236 -1.6927 -3.6325
   28MPD2    H1  435   4.695   2.680  12.153  0.9304  1.2718 -1.0888
   28MPD2    H2  436   4.532   2.821  12.510 -1.2938 -0.8421 -0.7310
   28MPD2    H3  437   4.655   2.658  12.397 -2.0295 -0.7013 -1.0035
   28MPD2     N  438   4.654   2.913  12.013  0.5029 -0.2471 -0.3578
   28MPD2    H5  439   4.609   2.995  11.974 -0.8486 -1.4435 -1.2854
   28MPD2    N1  440   4.405   3.021  12.419 -0.0887 -0.1130 -1.0601
   28MPD2    H7  441   4.386   2.992  12.514 -0.1727  0.6091 -0.8598
   29MPD2     C  442   4.339   0.742  14.300 -0.6701  0.5960  0.6146
   29MPD2    C1  443   4.461   0.711  14.364 -0.2046  0.6666  0.0256
   29MPD2    C2  444   4.517   0.804  14.457 -0.3558 -0.1726 -0.7043
   29MPD2    C3  445   4.442   0.915  14.485 -0.3962  0.5289  0.5378
   29MPD2    C4  446   4.322   0.941  14.422  0.3264  0.1008  0.2732
   29MPD2    C5  447   4.270   0.859  14.322 -0.0798 -0.1095 -0.2228
   29MPD2     H  448   4.611   0.788  14.508  0.1069  2.1544 -0.8319
   29MPD2    H1  449   4.263   1.030  14.442  0.6826  0.5277 -0.5763
   29MPD2    H2  450   4.286   0.674  14.235  0.9655  0.4663 -0.5713
   29MPD2    H3  451   4.172   0.882  14.281  0.0075  0.1279 -0.2949
   29MPD2     N  452   4.471   1.012  14.577 -0.1478  0.0279  0.0592
   29MPD2    H5  453   4.390   1.066  14.604 -0.8805 -0.2899 -1.5558
   29MPD2    N1  454   4.535   0.592  14.342  0.1565 -0.0368 -0.2214
   29MPD2    H7  455   4.613   0.574  14.404  0.0970 -0.9921 -0.4284
   30TCq2    C1  456   4.595   1.046  14.631  0.0692 -0.6930 -0.7769
   30TCq2    O2  457   4.707   1.014  14.593  0.1149 -0.2287 -0.7666
   30TCq2    C2  458   4.579   1.161  14.721 -0.3998  0.2212 -0.1112
   30TCq2    C3  459   4.460   1.156  14.792 -0.5418 -0.4818 -0.4280
   30TCq2    C4  460   4.378   1.268  14.800  0.1958 -0.8308  0.6331
   30TCq2    C5  461   4.426   1.382  14.741 -0.3191 -1.0387  0.1185
   30TCq2    C6  462   4.544   1.378  14.674  0.3163  0.4293  0.4145
   30TCq2    C7  463   4.626   1.269  14.663 -0.5367  0.1883  0.6151
   30TCq2    C8  464   4.586   1.506  14.636  0.1654 -0.6194  0.0974
   30TCq2    O4  465   4.496   1.588  14.639 -0.1317  0.2783  0.2103
   30TCq2    C9  466   4.255   1.272  14.876 -0.3334  0.5950 -0.4065
   30TCq2    O5  467   4.194   1.162  14.898 -0.1868 -0.2005  0.3940
   30TCq2    O6  468   4.192   1.381  14.872 -0.0336  0.1070 -0.2707
   30TCq2    H2  469   4.423   1.067  14.842  0.8812 -1.0930 -0.4599
   30TCq2    H3  470   4.362   1.469  14.756  0.2678 -0.8130  1.3230
   30TCq2    H4  471   0.005   1.273  14.622 -0.2007  1.3816  1.5390
   31MPD2     C  472   2.374   4.371  14.673 -1.0550  0.2775  0.2326
   31MPD2    C1  473   2.248   4.372  14.608 -0.5073 -0.0733 -0.2004
   31MPD2    C2  474   2.144   4.288  14.650 -0.3457 -0.1286 -0.3072
   31MPD2    C3  475   2.175   4.204  14.756  0.1181  0.1448  0.0901
   31MPD2    C4  476   2.295   4.201  14.822  0.2232 -0.2379  0.0059
   31MPD2    C5  477   2.396   4.280  14.772 -0.1068  0.1589 -0.4113
   31MPD2     H  478   2.042   4.303  14.618 -1.1940 -0.8305  2.0490
   31MPD2    H1  479   2.321   4.131  14.901  0.6114 -0.6837 -0.5111
   31MPD2    H2  480   2.463   4.431  14.654 -0.9782 -0.0305 -0.3851
   31MPD2    H3  481   2.489   4.277  14.829  0.3641 -0.7540 -1.2304
   31MPD2     N  482   2.078   4.112  14.812 -0.1162 -0.4606  0.0896
   31MPD2    H5  483   2.111   4.066  14.896 -0.4241 -1.5523 -0.3848
   31MPD2    N1  484   2.231   4.493  14.526  0.2443 -0.2390 -0.0838
   31MPD2    H7  485   2.306   4.561  14.538 -0.1812 -0.0708  1.6151
   32TCq2    C1  486   1.947   4.103  14.779 -0.4937  0.4134  0.8978
   32TCq2    O2  487   1.886   4.143  14.681 -0.1632  0.3450  0.3854
   32TCq2    C2  488   1.863   4.035  14.885  0.4593 -0.3160 -0.0430
   32TCq2    C3  489   1.746   3.982  14.845  1.1607 -0.1983  0.4217
   32TCq2    C4  490   1.683   3.890  14.928  0.4442  0.9447  0.3181
   32TCq2    C5  491   1.726   3.873  15.057  0.0181  0.5336  0.4887
   32TCq2    C6  492   1.844   3.932  15.095 -0.4477  0.2936  0.2066
   32TCq2    C7  493   1.918   4.005  15.009 -0.6489 -0.1054  0.9133
   32TCq2    C8  494   1.892   3.906  15.234 -0.3456  0.2691  0.2826
   32TCq2    O4  495   1.831   3.825  15.302 -0.2380 -0.2190 -0.1014
   32TCq2    C9  496   1.572   3.806  14.886  0.0072  0.4604 -0.5044
   32TCq2    O5  497   1.499   3.766  14.982 -0.6509  0.4913 -0.2955
   32TCq2    O6  498   1.531   3.826  14.768  0.6893 -0.0360  0.4904
   32TCq2    H2  499   1.711   4.015  14.748  0.2879  0.5814  1.0014
   32TCq2    H3  500   1.671   3.806  15.122  0.3815  0.6060  0.8755
   32TCq2    H4  501   2.019   4.033  15.038  0.3798 -2.4437 -0.4026
   33MPD2     C  502   2.862   1.790  10.377  0.3432  0.4030  0.8125
   33MPD2    C1  503   2.733   1.736  10.358 -0.3439  0.0218 -0.7080
   33MPD2    C2  504   2.636   1.810  10.293  0.6005  0.0598 -0.2174
   33MPD2    C3  505   2.650   1.939  10.250 -0.5889  1.0055  0.3832
   33MPD2    C4  506   2.772   1.997  10.282  0.0832 -0.2958 -0.5380
   33MPD2    C5  507   2.871   1.921  10.338  0.5571 -0.3784 -0.3695
   33MPD2     H  508   2.538   1.765  10.281  0.4164  0.3638  0.1225
   33MPD2    H1  509   2.792   2.101  10.258  1.5744 -0.5160 -0.2637
   33MPD2    H2  510   2.949   1.742  10.419  0.1861 -1.3874 -0.8928
   33MPD2    H3  511   2.966   1.970  10.350  1.2173 -1.6552 -0.3377
   33MPD2     N  512   2.564   2.004  10.162  0.4734  0.1497 -0.2750
   33MPD2    H5  513   2.581   2.102  10.139 -0.6557  0.4750  0.2782
   33MPD2    N1  514   2.718   1.604  10.409  0.1853  0.0064  0.2963
   33MPD2    H7  515   2.806   1.561  10.436 -0.0992 -0.1108  1.0197
   34TCq2    C1  516   2.451   1.948  10.115  0.4995  0.3587  0.3693
   34TCq2    O2  517   2.396   1.845  10.147 -0.2231  0.8125 -0.3676
   34TCq2    C2  518   2.387   2.030  10.012  0.3987  0.0611  0.2670
   34TCq2    C3  519   2.249   2.036  10.000 -0.3278 -0.0760  0.1503
   34TCq2    C4  520   2.201   2.121   9.901 -0.2554 -0.0310  0.7797
   34TCq2    C5  521   2.275   2.168   9.798 -0.1151 -0.5160  0.4686
   34TCq2    C6  522   2.410   2.144   9.810  0.1368 -0.6589 -0.1949
   34TCq2    C7  523   2.462   2.088   9.921 -0.4234 -0.0420 -0.5819
   34TCq2    C8  524   2.495   2.210   9.722  0.6890  0.1731  0.9758
   34TCq2    O4  525   2.607   2.241   9.755  0.2947  0.6140 -0.1621
   34TCq2    C9  526   2.056   2.134   9.891  0.3459  0.5538 -0.2014
   34TCq2    O5  527   2.019   2.195   9.785 -0.3564  0.0333 -0.3463
   34TCq2    O6  528   1.975   2.095   9.984  0.3027  0.4178 -0.0492
   34TCq2    H2  529   2.177   1.995  10.070 -0.5283 -0.9573 -0.5708
   34TCq2    H3  530   2.227   2.236   9.729 -0.5391 -0.8461  0.4339
   34TCq2    H4  531   2.569   2.085   9.936 -0.1714  0.8119 -2.1672
   35MPD2     C  532   4.024   3.551  11.709  0.2644 -0.5013 -0.1870
   35MPD2    C1  533   4.023   3.422  11.759  0.0374 -0.2447  0.5154
   35MPD2    C2  534   3.950   3.322  11.691 -0.3609 -0.4016 -0.8460
   35MPD2    C3  535   3.883   3.355  11.571  0.5021 -0.5450 -0.3925
   35MPD2    C4  536   3.895   3.482  11.519 -0.2355  0.2682 -0.3353
   35MPD2    C5  537   3.967   3.577  11.588  0.2105 -0.1543  0.7385
   35MPD2     H  538   3.933   3.224  11.733 -2.3895  0.2627 -0.1460
   35MPD2    H1  539   3.856   3.514  11.423  0.6379  0.4060 -0.6452
   35MPD2    H2  540   4.079   3.628  11.761  3.7435 -0.9359 -3.1765
   35MPD2    H3  541   3.992   3.676  11.553 -2.2848  0.4290  0.6152
   35MPD2     N  542   3.788   3.263  11.530  0.0370 -0.2646 -0.4371
   35MPD2    H5  543   3.788   3.174  11.580 -1.1754  0.3160  0.6266
   35MPD2    N1  544   4.084   3.413  11.886 -0.4474  0.2399 -0.7790
   35MPD2    H7  545   4.107   3.497  11.939 -0.0438 -0.6837  0.5376
   36TCq2    C1  546   3.689   3.289  11.442  0.2436 -0.2198 -0.0352
   36TCq2    O2  547   3.673   3.389  11.373 -0.0492  0.2004 -0.0037
   36TCq2    C2  548   3.584   3.193  11.427  0.5974 -0.3597 -0.4491
   36TCq2    C3  549   3.471   3.236  11.369  0.1669  0.4018 -0.2793
   36TCq2    C4  550   3.353   3.156  11.358  0.5738 -0.7584  0.2024
   36TCq2    C5  551   3.369   3.032  11.408  0.3318 -0.2732 -0.6791
   36TCq2    C6  552   3.479   2.982  11.475  0.2987 -0.1899  0.0557
   36TCq2    C7  553   3.589   3.070  11.490 -0.3674  0.7322  0.1193
   36TCq2    C8  554   3.463   2.846  11.533  0.1976 -0.2877  0.3434
   36TCq2    O4  555   3.348   2.809  11.551 -0.2749 -0.4887  0.3080
   36TCq2    C9  556   3.235   3.209  11.290 -0.4935  1.0570 -0.3881
   36TCq2    O5  557   3.152   3.124  11.248 -0.2936 -0.2753  0.8380
   36TCq2    O6  558   3.229   3.330  11.268  0.1950 -0.0336  0.6397
   36TCq2    H2  559   3.472   3.333  11.321 -2.0688 -0.4610 -2.0896
   36TCq2    H3  560   3.290   2.959  11.392 -3.2171  3.0684  1.8517
   36TCq2    H4  561   3.673   3.045  11.555 -0.7305  1.1071  0.7312
   37TMC2    C1  562   1.194   3.747  11.503 -0.1837 -0.9675 -0.5780
   37TMC2    C2  563   1.199   3.782  11.369 -0.0537 -0.3622 -0.6644
   37TMC2    C3  564   1.322   3.786  11.307  0.0847 -1.1839 -0.2773
   37TMC2    C4  565   1.305   3.715  11.574  0.1739 -0.0812 -0.4103
   37TMC2    C5  566   1.426   3.728  11.510  0.1174 -0.3747 -0.3191
   37TMC2    C6  567   1.439   3.748  11.378 -0.1223 -0.4986 -0.7786
   37TMC2     C  568   1.070   3.785  11.563 -0.0035 -0.0615 -0.3906
   37TMC2     O  569   0.995   3.851  11.492  0.6631 -0.5440  0.1959
   37TMC2     H  570   1.108   3.814  11.318  0.2642  0.1403 -0.9138
   37TMC2    H1  571   1.303   3.712  11.683  1.8818  0.4074 -0.3589
   37TMC2    H2  572   1.528   3.770  11.320 -2.5925 -1.4136 -4.9201
   37TMC2    C7  573   1.541   3.701  11.595  0.2400 -0.1262  0.5439
   37TMC2    C8  574   1.362   3.898  11.229 -0.1419  0.3664 -0.3596
   37TMC2    O1  575   1.515   3.678  11.709  0.3276  0.1623  0.9283
   37TMC2    O2  576   1.452   3.977  11.253  0.5982  0.0435 -0.8868
   37TMC2    O5  577   1.256   3.920  11.149 -0.0101  0.0323  0.3276
   37TMC2    H5  578   1.190   3.847  11.147 -0.4471  0.4534 -0.8348
   38MPD2     C  579   0.719   3.686  11.931 -0.4743  0.2064 -0.1930
   38MPD2    C1  580   0.844   3.632  11.963  0.7252  0.6471  0.2234
   38MPD2    C2  581   0.956   3.658  11.886  0.6854  0.1072 -0.3215
   38MPD2    C3  582   0.939   3.732  11.769 -0.4629  0.6201 -0.3386
   38MPD2    C4  583   0.814   3.784  11.736 -0.7014 -0.6503 -0.8488
   38MPD2    C5  584   0.711   3.764  11.817  0.4831  0.3001 -0.4444
   38MPD2     H  585   1.054   3.625  11.917  0.2236 -0.8357  0.1424
   38MPD2    H1  586   0.797   3.829  11.639 -0.5346 -0.5853 -0.8468
   38MPD2    H2  587   0.632   3.670  11.994  1.3411  1.1964  2.5956
   38MPD2    H3  588   0.614   3.799  11.782 -0.2755  0.9514  2.2720
   38MPD2     N  589   1.053   3.730  11.682  0.3110  0.1553 -0.5108
   38MPD2    H5  590   1.125   3.664  11.710  0.0360 -1.1424 -2.8632
   38MPD2    N1  591   0.870   3.556  12.080  0.1240 -0.0001  0.1280
   38MPD2    H7  592   0.969   3.533  12.086  0.7103  2.4561  0.0562
   39MPD2     C  593   4.289   0.843   1.463  0.6024 -0.1967  0.5234
   39MPD2    C1  594   4.191   0.835   1.563 -0.3746 -0.3711  0.2201
   39MPD2    C2  595   4.062   0.867   1.527 -0.6204  0.3367 -0.3397
   39MPD2    C3  596   4.030   0.894   1.395  0.2859  0.0857 -0.2649
   39MPD2    C4  597   4.121   0.874   1.295  0.1527  0.3949 -0.0217
   39MPD2    C5  598   4.250   0.860   1.331 -0.0732 -0.3659 -0.7101
   39MPD2     H  599   3.984   0.863   1.602 -1.3357  0.4577 -1.0691
   39MPD2    H1  600   4.108   0.918   1.197  3.3313  1.7520  0.1710
   39MPD2    H2  601   4.394   0.835   1.490  0.7834  1.9728  0.4518
   39MPD2    H3  602   4.330   0.858   1.258  1.2140  2.6809  0.6116
   39MPD2     N  603   3.904   0.933   1.354  0.2090 -0.8606 -0.0146
   39MPD2    H5  604   3.893   0.914   1.255  2.1410 -0.9044 -0.2129
   39MPD2    N1  605   4.225   0.808   1.699 -0.0092 -0.4349 -0.0513
   39MPD2    H7  606   4.323   0.799   1.725 -0.4303  0.2581  1.7686
   40TCq2    C1  607   4.130   0.777   1.804 -0.3971  0.4585 -0.5713
   40TCq2    O2  608   4.010   0.775   1.810 -0.1266  0.3476  0.0181
   40TCq2    C2  609   4.205   0.758   1.924  0.3054  0.3386  0.8651
   40TCq2    C3  610   4.137   0.783   2.036 -0.0265 -0.0339  0.2527
   40TCq2    C4  611   4.196   0.748   2.155 -0.3132  0.2841  0.4160
   40TCq2    C5  612   4.315   0.677   2.158 -0.1681  0.5422 -0.3421
   40TCq2    C6  613   4.381   0.664   2.039  0.6553 -0.2378 -0.4578
   40TCq2    C7  614   4.329   0.701   1.920 -0.1413 -0.7378  0.1823
   40TCq2    C8  615   4.506   0.602   2.048 -0.5552  0.7988 -0.2358
   40TCq2    O4  616   4.522   0.508   2.126 -0.0282  0.6539 -0.0746
   40TCq2    C9  617   4.118   0.746   2.274 -0.2470  0.3779  0.0815
   40TCq2    O5  618   4.183   0.760   2.377  0.3210  0.4095 -0.5539
   40TCq2    O6  619   4.000   0.781   2.267  0.3887  0.6717 -0.5575
   40TCq2    H2  620   4.045   0.840   2.044  0.0123 -0.1674  1.7333
   40TCq2    H3  621   4.356   0.646   2.253  0.9260 -0.9873 -1.3141
   40TCq2    H4  622   4.379   0.669   1.829  1.6073  0.4502  0.7252
   41TMC2    C1  623   2.999   3.654  13.975  0.3320 -0.9791 -0.2134
   41TMC2    C2  624   2.947   3.779  13.970 -0.0568  0.1747 -0.4623
   41TMC2    C3  625   2.920   3.828  13.846 -0.1490 -0.1228  0.0286
   41TMC2    C4  626   3.013   3.579  13.863 -0.1666  0.3114  0.4853
   41TMC2    C5  627   2.991   3.635  13.741 -0.8218 -0.0911 -0.4590
   41TMC2    C6  628   2.943   3.760  13.729 -0.2302  0.2936  0.0953
   41TMC2     C  629   2.945   3.570  14.077  0.4627 -0.0611  0.4074
   41TMC2     O  630   2.893   3.467  14.050  0.5141  0.0644  0.4794
   41TMC2     H  631   2.921   3.831  14.062  1.0784 -0.7410  0.3763
   41TMC2    H1  632   3.052   3.479  13.877 -2.1550 -0.7582 -1.5642
   41TMC2    H2  633   2.923   3.803  13.632  1.5183 -0.4664 -0.5980
   41TMC2    C7  634   2.986   3.537  13.634  0.3854 -0.1106 -0.0317
   41TMC2    C8  635   2.886   3.966  13.829 -0.4457  0.2307  0.3422
   41TMC2    O1  636   3.035   3.427  13.664  0.1372  0.2459 -0.0920
   41TMC2    O2  637   2.793   4.004  13.757  0.1487 -0.2013 -1.1371
   41TMC2    O5  638   3.007   4.019  13.806 -0.6455 -0.4957 -0.3719
   41TMC2    H5  639   3.076   3.957  13.838  0.2076  0.6752  0.0102
   42MPD2     C  640   2.928   3.410  14.336  1.3529 -0.1053  0.4757
   42MPD2    C1  641   2.953   3.544  14.327 -0.2136  0.2610  0.2570
   42MPD2    C2  642   2.975   3.610  14.443 -0.1162  0.1823 -0.5518
   42MPD2    C3  643   2.957   3.547  14.566  0.6159 -0.3938  1.4751
   42MPD2    C4  644   2.932   3.416  14.576 -0.0631  0.4725 -0.1425
   42MPD2    C5  645   2.915   3.349  14.463  0.5251  0.1924  0.0245
   42MPD2     H  646   3.003   3.714  14.439  0.1979  0.1811  1.6272
   42MPD2    H1  647   2.934   3.363  14.670  3.4174  0.4378 -0.2388
   42MPD2    H2  648   2.914   3.349  14.247 -0.4722  1.4060 -0.2604
   42MPD2    H3  649   2.899   3.242  14.474  0.3908  0.1323 -0.7566
   42MPD2     N  650   2.986   3.609  14.690 -1.0496 -0.0638  0.2873
   42MPD2    H5  651   2.994   3.548  14.771  0.9390 -0.9089 -0.5503
   42MPD2    N1  652   2.971   3.614  14.205 -0.1846  0.3361 -0.4751
   42MPD2    H7  653   3.019   3.702  14.220  0.1845  0.0969 -0.2389
   43MPD2     C  654   4.450   1.963   0.855  0.7375 -0.2602  0.8555
   43MPD2    C1  655   4.534   1.887   0.929 -0.0558  0.6505 -0.4110
   43MPD2    C2  656   4.536   1.906   1.065  0.2259  0.1675 -0.1809
   43MPD2    C3  657   4.447   1.993   1.117  0.3555 -0.2517  0.0085
   43MPD2    C4  658   4.352   2.065   1.046 -0.6768 -0.5943  0.2695
   43MPD2    C5  659   4.359   2.046   0.915 -0.5267  0.6920  0.1207
   43MPD2     H  660   4.609   1.850   1.123 -0.2705 -0.0849  0.2015
   43MPD2    H1  661   4.287   2.141   1.088 -0.8760 -1.3670  1.3583
   43MPD2    H2  662   4.434   1.946   0.749 -1.0858  2.0002  0.7635
   43MPD2    H3  663   4.297   2.110   0.853  0.1600 -0.6676 -1.9650
   43MPD2     N  664   4.427   2.003   1.260 -0.0982 -0.4703  0.0975
   43MPD2    H5  665   4.378   2.085   1.292  2.6189  0.2991  2.3660
   43MPD2    N1  666   4.622   1.794   0.873 -0.7191  0.4069  0.8528
   43MPD2    H7  667   4.676   1.739   0.939 -0.6496  0.3488  0.7478
   44TCq2    C1  668   4.445   1.833   1.842 -0.5442 -0.4743  0.1072
   44TCq2    O2  669   4.523   1.742   1.817 -0.4349  0.2517 -0.3814
   44TCq2    C2  670   4.381   1.901   1.725 -0.0901 -0.1190  0.0199
   44TCq2    C3  671   4.301   2.010   1.737  0.3984  0.0261  0.2353
   44TCq2    C4  672   4.273   2.090   1.629 -0.3083 -0.4504  0.3105
   44TCq2    C5  673   4.324   2.062   1.505  0.3563 -0.6214  0.0510
   44TCq2    C6  674   4.404   1.953   1.488  0.0289 -0.5379 -0.0017
   44TCq2    C7  675   4.427   1.871   1.597  0.2300 -0.8521  0.4483
   44TCq2    C8  676   4.454   1.905   1.356 -0.2724 -0.4622  0.6280
   44TCq2    O4  677   4.513   1.803   1.343 -0.0556  0.3397  0.2002
   44TCq2    C9  678   4.196   2.206   1.655  0.6434  0.3638  0.4417
   44TCq2    O5  679   4.182   2.243   1.779  0.3697 -0.0930  0.0254
   44TCq2    O6  680   4.184   2.286   1.560 -0.1720 -0.1239  0.6182
   44TCq2    H2  681   4.259   2.032   1.835 -0.4393 -0.7769  0.0599
   44TCq2    H3  682   4.325   2.140   1.430  1.1516 -0.4032  0.2811
   44TCq2    H4  683   4.501   1.793   1.586  0.6823 -0.5923  1.6370
   45TMC2    C1  684   0.064   4.294   9.126  0.0540 -0.6177 -0.1095
   45TMC2    C2  685   4.715   4.280   9.006 -0.6249 -0.0358  0.2624
   45TMC2    C3  686   4.658   4.394   8.948 -0.0031 -0.0144  0.6401
   45TMC2    C4  687   0.094   4.416   9.179 -0.3668  0.2650 -0.3776
   45TMC2    C5  688   0.030   4.524   9.124  0.4339  0.3599  0.4764
   45TMC2    C6  689   4.674   4.517   9.011 -0.5408  0.0214 -0.7933
   45TMC2     C  690   0.117   4.172   9.192 -0.6388  0.1919 -0.6362
   45TMC2     O  691   0.210   4.193   9.274  0.3294 -0.3396  0.3802
   45TMC2     H  692   4.704   4.182   8.959 -1.0579 -0.8752  2.1012
   45TMC2    H1  693   0.145   4.431   9.274 -2.3146  0.6086  0.6059
   45TMC2    H2  694   4.610   4.595   8.971 -0.6280  0.3492 -0.0128
   45TMC2    C7  695   0.035   4.655   9.191  0.4398 -0.1890  0.7032
   45TMC2    C8  696   4.535   4.377   8.870 -1.1352  0.1827 -0.0354
   45TMC2    O1  697   4.697   0.028   9.138 -0.3345  0.2396 -0.1910
   45TMC2    O2  698   4.443   4.463   8.868 -0.5531 -0.3091  0.2133
   45TMC2    O5  699   4.537   4.258   8.800 -0.2316 -0.0547  0.2018
   45TMC2    H5  700   4.626   4.221   8.780 -0.1781  0.3246 -0.2774
   46MPD2     C  701   0.165   3.879   9.272  0.3279 -0.4064 -0.1617
   46MPD2    C1  702   0.043   3.931   9.221 -0.0476  0.2798 -0.0109
   46MPD2    C2  703   4.653   3.851   9.201  0.4772 -0.1376 -0.5361
   46MPD2    C3  704   4.666   3.713   9.212  0.1416 -0.6743  0.8343
   46MPD2    C4  705   0.056   3.666   9.275 -0.1752 -0.7400  0.0163
   46MPD2    C5  706   0.170   3.742   9.293 -0.2150  0.5253  0.5192
   46MPD2     H  707   4.561   3.893   9.163  1.5755  1.8512 -0.9863
   46MPD2    H1  708   0.069   3.559   9.287 -0.4164 -0.6089  1.4770
   46MPD2    H2  709   0.251   3.942   9.290 -0.6010  0.5107  1.0667
   46MPD2    H3  710   0.252   3.699   9.348  0.9831  0.6381 -1.1725
   46MPD2     N  711   4.558   3.628   9.171 -0.2715  0.1217 -0.4359
   46MPD2    H5  712   4.476   3.670   9.127  0.3429  1.5000 -0.2594
   46MPD2    N1  713   0.028   4.069   9.179  0.3849 -0.6607 -0.7993
   46MPD2    H7  714   4.658   4.090   9.141 -0.8282 -0.9949  1.9655
   47TMC2    C1  715   2.882   4.403   9.094  0.0308 -0.0114 -0.2162
   47TMC2    C2  716   2.854   4.278   9.051 -0.2325  0.4986  0.0578
   47TMC2    C3  717   2.774   4.268   8.942 -0.3236  0.1984 -0.4940
   47TMC2    C4  718   2.820   4.514   9.041  0.4593 -0.1168 -0.1248
   47TMC2    C5  719   2.719   4.499   8.943  0.0356  0.3019 -0.4241
   47TMC2    C6  720   2.702   4.374   8.886 -0.2975 -0.1146 -0.2018
   47TMC2     C  721   2.951   4.413   9.219 -0.1093 -0.6607 -0.5734
   47TMC2     O  722   2.894   4.470   9.309  0.0332 -0.0375  0.4880
   47TMC2     H  723   2.901   4.188   9.089  1.3635  2.0861  1.8304
   47TMC2    H1  724   2.816   4.607   9.097  0.4244  0.2695 -0.7589
   47TMC2    H2  725   2.628   4.362   8.808  0.0944  0.2830 -0.6255
   47TMC2    C7  726   2.639   4.611   8.923  0.1967  0.2013 -0.1701
   47TMC2    C8  727   2.738   4.135   8.909  0.2656  0.2017  0.3295
   47TMC2    O1  728   2.700   4.721   8.915  0.6809 -0.4906  1.2085
   47TMC2    O2  729   2.729   4.084   8.799  0.0836 -0.5205  0.8690
   47TMC2    O5  730   2.707   4.069   9.027  0.4066  0.0739  0.0441
   47TMC2    H5  731   2.704   4.128   9.105  0.7222  0.2182 -0.0538
   48MPD2     C  732   3.114   4.359   9.464 -0.2340  0.8865  0.1208
   48MPD2    C1  733   3.110   4.282   9.352 -0.5310 -0.0516  0.1384
   48MPD2    C2  734   3.190   4.173   9.355 -0.0814 -0.0981  0.1502
   48MPD2    C3  735   3.257   4.133   9.471 -0.1867 -0.6106 -0.1545
   48MPD2    C4  736   3.265   4.214   9.581 -0.4536 -0.9582 -0.1376
   48MPD2    C5  737   3.199   4.333   9.571  0.6138  0.2470 -0.2217
   48MPD2     H  738   3.206   4.102   9.275 -1.1824 -0.6848  0.4512
   48MPD2    H1  739   3.314   4.190   9.675  0.4960 -3.0054 -1.1432
   48MPD2    H2  740   3.067   4.457   9.464  0.1192  1.0549 -2.0195
   48MPD2    H3  741   3.209   4.405   9.651  1.0870 -0.0407 -0.0208
   48MPD2     N  742   3.323   4.009   9.464  0.6312 -0.0153 -0.5297
   48MPD2    H5  743   3.311   3.950   9.383 -0.2768 -2.3737  1.3357
   48MPD2    N1  744   3.050   4.315   9.233 -0.0225  0.1054 -1.1178
   48MPD2    H7  745   3.073   4.253   9.156 -1.2119  0.9323 -2.1380
   49MPD2     C  746   0.586   0.898  10.078 -1.0794  0.0921  0.1955
   49MPD2    C1  747   0.492   0.995  10.109  0.2979 -0.2023  0.6069
   49MPD2    C2  748   0.538   1.104  10.181  0.6719  0.0414 -0.3847
   49MPD2    C3  749   0.669   1.133  10.211 -0.2783  0.3250  0.3067
   49MPD2    C4  750   0.758   1.039  10.178 -0.0929  0.3508 -0.7178
   49MPD2    C5  751   0.714   0.924  10.113 -0.1494  0.2050 -0.2029
   49MPD2     H  752   0.457   1.175  10.188  0.5969 -0.2759  2.0179
   49MPD2    H1  753   0.862   1.060  10.198 -0.3658 -0.0531  1.1120
   49MPD2    H2  754   0.560   0.810  10.020 -0.6583 -0.5655  1.0137
   49MPD2    H3  755   0.789   0.853  10.079  1.6526  1.7986  0.4429
   49MPD2     N  756   0.722   1.246  10.277 -0.5799  0.0104 -0.2807
   49MPD2    H5  757   0.816   1.242  10.314 -0.6944  0.7781  0.1038
   49MPD2    N1  758   0.357   0.967  10.087  0.1099  0.5704 -0.2054
   49MPD2    H7  759   0.284   1.029  10.120  0.9249  2.2911 -1.6202
   50TCq2    C1  760   0.317   0.866  10.002 -0.4135 -0.1673  0.0975
   50TCq2    O2  761   0.359   0.849   9.884 -0.1651 -0.3345 -0.8883
   50TCq2    C2  762   0.182   0.827  10.033  0.5230 -0.4224 -0.4125
   50TCq2    C3  763   0.110   0.762   9.932 -0.4940 -0.6801 -0.1400
   50TCq2    C4  764   4.718   0.698   9.966  0.2729 -0.0632 -0.2326
   50TCq2    C5  765   4.679   0.687  10.094  0.2498  0.3748  0.0480
   50TCq2    C6  766   0.034   0.734  10.194  0.0204  0.3776 -0.4086
   50TCq2    C7  767   0.147   0.803  10.167  0.2266  0.0056  0.3641
   50TCq2    C8  768   0.007   0.695  10.327 -0.3243  0.4134  0.1587
   50TCq2    O4  769   0.055   0.755  10.418  0.0024  0.1330 -0.2762
   50TCq2    C9  770   4.627   0.647   9.859  0.0038  0.1943  0.5175
   50TCq2    O5  771   4.502   0.642   9.892 -0.3610 -0.4623  0.4846
   50TCq2    O6  772   4.679   0.647   9.744  0.5842  0.1887  0.1251
   50TCq2    H2  773   0.136   0.765   9.827 -1.2009  0.2747 -0.2893
   50TCq2    H3  774   4.587   0.632  10.115  0.2668  0.1979 -0.3416
   50TCq2    H4  775   0.220   0.812  10.247 -1.0405 -0.1380  1.5259
   51MPD2     C  776   1.694   4.544   0.535  0.3351  0.1131  0.3044
   51MPD2    C1  777   1.593   4.558   0.632  0.7150 -0.8761 -0.3303
   51MPD2    C2  778   1.641   4.592   0.756  0.3192 -0.2607  0.9259
   51MPD2    C3  779   1.772   4.627   0.785  0.9231 -0.5375 -1.4593
   51MPD2    C4  780   1.871   4.598   0.692  0.1932  0.7917 -0.1207
   51MPD2    C5  781   1.831   4.555   0.569  0.2763 -0.1119  0.4615
   51MPD2     H  782   1.569   4.594   0.837 -2.4828  2.9037 -1.6048
   51MPD2    H1  783   1.976   4.618   0.704  0.2407 -0.3677  1.3302
   51MPD2    H2  784   1.673   4.489   0.444  0.1808  1.1078 -0.2572
   51MPD2    H3  785   1.909   4.534   0.496 -0.5777  1.0872 -0.7892
   51MPD2     N  786   1.811   4.672   0.913  0.2991  0.4496 -1.0199
   51MPD2    H5  787   1.911   4.671   0.931  0.2904  1.5827 -0.9299
   51MPD2    N1  788   1.450   4.546   0.611  0.2337  0.1469  0.2598
   51MPD2    H7  789   1.391   4.540   0.694  0.4998 -0.8187  0.3866
   52TCq2    C1  790   1.735   0.010   1.006 -0.9570 -0.2889 -0.4479
   52TCq2    O2  791   1.620   0.052   0.993 -0.4561  0.1458 -0.1828
   52TCq2    C2  792   1.812   0.066   1.115  0.5047  0.5855  0.9247
   52TCq2    C3  793   1.939   0.015   1.142  0.5937  0.3509  0.3225
   52TCq2    C4  794   2.023   0.083   1.219 -0.1188  0.3218  0.0443
   52TCq2    C5  795   1.987   0.200   1.285 -0.0618  0.0231 -0.8390
   52TCq2    C6  796   1.849   0.233   1.270  0.1040  0.1802 -0.4629
   52TCq2    C7  797   1.766   0.169   1.186  0.4508 -0.1187  0.4122
   52TCq2    C8  798   1.800   0.356   1.333 -0.0087  0.6303 -0.0109
   52TCq2    O4  799   1.887   0.420   1.393  0.1310  0.5339 -0.6684
   52TCq2    C9  800   2.161   0.033   1.242 -0.0816 -0.7168 -0.2381
   52TCq2    O5  801   2.225   0.101   1.326  0.5161 -0.0076 -0.1561
   52TCq2    O6  802   2.208   4.681   1.152 -0.2716  0.4016  0.9448
   52TCq2    H2  803   1.984   4.650   1.094  1.1217  0.9323 -0.2279
   52TCq2    H3  804   2.057   0.258   1.343 -2.1239  0.5020  1.1755
   52TCq2    H4  805   1.673   0.210   1.147  0.4876 -0.7144 -0.3020
   53TMC2    C1  806   2.037   3.573  12.082 -0.7037  0.4485  0.1562
   53TMC2    C2  807   2.129   3.586  12.186 -0.1089 -0.4874 -0.5012
   53TMC2    C3  808   2.091   3.602  12.317 -0.3504 -0.3237 -0.8643
   53TMC2    C4  809   1.903   3.563  12.115  0.3234 -0.1346 -0.3588
   53TMC2    C5  810   1.878   3.574  12.251  0.2054 -0.3141 -0.2120
   53TMC2    C6  811   1.964   3.597  12.354 -0.4264 -0.3876 -0.1401
   53TMC2     C  812   2.076   3.600  11.947  0.0357 -0.4242  0.3134
   53TMC2     O  813   2.171   3.536  11.900 -0.6678 -0.0503  0.1480
   53TMC2     H  814   2.234   3.587  12.160  0.2948 -2.4719  0.9806
   53TMC2    H1  815   1.819   3.534  12.054 -0.3223 -2.4824  1.6641
   53TMC2    H2  816   1.936   3.598  12.459  0.2046  0.3516  0.0166
   53TMC2    C7  817   1.736   3.591  12.277 -0.3779  0.0798 -0.2669
   53TMC2    C8  818   2.178   3.553  12.422 -0.0896  0.6141 -0.4503
   53TMC2    O1  819   1.659   3.605  12.186  0.0322 -0.1096 -0.6257
   53TMC2    O2  820   2.185   3.605  12.533 -0.2700  0.2588  0.2161
   53TMC2    O5  821   2.161   3.422  12.410 -0.9830 -0.2830 -0.5518
   53TMC2    H5  822   2.124   3.407  12.320 -1.2978 -1.2196 -0.2783
   54MPD2     C  823   2.047   3.639  11.649 -0.6716  0.0988 -0.4562
   54MPD2    C1  824   1.947   3.656  11.747  0.0246 -0.1644 -0.2008
   54MPD2    C2  825   1.813   3.691  11.708  0.1016  0.1562 -0.3581
   54MPD2    C3  826   1.788   3.699  11.573  0.4813 -0.2089 -0.3174
   54MPD2    C4  827   1.890   3.689  11.477  0.7058 -0.1239 -0.3233
   54MPD2    C5  828   2.017   3.662  11.516  0.9477  0.3323 -0.2399
   54MPD2     H  829   1.727   3.682  11.773  1.4006  0.6894  1.4314
   54MPD2    H1  830   1.873   3.687  11.370  1.0169  2.0040 -0.4065
   54MPD2    H2  831   2.146   3.603  11.675 -0.1802  0.4655 -1.7980
   54MPD2    H3  832   2.091   3.650  11.438 -2.1162 -0.7419 -2.9789
   54MPD2     N  833   1.660   3.713  11.520 -0.4766  0.1581 -0.1878
   54MPD2    H5  834   1.651   3.711  11.419 -3.3991 -1.2358  0.1083
   54MPD2    N1  835   1.968   3.645  11.886  0.1320  0.0472 -0.0820
   54MPD2    H7  836   1.893   3.666  11.950 -1.1447 -3.0894 -0.5506
   55MPD2     C  837   2.473   1.186   1.083  0.8615 -0.9440  0.8810
   55MPD2    C1  838   2.350   1.113   1.079  0.4671  0.5030  0.3561
   55MPD2    C2  839   2.226   1.179   1.068 -0.4176  0.0660 -0.3981
   55MPD2    C3  840   2.229   1.319   1.074 -0.0377  0.2626 -0.3489
   55MPD2    C4  841   2.347   1.386   1.065  0.0245 -0.3046  0.4241
   55MPD2    C5  842   2.466   1.324   1.074 -0.0875  0.7698 -0.1387
   55MPD2     H  843   2.131   1.128   1.069 -0.7689  0.7411  1.1493
   55MPD2    H1  844   2.352   1.493   1.049 -0.7215 -0.3905 -0.3711
   55MPD2    H2  845   2.572   1.143   1.089  0.9715 -0.5531  1.8847
   55MPD2    H3  846   2.560   1.378   1.073 -0.2762  1.0158 -3.4144
   55MPD2     N  847   2.105   1.378   1.077 -0.3285  0.7478 -0.1685
   55MPD2    H5  848   2.021   1.322   1.074 -0.8167  1.5527 -1.2193
   55MPD2    N1  849   2.360   0.972   1.081  0.3655 -0.6109  0.2328
   55MPD2    H7  850   2.454   0.935   1.072  0.4207 -0.8307  1.7247
   56TCq2    C1  851   2.254   0.876   1.077  0.3681  0.4415  0.7455
   56TCq2    O2  852   2.132   0.897   1.071 -0.1086 -0.1454  0.0871
   56TCq2    C2  853   2.308   0.741   1.054 -0.3441 -0.1367 -0.2686
   56TCq2    C3  854   2.438   0.707   1.044  0.2142  0.1842  0.3218
   56TCq2    C4  855   2.466   0.589   0.991 -0.3161  0.1786 -0.0269
   56TCq2    C5  856   2.375   0.494   0.958 -0.0609 -0.0016  0.1700
   56TCq2    C6  857   2.246   0.525   0.991 -0.3725 -0.1622  0.4209
   56TCq2    C7  858   2.203   0.647   1.032 -0.0647 -0.6498 -0.0890
   56TCq2    C8  859   2.151   0.426   0.954 -0.2638 -0.0209  0.3633
   56TCq2    O4  860   2.194   0.327   0.896  0.2011 -0.4460  0.4144
   56TCq2    C9  861   2.606   0.564   0.974  0.5253  0.4200 -0.0086
   56TCq2    O5  862   2.637   0.453   0.927  0.1009 -0.3432  0.0397
   56TCq2    O6  863   2.684   0.663   0.969 -0.1006  0.1571 -0.3176
   56TCq2    H2  864   2.519   0.778   1.057 -0.8448  1.9856 -2.8812
   56TCq2    H3  865   2.400   0.396   0.918 -1.7245 -0.0867 -0.6559
   56TCq2    H4  866   2.100   0.661   1.064  1.0127  2.1330  2.1341
   57TMC2    C1  867   1.283   2.357  13.248  0.0741 -0.2684  0.4225
   57TMC2    C2  868   1.195   2.277  13.179  0.3741  0.0947  0.0688
   57TMC2    C3  869   1.168   2.305  13.048 -0.6350 -0.1416 -0.1432
   57TMC2    C4  870   1.372   2.438  13.185 -0.3150 -0.5296 -0.4173
   57TMC2    C5  871   1.345   2.456  13.051 -0.3041  0.0942  0.5308
   57TMC2    C6  872   1.248   2.391  12.981  0.3998  0.1648  0.2951
   57TMC2     C  873   1.271   2.370  13.387  0.4491 -0.0566  0.3482
   57TMC2     O  874   1.331   2.470  13.436 -0.0156  0.6585 -0.0616
   57TMC2     H  875   1.118   2.222  13.232  0.6239 -0.4422 -0.1248
   57TMC2    H1  876   1.433   2.510  13.239 -0.9101  1.1229 -1.9370
   57TMC2    H2  877   1.230   2.403  12.875  1.4268 -1.7905 -0.0872
   57TMC2    C7  878   1.457   2.505  12.971 -0.1080  0.1922  0.5518
   57TMC2    C8  879   1.061   2.235  12.973  0.4763  0.0572  0.1267
   57TMC2    O1  880   1.426   2.565  12.870 -0.4157 -0.0918 -0.3457
   57TMC2    O2  881   1.026   2.119  13.001 -0.2124 -0.1199  0.2693
   57TMC2    O5  882   0.982   2.324  12.915 -0.4140  0.3743 -0.9002
   57TMC2    H5  883   1.024   2.412  12.903  1.0565 -0.3676 -1.1636
   58MPD2     C  884   1.181   2.178  13.859 -0.0167  0.5917 -0.4039
   58MPD2    C1  885   1.173   2.303  13.809 -0.0047  0.0241  0.4705
   58MPD2    C2  886   1.198   2.323  13.674  0.3095  0.4882  0.2344
   58MPD2    C3  887   1.231   2.223  13.589 -0.6437  0.7678 -0.0647
   58MPD2    C4  888   1.239   2.095  13.637  0.5250 -0.0120  0.5413
   58MPD2    C5  889   1.227   2.083  13.782 -0.2568  0.1382  0.7282
   58MPD2     H  890   1.184   2.419  13.626 -0.6133  0.3773  0.2825
   58MPD2    H1  891   1.269   2.015  13.570  0.4835 -1.0010  1.7045
   58MPD2    H2  892   1.157   2.142  13.958  0.8243 -1.4081 -0.9386
   58MPD2    H3  893   1.241   1.986  13.829  1.6102  1.5753  3.1253
   58MPD2     N  894   1.245   2.247  13.449 -0.1526  0.4657  0.0677
   58MPD2    H5  895   1.238   2.161  13.396  2.0949  0.5580 -0.3594
   58MPD2    N1  896   1.117   2.413  13.879 -0.1747  0.2595 -0.7418
   58MPD2    H7  897   1.106   2.496  13.822 -0.2308  1.3346  0.8075
   59MPD2     C  898   3.760   2.655  13.142  0.4391 -0.1673 -0.3814
   59MPD2    C1  899   3.863   2.647  13.050  0.1423  0.3783  0.0011
   59MPD2    C2  900   3.981   2.710  13.076  0.0815  0.2877  0.0864
   59MPD2    C3  901   3.997   2.793  13.185 -0.1673  0.1537  0.5477
   59MPD2    C4  902   3.883   2.815  13.262 -0.2965  0.4519 -0.1261
   59MPD2    C5  903   3.770   2.738  13.249  0.4585  0.1693 -0.5218
   59MPD2     H  904   4.057   2.692  13.000 -1.5507 -0.4527 -1.3711
   59MPD2    H1  905   3.881   2.892  13.338  0.9623 -0.6817  1.0511
   59MPD2    H2  906   3.662   2.611  13.133  1.1055 -1.1299 -2.7489
   59MPD2    H3  907   3.686   2.747  13.316 -0.9366  2.2235 -2.5310
   59MPD2     N  908   4.115   2.867  13.204 -0.1665 -0.1414 -0.3206
   59MPD2    H5  909   4.112   2.911  13.295 -2.6857  1.4829 -1.1911
   59MPD2    N1  910   3.873   2.567  12.932  0.8417  0.3472  0.2199
   59MPD2    H7  911   3.959   2.556  12.880 -0.0744 -2.0204 -0.7793
   60TCq2    C1  912   3.785   2.465  12.900 -0.3890 -0.2809  0.0038
   60TCq2    O2  913   3.674   2.441  12.948  0.0630  0.1054 -0.1951
   60TCq2    C2  914   3.847   2.379  12.805 -0.9238  0.3957 -0.2612
   60TCq2    C3  915   3.799   2.249  12.802  0.2456 -0.6744  0.0603
   60TCq2    C4  916   3.868   2.162  12.725  0.3829 -0.3591 -0.4569
   60TCq2    C5  917   3.971   2.204  12.646 -0.0129 -0.6717  0.3144
   60TCq2    C6  918   4.006   2.334  12.644  0.8732 -0.3690 -0.0943
   60TCq2    C7  919   3.952   2.427  12.730 -0.3420  0.4820  0.1479
   60TCq2    C8  920   4.107   2.374  12.546  0.3175  0.3166 -0.6478
   60TCq2    O4  921   4.210   2.310  12.537  0.2401  0.5474 -0.1484
   60TCq2    C9  922   3.812   2.028  12.709  0.3994 -0.5151 -1.1584
   60TCq2    O5  923   3.708   1.994  12.769 -0.1219 -0.4848 -0.1905
   60TCq2    O6  924   3.890   1.946  12.656  0.1217 -0.0739 -0.1699
   60TCq2    H2  925   3.709   2.213  12.850 -0.1263 -0.0127 -0.1486
   60TCq2    H3  926   4.017   2.139  12.572  0.2030  0.1765 -0.2968
   60TCq2    H4  927   3.985   2.530  12.730 -1.0152  0.6997  0.7150
   61MPD2     C  928   3.729   3.936  14.682 -0.7338  0.2339 -0.0196
   61MPD2    C1  929   3.641   4.030  14.735  0.1494  0.5952  0.1395
   61MPD2    C2  930   3.614   4.145  14.662 -0.3632  0.2595 -0.4990
   61MPD2    C3  931   3.680   4.175  14.545 -0.8091 -0.1928 -0.2662
   61MPD2    C4  932   3.775   4.092  14.497 -0.1290 -0.0346 -0.3428
   61MPD2    C5  933   3.792   3.969  14.563 -0.5803 -0.5330 -0.8508
   61MPD2     H  934   3.545   4.211  14.714 -1.2294 -0.5590 -0.6273
   61MPD2    H1  935   3.826   4.114  14.404  1.7932 -0.1810  0.6766
   61MPD2    H2  936   3.729   3.837  14.724 -2.3633  0.0009 -0.5421
   61MPD2    H3  937   3.850   3.890  14.517  1.5281  1.0613 -0.9197
   61MPD2     N  938   3.668   4.306  14.486  0.2362  0.4678 -0.4430
   61MPD2    H5  939   3.731   4.332  14.411  1.2051 -1.5300 -0.3458
   61MPD2    N1  940   3.588   4.031  14.867 -0.2935 -0.0868 -0.6542
   61MPD2    H7  941   3.527   4.108  14.892  3.3056  3.3940 -2.5079
   62TCq2    C1  942   3.615   3.934  14.961 -0.1930 -0.9558 -0.5477
   62TCq2    O2  943   3.694   3.839  14.959  0.1082  0.0903  0.1210
   62TCq2    C2  944   3.551   3.962  15.083  0.0841  0.3642 -0.6987
   62TCq2    C3  945   3.494   3.863  15.155 -0.3752  0.1270 -0.1582
   62TCq2    C4  946   3.420   3.893  15.272  0.1688  1.4196  0.4524
   62TCq2    C5  947   3.407   4.022  15.315 -0.0352  0.2416 -0.1034
   62TCq2    C6  948   3.471   4.120  15.241  0.7848  0.0990  0.7103
   62TCq2    C7  949   3.535   4.094  15.129 -0.2440 -0.4465 -0.2943
   62TCq2    C8  950   3.456   4.256  15.267  0.1978 -0.0648  0.0803
   62TCq2    O4  951   3.520   4.340  15.211 -0.2306  0.0031 -0.1137
   62TCq2    C9  952   3.372   3.772  15.337 -0.0858 -0.5843  0.5265
   62TCq2    O5  953   3.417   3.656  15.309  0.2916 -0.0479 -0.3587
   62TCq2    O6  954   3.264   3.784  15.401  0.0681  0.0659  0.3468
   62TCq2    H2  955   3.503   3.766  15.108  0.9199 -0.7472  1.9256
   62TCq2    H3  956   3.365   4.051  15.410 -1.1505  1.0421 -0.8339
   62TCq2    H4  957   3.574   4.178  15.072  0.0902  0.2510  0.9530
   63TMC2    C1  958   3.135   3.819  10.732 -0.4913  0.0317 -0.4276
   63TMC2    C2  959   3.234   3.841  10.821  0.7778  0.3736 -0.3999
   63TMC2    C3  960   3.345   3.911  10.777 -0.1375  0.3642 -0.3250
   63TMC2    C4  961   3.127   3.871  10.605  0.5036 -0.3128 -0.3546
   63TMC2    C5  962   3.230   3.947  10.572  0.1666 -0.7001 -0.3460
   63TMC2    C6  963   3.351   3.957  10.647  0.3464  0.2627  0.3014
   63TMC2     C  964   3.017   3.745  10.781  0.3511 -0.6294 -0.2427
   63TMC2     O  965   2.987   3.739  10.901 -0.0475  0.2357 -0.1763
   63TMC2     H  966   3.226   3.809  10.924 -1.6214 -0.2299 -0.7780
   63TMC2    H1  967   3.052   3.856  10.528  1.0758 -1.8733 -0.6126
   63TMC2    H2  968   3.436   4.012  10.608  1.0659 -1.3633 -0.4311
   63TMC2    C7  969   3.208   4.019  10.447 -0.2643 -0.1209 -0.3865
   63TMC2    C8  970   3.397   4.000  10.871 -0.4409  1.1014  0.4328
   63TMC2    O1  971   3.129   3.968  10.366  0.6241 -0.1622 -0.3211
   63TMC2    O2  972   3.428   4.120  10.856 -0.1786 -0.2268 -0.2930
   63TMC2    O5  973   3.428   3.928  10.976 -0.3156  0.0411 -0.3266
   63TMC2    H5  974   3.432   3.832  10.954  3.1717 -0.0295  0.5888
   64MPD2     C  975   2.618   3.428  10.696  0.0884  0.0600  0.4257
   64MPD2    C1  976   2.720   3.397  10.612  0.0637 -0.1649 -0.4019
   64MPD2    C2  977   2.831   3.475  10.609 -0.1351 -0.3533 -0.6809
   64MPD2    C3  978   2.853   3.584  10.696 -0.5179  0.2124  0.2903
   64MPD2    C4  979   2.749   3.611  10.787  0.7612 -0.1383 -0.6058
   64MPD2    C5  980   2.630   3.536  10.774  0.2797 -0.4364  0.0658
   64MPD2     H  981   2.914   3.451  10.544  1.3098  0.9067  0.6668
   64MPD2    H1  982   2.748   3.701  10.848 -1.7152  1.6596 -3.2848
   64MPD2    H2  983   2.525   3.373  10.698 -0.6885  1.3524  0.3957
   64MPD2    H3  984   2.547   3.564  10.837 -0.5022  0.6295 -1.4430
   64MPD2     N  985   2.966   3.663  10.683 -0.5265  0.2365 -0.3363
   64MPD2    H5  986   3.027   3.655  10.603  0.5837  0.2608  0.5052
   64MPD2    N1  987   2.721   3.281  10.536  0.3234 -0.1540 -0.0688
   64MPD2    H7  988   2.807   3.274  10.483  1.4303  1.2443  1.5235
   65MPD2     C  989   3.979   3.528  15.512  0.1212 -0.5337 -0.0650
   65MPD2    C1  990   4.015   3.539  15.380 -0.0806 -0.3332  0.9605
   65MPD2    C2  991   4.042   3.426  15.308 -0.7972 -0.3912 -0.3524
   65MPD2    C3  992   4.059   3.300  15.369 -0.1671 -0.0064 -0.7614
   65MPD2    C4  993   4.031   3.292  15.500 -0.0250 -0.1241 -0.0508
   65MPD2    C5  994   3.985   3.401  15.566 -0.2076  0.0730  0.1049
   65MPD2     H  995   4.063   3.434  15.202  0.6824 -1.6193 -0.1462
   65MPD2    H1  996   4.040   3.198  15.552 -0.2859 -1.2717 -2.0777
   65MPD2    H2  997   3.952   3.606  15.582  1.1402  2.0305 -2.5206
   65MPD2    H3  998   3.954   3.387  15.669 -3.1109 -2.7782 -1.1906
   65MPD2     N  999   4.100   3.179  15.301  0.1455 -0.6123 -0.9300
   65MPD2    H5 1000   4.102   3.095  15.358  0.0300 -1.1548 -1.7154
   65MPD2    N1 1001   4.037   3.668  15.323 -0.2829  0.9041  0.1499
   65MPD2    H7 1002   4.053   3.665  15.223 -0.5352 -0.2823  0.1409
   66TCq2    C1 1003   4.034   3.790  15.383  0.9448  0.4770 -0.6135
   66TCq2    O2 1004   3.997   3.821  15.493  0.7062 -0.0449  0.1622
   66TCq2    C2 1005   4.089   3.905  15.315  0.5708  0.3925  0.3119
   66TCq2    C3 1006   4.170   3.890  15.204  0.1031  0.3803  0.2216
   66TCq2    C4 1007   4.244   3.994  15.165  0.3641  0.3078  0.5413
   66TCq2    C5 1008   4.230   4.114  15.222 -0.6172  0.2809  0.7589
   66TCq2    C6 1009   4.154   4.129  15.332  0.1721 -0.7404 -0.5677
   66TCq2    C7 1010   4.081   4.024  15.382  0.2844 -1.2722  0.5500
   66TCq2    C8 1011   4.124   4.264  15.380  0.2113 -0.2381 -0.7411
   66TCq2    O4 1012   4.148   4.353  15.300 -0.2909  0.1440 -0.3706
   66TCq2    C9 1013   4.327   3.980  15.044  0.9052 -1.3812 -0.1079
   66TCq2    O5 1014   4.309   3.878  14.975  0.7075  1.0044  0.0608
   66TCq2    O6 1015   4.425   4.059  15.026 -0.1238 -0.0037 -0.7848
   66TCq2    H2 1016   4.180   3.797  15.150 -1.6500  0.9735 -1.1495
   66TCq2    H3 1017   4.289   4.196  15.183  1.0006 -0.2211  2.1710
   66TCq2    H4 1018   4.020   4.035  15.471  0.2958  1.9609  0.1755
   67MPD2     C 1019   4.077   3.245  13.874  0.0778 -0.1683 -0.0923
   67MPD2    C1 1020   3.997   3.302  13.973  0.1512 -0.4929 -0.7209
   67MPD2    C2 1021   3.873   3.351  13.942  0.0531  0.6834  0.0427
   67MPD2    C3 1022   3.823   3.341  13.819 -0.7280  0.2223  0.0316
   67MPD2    C4 1023   3.902   3.298  13.719  0.5459  0.3887 -0.1192
   67MPD2    C5 1024   4.028   3.249  13.744  0.3181 -0.1892 -0.2100
   67MPD2     H 1025   3.816   3.387  14.028  2.1221  0.1367  1.6499
   67MPD2    H1 1026   3.865   3.288  13.618  0.3461  0.3713 -0.0426
   67MPD2    H2 1027   4.179   3.210  13.886 -0.2046 -0.5818  1.1393
   67MPD2    H3 1028   4.091   3.211  13.664  0.7073 -2.4237  1.1400
   67MPD2     N 1029   3.704   3.409  13.785  0.3994 -1.1448  0.2191
   67MPD2    H5 1030   3.693   3.432  13.687  1.2685  0.0205  0.4028
   67MPD2    N1 1031   4.041   3.307  14.108  0.1336 -0.4084  0.5653
   67MPD2    H7 1032   3.971   3.326  14.179  0.1327  0.3794  0.3472
   68TCq2    C1 1033   4.173   3.289  14.144 -0.4239 -0.5166  0.0697
   68TCq2    O2 1034   4.281   3.274  14.086  0.5347 -0.3936  0.7910
   68TCq2    C2 1035   4.184   3.274  14.290  0.2878 -0.6072 -0.3958
   68TCq2    C3 1036   4.077   3.268  14.362 -0.9638  0.5452  0.3494
   68TCq2    C4 1037   4.091   3.270  14.501  0.4758  0.4667  0.0122
   68TCq2    C5 1038   4.209   3.288  14.555 -0.3130 -0.5699  0.1106
   68TCq2    C6 1039   4.327   3.294  14.477  0.7810 -0.0070 -0.1216
   68TCq2    C7 1040   4.311   3.288  14.337  0.4592  0.5737  0.3728
   68TCq2    C8 1041   4.458   3.282  14.544 -0.7396  0.7159 -0.0882
   68TCq2    O4 1042   4.552   3.242  14.475 -0.1497  0.2128 -0.4987
   68TCq2    C9 1043   3.971   3.260  14.578  0.3803  0.3588  0.4862
   68TCq2    O5 1044   3.966   3.320  14.689  0.5128 -0.7442 -0.4819
   68TCq2    O6 1045   3.868   3.219  14.518  0.1252 -0.8792  0.5920
   68TCq2    H2 1046   3.976   3.248  14.329 -0.2598 -0.2739 -1.2972
   68TCq2    H3 1047   4.218   3.267  14.661  0.2903  1.1341  0.3975
   68TCq2    H4 1048   4.400   3.285  14.276 -0.3557  1.4515 -0.8758
   69TMC2    C1 1049   1.127   4.384  11.854  0.0196 -0.6802  0.3536
   69TMC2    C2 1050   0.999   4.371  11.798  0.2340 -0.1268 -0.5221
   69TMC2    C3 1051   0.969   4.454  11.701  0.1971 -0.5553 -0.2464
   69TMC2    C4 1052   1.218   4.471  11.801  0.9208 -0.3395 -0.6029
   69TMC2    C5 1053   1.184   4.542  11.689  0.1273  0.1896  0.5906
   69TMC2    C6 1054   1.058   4.533  11.641  0.0728  0.1152 -0.0037
   69TMC2     C 1055   1.136   4.327  11.989  0.1109 -0.6299 -0.0990
   69TMC2     O 1056   1.031   4.296  12.047  0.7085  0.1832  0.2983
   69TMC2     H 1057   0.926   4.309  11.848 -2.7960  1.5316 -2.8860
   69TMC2    H1 1058   1.317   4.481  11.842 -0.1408  0.7433  1.6956
   69TMC2    H2 1059   1.025   4.581  11.550  2.1410 -1.7100 -1.7009
   69TMC2    C7 1060   1.290   4.561  11.594  0.4022  0.1163 -0.8627
   69TMC2    C8 1061   0.834   4.449  11.649 -0.3438 -0.6732  0.3658
   69TMC2    O1 1062   1.401   4.575  11.639  0.2286 -0.5871  0.2568
   69TMC2    O2 1063   0.797   4.459  11.532 -0.4203 -0.1334  0.7047
   69TMC2    O5 1064   0.769   4.514  11.748  0.5406 -0.4522 -0.2204
   69TMC2    H5 1065   0.821   4.521  11.830 -1.5254  1.0778  0.9569
   70MPD2     C 1066   1.443   4.184  12.139  0.1148 -0.0199  0.0025
   70MPD2    C1 1067   1.310   4.227  12.134 -0.0825 -0.0892  0.0085
   70MPD2    C2 1068   1.229   4.201  12.246  0.3663  0.2434  0.6203
   70MPD2    C3 1069   1.276   4.131  12.352  0.0631 -0.1368  0.5899
   70MPD2    C4 1070   1.399   4.082  12.349  0.6530  0.8129  0.0373
   70MPD2    C5 1071   1.477   4.109  12.247  1.3945 -0.8743  0.5214
   70MPD2     H 1072   1.129   4.244  12.250  0.0141 -0.3466 -1.8094
   70MPD2    H1 1073   1.439   4.013  12.423  0.0499  0.8286  0.3768
   70MPD2    H2 1074   1.516   4.194  12.059 -0.7407  0.3638 -0.7212
   70MPD2    H3 1075   1.574   4.064  12.233  1.7311  0.2424 -0.7904
   70MPD2     N 1076   1.197   4.109  12.467 -0.8779  0.3803 -0.1207
   70MPD2    H5 1077   1.247   4.058  12.538  0.2263  1.7373  0.0855
   70MPD2    N1 1078   1.265   4.283  12.012 -0.6554  0.2242  0.1768
   70MPD2    H7 1079   1.338   4.299  11.943  0.6452  1.6074  1.8917
   71TMC2    C1 1080   0.023   4.656   1.261 -0.9446  0.0298  0.8206
   71TMC2    C2 1081   0.141   4.622   1.201  0.1341 -0.3999 -0.6141
   71TMC2    C3 1082   0.204   4.511   1.261 -0.4791  1.2217 -0.2597
   71TMC2    C4 1083   4.708   4.601   1.380  0.2249  0.6217  0.0414
   71TMC2    C5 1084   0.063   4.511   1.439  0.0747  0.5243 -0.1768
   71TMC2    C6 1085   0.168   4.455   1.379 -0.3232 -0.2807 -0.3228
   71TMC2     C 1086   4.639   0.017   1.198 -0.2342 -0.4034  0.2244
   71TMC2     O 1087   4.560   0.077   1.272  0.1962 -0.0906  0.4842
   71TMC2     H 1088   0.185   4.685   1.124 -2.2917 -0.6599 -2.2191
   71TMC2    H1 1089   4.622   4.639   1.434  0.7660  0.2513  1.1583
   71TMC2    H2 1090   0.219   4.375   1.431 -0.8646 -0.2936  0.1883
   71TMC2    C7 1091   0.003   4.438   1.558 -0.3724 -0.0425 -0.7369
   71TMC2    C8 1092   0.331   4.461   1.208  0.2240  0.1445  0.0383
   71TMC2    O1 1093   0.083   4.384   1.635 -0.1718 -0.9353 -0.4749
   71TMC2    O2 1094   0.409   4.396   1.280  0.3830  0.0174  0.2826
   71TMC2    O5 1095   0.349   4.516   1.087 -0.4032  0.0121 -0.0590
   71TMC2    H5 1096   0.261   4.525   1.044 -1.4618 -2.2696  1.6599
   72MPD2     C 1097   4.340   0.085   0.782 -0.0058  0.1064  0.3336
   72MPD2    C1 1098   4.316   0.104   0.916 -0.1434 -0.6959 -0.8310
   72MPD2    C2 1099   4.416   0.066   1.005  0.1916 -0.3480  0.2696
   72MPD2    C3 1100   4.535   0.014   0.965  1.0449 -0.4469  0.3265
   72MPD2    C4 1101   4.557   4.713   0.829 -0.2030 -0.1645 -0.0689
   72MPD2    C5 1102   4.458   0.025   0.744 -0.4080 -0.2407  0.0645
   72MPD2     H 1103   4.402   0.085   1.110  2.7577 -1.1983  0.7471
   72MPD2    H1 1104   4.649   4.682   0.781 -0.6067 -0.3507 -0.7238
   72MPD2    H2 1105   4.271   0.109   0.701  0.3370 -1.4903 -0.4216
   72MPD2    H3 1106   4.480   0.004   0.640 -0.9573  1.9483 -0.4790
   72MPD2     N 1107   4.633   4.701   1.062  0.0598  0.4356  0.6870
   72MPD2    H5 1108   4.713   4.645   1.033  1.1100  1.7696  1.0031
   72MPD2    N1 1109   4.213   0.194   0.963 -0.4290  0.5299  0.2799
   72MPD2    H7 1110   4.186   0.192   1.061  0.1916 -2.0781  0.3939
   73TMC2    C1 1111   3.247   1.954  14.108  0.0134  0.3455  1.0985
   73TMC2    C2 1112   3.258   2.076  14.168  0.0323 -0.4438  0.3904
   73TMC2    C3 1113   3.293   2.093  14.299 -0.3898  0.4793  0.4915
   73TMC2    C4 1114   3.312   1.852  14.179 -0.5932 -0.0298  0.1106
   73TMC2    C5 1115   3.364   1.870  14.310  0.4514 -0.0337 -0.1713
   73TMC2    C6 1116   3.356   1.991  14.370 -0.2233  0.8826  0.8611
   73TMC2     C 1117   3.289   1.948  13.975  0.0215  0.7724 -0.0498
   73TMC2     O 1118   3.388   1.880  13.963  0.0414  0.0462 -0.4368
   73TMC2     H 1119   3.220   2.164  14.118  0.7382 -1.7353 -2.4199
   73TMC2    H1 1120   3.315   1.752  14.138  0.3563  0.3094 -0.6361
   73TMC2    H2 1121   3.403   2.012  14.466  0.6954  0.4136  0.5114
   73TMC2    C7 1122   3.495   1.812  14.328 -0.2196  0.6331  0.1331
   73TMC2    C8 1123   3.303   2.225  14.342  0.0660 -0.2394 -0.1144
   73TMC2    O1 1124   3.538   1.773  14.435 -0.5709 -0.0900  0.7285
   73TMC2    O2 1125   3.342   2.308  14.262  0.1191 -0.2196  0.6406
   73TMC2    O5 1126   3.326   2.226  14.476  0.3584 -0.6239  0.5749
   73TMC2    H5 1127   3.257   2.170  14.517 -0.3410  0.0255  0.2737
   74MPD2     C 1128   3.385   2.147  13.515  0.0547  0.4272  0.6295
   74MPD2    C1 1129   3.458   2.072  13.609  0.0028  0.3749  0.2976
   74MPD2    C2 1130   3.410   2.051  13.734 -1.0182 -0.5129 -0.1545
   74MPD2    C3 1131   3.280   2.086  13.773 -0.0533 -0.2967 -0.2031
   74MPD2    C4 1132   3.213   2.176  13.688 -0.5476  0.3439 -0.5830
   74MPD2    C5 1133   3.269   2.202  13.563  0.0814 -0.4175  0.7873
   74MPD2     H 1134   3.483   2.019  13.808 -1.9326 -1.4908  0.3200
   74MPD2    H1 1135   3.113   2.217  13.702 -1.3537 -1.1766 -1.8130
   74MPD2    H2 1136   3.434   2.176  13.423  1.7276 -2.9193  0.4761
   74MPD2    H3 1137   3.212   2.266  13.496 -0.7033 -0.5582  1.3240
   74MPD2     N 1138   3.232   2.048  13.900 -0.0142 -0.3557  0.3834
   74MPD2    H5 1139   3.148   2.093  13.934  0.5674  1.1054 -0.1318
   74MPD2    N1 1140   3.586   2.030  13.565 -0.1470  0.2390 -0.2968
   74MPD2    H7 1141   3.619   2.061  13.474 -0.2966  1.7485  0.1637
   75TCq2    C1 1142   3.612   3.466  13.872 -0.3011  0.3056 -0.3422
   75TCq2    O2 1143   3.608   3.460  13.993  0.0439  0.0875 -0.4599
   75TCq2    C2 1144   3.514   3.546  13.805  0.0979 -0.2350 -0.2792
   75TCq2    C3 1145   3.462   3.648  13.876  0.1547  0.0521  0.7966
   75TCq2    C4 1146   3.372   3.730  13.821 -0.1405  0.1832  0.1885
   75TCq2    C5 1147   3.317   3.712  13.696 -0.1499  0.7913  0.0887
   75TCq2    C6 1148   3.368   3.606  13.629 -0.4746 -0.3945  0.3676
   75TCq2    C7 1149   3.465   3.519  13.677 -0.1824  0.0959  0.1441
   75TCq2    C8 1150   3.329   3.592  13.490  0.5230  0.2233  0.7254
   75TCq2    O4 1151   3.347   3.482  13.440 -0.4190 -0.1211 -0.1794
   75TCq2    C9 1152   3.322   3.835  13.910  0.7995 -0.1172  0.4229
   75TCq2    O5 1153   3.360   3.827  14.031  0.2680  0.3067  0.5941
   75TCq2    O6 1154   3.234   3.911  13.858 -0.6091  0.3654  0.1630
   75TCq2    H2 1155   3.491   3.654  13.980  0.2955 -0.3633  0.7821
   75TCq2    H3 1156   3.236   3.778  13.666  0.8521  0.5553 -3.1467
   75TCq2    H4 1157   3.494   3.429  13.623  1.3869  1.0159 -0.5388
   76MPD2     C 1158   2.184   3.933  11.952  0.4160 -0.2104 -0.2149
   76MPD2    C1 1159   2.227   3.918  11.823 -0.3115  0.6547  0.2447
   76MPD2    C2 1160   2.347   3.849  11.793 -0.4054 -0.8656 -0.2296
   76MPD2    C3 1161   2.426   3.794  11.892 -0.4039 -0.2992  0.0938
   76MPD2    C4 1162   2.388   3.801  12.022  0.0315  0.6970 -0.3953
   76MPD2    C5 1163   2.272   3.877  12.052  0.0283  0.3151 -0.1116
   76MPD2     H 1164   2.373   3.825  11.691  2.3443 -0.0552  0.2803
   76MPD2    H1 1165   2.453   3.782  12.106 -0.0316 -0.6140 -0.6540
   76MPD2    H2 1166   2.090   3.975  11.986 -0.7240 -1.0587 -2.3479
   76MPD2    H3 1167   2.249   3.892  12.157 -0.6239  1.4185 -0.4095
   76MPD2     N 1168   2.546   3.727  11.868  0.9988  0.5430 -0.1201
   76MPD2    H5 1169   2.586   3.679  11.947 -3.0958 -1.1277  0.9131
   76MPD2    N1 1170   2.150   3.972  11.718 -0.1589  0.4343  0.2261
   76MPD2    H7 1171   2.178   3.950  11.624 -2.1633  3.2731 -1.0542
   77TCq2    C1 1172   2.621   3.755  11.754  0.5456 -0.4559 -0.0993
   77TCq2    O2 1173   2.598   3.816  11.653 -0.5004  0.3172  0.2393
   77TCq2    C2 1174   2.755   3.700  11.766  0.0496 -0.5618  0.1845
   77TCq2    C3 1175   2.815   3.674  11.646 -0.0638 -0.0416  0.6999
   77TCq2    C4 1176   2.918   3.579  11.648  0.7364  0.3911 -0.0672
   77TCq2    C5 1177   2.952   3.522  11.765 -0.2572  0.3460 -0.4033
   77TCq2    C6 1178   2.882   3.549  11.885 -0.9605 -0.1818 -0.3356
   77TCq2    C7 1179   2.785   3.644  11.885  0.5769 -0.2808  0.5742
   77TCq2    C8 1180   2.953   3.511  12.007 -0.3241 -0.3366  0.1666
   77TCq2    O4 1181   3.070   3.485  11.990  0.4103  0.3864 -0.2614
   77TCq2    C9 1182   2.987   3.539  11.525 -0.2892 -0.2083 -0.5966
   77TCq2    O5 1183   3.052   3.433  11.536 -0.6315  0.3007  0.6403
   77TCq2    O6 1184   2.942   3.582  11.419 -0.7652 -0.4428 -0.8856
   77TCq2    H2 1185   2.780   3.710  11.550  1.6796 -1.3410 -0.4304
   77TCq2    H3 1186   3.037   3.455  11.761  1.6494  2.8094 -1.9647
   77TCq2    H4 1187   2.753   3.680  11.982 -0.0581  0.7137  0.0037
   78MPD1     C 1188   3.057   3.126   1.635  0.4076 -0.2686  0.1614
   78MPD1    C1 1189   3.133   3.210   1.571 -1.1973  0.0175  0.1927
   78MPD1    C2 1190   3.219   3.281   1.646 -0.6965 -0.4661  0.2871
   78MPD1    C3 1191   3.257   3.259   1.779  0.0191 -0.0112 -0.5490
   78MPD1    C4 1192   3.187   3.154   1.836 -0.0229  0.5580 -0.2850
   78MPD1    C5 1193   3.075   3.107   1.773  0.1820  0.5570 -0.2427
   78MPD1     H 1194   3.259   3.366   1.592 -0.3154 -1.2184 -0.6103
   78MPD1    H1 1195   3.202   3.119   1.937  0.2088 -0.3823 -0.6460
   78MPD1    H2 1196   2.976   3.074   1.586  0.3226 -0.4050  0.4522
   78MPD1    H3 1197   3.019   3.032   1.828 -1.7288  1.1984 -1.3058
   78MPD1     N 1198   3.354   3.326   1.856 -0.7078  0.1424  0.1942
   78MPD1    H5 1199   3.365   3.302   1.954 -0.3763  1.7094  0.5451
   78MPD1    N1 1200   3.102   3.239   1.436 -0.1220  0.5638 -0.5039
   78MPD1    H6 1201   3.051   3.169   1.383 -1.8115 -0.7120  2.7976
   78MPD1    H7 1202   3.184   3.264   1.382 -1.8588  0.9602 -2.9404
   79TCq2    C1 1203   3.440   3.422   1.805 -0.2208  0.2485 -0.1035
   79TCq2    O2 1204   3.430   3.486   1.700 -0.3546  0.2697  0.3331
   79TCq2    C2 1205   3.560   3.447   1.884 -0.2619  1.4068  0.6507
   79TCq2    C3 1206   3.581   3.380   2.003 -0.3390 -0.1667 -0.3016
   79TCq2    C4 1207   3.690   3.408   2.080  0.3212  0.8400  0.1073
   79TCq2    C5 1208   3.783   3.504   2.040 -0.3858  0.7517  0.8940
   79TCq2    C6 1209   3.762   3.567   1.915  0.2057  0.8465 -0.1409
   79TCq2    C7 1210   3.650   3.542   1.835 -0.4282 -0.2330  0.2809
   79TCq2    C8 1211   3.869   3.653   1.866 -0.4751 -0.4392 -0.9070
   79TCq2    O4 1212   3.970   3.666   1.928 -0.4200  0.0154 -0.0776
   79TCq2    C9 1213   3.735   3.324   2.190 -0.2928 -0.0450 -0.7137
   79TCq2    O5 1214   3.651   3.243   2.231 -0.5672  0.2831 -0.1808
   79TCq2    O6 1215   3.859   3.304   2.211 -0.4518  0.2232  0.1587
   79TCq2    H2 1216   3.532   3.290   2.040 -0.4363  0.1376  0.3173
   79TCq2    H3 1217   3.875   3.511   2.097  0.1323  1.7845 -0.0664
   79TCq2    H4 1218   3.627   3.601   1.748  2.2199 -1.0906 -1.0095
   80MPD2     C 1219   1.641   3.208  12.280  0.4603  1.0234  0.5351
   80MPD2    C1 1220   1.570   3.291  12.195 -0.1488 -0.4611  0.0019
   80MPD2    C2 1221   1.445   3.334  12.229 -0.0822  0.4745 -0.0780
   80MPD2    C3 1222   1.393   3.304  12.359 -0.2916 -0.5664 -0.4751
   80MPD2    C4 1223   1.473   3.234  12.447  0.4559  0.0391  0.0257
   80MPD2    C5 1224   1.593   3.181  12.403  0.4962 -0.8730  0.2411
   80MPD2     H 1225   1.386   3.397  12.165 -0.5029  0.7824  0.6182
   80MPD2    H1 1226   1.436   3.204  12.544 -2.0657  1.0724 -0.6002
   80MPD2    H2 1227   1.735   3.165  12.249 -1.5641 -1.6353 -1.8763
   80MPD2    H3 1228   1.654   3.116  12.464  1.5013 -1.2618 -1.1898
   80MPD2     N 1229   1.265   3.344  12.406  0.2479  0.0695  0.2471
   80MPD2    H5 1230   1.250   3.325  12.505  1.0058 -0.8047  0.1916
   80MPD2    N1 1231   1.604   3.325  12.065 -0.6382  0.5192 -0.2958
   80MPD2    H7 1232   1.548   3.402  12.029  0.2600  0.9715 -0.7300
   81TCq2    C1 1233   1.723   3.296  12.007 -0.9144 -0.7922  0.8761
   81TCq2    O2 1234   1.824   3.244  12.057 -0.6330 -0.2888 -0.2920
   81TCq2    C2 1235   1.727   3.333  11.867  0.2123 -0.5854 -0.7988
   81TCq2    C3 1236   1.849   3.339  11.809  0.3947 -0.4598 -0.3413
   81TCq2    C4 1237   1.870   3.305  11.680 -0.1506  0.8531  0.2068
   81TCq2    C5 1238   1.768   3.258  11.607 -0.1206 -0.5719 -0.1781
   81TCq2    C6 1239   1.648   3.258  11.657 -0.1813  0.3854 -0.6275
   81TCq2    C7 1240   1.622   3.307  11.781 -0.0094 -0.1943  0.3552
   81TCq2    C8 1241   1.540   3.203  11.583  0.0376  0.2625 -0.3381
   81TCq2    O4 1242   1.527   3.220  11.462 -0.0532 -0.4625  0.7037
   81TCq2    C9 1243   2.002   3.277  11.639  0.3904  0.4219  0.5783
   81TCq2    O5 1244   2.089   3.279  11.727  0.7167 -0.3702  0.0487
   81TCq2    O6 1245   2.015   3.209  11.534 -0.0763 -0.5249  1.0074
   81TCq2    H2 1246   1.936   3.356  11.871 -0.9019  1.0120  1.0562
   81TCq2    H3 1247   1.782   3.212  11.510  1.4474  3.2102 -1.7407
   81TCq2    H4 1248   1.519   3.303  11.813  0.2760  3.5275  1.7261
   82MPD2     C 1249   0.104   2.648  10.962 -0.1666  0.6937 -0.3021
   82MPD2    C1 1250   0.012   2.561  10.908 -0.2972  0.4010 -0.0140
   82MPD2    C2 1251   4.697   2.448  10.983 -0.1443 -0.2349  0.2491
   82MPD2    C3 1252   0.024   2.427  11.112 -0.3486 -0.9290 -0.5473
   82MPD2    C4 1253   0.112   2.518  11.162  0.9514 -0.4051 -1.0638
   82MPD2    C5 1254   0.154   2.628  11.088 -0.5193  0.1079  0.3388
   82MPD2     H 1255   4.615   2.389  10.945 -0.7801  0.0016  1.2581
   82MPD2    H1 1256   0.158   2.492  11.256  0.9530  2.4298 -0.2782
   82MPD2    H2 1257   0.154   2.715  10.892 -1.7475  0.5534 -1.5530
   82MPD2    H3 1258   0.227   2.698  11.127 -4.3133  2.4325  3.3231
   82MPD2     N 1259   4.714   2.309  11.189  0.0638  0.3660 -0.0312
   82MPD2    H5 1260   0.043   2.293  11.276  2.2486  1.0336 -1.1817
   82MPD2    N1 1261   4.689   2.580  10.776 -1.0997 -0.4168  0.8843
   82MPD2    H7 1262   0.013   2.654  10.722 -2.3993  1.2665  2.1048
   83TCq2    C1 1263   4.621   2.214  11.148  0.0591  0.6015 -0.3224
   83TCq2    O2 1264   4.535   2.222  11.060  0.3564  0.0090 -0.2906
   83TCq2    C2 1265   4.619   2.087  11.229  0.1984 -0.3325 -1.1142
   83TCq2    C3 1266   0.000   2.066  11.324 -0.4820 -0.0004  0.4716
   83TCq2    C4 1267   4.696   1.976  11.424 -0.1798  0.6923 -0.0178
   83TCq2    C5 1268   4.589   1.898  11.419  0.1442 -0.2309 -0.0658
   83TCq2    C6 1269   4.495   1.917  11.321  0.0691 -1.0854  0.0680
   83TCq2    C7 1270   4.509   2.013  11.223  0.1990  0.6817 -0.2176
   83TCq2    C8 1271   4.363   1.872  11.360  0.2505  0.3300  0.0279
   83TCq2    O4 1272   4.344   1.842  11.480  0.2822  0.5313  0.2752
   83TCq2    C9 1273   0.058   1.967  11.540 -0.8541 -0.5472  0.3546
   83TCq2    O5 1274   0.079   1.854  11.592 -0.2788 -0.8661 -0.1226
   83TCq2    O6 1275   0.133   2.066  11.568 -0.1064 -0.4627  0.1065
   83TCq2    H2 1276   0.081   2.137  11.335  1.0623 -2.0065  1.9917
   83TCq2    H3 1277   4.580   1.829  11.502 -0.8776  1.2015  1.0062
   83TCq2    H4 1278   4.419   2.050  11.176 -0.8596  0.8989  1.9754
   84TCq2    C1 1279   0.650   1.359  10.303  0.0241 -0.0448  0.0608
   84TCq2    O2 1280   0.540   1.393  10.261  0.2953  0.6985  0.3357
   84TCq2    C2 1281   0.725   1.469  10.361  0.7740  0.5058  0.2918
   84TCq2    C3 1282   0.860   1.457  10.366 -0.1379  0.3895  0.2451
   84TCq2    C4 1283   0.928   1.559  10.427 -0.0504  0.2889 -0.4510
   84TCq2    C5 1284   0.863   1.667  10.490 -0.0298 -0.5613  0.3057
   84TCq2    C6 1285   0.726   1.660  10.494  0.0273 -0.2623 -0.4208
   84TCq2    C7 1286   0.652   1.559  10.430 -0.1560 -0.7248 -0.4019
   84TCq2    C8 1287   0.692   1.700  10.628  0.2638  0.2005 -0.4158
   84TCq2    O4 1288   0.741   1.800  10.680 -0.8992  0.3763 -0.9066
   84TCq2    C9 1289   1.070   1.575  10.411 -0.3412  0.1287  0.3043
   84TCq2    O5 1290   1.119   1.690  10.432 -0.9423 -0.0625 -0.3340
   84TCq2    O6 1291   1.124   1.476  10.357 -0.1940 -0.5703  0.1637
   84TCq2    H2 1292   0.904   1.395  10.289 -1.9192 -0.0541 -0.4292
   84TCq2    H3 1293   0.921   1.746  10.537  1.0571  0.0324 -2.0150
   84TCq2    H4 1294   0.545   1.545  10.442 -0.3488  0.6355 -0.5230
   85MPD2     C 1295   1.149   4.429  16.264 -1.2374  0.0378  0.8655
   85MPD2    C1 1296   1.217   4.345  16.182 -0.4616 -0.1087 -0.3708
   85MPD2    C2 1297   1.304   4.395  16.088 -0.6332 -0.4307 -0.1400
   85MPD2    C3 1298   1.330   4.535  16.088 -0.1080 -0.5111 -0.2755
   85MPD2    C4 1299   1.250   4.618  16.163 -0.4122  0.1111  0.4201
   85MPD2    C5 1300   1.161   4.563  16.247  0.1614  0.3163 -0.1407
   85MPD2     H 1301   1.359   4.328  16.022  0.3823 -0.9362  1.2271
   85MPD2    H1 1302   1.266   0.003  16.171 -1.1934  0.3759 -1.4626
   85MPD2    H2 1303   1.083   4.398  16.343 -3.4121 -1.5004 -1.5645
   85MPD2    H3 1304   1.108   4.631  16.313 -0.5878 -1.0067  0.6166
   85MPD2     N 1305   1.408   4.604  15.995  0.4531  0.1581  0.7017
   85MPD2    H5 1306   1.397   4.705  15.998 -1.9360 -0.0319 -0.7373
   85MPD2    N1 1307   1.192   4.202  16.187  0.5966  0.0201  0.1921
   85MPD2    H7 1308   1.253   4.153  16.123  1.8147  3.0448 -0.9682
   86TCq2    C1 1309   1.474   4.544  15.891  0.6979 -0.4150 -0.3120
   86TCq2    O2 1310   1.463   4.429  15.852  0.1037 -0.0857  0.4305
   86TCq2    C2 1311   1.541   4.649  15.810  0.4203 -0.4290  0.5402
   86TCq2    C3 1312   1.595   0.033  15.875  0.1549  0.7935 -0.2111
   86TCq2    C4 1313   1.667   0.126  15.801  0.5328  0.2511 -0.1067
   86TCq2    C5 1314   1.663   0.129  15.663 -0.4126  0.1825  0.3392
   86TCq2    C6 1315   1.613   0.008  15.603 -1.2105 -1.0954 -0.2177
   86TCq2    C7 1316   1.552   4.629  15.675 -0.4815 -0.2331  0.4382
   86TCq2    C8 1317   1.633   4.713  15.460 -0.4431 -0.9109 -0.3778
   86TCq2    O4 1318   1.615   4.595  15.418 -0.4900 -0.4115 -0.0947
   86TCq2    C9 1319   1.731   0.232  15.868  0.4233  0.0132  0.3165
   86TCq2    O5 1320   1.669   0.260  15.974 -0.6528  0.0048  0.3392
   86TCq2    O6 1321   1.809   0.308  15.802 -0.1924 -0.5639  0.5361
   86TCq2    H2 1322   1.615   0.038  15.982  4.3517  0.8407 -0.9907
   86TCq2    H3 1323   1.703   0.219  15.616 -0.9475 -0.0989 -0.6661
   86TCq2    H4 1324   1.514   4.541  15.624 -0.0819 -0.7498  1.0494
   87MPD2     C 1325   3.685   3.222   1.611 -0.3045 -0.0038 -0.0055
   87MPD2    C1 1326   3.741   3.342   1.574  0.2711 -0.0043  0.1270
   87MPD2    C2 1327   3.673   3.410   1.473  0.3201 -0.3918 -0.3854
   87MPD2    C3 1328   3.558   3.356   1.416  0.3782 -0.4303  0.1211
   87MPD2    C4 1329   3.504   3.235   1.456  0.2772  0.5903  0.2844
   87MPD2    C5 1330   3.572   3.167   1.554  0.2981  0.3233  0.6010
   87MPD2     H 1331   3.710   3.510   1.453 -0.8966  0.5952  2.2428
   87MPD2    H1 1332   3.420   3.187   1.407  0.1793  0.7424  0.3061
   87MPD2    H2 1333   3.727   3.160   1.689  1.7798  0.8841 -0.4242
   87MPD2    H3 1334   3.522   3.077   1.587 -1.5621  0.1456 -2.7106
   87MPD2     N 1335   3.487   3.421   1.315  0.3301  0.4303  0.5571
   87MPD2    H5 1336   3.415   3.372   1.264  2.4685 -1.6192 -0.4535
   87MPD2    N1 1337   3.866   3.372   1.631 -0.4019 -0.4347 -0.6411
   87MPD2    H7 1338   3.907   3.316   1.705  1.1916  1.8011  0.1648
   88TCq2    C1 1339   3.956   3.459   1.572 -0.1352 -0.3131  0.4031
   88TCq2    O2 1340   3.949   3.522   1.467  0.3227 -0.0973  0.1619
   88TCq2    C2 1341   4.087   3.421   1.612  0.1056 -0.3598  0.6438
   88TCq2    C3 1342   4.107   3.368   1.741  1.3037  0.1235 -0.2336
   88TCq2    C4 1343   4.204   3.271   1.752  0.0915 -0.5224  0.2841
   88TCq2    C5 1344   4.276   3.229   1.645 -0.4850 -0.8857  0.0333
   88TCq2    C6 1345   4.264   3.301   1.523  0.0911  0.0956  0.1552
   88TCq2    C7 1346   4.174   3.408   1.511 -0.8263 -0.1660  0.0215
   88TCq2    C8 1347   4.310   3.242   1.402  1.0326 -0.4152  0.0662
   88TCq2    O4 1348   4.306   3.307   1.298 -0.0938 -0.1972 -0.0687
   88TCq2    C9 1349   4.239   3.220   1.884  0.2898 -0.3257 -0.0371
   88TCq2    O5 1350   4.285   3.101   1.890 -0.2429  0.0001 -0.0639
   88TCq2    O6 1351   4.181   3.276   1.978  0.3408 -0.1512  0.1391
   88TCq2    H2 1352   4.038   3.372   1.825  1.7588 -1.3157  0.2122
   88TCq2    H3 1353   4.338   3.143   1.666 -0.4311 -1.0457 -0.7910
   88TCq2    H4 1354   4.150   3.439   1.410  1.2353 -2.1558 -1.0740
   89MPD2     C 1355   0.049   0.487   2.001  0.7253 -1.1286 -0.4068
   89MPD2    C1 1356   0.010   0.620   1.953  0.1676  0.5615 -0.1820
   89MPD2    C2 1357   0.096   0.703   1.887 -0.0884 -0.1263  0.1588
   89MPD2    C3 1358   0.227   0.665   1.861 -0.6205  0.7260 -0.3237
   89MPD2    C4 1359   0.266   0.536   1.902  0.3390  0.5945 -0.3421
   89MPD2    C5 1360   0.178   0.454   1.963 -0.1049 -0.5063 -0.8968
   89MPD2     H 1361   0.070   0.808   1.874  2.4758  0.3909 -0.8046
   89MPD2    H1 1362   0.369   0.506   1.891 -0.0837 -0.3443 -1.7810
   89MPD2    H2 1363   4.705   0.421   2.057 -0.1499  1.5098  1.6780
   89MPD2    H3 1364   0.221   0.359   1.989 -0.2386 -0.5008 -0.6563
   89MPD2     N 1365   0.312   0.761   1.800 -0.0748 -0.4994 -0.3013
   89MPD2    H5 1366   0.273   0.850   1.773 -0.7099 -0.7226 -0.1161
   89MPD2    N1 1367   4.602   0.661   1.966 -0.1898  0.5229 -0.3984
   89MPD2    H7 1368   4.579   0.752   1.928  0.0538  0.6168 -0.3193
   90TCq2    C1 1369   0.449   0.738   1.763  0.5564 -0.1693 -1.4470
   90TCq2    O2 1370   0.520   0.643   1.791  0.2473  0.0186  0.2593
   90TCq2    C2 1371   0.511   0.852   1.699  0.0655 -0.4787 -0.0992
   90TCq2    C3 1372   0.642   0.880   1.722 -0.3594  0.0888  0.5892
   90TCq2    C4 1373   0.688   1.003   1.702 -0.1917 -0.3982  0.2786
   90TCq2    C5 1374   0.608   1.095   1.639  0.0747  0.5009 -0.1568
   90TCq2    C6 1375   0.478   1.058   1.602  0.1313 -0.1880 -0.3117
   90TCq2    C7 1376   0.425   0.943   1.648  0.1350  0.6384 -0.4265
   90TCq2    C8 1377   0.393   1.159   1.534  0.1953  0.2812 -1.0519
   90TCq2    O4 1378   0.273   1.155   1.558  0.4319 -0.4399  0.3758
   90TCq2    C9 1379   0.815   1.045   1.753  0.0913  0.7103 -0.2104
   90TCq2    O5 1380   0.854   1.163   1.715  0.4109 -0.0967 -0.4437
   90TCq2    O6 1381   0.872   0.961   1.839  0.1143  0.5027  0.2588
   90TCq2    H2 1382   0.713   0.811   1.765 -0.5030 -1.5488 -1.8267
   90TCq2    H3 1383   0.659   1.190   1.629  0.7343  0.3448  1.6672
   90TCq2    H4 1384   0.334   0.912   1.598 -0.7676  1.5294  0.6598
   91TMC2    C1 1385   1.728   0.438  16.492 -0.5294  0.7806  0.0005
   91TMC2    C2 1386   1.775   0.331  16.572 -0.6288  0.3351  0.1566
   91TMC2    C3 1387   1.686   0.282  16.667 -0.2768  0.0165  0.1246
   91TMC2    C4 1388   1.603   0.495  16.510  0.3914  0.0501 -0.3771
   91TMC2    C5 1389   1.535   0.452  16.621  0.2283  0.1677 -0.6513
   91TMC2    C6 1390   1.568   0.347  16.702  0.1075 -0.3481 -0.1851
   91TMC2     C 1391   1.822   0.496  16.394 -0.2923  0.0352  0.3075
   91TMC2     O 1392   1.777   0.566  16.306 -0.1655 -0.4564  0.0497
   91TMC2     H 1393   1.876   0.293  16.584 -0.8159  0.4283  1.9718
   91TMC2    H1 1394   1.585   0.595  16.473 -0.8782  0.2855  0.9248
   91TMC2    H2 1395   1.501   0.316  16.782  1.0482  1.0215  1.1392
   91TMC2    C7 1396   1.412   0.523  16.661  0.0791 -0.0512  0.0372
   91TMC2    C8 1397   1.763   0.244  16.784 -0.2971 -0.1743  0.3040
   91TMC2    O1 1398   1.380   0.509  16.778  0.6386 -0.0467 -0.0858
   91TMC2    O2 1399   1.754   0.292  16.894 -0.1231  0.3848 -0.5175
   91TMC2    O5 1400   1.861   0.158  16.752 -0.1540  0.5243 -1.1710
   91TMC2    H5 1401   1.869   0.132  16.657 -0.3425 -1.3033 -0.6877
   92MPD2     C 1402   2.036   0.506  16.187 -0.4323 -0.2557 -0.1498
   92MPD2    C1 1403   2.057   0.484  16.323  0.1718  0.3196  0.5704
   92MPD2    C2 1404   2.191   0.494  16.374  0.0746  0.2152 -0.3865
   92MPD2    C3 1405   2.292   0.510  16.283  0.1354 -0.2544  0.4965
   92MPD2    C4 1406   2.276   0.527  16.148 -0.3497 -0.4023  0.0598
   92MPD2    C5 1407   2.140   0.530  16.105  0.0016 -0.2914  0.0236
   92MPD2     H 1408   2.201   0.498  16.482 -1.2874  0.9944 -0.2905
   92MPD2    H1 1409   2.352   0.549  16.073 -0.7851 -1.4406 -0.6784
   92MPD2    H2 1410   1.938   0.511  16.140 -1.8642 -1.5687  2.7379
   92MPD2    H3 1411   2.110   0.559  16.004  0.3876 -1.1140 -0.3264
   92MPD2     N 1412   2.418   0.538  16.338  0.4523 -0.5934 -0.1529
   92MPD2    H5 1413   2.428   0.546  16.438 -1.3956 -1.7164  0.1091
   92MPD2    N1 1414   1.952   0.456  16.416  0.3390  0.2401 -1.3097
   92MPD2    H7 1415   1.982   0.432  16.509 -1.2373  0.7575 -0.6598
   93MPD2     C 1416   3.329   0.819  13.654 -0.1587 -0.1260  0.2207
   93MPD2    C1 1417   3.271   0.867  13.772 -0.6261 -0.0835 -0.0840
   93MPD2    C2 1418   3.128   0.874  13.787  0.1378 -0.3196 -0.4403
   93MPD2    C3 1419   3.049   0.819  13.687 -1.0715  0.7939 -0.1781
   93MPD2    C4 1420   3.107   0.766  13.572  0.0056  0.0707 -0.0175
   93MPD2    C5 1421   3.242   0.770  13.558 -0.4178  1.1860 -0.1335
   93MPD2     H 1422   3.095   0.916  13.881 -0.4619  0.5028 -1.0184
   93MPD2    H1 1423   3.041   0.719  13.499  0.8756 -0.3986 -0.4959
   93MPD2    H2 1424   3.436   0.812  13.641  0.0056 -0.0581  1.5774
   93MPD2    H3 1425   3.287   0.735  13.466  1.9962 -0.6461  1.7518
   93MPD2     N 1426   2.907   0.801  13.693 -0.2657  0.2695 -0.4334
   93MPD2    H5 1427   2.864   0.767  13.607  0.7472  1.8167 -1.5573
   93MPD2    N1 1428   3.354   0.918  13.880 -0.9289  0.1924  0.4065
   93MPD2    H7 1429   3.284   0.963  13.938 -0.5504  2.1286 -0.6567
   94TCq2    C1 1430   3.493   0.925  13.890 -0.1621 -0.4785 -0.3326
   94TCq2    O2 1431   3.578   0.857  13.829 -0.1052 -0.7471  0.1085
   94TCq2    C2 1432   3.537   1.014  13.999  0.5684  0.0729  0.5208
   94TCq2    C3 1433   3.445   1.098  14.062 -0.0029 -1.0501 -0.4033
   94TCq2    C4 1434   3.497   1.215  14.115  0.0672 -0.2626  0.3525
   94TCq2    C5 1435   3.628   1.243  14.124 -0.4168 -0.4889  0.6955
   94TCq2    C6 1436   3.719   1.160  14.057 -0.1543 -0.1647 -0.5192
   94TCq2    C7 1437   3.671   1.048  13.994 -0.0905 -0.7724  0.5451
   94TCq2    C8 1438   3.866   1.170  14.060 -0.2532  0.2273  0.4822
   94TCq2    O4 1439   3.928   1.101  13.979 -0.4036 -0.0807  1.0655
   94TCq2    C9 1440   3.398   1.303  14.178  0.3635  0.5846 -0.2905
   94TCq2    O5 1441   3.444   1.409  14.226 -0.6562  0.0565 -0.4465
   94TCq2    O6 1442   3.275   1.275  14.158  0.3084  0.0744  0.0888
   94TCq2    H2 1443   3.340   1.081  14.081 -0.3701  1.1388 -0.4061
   94TCq2    H3 1444   3.658   1.339  14.163  0.5622 -0.7858  0.6805
   94TCq2    H4 1445   3.734   0.992  13.926 -0.3684 -0.1125 -0.2412
   95TMC2    C1 1446   3.617   2.434  15.695 -0.3376 -0.6988  0.4494
   95TMC2    C2 1447   3.511   2.514  15.732 -0.3509  0.1999  1.2904
   95TMC2    C3 1448   3.432   2.478  15.833  0.1501  0.1642 -0.0288
   95TMC2    C4 1449   3.631   2.304  15.743 -0.1315  0.0490  0.2325
   95TMC2    C5 1450   3.541   2.274  15.838 -0.5225  0.1745  0.0595
   95TMC2    C6 1451   3.446   2.356  15.892  0.1628 -0.0854  0.3532
   95TMC2     C 1452   3.695   2.477  15.579 -0.5584 -0.1860 -0.4644
   95TMC2     O 1453   3.701   2.596  15.559 -0.1117  0.4670 -0.0366
   95TMC2     H 1454   3.485   2.603  15.676 -2.5652 -1.2153  0.0240
   95TMC2    H1 1455   3.714   2.237  15.721 -0.3458 -0.8237  2.0502
   95TMC2    H2 1456   3.388   2.327  15.980  0.8240  0.0342  0.8271
   95TMC2    C7 1457   3.550   2.146  15.909 -0.4517 -0.3068 -0.3598
   95TMC2    C8 1458   3.329   2.571  15.871  0.2095 -0.4287  0.0268
   95TMC2    O1 1459   3.452   2.071  15.918  0.5080 -0.2461  0.2524
   95TMC2    O2 1460   3.364   2.688  15.876  0.4067  0.2019  0.5090
   95TMC2    O5 1461   3.224   2.509  15.935  0.3732  0.3946 -0.3880
   95TMC2    H5 1462   3.206   2.421  15.897 -2.8916 -0.2793  2.6780
   96MPD2     C 1463   3.953   2.371  15.140  0.5617 -0.6514  0.3773
   96MPD2    C1 1464   3.923   2.491  15.197 -0.4031  0.2062 -0.5917
   96MPD2    C2 1465   3.860   2.488  15.321  1.2262  0.4037 -0.4626
   96MPD2    C3 1466   3.799   2.374  15.373 -0.4254 -0.2535  0.6420
   96MPD2    C4 1467   3.822   2.255  15.299  0.7505  0.4810 -0.0699
   96MPD2    C5 1468   3.899   2.258  15.183 -0.5344  0.3645 -0.2030
   96MPD2     H 1469   3.829   2.581  15.367  0.1506 -0.8282  1.3484
   96MPD2    H1 1470   3.775   2.164  15.334  1.2868  0.0932 -0.3481
   96MPD2    H2 1471   4.007   2.365  15.046  1.6236 -3.1027  1.1406
   96MPD2    H3 1472   3.927   2.167  15.130  0.0220  0.4348 -0.0302
   96MPD2     N 1473   3.727   2.370  15.496  0.0890 -0.7673 -0.4651
   96MPD2    H5 1474   3.684   2.283  15.527 -0.2041  0.6519  3.0910
   96MPD2    N1 1475   3.981   2.609  15.130 -0.0842 -0.0172 -0.4825
   96MPD2    H7 1476   4.049   2.597  15.055  3.5076  3.9883  2.0885
   97MPD2     C 1477   0.978   0.114   0.988  0.3309  0.6062  0.4256
   97MPD2    C1 1478   0.842   0.104   0.990 -0.6116 -0.3288  0.0692
   97MPD2    C2 1479   0.781   0.115   0.863  0.3124 -0.3031  0.1086
   97MPD2    C3 1480   0.851   0.141   0.747 -0.0358 -0.0038  0.0258
   97MPD2    C4 1481   0.986   0.161   0.754 -0.1165 -0.6393  0.8127
   97MPD2    C5 1482   1.051   0.141   0.870 -0.4579 -0.2146  0.2856
   97MPD2     H 1483   0.673   0.105   0.857  0.0666  1.7253  1.2665
   97MPD2    H1 1484   1.050   0.180   0.669 -1.1312  0.6654  0.3434
   97MPD2    H2 1485   1.035   0.092   1.078  0.8156 -1.8519 -0.5020
   97MPD2    H3 1486   1.158   0.153   0.870 -0.5854  0.9210  3.3202
   97MPD2     N 1487   0.798   0.162   0.617  0.2198 -0.1117  0.9180
   97MPD2    H5 1488   0.866   0.198   0.551 -1.8608 -0.2076 -1.2894
   97MPD2    N1 1489   0.780   0.067   1.117  0.3756 -0.2241 -0.4792
   97MPD2    H7 1490   0.835   0.047   1.200  1.0137  1.5256 -0.4848
   98TCq2    C1 1491   0.669   0.136   0.576 -0.2863  0.4755  0.0082
   98TCq2    O2 1492   0.585   0.056   0.621  0.1799  0.6943 -0.0880
   98TCq2    C2 1493   0.654   0.180   0.444  0.7039  0.6834  0.5429
   98TCq2    C3 1494   0.541   0.131   0.378  0.7717 -0.0215 -0.1710
   98TCq2    C4 1495   0.500   0.202   0.269 -0.0646 -0.0771 -0.9675
   98TCq2    C5 1496   0.568   0.304   0.216 -0.7648 -0.0557 -0.0675
   98TCq2    C6 1497   0.680   0.348   0.280 -0.0316  0.8649  0.4243
   98TCq2    C7 1498   0.722   0.294   0.399 -0.9785  0.7253 -0.4654
   98TCq2    C8 1499   0.752   0.469   0.247 -0.0205 -0.6290 -0.0336
   98TCq2    O4 1500   0.847   0.505   0.317 -0.4244 -0.5142 -0.1333
   98TCq2    C9 1501   0.366   0.181   0.219 -0.2122  0.0107 -0.2997
   98TCq2    O5 1502   0.324   0.269   0.134  0.2454  0.1770 -0.4332
   98TCq2    O6 1503   0.293   0.118   0.300  0.0746 -0.0281 -0.4835
   98TCq2    H2 1504   0.486   0.045   0.415 -1.4120  1.0120 -0.9696
   98TCq2    H3 1505   0.526   0.364   0.136  1.2953  0.3055 -0.8821
   98TCq2    H4 1506   0.794   0.338   0.466 -0.3794 -0.8681 -0.0625
   99MPD2     C 1507   4.535   1.782   2.342  0.2736 -0.3171  0.1623
   99MPD2    C1 1508   4.490   1.910   2.317  0.2090 -0.0237  0.6077
   99MPD2    C2 1509   4.453   1.959   2.191 -0.9220 -0.5729  0.8399
   99MPD2    C3 1510   4.479   1.875   2.081  0.8198 -0.4635  0.9987
   99MPD2    C4 1511   4.521   1.741   2.110 -0.2697  0.5433  0.3805
   99MPD2    C5 1512   4.545   1.700   2.234  0.1133 -0.3057  0.9823
   99MPD2     H 1513   4.423   2.063   2.185  1.9824  0.2762  1.2734
   99MPD2    H1 1514   4.530   1.660   2.038 -1.4532 -0.6842  1.6290
   99MPD2    H2 1515   4.543   1.741   2.442 -0.5895 -1.1993 -0.1373
   99MPD2    H3 1516   4.583   1.601   2.256  0.5659 -0.7433 -1.7373
   99MPD2     N 1517   4.437   1.910   1.958 -0.0242  0.0542 -0.1310
   99MPD2    H5 1518   4.385   1.995   1.941 -0.5245 -0.3080 -0.4135
   99MPD2    N1 1519   4.472   1.995   2.431  0.1478 -0.6471  0.1829
   99MPD2    H7 1520   4.411   2.074   2.413  3.0397  1.5223 -0.0687
  100TCq2    C1 1521   4.547   1.986   2.546 -0.2858 -0.7228 -0.2033
  100TCq2    O2 1522   4.634   1.904   2.572 -0.3172 -0.3917  0.4307
  100TCq2    C2 1523   4.517   2.093   2.646  0.1551 -0.3941  0.5982
  100TCq2    C3 1524   4.609   2.107   2.751  0.0700 -0.4337 -0.1159
  100TCq2    C4 1525   4.570   2.195   2.850 -0.4263  0.0017 -0.5695
  100TCq2    C5 1526   4.448   2.252   2.855 -0.2668 -0.1910 -0.3719
  100TCq2    C6 1527   4.358   2.231   2.753 -0.1517 -0.1811  0.0489
  100TCq2    C7 1528   4.392   2.148   2.642 -0.3062  0.5220  0.3296
  100TCq2    C8 1529   4.235   2.313   2.762 -0.0710 -0.0253  0.3603
  100TCq2    O4 1530   4.231   2.411   2.834 -0.0754 -0.6855  0.1771
  100TCq2    C9 1531   4.656   2.220   2.966 -0.2821  0.0504  0.5375
  100TCq2    O5 1532   4.604   2.281   3.065  0.0060 -0.4635  0.4920
  100TCq2    O6 1533   0.058   2.217   2.957 -0.0841 -0.1318  0.3119
  100TCq2    H2 1534   4.704   2.056   2.745  0.4127  0.0971  0.8467
  100TCq2    H3 1535   4.434   2.329   2.930  2.1271 -1.1123  0.9956
  100TCq2    H4 1536   4.315   2.130   2.568  0.4101 -2.2171  0.2422
  101MPD2     C 1537   0.196   3.374  12.740 -0.1195  0.2735  0.2107
  101MPD2    C1 1538   0.093   3.443  12.792 -0.8275 -0.2364  0.9375
  101MPD2    C2 1539   0.024   3.387  12.897 -0.3615 -0.3631  0.8024
  101MPD2    C3 1540   0.041   3.254  12.939 -0.2162 -0.9137  0.5479
  101MPD2    C4 1541   0.144   3.182  12.877 -1.1212 -0.2216 -0.0099
  101MPD2    C5 1542   0.218   3.242  12.782 -0.3588 -1.3857  0.4873
  101MPD2     H 1543   4.659   3.442  12.932 -0.5938 -1.6027  2.1745
  101MPD2    H1 1544   0.175   3.085  12.915  0.5371  1.3692  2.6726
  101MPD2    H2 1545   0.259   3.407  12.659  0.5046 -1.7872 -0.1390
  101MPD2    H3 1546   0.297   3.181  12.740  0.9193  0.5177  0.1127
  101MPD2     N 1547   4.668   3.205  13.033 -0.4821  0.5213 -0.0393
  101MPD2    H5 1548   4.599   3.268  13.071 -1.2463  0.1367 -0.7967
  101MPD2    N1 1549   0.070   3.577  12.749 -0.4367  0.2597 -0.1691
  101MPD2    H7 1550   0.119   3.609  12.666 -0.9643  0.3706 -0.4367
  102TCq2    C1 1551   0.222   3.956  12.500  0.1195 -0.3818 -0.3534
  102TCq2    O2 1552   0.328   3.914  12.543 -0.2819 -0.4433  0.1391
  102TCq2    C2 1553   0.102   3.929  12.576 -0.2485  0.1487  0.1794
  102TCq2    C3 1554   4.706   3.978  12.542 -0.0160 -0.1550  0.2159
  102TCq2    C4 1555   4.595   3.934  12.611 -0.2575  0.4168  0.1145
  102TCq2    C5 1556   4.600   3.848  12.716  0.3035  0.8801 -0.0798
  102TCq2    C6 1557   0.006   3.801  12.746 -0.0720  0.2210  1.1361
  102TCq2    C7 1558   0.115   3.837  12.674  0.4669 -0.1000 -0.1749
  102TCq2    C8 1559   0.002   3.677  12.816  0.3871  0.1640  0.6198
  102TCq2    O4 1560   4.649   3.662  12.911 -0.4615  0.0342 -0.6486
  102TCq2    C9 1561   4.464   3.967  12.563  0.4412 -0.3755  0.7210
  102TCq2    O5 1562   4.462   4.042  12.464  0.2533 -0.1419 -0.2861
  102TCq2    O6 1563   4.369   3.885  12.589  0.0930 -0.0632 -0.5094
  102TCq2    H2 1564   4.690   4.031  12.449 -0.5073 -1.7902 -0.6287
  102TCq2    H3 1565   4.507   3.816  12.763  1.0407 -2.2881 -0.8187
  102TCq2    H4 1566   0.211   3.785  12.679 -0.4100 -1.6526  0.4379
  103TMC2    C1 1567   2.631   3.710  12.714 -0.4151  0.1657  0.2170
  103TMC2    C2 1568   2.507   3.771  12.707 -0.2047 -0.9226  0.0917
  103TMC2    C3 1569   2.444   3.811  12.821 -0.6198 -0.4096  0.4930
  103TMC2    C4 1570   2.700   3.709  12.830 -0.0941 -0.1770 -0.2108
  103TMC2    C5 1571   2.641   3.768  12.941 -0.5207 -0.2277 -0.0373
  103TMC2    C6 1572   2.512   3.816  12.943 -0.5160  0.0744  0.5489
  103TMC2     C 1573   2.684   3.649  12.590  0.1186 -0.2203 -0.4287
  103TMC2     O 1574   2.608   3.659  12.493  0.3092  0.7308  0.7276
  103TMC2     H 1575   2.447   3.753  12.618 -1.7438  1.7748  0.5768
  103TMC2    H1 1576   2.803   3.679  12.847 -0.5066 -1.8545 -0.6798
  103TMC2    H2 1577   2.480   3.845  13.042 -0.0660  1.5958  0.2466
  103TMC2    C7 1578   2.697   3.730  13.069 -0.3040  0.4841  0.1518
  103TMC2    C8 1579   2.308   3.864  12.810  0.1958  0.9320  0.0589
  103TMC2    O1 1580   2.682   3.809  13.160 -0.1428  0.1728 -0.4862
  103TMC2    O2 1581   2.270   3.927  12.713  0.0291 -0.0240  0.5484
  103TMC2    O5 1582   2.259   3.851  12.930  0.3255 -0.5268  0.6757
  103TMC2    H5 1583   2.309   3.788  12.986 -0.8781 -0.4777  1.8099
  104MPD2     C 1584   3.016   3.506  12.508 -0.4968 -0.5670  0.2969
  104MPD2    C1 1585   2.885   3.546  12.494 -0.1034 -0.3446 -1.0419
  104MPD2    C2 1586   2.844   3.543  12.360  0.3109 -0.0416 -0.3343
  104MPD2    C3 1587   2.926   3.506  12.254  0.3374  0.2012  0.6997
  104MPD2    C4 1588   3.053   3.469  12.276 -0.5991 -0.1557  0.7815
  104MPD2    C5 1589   3.095   3.466  12.406 -0.1992  0.2152 -0.1048
  104MPD2     H 1590   2.746   3.581  12.334  0.0979 -1.6799 -1.9040
  104MPD2    H1 1591   3.118   3.429  12.199  0.4117  2.0223  0.5067
  104MPD2    H2 1592   3.054   3.504  12.610 -1.1403  0.3915  0.5573
  104MPD2    H3 1593   3.197   3.434  12.420 -0.0160  1.7021  1.9136
  104MPD2     N 1594   2.875   3.507  12.123  0.1909 -0.3727 -0.2591
  104MPD2    H5 1595   2.773   3.512  12.120  0.2004  0.5135  0.9032
  104MPD2    N1 1596   2.811   3.590  12.603 -0.4139 -0.0985 -0.1667
  104MPD2    H7 1597   2.840   3.593  12.700 -0.3755  0.8680 -0.2080
  105MPD2     C 1598   0.247   2.768   0.061  1.1982 -0.3881  0.4673
  105MPD2    C1 1599   0.158   2.877   0.032  0.7767  0.3003  0.2450
  105MPD2    C2 1600   0.069   2.909   0.133 -0.1470  0.1011  0.3505
  105MPD2    C3 1601   0.072   2.853   0.255  0.1077 -0.1011 -0.4362
  105MPD2    C4 1602   0.160   2.746   0.277  0.3697  0.2150 -0.3954
  105MPD2    C5 1603   0.241   2.705   0.177 -0.1741 -0.0944 -0.0419
  105MPD2     H 1604   4.714   2.982   0.108 -1.8023 -1.7769 -0.0735
  105MPD2    H1 1605   0.147   2.700   0.374  3.4606  0.0011 -0.0737
  105MPD2    H2 1606   0.336   2.741   0.005  0.8431 -1.6960  0.5265
  105MPD2    H3 1607   0.311   2.628   0.207  2.0617  1.5462 -1.0507
  105MPD2     N 1608   4.698   2.908   0.351 -0.1608 -0.4725 -0.1252
  105MPD2    H5 1609   4.635   2.984   0.327  0.4672 -0.1964 -0.8693
  105MPD2    N1 1610   0.155   2.958  17.597  0.2181 -0.0801 -0.2610
  105MPD2    H7 1611   0.078   3.023  17.591  0.5406  0.0707 -2.5380
  106TCq2    C1 1612   4.680   2.872   0.473  0.5579 -0.8283 -0.1410
  106TCq2    O2 1613   0.017   2.795   0.546  0.2398  0.1583  0.1971
  106TCq2    C2 1614   4.556   2.934   0.524 -0.5723  0.7871 -0.1273
  106TCq2    C3 1615   4.536   3.071   0.501 -0.0860  0.6120  0.3510
  106TCq2    C4 1616   4.465   3.135   0.596  0.5405  0.2869  0.2090
  106TCq2    C5 1617   4.408   3.067   0.705  0.5973 -0.6071 -0.5172
  106TCq2    C6 1618   4.433   2.936   0.715 -0.8061 -0.6300 -0.0407
  106TCq2    C7 1619   4.501   2.866   0.627 -0.4984 -0.3228  0.3858
  106TCq2    C8 1620   4.426   2.877   0.848 -0.2785  0.0213  0.1549
  106TCq2    O4 1621   4.464   2.761   0.860 -0.0012  0.2899  0.7928
  106TCq2    C9 1622   4.466   3.279   0.599  0.4256 -0.8023  0.2430
  106TCq2    O5 1623   4.436   3.336   0.708 -0.1254 -0.5715 -0.2816
  106TCq2    O6 1624   4.505   3.332   0.496  0.3028 -0.2231 -0.5925
  106TCq2    H2 1625   4.567   3.125   0.413  1.2163  3.1142  2.3268
  106TCq2    H3 1626   4.356   3.121   0.783  1.0633 -1.1020  0.1281
  106TCq2    H4 1627   4.527   2.761   0.640  1.8551 -0.0945 -2.3322
  107TMC2    C1 1628   0.551   2.107  11.514  0.1185  0.3733  0.5188
  107TMC2    C2 1629   0.645   2.190  11.469  0.3163 -0.8186  0.1156
  107TMC2    C3 1630   0.703   2.148  11.355  0.6311 -0.8677  0.3608
  107TMC2    C4 1631   0.519   1.986  11.459 -0.3694 -0.0207 -1.0097
  107TMC2    C5 1632   0.583   1.955  11.339 -0.1869 -0.1454  0.5880
  107TMC2    C6 1633   0.675   2.042  11.285  0.3670 -0.6630 -0.3308
  107TMC2     C 1634   0.475   2.136  11.641  0.2883 -0.2597  0.0828
  107TMC2     O 1635   0.437   2.033  11.696  0.0735  0.4530 -0.5536
  107TMC2     H 1636   0.662   2.289  11.508  1.4512 -1.1908  0.5715
  107TMC2    H1 1637   0.459   1.907  11.502  1.6003 -2.0097 -1.9191
  107TMC2    H2 1638   0.737   2.004  11.204  0.7580 -0.4681 -0.1187
  107TMC2    C7 1639   0.529   1.842  11.264  0.2464 -0.7392  0.6982
  107TMC2    C8 1640   0.802   2.249  11.319 -0.1615  0.0048 -0.2584
  107TMC2    O1 1641   0.467   1.760  11.328 -0.2193  0.5574 -0.0347
  107TMC2    O2 1642   0.819   2.356  11.376 -0.4075 -0.2685 -0.2642
  107TMC2    O5 1643   0.822   2.224  11.189  0.5266  0.0703  0.5082
  107TMC2    H5 1644   0.874   2.296  11.147  0.8325 -0.6849 -0.4087
  108MPD2     C 1645   0.326   2.456  11.740  0.3724  0.5941 -0.0574
  108MPD2    C1 1646   0.360   2.324  11.755  0.1065 -0.1734  0.1495
  108MPD2    C2 1647   0.311   2.262  11.862  0.0788  0.5764 -0.4739
  108MPD2    C3 1648   0.239   2.328  11.960  0.6143  0.1410  0.5887
  108MPD2    C4 1649   0.200   2.454  11.937 -0.1800 -0.6202 -0.3822
  108MPD2    C5 1650   0.246   2.526  11.825 -0.3584  0.5618 -0.9704
  108MPD2     H 1651   0.344   2.160  11.880  0.2754  0.3710 -1.9948
  108MPD2    H1 1652   0.132   2.508  12.002  1.8256  2.3843 -0.7715
  108MPD2    H2 1653   0.361   2.509  11.651  0.6704 -1.9457 -1.4666
  108MPD2    H3 1654   0.207   2.626  11.811  0.7366  1.0819 -0.3130
  108MPD2     N 1655   0.197   2.268  12.079 -0.3447 -0.3933  0.5451
  108MPD2    H5 1656   0.137   2.329  12.133 -1.0530  0.3645 -1.0991
  108MPD2    N1 1657   0.445   2.267  11.656  0.0310  0.1119 -0.0608
  108MPD2    H7 1658   0.478   2.322  11.577 -0.2361 -1.0256 -0.9714
  109MPD2     C 1659   0.038   3.973   2.294 -0.5735  0.0425  0.0625
  109MPD2    C1 1660   0.096   4.009   2.173  0.0932 -0.0808 -0.1552
  109MPD2    C2 1661   0.228   4.057   2.175 -0.0758  0.1231  0.0072
  109MPD2    C3 1662   0.294   4.069   2.293 -0.9084  0.1885 -0.0537
  109MPD2    C4 1663   0.242   4.032   2.414  0.2284 -0.1280  0.6755
  109MPD2    C5 1664   0.117   3.988   2.410  0.0107 -0.0818  0.1264
  109MPD2     H 1665   0.287   4.054   2.084  1.1806 -1.4966  0.8590
  109MPD2    H1 1666   0.301   4.023   2.505 -1.7384  1.4262  2.0925
  109MPD2    H2 1667   4.659   3.931   2.303 -0.4582 -0.1411  0.4895
  109MPD2    H3 1668   0.075   3.953   2.503 -0.0498 -2.4354 -0.7726
  109MPD2     N 1669   0.436   4.100   2.279  0.4213  0.0558  0.0943
  109MPD2    H5 1670   0.462   4.140   2.190 -1.2294 -0.1357 -0.4730
  109MPD2    N1 1671   0.025   3.982   2.050  0.4784 -0.1735  0.3464
  109MPD2    H7 1672   4.652   3.949   2.064  0.2616 -0.5292 -1.9539
  110TCq2    C1 1673   0.537   4.079   2.374  0.2639  0.0619 -0.1199
  110TCq2    O2 1674   0.534   4.036   2.487 -0.0235  0.1960  0.2552
  110TCq2    C2 1675   0.671   4.124   2.321  0.3180  0.4089 -0.1509
  110TCq2    C3 1676   0.777   4.103   2.403 -0.2179  0.0334  0.1467
  110TCq2    C4 1677   0.904   4.136   2.350 -0.2501  0.2003  1.0589
  110TCq2    C5 1678   0.920   4.184   2.223  0.1089 -0.5996  0.3449
  110TCq2    C6 1679   0.809   4.196   2.142 -0.3355  0.8432 -0.0276
  110TCq2    C7 1680   0.683   4.168   2.189  0.4335  0.0922 -0.3214
  110TCq2    C8 1681   0.813   4.264   2.016  0.2636 -0.7242 -0.0765
  110TCq2    O4 1682   0.711   4.271   1.946  0.2640 -0.0940  0.2535
  110TCq2    C9 1683   1.016   4.114   2.441 -0.4897 -0.1927 -0.3706
  110TCq2    O5 1684   0.988   4.090   2.562 -0.3920 -0.1883  0.0930
  110TCq2    O6 1685   1.126   4.075   2.389  0.5664  0.1995  0.5590
  110TCq2    H2 1686   0.759   4.076   2.506  2.0496  0.6190  0.6986
  110TCq2    H3 1687   1.015   4.223   2.190  0.7454 -1.1815  1.4989
  110TCq2    H4 1688   0.597   4.197   2.131  1.1179  1.9453 -0.4295
  111TMC2    C1 1689   0.919   4.283  11.175 -0.2606 -0.4397 -0.4772
  111TMC2    C2 1690   0.992   4.255  11.063 -0.8524  0.9955  0.4935
  111TMC2    C3 1691   1.116   4.204  11.089 -0.0653  0.1961  0.2073
  111TMC2    C4 1692   0.968   4.290  11.300 -0.1784 -0.1742 -0.0826
  111TMC2    C5 1693   1.101   4.247  11.319 -0.1923 -0.4454 -0.1291
  111TMC2    C6 1694   1.171   4.197  11.212 -0.1950 -0.2294 -0.3119
  111TMC2     C 1695   0.774   4.278  11.151  0.3341 -0.5028  0.1678
  111TMC2     O 1696   0.741   4.236  11.042  0.1333 -0.0191 -0.2979
  111TMC2     H 1697   0.952   4.259  10.962  0.0712  1.0082  0.1291
  111TMC2    H1 1698   0.910   4.317  11.388  1.6360 -0.9875  1.3582
  111TMC2    H2 1699   1.276   4.173  11.222 -0.2549  0.5845  2.1725
  111TMC2    C7 1700   1.131   4.188  11.446 -0.0874  0.3188 -0.6980
  111TMC2    C8 1701   1.201   4.169  10.974 -1.1425 -0.6474  0.3049
  111TMC2    O1 1702   1.030   4.181  11.514 -1.0137  0.2450 -0.0351
  111TMC2    O2 1703   1.321   4.177  10.966 -0.1232  0.6263 -0.6295
  111TMC2    O5 1704   1.121   4.082  10.902 -0.0685 -0.2278  0.8063
  111TMC2    H5 1705   1.044   4.054  10.955 -1.5533  0.8065 -0.7951
  112MPD2     C 1706   0.286   4.333  11.304  0.2058  0.3006 -0.4143
  112MPD2    C1 1707   0.341   4.321  11.183 -0.2007  0.5994  0.0201
  112MPD2    C2 1708   0.478   4.303  11.163 -0.3880 -0.5183 -0.2483
  112MPD2    C3 1709   0.565   4.318  11.274  0.3999  0.5299 -0.2560
  112MPD2    C4 1710   0.510   4.336  11.399 -0.0136 -0.7235  0.1424
  112MPD2    C5 1711   0.371   4.347  11.408  0.3050 -0.3064 -0.4622
  112MPD2     H 1712   0.519   4.294  11.063  0.5635 -2.7803  0.3337
  112MPD2    H1 1713   0.567   4.333  11.492  0.2062  0.3266  0.0469
  112MPD2    H2 1714   0.180   4.322  11.322  0.1840  4.4663  2.0325
  112MPD2    H3 1715   0.334   4.357  11.509  0.9168 -1.6225 -0.1090
  112MPD2     N 1716   0.703   4.309  11.265 -0.0356 -0.4129  0.3860
  112MPD2    H5 1717   0.756   4.333  11.348  0.1329  0.8463 -0.0760
  112MPD2    N1 1718   0.263   4.335  11.062  0.2686 -0.2433  0.5016
  112MPD2    H7 1719   0.311   4.305  10.978  0.1319  2.6259 -0.5664
  113MPD2     C 1720   3.424   2.249   1.547 -1.4276 -0.0183  0.8186
  113MPD2    C1 1721   3.473   2.370   1.493  0.0831  0.1220 -0.0747
  113MPD2    C2 1722   3.454   2.398   1.359  0.4360  0.1669 -0.2256
  113MPD2    C3 1723   3.395   2.310   1.269 -0.2726 -0.0202  0.1979
  113MPD2    C4 1724   3.353   2.193   1.323 -0.8438 -0.0972 -0.4142
  113MPD2    C5 1725   3.365   2.160   1.459 -0.3442  0.3575 -0.3104
  113MPD2     H 1726   3.500   2.487   1.317 -0.9836  0.2140 -1.7064
  113MPD2    H1 1727   3.297   2.131   1.254 -0.8061  2.1423 -2.4478
  113MPD2    H2 1728   3.423   2.229   1.654  0.4797 -1.2281  0.6113
  113MPD2    H3 1729   3.323   2.069   1.499 -0.1052  0.2767 -0.2410
  113MPD2     N 1730   3.380   2.326   1.128  0.0445  0.4748  0.0841
  113MPD2    H5 1731   3.337   2.247   1.081  2.0627 -1.5531  1.6430
  113MPD2    N1 1732   3.551   2.458   1.573  0.4506  0.2745  0.5643
  113MPD2    H7 1733   3.571   2.551   1.538 -2.4360  0.1835 -1.2489
  114TCq2    C1 1734   3.421   2.429   1.056 -0.5042  0.1326  0.5609
  114TCq2    O2 1735   3.488   2.523   1.097 -0.4112 -0.9349  0.6367
  114TCq2    C2 1736   3.386   2.415   0.915  0.7795  0.7235  0.1758
  114TCq2    C3 1737   3.453   2.504   0.831 -0.5976  0.1859  0.6152
  114TCq2    C4 1738   3.450   2.481   0.697  0.1213  0.5102 -0.5320
  114TCq2    C5 1739   3.376   2.373   0.651  0.1959  0.3055 -0.0940
  114TCq2    C6 1740   3.311   2.291   0.730  0.2006 -0.5030 -0.1232
  114TCq2    C7 1741   3.306   2.310   0.866 -0.2659  0.4829  0.0618
  114TCq2    C8 1742   3.233   2.183   0.670  0.9191 -0.0097  0.4641
  114TCq2    O4 1743   3.246   2.168   0.548 -0.0180 -0.5629  0.1141
  114TCq2    C9 1744   3.518   2.559   0.606  0.1408  0.1274 -0.3942
  114TCq2    O5 1745   3.484   2.543   0.486 -0.0933 -0.4064 -0.0908
  114TCq2    O6 1746   3.610   2.633   0.639  0.7897 -0.1402  0.5184
  114TCq2    H2 1747   3.510   2.585   0.875  0.3827 -0.6429  0.8643
  114TCq2    H3 1748   3.377   2.344   0.546 -0.9311  1.6441 -0.4667
  114TCq2    H4 1749   3.247   2.245   0.929  0.1840 -1.2924 -1.3339
  115TMC2    C1 1750   3.819   0.286  17.334  0.0265  0.1911  1.0329
  115TMC2    C2 1751   3.842   0.335  17.208  0.4548  0.3477  0.8618
  115TMC2    C3 1752   3.831   0.474  17.200  0.8510 -0.3248  0.4477
  115TMC2    C4 1753   3.786   0.358  17.443  0.1271 -0.2720  0.4943
  115TMC2    C5 1754   3.795   0.492  17.432 -1.0907 -0.0575 -0.1769
  115TMC2    C6 1755   3.817   0.550  17.308  0.5508  0.6994 -0.2340
  115TMC2     C 1756   3.818   0.138  17.345 -0.4481  0.2362  0.7209
  115TMC2     O 1757   3.781   0.079  17.245 -0.1868  0.0940 -0.3067
  115TMC2     H 1758   3.877   0.261  17.138 -2.1555 -0.8268  0.7968
  115TMC2    H1 1759   3.761   0.320  17.541  1.0025  0.7484  1.1177
  115TMC2    H2 1760   3.834   0.656  17.293  1.9804  0.5873  0.5094
  115TMC2    C7 1761   3.820   0.572  17.547  0.0474 -0.6693 -0.1327
  115TMC2    C8 1762   3.947   0.510  17.126  0.9858  0.8768 -0.0655
  115TMC2    O1 1763   3.772   0.524  17.650 -0.5102 -0.3417 -0.2733
  115TMC2    O2 1764   4.032   0.592  17.160 -0.7328  0.2581  0.1403
  115TMC2    O5 1765   3.948   0.450  17.002 -0.0169 -0.4954 -0.4211
  115TMC2    H5 1766   3.869   0.392  17.005 -1.4248  1.5225  1.4621
  116MPD2     C 1767   3.911   4.428  17.614  0.2517  0.5600 -0.8226
  116MPD2    C1 1768   3.901   4.454  17.477 -0.1059 -0.4829 -0.3967
  116MPD2    C2 1769   3.888   4.583  17.433  0.0899  0.9344 -0.1168
  116MPD2    C3 1770   3.880   4.691  17.515  0.0564 -0.5424 -0.2271
  116MPD2    C4 1771   3.914   4.671  17.646  0.7900  0.1395 -0.1429
  116MPD2    C5 1772   3.925   4.540   0.011 -0.6354 -0.0745  0.3302
  116MPD2     H 1773   3.864   4.585  17.328 -1.4040 -0.7795  0.1868
  116MPD2    H1 1774   3.910   0.032   0.028  1.6630 -1.9927  2.4149
  116MPD2    H2 1775   3.920   4.328  17.655 -0.6690  0.1138 -1.7060
  116MPD2    H3 1776   3.935   4.531   0.119 -1.8488  0.8639  0.5285
  116MPD2     N 1777   3.855   0.103  17.473 -0.1317 -0.2597 -0.1648
  116MPD2    H5 1778   3.865   0.170  17.549 -2.1854 -1.3590  1.0737
  116MPD2    N1 1779   3.901   4.354  17.381  0.4593  0.6148 -0.5979
  116MPD2    H7 1780   3.883   4.382  17.285  0.0889  0.4177 -0.5851
  117TMC2    C1 1781   2.652   1.556  13.687  0.2516 -0.1814  0.7901
  117TMC2    C2 1782   2.747   1.460  13.675  0.6389  0.2693 -0.2618
  117TMC2    C3 1783   2.868   1.483  13.736 -0.3532  0.2210 -0.6976
  117TMC2    C4 1784   2.667   1.673  13.750 -0.0315 -0.1258 -1.3145
  117TMC2    C5 1785   2.795   1.699  13.798  0.4677  0.0944 -0.2067
  117TMC2    C6 1786   2.896   1.606  13.794 -0.1897 -0.8388 -0.2763
  117TMC2     C 1787   2.521   1.516  13.646  0.0862  0.4376  0.0332
  117TMC2     O 1788   2.499   1.395  13.646 -0.2319 -0.2186  0.5982
  117TMC2     H 1789   2.731   1.366  13.622 -0.1388 -0.0003  0.4583
  117TMC2    H1 1790   2.585   1.740  13.772 -1.2756 -1.2257 -2.5452
  117TMC2    H2 1791   2.993   1.634  13.834 -1.9084  0.9581  2.5559
  117TMC2    C7 1792   2.819   1.834  13.823 -0.0741 -0.4707  0.7589
  117TMC2    C8 1793   2.954   1.364  13.766 -0.1531  0.3004  0.2236
  117TMC2    O1 1794   2.933   1.876  13.814 -0.3011  0.1261 -0.0439
  117TMC2    O2 1795   2.959   1.270  13.685  0.5718 -0.5529 -0.0440
  117TMC2    O5 1796   2.964   1.353  13.900 -0.5562  0.4008 -0.1871
  117TMC2    H5 1797   2.932   1.428  13.955 -0.8152 -0.7726  1.2520
  118MPD2     C 1798   2.583   2.067  13.962  0.6283 -0.4100  0.2632
  118MPD2    C1 1799   2.704   2.029  13.914 -0.3267  0.5626 -0.5304
  118MPD2    C2 1800   2.807   2.128  13.912 -0.0707  0.2068  0.1059
  118MPD2    C3 1801   2.783   2.262  13.935 -0.0771  0.0033  0.9174
  118MPD2    C4 1802   2.658   2.292  13.965  0.8348  0.3609 -0.2372
  118MPD2    C5 1803   2.560   2.198  13.980  0.7336  0.3081  0.2321
  118MPD2     H 1804   2.907   2.099  13.882 -0.6280 -0.8468 -0.7332
  118MPD2    H1 1805   2.633   2.397  13.959 -0.7847  0.1087  2.2092
  118MPD2    H2 1806   2.499   2.000  13.979 -0.4518  0.2661 -2.5306
  118MPD2    H3 1807   2.461   2.233  14.006  0.1921 -0.4355 -0.8670
  118MPD2     N 1808   2.878   2.371  13.914  0.4098 -0.4705 -0.1162
  118MPD2    H5 1809   2.835   2.463  13.906  0.9056 -0.4303 -2.3737
  118MPD2    N1 1810   2.717   1.893  13.886 -0.5389 -0.2423 -0.9526
  118MPD2    H7 1811   2.634   1.841  13.910  0.3388 -0.4743  1.5388
  119MPD2     C 1812   1.392   2.877  13.851  0.6241  0.3617 -0.6920
  119MPD2    C1 1813   1.265   2.849  13.890  0.3173 -0.2640  0.7566
  119MPD2    C2 1814   1.186   2.784  13.791  0.4028  0.3919  0.4405
  119MPD2    C3 1815   1.236   2.752  13.666  0.9986 -0.4014  0.4903
  119MPD2    C4 1816   1.373   2.767  13.634 -0.4146  0.2533  0.7618
  119MPD2    C5 1817   1.443   2.837  13.730 -0.1254 -0.3438 -0.1733
  119MPD2     H 1818   1.078   2.795  13.801  0.4234 -0.5439  1.6469
  119MPD2    H1 1819   1.417   2.740  13.539  1.7496 -1.1985  2.1733
  119MPD2    H2 1820   1.461   2.914  13.926 -0.3828  0.6280  0.0897
  119MPD2    H3 1821   1.548   2.857  13.709  0.4235 -2.6847  0.2919
  119MPD2     N 1822   1.173   2.686  13.561  0.5673  0.5424  0.4543
  119MPD2    H5 1823   1.222   2.664  13.475  0.1610  0.7874  0.1648
  119MPD2    N1 1824   1.228   2.902  14.015  0.5031 -0.0236 -0.9820
  119MPD2    H7 1825   1.300   2.957  14.060 -0.7687 -0.4224  1.5570
  120TCq2    C1 1826   1.042   2.643  13.574 -0.0387 -0.2560 -0.5735
  120TCq2    O2 1827   0.961   2.640  13.668  0.0061 -0.2857  0.0788
  120TCq2    C2 1828   0.998   2.584  13.451 -0.3964  0.1930  0.8415
  120TCq2    C3 1829   1.044   2.633  13.326 -0.5594 -0.1850  0.5776
  120TCq2    C4 1830   0.986   2.594  13.209 -0.1768  1.4049 -0.3480
  120TCq2    C5 1831   0.888   2.497  13.215  0.7444  0.2086 -0.5640
  120TCq2    C6 1832   0.834   2.454  13.329 -1.5363  0.3266  0.7682
  120TCq2    C7 1833   0.891   2.494  13.447 -0.2815 -0.1636  0.0317
  120TCq2    C8 1834   0.709   2.380  13.315  0.4052  0.0721 -0.0496
  120TCq2    O4 1835   0.678   2.347  13.200  0.1420 -0.5043  0.2169
  120TCq2    C9 1836   1.020   2.645  13.081  0.3257 -1.1340  1.0896
  120TCq2    O5 1837   1.088   2.750  13.080 -0.8180 -0.6495  0.0679
  120TCq2    O6 1838   1.018   2.565  12.987 -0.4443 -0.1092  0.1439
  120TCq2    H2 1839   1.122   2.709  13.325 -0.0858 -0.5907  4.7379
  120TCq2    H3 1840   0.856   2.474  13.114  0.4294 -1.5950 -0.0574
  120TCq2    H4 1841   0.849   2.461  13.541 -0.2811  1.1619  0.4833
  121TMC2    C1 1842   2.082   4.207  13.921 -0.1466 -0.6454  0.8241
  121TMC2    C2 1843   2.118   4.113  14.012  0.5041  0.3379 -0.3581
  121TMC2    C3 1844   2.042   4.006  14.048  0.3029 -0.0458  0.0017
  121TMC2    C4 1845   1.958   4.206  13.855  1.0220  0.5820  0.3389
  121TMC2    C5 1846   1.882   4.100  13.902  0.2590 -0.5468 -0.0101
  121TMC2    C6 1847   1.924   3.995  13.984 -0.3989 -0.4410 -0.6677
  121TMC2     C 1848   2.164   4.322  13.926  0.1121  0.4726 -0.5985
  121TMC2     O 1849   2.230   4.346  14.030  0.4484 -0.3404  0.0281
  121TMC2     H 1850   2.219   4.111  14.053 -0.2563 -2.2876  1.3972
  121TMC2    H1 1851   1.921   4.285  13.791  2.2054 -0.0776 -1.1663
  121TMC2    H2 1852   1.864   3.907  14.008  0.7804 -1.9410 -3.2731
  121TMC2    C7 1853   1.732   4.096  13.878 -0.0126 -0.1671 -0.2416
  121TMC2    C8 1854   2.120   3.885  14.065 -0.0084 -0.5267  0.2040
  121TMC2    O1 1855   1.683   3.987  13.892  0.3009 -0.0446  0.0525
  121TMC2    O2 1856   2.234   3.885  14.109 -0.1879  0.1691  0.2712
  121TMC2    O5 1857   2.066   3.781  13.994 -0.2512  0.0963 -0.0420
  121TMC2    H5 1858   1.984   3.810  13.949  0.7527  2.0662 -0.5915
  122MPD2     C 1859   2.282   4.590  13.883  0.1700 -0.0648 -0.2201
  122MPD2    C1 1860   2.251   4.499  13.783  0.1717 -0.1636  0.2446
  122MPD2    C2 1861   2.285   4.524  13.650  0.1294  0.2715  0.0612
  122MPD2    C3 1862   2.336   4.647  13.618  0.0500 -0.0232 -0.4390
  122MPD2    C4 1863   2.348   0.022  13.713 -0.2859  0.2816  0.8641
  122MPD2    C5 1864   2.333   4.713  13.847 -0.6623 -0.2533  0.2952
  122MPD2     H 1865   2.264   4.449  13.574 -0.2144 -1.9509  2.3350
  122MPD2    H1 1866   2.393   0.119  13.693  0.4899  0.0782  1.5882
  122MPD2    H2 1867   2.252   4.575  13.986  0.4886  1.8694  0.1563
  122MPD2    H3 1868   2.359   0.067  13.920 -0.2314  2.6935 -2.8896
  122MPD2     N 1869   2.394   4.674  13.493  0.3985 -0.3828  0.4386
  122MPD2    H5 1870   2.428   0.048  13.485 -0.3350 -0.2755 -1.4171
  122MPD2    N1 1871   2.173   4.386  13.805  0.3367  0.1421  0.2366
  122MPD2    H7 1872   2.126   4.348  13.723 -0.8307 -0.1093  1.0085
  123MPD2     C 1873   1.128   2.168  10.208 -0.3095 -0.5896  0.6661
  123MPD2    C1 1874   1.034   2.190  10.107 -0.9250  0.5949  0.6463
  123MPD2    C2 1875   1.039   2.304  10.034  0.1213  0.2203 -0.1163
  123MPD2    C3 1876   1.125   2.409  10.058 -0.3548 -0.1396  0.2967
  123MPD2    C4 1877   1.226   2.381  10.153  0.2427 -0.2814 -0.6820
  123MPD2    C5 1878   1.227   2.264  10.223  0.8532 -0.1465  0.2478
  123MPD2     H 1879   0.968   2.322   9.954  0.3020  0.0602 -0.3104
  123MPD2    H1 1880   1.301   2.457  10.173 -0.3812 -0.2515  1.5015
  123MPD2    H2 1881   1.123   2.084  10.276  0.0121 -0.3889  0.9379
  123MPD2    H3 1882   1.309   2.259  10.294 -0.6324  0.0365  1.9678
  123MPD2     N 1883   1.116   2.530   9.983  0.0346  0.2533  1.0439
  123MPD2    H5 1884   1.040   2.540   9.916  0.5336 -0.3854  0.3852
  123MPD2    N1 1885   0.937   2.093  10.083 -0.2293  0.9212 -0.4069
  123MPD2    H7 1886   0.955   2.003  10.125 -2.1031  0.2566 -1.0288
  124TCq2    C1 1887   1.214   2.632   9.983 -0.2865 -0.0943 -0.4901
  124TCq2    O2 1888   1.321   2.642  10.037 -0.3803 -0.0164  0.0259
  124TCq2    C2 1889   1.181   2.746   9.896  0.0615  0.2225  0.1221
  124TCq2    C3 1890   1.283   2.820   9.841 -0.0439  0.3613 -0.5204
  124TCq2    C4 1891   1.257   2.908   9.743 -0.4363  0.0505 -0.6341
  124TCq2    C5 1892   1.127   2.928   9.699 -0.0424 -0.3634  0.1468
  124TCq2    C6 1893   1.020   2.860   9.754 -0.6409  0.2896  0.4179
  124TCq2    C7 1894   1.047   2.781   9.865 -0.0776 -0.1523 -0.3580
  124TCq2    C8 1895   0.927   2.807   9.661 -0.4913 -0.4952 -0.0009
  124TCq2    O4 1896   0.894   2.688   9.683  0.0122 -0.3229  0.5871
  124TCq2    C9 1897   1.370   2.986   9.685  0.0910  0.4931  0.0321
  124TCq2    O5 1898   1.350   3.059   9.581 -0.3533 -0.3337 -0.0134
  124TCq2    O6 1899   1.487   2.977   9.728 -0.3239 -0.0984  0.0170
  124TCq2    H2 1900   1.383   2.806   9.881  0.1626 -0.4960 -1.3513
  124TCq2    H3 1901   1.123   2.995   9.614  1.6903 -1.2784 -0.6506
  124TCq2    H4 1902   0.967   2.722   9.908  2.0215 -1.0058  2.3318
  125TMC2    C1 1903   2.450   0.639   8.647 -0.1073 -0.1553 -0.6518
  125TMC2    C2 1904   2.361   0.731   8.596 -0.0351 -0.0791  0.2741
  125TMC2    C3 1905   2.239   0.680   8.557  0.1230  0.9306  0.1568
  125TMC2    C4 1906   2.413   0.508   8.670 -0.2664 -0.5610  0.2083
  125TMC2    C5 1907   2.289   0.467   8.629  0.7146  0.2678 -0.5719
  125TMC2    C6 1908   2.212   0.545   8.560  0.6619 -0.6715 -0.1088
  125TMC2     C 1909   2.592   0.666   8.652 -0.2379  0.2790 -0.1781
  125TMC2     O 1910   2.609   0.786   8.677  0.0802  0.0755 -0.6726
  125TMC2     H 1911   2.401   0.828   8.572 -0.0978 -0.2292 -0.4323
  125TMC2    H1 1912   2.475   0.433   8.719  2.1390  0.9986 -0.4353
  125TMC2    H2 1913   2.119   0.497   8.534 -0.1457  0.6534  0.3211
  125TMC2    C7 1914   2.233   0.342   8.676  0.4939 -0.6714  0.5811
  125TMC2    C8 1915   2.156   0.761   8.464  0.4627 -0.6279  0.1201
  125TMC2    O1 1916   2.110   0.335   8.669 -0.0614 -0.6360 -0.3685
  125TMC2    O2 1917   2.073   0.716   8.389  0.1341 -0.3352 -0.0606
  125TMC2    O5 1918   2.151   0.884   8.520 -0.4088 -0.0642 -0.7537
  125TMC2    H5 1919   2.207   0.893   8.600 -0.1539  2.7620 -1.2494
  126MPD1     C 1920   3.088   0.596   8.575  0.4227 -0.2603 -0.2149
  126MPD1    C1 1921   3.023   0.466   8.567 -0.2490  0.2840 -0.3751
  126MPD1    C2 1922   2.884   0.466   8.568 -0.7942 -0.5024 -0.6566
  126MPD1    C3 1923   2.811   0.575   8.604 -0.6687 -0.5053  0.3175
  126MPD1    C4 1924   2.877   0.691   8.616 -0.2254  0.1735  0.6291
  126MPD1    C5 1925   3.013   0.708   8.591 -0.0673 -0.3658 -0.3100
  126MPD1     H 1926   2.838   0.374   8.534 -1.0736  0.3390 -2.5043
  126MPD1    H1 1927   2.828   0.785   8.641  0.4125  0.3649  1.1570
  126MPD1    H2 1928   3.195   0.596   8.558  0.2846 -1.9184 -1.1667
  126MPD1    H3 1929   3.062   0.804   8.597  0.0760 -0.4026 -0.8666
  126MPD1     N 1930   2.670   0.556   8.615 -0.8365  0.0374  0.2160
  126MPD1    H5 1931   2.631   0.462   8.606 -0.5224 -0.3207  2.4748
  126MPD1    N1 1932   3.091   0.356   8.516  0.1354  0.2311 -0.5569
  126MPD1    H6 1933   3.052   0.266   8.543 -2.2515  1.7718  1.0213
  126MPD1    H7 1934   3.189   0.357   8.545 -0.0622  0.2126  0.1016
  127MPD2     C 1935   3.196   3.138   9.071  0.4930 -0.2824 -0.7383
  127MPD2    C1 1936   3.182   3.114   9.209 -0.1282  0.0483 -0.8583
  127MPD2    C2 1937   3.238   3.211   9.300  0.6724  0.2101  0.2987
  127MPD2    C3 1938   3.294   3.327   9.250 -0.0408  0.3038 -0.5566
  127MPD2    C4 1939   3.301   3.350   9.112 -0.4056 -0.4613 -0.2321
  127MPD2    C5 1940   3.253   3.258   9.029  0.1040 -0.0221 -0.2448
  127MPD2     H 1941   3.227   3.199   9.407  0.2902  0.9110  0.3390
  127MPD2    H1 1942   3.352   3.434   9.066  1.4871 -1.5618 -0.1428
  127MPD2    H2 1943   3.158   3.071   8.994  0.6962  0.3690 -1.4079
  127MPD2    H3 1944   3.262   3.284   8.924 -0.1689 -0.2529 -0.3236
  127MPD2     N 1945   3.335   3.425   9.347  0.5267 -0.2986 -0.2297
  127MPD2    H5 1946   3.337   3.403   9.446  0.1727 -1.1923 -0.4157
  127MPD2    N1 1947   3.131   2.991   9.241 -0.2455  0.3115 -0.3900
  127MPD2    H7 1948   3.092   2.935   9.165 -1.7807  2.6957 -1.3325
  128TCq2    C1 1949   3.172   2.924   9.350  0.5687  0.8868 -0.1410
  128TCq2    O2 1950   3.234   2.961   9.448  0.2723  0.4524  0.2050
  128TCq2    C2 1951   3.119   2.786   9.355 -0.2446  0.2457 -0.3386
  128TCq2    C3 1952   3.197   2.697   9.417  0.2432 -0.5719  0.1624
  128TCq2    C4 1953   3.154   2.567   9.444 -0.0799  0.4354 -0.2279
  128TCq2    C5 1954   3.038   2.529   9.382  0.0842 -0.0390  0.1875
  128TCq2    C6 1955   2.964   2.620   9.320  0.4210 -0.3377 -0.3397
  128TCq2    C7 1956   2.998   2.754   9.301  0.2472  0.3241 -0.3802
  128TCq2    C8 1957   2.829   2.578   9.288  0.1630 -0.2240  0.4628
  128TCq2    O4 1958   2.765   2.649   9.213  0.4501 -0.5399  0.4876
  128TCq2    C9 1959   3.218   2.495   9.548  0.2965 -0.6394  0.0633
  128TCq2    O5 1960   3.164   2.386   9.583 -0.1698  0.0312 -0.2491
  128TCq2    O6 1961   3.334   2.538   9.576 -0.3437 -0.0371 -0.7567
  128TCq2    H2 1962   3.274   2.738   9.482  0.1922 -0.2315  0.0103
  128TCq2    H3 1963   3.009   2.425   9.389  0.6388 -0.1897  0.2289
  128TCq2    H4 1964   2.931   2.823   9.251  0.9219  1.3711  0.1460
  129MPD2     C 1965   0.768   4.357   1.129 -0.3759  0.4218  0.8542
  129MPD2    C1 1966   0.902   4.371   1.146 -0.4464  0.4945 -0.6513
  129MPD2    C2 1967   0.973   4.403   1.031 -0.0449  0.7027  0.3604
  129MPD2    C3 1968   0.917   4.447   0.909 -0.4215  0.5042  0.0447
  129MPD2    C4 1969   0.782   4.457   0.905 -0.0590 -0.3159  0.5582
  129MPD2    C5 1970   0.717   4.411   1.012 -0.6739 -0.0260 -0.3271
  129MPD2     H 1971   1.081   4.395   1.040  0.0025 -0.9075 -1.7485
  129MPD2    H1 1972   0.716   4.505   0.833  2.0090 -0.1180 -1.2087
  129MPD2    H2 1973   0.700   4.319   1.204 -1.6051 -0.3380 -0.6286
  129MPD2    H3 1974   0.610   4.420   0.998 -0.5798  1.2096 -0.2361
  129MPD2     N 1975   0.997   4.473   0.793 -0.5848  0.3463 -0.6545
  129MPD2    H5 1976   1.098   4.462   0.799 -0.6222  0.4293  0.0512
  129MPD2    N1 1977   0.973   4.320   1.259 -0.6828 -0.0031  0.5520
  129MPD2    H7 1978   1.075   4.319   1.251 -0.8671 -1.7209 -1.7367
  130TCq2    C1 1979   0.914   4.280   1.378  0.5759 -0.4246  0.1994
  130TCq2    O2 1980   0.796   4.284   1.403  0.2643 -0.0009 -0.0511
  130TCq2    C2 1981   1.003   4.203   1.464 -0.1825  0.5873 -0.5492
  130TCq2    C3 1982   1.133   4.180   1.437 -0.5317 -1.0411  0.3025
  130TCq2    C4 1983   1.201   4.096   1.519  0.0696 -0.2110  0.3972
  130TCq2    C5 1984   1.147   4.026   1.621 -0.1470 -0.1484  0.3762
  130TCq2    C6 1985   1.005   4.042   1.627  0.4570 -0.1030 -0.5510
  130TCq2    C7 1986   0.937   4.127   1.552  0.2965 -0.1714  0.7859
  130TCq2    C8 1987   0.922   3.968   1.715  0.4363 -0.4062 -0.6972
  130TCq2    O4 1988   0.805   3.958   1.684 -0.0620 -0.2693 -0.5070
  130TCq2    C9 1989   1.341   4.072   1.495  0.0769  0.6322 -0.3997
  130TCq2    O5 1990   1.403   4.002   1.581  0.6025  0.7987 -0.2048
  130TCq2    O6 1991   1.397   4.130   1.400  0.2990  0.3299 -0.6810
  130TCq2    H2 1992   1.179   4.231   1.353 -0.5187 -0.7994  0.4573
  130TCq2    H3 1993   1.201   3.947   1.672 -1.6505 -0.3731  1.6027
  130TCq2    H4 1994   0.831   4.139   1.569 -0.0460  0.1812 -1.5296
  131MPD2     C 1995   0.242   2.409   9.620 -0.1362 -0.2020  0.7981
  131MPD2    C1 1996   0.364   2.435   9.678 -0.2861 -0.8303 -0.0395
  131MPD2    C2 1997   0.437   2.332   9.731 -0.4132  1.2616  0.3795
  131MPD2    C3 1998   0.382   2.206   9.745 -0.8256  0.4258 -0.6104
  131MPD2    C4 1999   0.260   2.187   9.697 -0.1089  0.2990 -0.0413
  131MPD2    C5 2000   0.185   2.285   9.639  0.2314  0.0256 -0.3947
  131MPD2     H 2001   0.541   2.344   9.760  0.2282  1.3712 -1.9958
  131MPD2    H1 2002   0.208   2.095   9.721 -1.8683  0.9109 -1.4664
  131MPD2    H2 2003   0.190   2.490   9.571  0.1504 -0.0429  0.7587
  131MPD2    H3 2004   0.084   2.268   9.603 -0.0324  0.9744 -0.0816
  131MPD2     N 2005   0.461   2.098   9.797 -0.3214 -0.1380  0.3127
  131MPD2    H5 2006   0.555   2.128   9.821 -0.4920 -0.5417  1.4931
  131MPD2    N1 2007   0.413   2.566   9.671  0.3847 -0.1701 -0.1129
  131MPD2    H7 2008   0.368   2.641   9.620  3.3566  2.5787  1.2982
  132TCq2    C1 2009   0.490   3.021   9.488  0.1471 -0.6913  0.2109
  132TCq2    O2 2010   0.385   2.993   9.432 -0.0309  0.7374  0.2549
  132TCq2    C2 2011   0.516   2.957   9.612 -0.1116  0.0695 -0.2385
  132TCq2    C3 2012   0.589   3.029   9.702 -0.5560 -0.2025 -0.0110
  132TCq2    C4 2013   0.641   2.964   9.810 -0.2601  0.2348  0.1446
  132TCq2    C5 2014   0.628   2.828   9.819  0.5168  0.2359 -0.4188
  132TCq2    C6 2015   0.546   2.756   9.731  0.3417  0.4081 -0.6487
  132TCq2    C7 2016   0.495   2.825   9.621 -0.6453  0.1684 -0.1250
  132TCq2    C8 2017   0.533   2.609   9.737 -0.3237 -0.1255  0.7780
  132TCq2    O4 2018   0.596   2.554   9.827 -0.5682  0.3337  0.2775
  132TCq2    C9 2019   0.713   3.036   9.917  0.8396 -0.0281  0.3251
  132TCq2    O5 2020   0.725   3.158   9.907 -0.4352 -0.5226 -0.5951
  132TCq2    O6 2021   0.763   2.961  10.002 -0.0740  0.3475  0.4163
  132TCq2    H2 2022   0.604   3.136   9.692 -2.2527  0.1560  1.2342
  132TCq2    H3 2023   0.671   2.772   9.902 -1.2878 -2.8555 -1.5771
  132TCq2    H4 2024   0.445   2.771   9.541 -1.1218 -2.0101  1.6479
  133MPD2     C 2025   3.969   4.149   9.104  0.3943 -0.0647 -0.5708
  133MPD2    C1 2026   4.106   4.122   9.116 -0.3131  0.8371  0.2952
  133MPD2    C2 2027   4.150   3.995   9.096  0.6049 -0.2324 -0.1162
  133MPD2    C3 2028   4.063   3.893   9.068 -0.0185 -0.3928  0.2474
  133MPD2    C4 2029   3.931   3.923   9.041 -0.6733 -0.5643  0.6076
  133MPD2    C5 2030   3.885   4.047   9.064  0.0162  0.8264 -0.7427
  133MPD2     H 2031   4.257   3.975   9.103  0.4979 -0.1174  2.0374
  133MPD2    H1 2032   3.864   3.843   9.010  1.3500 -1.9008 -0.2807
  133MPD2    H2 2033   3.937   4.250   9.127 -0.9351 -0.5837 -0.1234
  133MPD2    H3 2034   3.779   4.069   9.066 -0.0763  0.4082 -1.2888
  133MPD2     N 2035   4.102   3.757   9.040  0.1154 -0.1081  0.0524
  133MPD2    H5 2036   4.031   3.686   9.029 -1.8683  1.7287  1.1404
  133MPD2    N1 2037   4.198   4.226   9.146  0.5500 -0.4349  0.2165
  133MPD2    H7 2038   4.161   4.315   9.177  1.5639  1.3303 -3.6892
  134TCq2    C1 2039   4.334   4.228   9.145  0.2701 -0.6823 -0.6189
  134TCq2    O2 2040   4.420   4.147   9.119  0.6853  0.3796  0.6254
  134TCq2    C2 2041   4.374   4.357   9.178 -0.1190 -0.0389  0.2687
  134TCq2    C3 2042   4.288   4.461   9.154  0.3374  0.3752 -0.6161
  134TCq2    C4 2043   4.301   4.580   9.226  0.1776 -0.1510 -0.4140
  134TCq2    C5 2044   4.395   4.587   9.326 -0.9688 -0.2065 -0.3158
  134TCq2    C6 2045   4.474   4.478   9.354 -0.0024  0.3053 -0.5815
  134TCq2    C7 2046   4.467   4.369   9.272  0.2921  0.6100  0.3858
  134TCq2    C8 2047   4.569   4.483   9.464  0.5477 -0.4569  0.1381
  134TCq2    O4 2048   4.637   4.383   9.481  0.2554 -0.1637  0.0640
  134TCq2    C9 2049   4.206   4.687   9.198  0.0013 -0.5552  0.5025
  134TCq2    O5 2050   4.244   0.077   9.240 -0.0556 -0.1577  0.0313
  134TCq2    O6 2051   4.134   4.659   9.100  0.0528 -0.1137 -0.2582
  134TCq2    H2 2052   4.214   4.446   9.076 -0.0674  1.9125 -0.5363
  134TCq2    H3 2053   4.398   4.680   9.382 -1.8032 -0.3216 -0.0844
  134TCq2    H4 2054   4.515   4.277   9.302  2.1728  1.5166  0.1703
  135MPD2     C 2055   2.245   0.679   9.028  0.0205  0.0851 -0.0537
  135MPD2    C1 2056   2.293   0.550   9.048  0.0694 -0.9116 -0.3281
  135MPD2    C2 2057   2.430   0.536   9.037 -0.7231  0.7232  0.8815
  135MPD2    C3 2058   2.509   0.640   8.996 -0.7071 -0.3710 -0.6648
  135MPD2    C4 2059   2.459   0.768   8.973  0.4618  0.1339  0.4786
  135MPD2    C5 2060   2.324   0.785   8.992  0.0841 -0.0921  0.0955
  135MPD2     H 2061   2.461   0.434   9.055 -2.0427  0.4025  1.3282
  135MPD2    H1 2062   2.509   0.857   8.936 -0.8403  0.9087  0.5733
  135MPD2    H2 2063   2.140   0.700   9.045 -0.1274 -1.3162  0.7495
  135MPD2    H3 2064   2.273   0.879   8.973 -0.3500 -0.5668 -1.1133
  135MPD2     N 2065   2.645   0.623   8.981 -0.8069 -0.1903 -0.0168
  135MPD2    H5 2066   2.700   0.708   8.977 -0.7124 -0.1261  2.1629
  135MPD2    N1 2067   2.213   0.437   9.076  0.2108 -0.1027  0.0011
  135MPD2    H7 2068   2.263   0.351   9.098 -1.4050 -0.6665  1.4633
  136TCq2    C1 2069   2.081   0.425   9.067 -0.1872  0.1514  0.3361
  136TCq2    O2 2070   1.990   0.503   9.038 -0.0801  0.6845  0.0366
  136TCq2    C2 2071   2.042   0.285   9.105  0.1697  0.3083  0.1726
  136TCq2    C3 2072   1.911   0.241   9.100 -0.2901 -0.2531 -0.3777
  136TCq2    C4 2073   1.867   0.119   9.149  0.4013 -0.0407 -0.0483
  136TCq2    C5 2074   1.958   0.040   9.216  0.2103 -0.8675 -0.5646
  136TCq2    C6 2075   2.092   0.078   9.205 -0.2388  0.3142 -0.4474
  136TCq2    C7 2076   2.137   0.197   9.158  0.3552  0.0673  0.1476
  136TCq2    C8 2077   2.190   0.001   9.284  0.3140  0.4490 -0.6129
  136TCq2    O4 2078   2.299   0.051   9.304 -0.0297 -0.3681  0.0941
  136TCq2    C9 2079   1.728   0.079   9.144 -0.8870  0.8475  0.6231
  136TCq2    O5 2080   1.659   0.179   9.122  0.2193 -0.2561  0.4466
  136TCq2    O6 2081   1.690   4.683   9.170 -0.1984  0.1857  0.0718
  136TCq2    H2 2082   1.843   0.314   9.058  0.2903 -0.5892 -1.9129
  136TCq2    H3 2083   1.913   4.677   9.265  0.2576 -1.2396 -1.1526
  136TCq2    H4 2084   2.244   0.213   9.144  0.2563  0.2890 -0.3485
  137MPD2     C 2085   2.337   2.638   9.568  1.2305  0.0470  0.1593
  137MPD2    C1 2086   2.335   2.761   9.511  0.2312  1.1766  0.8555
  137MPD2    C2 2087   2.405   2.866   9.567 -0.4570  0.1117 -0.0150
  137MPD2    C3 2088   2.477   2.846   9.681  0.3087 -0.2568 -0.2804
  137MPD2    C4 2089   2.484   2.720   9.731  0.0988  0.3824 -0.4538
  137MPD2    C5 2090   2.410   2.619   9.675 -0.1977 -0.5341  0.0088
  137MPD2     H 2091   2.418   2.965   9.525 -1.8709 -0.1747 -1.1237
  137MPD2    H1 2092   2.541   2.695   9.820 -0.7672  0.1117  0.0227
  137MPD2    H2 2093   2.287   2.550   9.529 -0.1346  0.7877  0.2449
  137MPD2    H3 2094   2.420   2.519   9.716  0.1117 -1.1673 -1.6147
  137MPD2     N 2095   2.537   2.957   9.747  0.1213 -0.2796  1.0067
  137MPD2    H5 2096   2.522   3.040   9.691 -2.3112 -0.7270  1.0287
  137MPD2    N1 2097   2.252   2.789   9.401 -0.1670 -0.2512 -0.0731
  137MPD2    H7 2098   2.189   2.714   9.373 -2.2428  1.2647  0.5413
  138TCq2    C1 2099   2.246   2.908   9.334  0.5459 -0.3058 -0.1355
  138TCq2    O2 2100   2.322   3.005   9.336  0.3779 -0.9574 -0.1032
  138TCq2    C2 2101   2.131   2.934   9.245 -0.6264  0.1418  0.6961
  138TCq2    C3 2102   2.026   2.845   9.246 -0.0423  0.2567 -0.0920
  138TCq2    C4 2103   1.911   2.885   9.183 -0.0127  0.0238 -0.5856
  138TCq2    C5 2104   1.903   3.007   9.127  0.5422 -0.0482  0.4277
  138TCq2    C6 2105   2.009   3.085   9.128 -0.6936  0.7456 -0.3284
  138TCq2    C7 2106   2.128   3.056   9.190 -0.7319 -0.0005 -0.7499
  138TCq2    C8 2107   1.995   3.228   9.105 -0.1857  0.2962  0.1853
  138TCq2    O4 2108   2.088   3.299   9.067 -0.6719 -0.3924 -0.4051
  138TCq2    C9 2109   1.797   2.800   9.187 -0.0801 -0.2044  1.0197
  138TCq2    O5 2110   1.793   2.723   9.290  0.2288 -0.3774  0.3235
  138TCq2    O6 2111   1.700   2.823   9.107 -0.1287 -0.2614  0.2280
  138TCq2    H2 2112   2.023   2.750   9.298 -2.0260 -0.3323 -1.3144
  138TCq2    H3 2113   1.813   3.031   9.071 -0.1883  0.6331  1.8976
  138TCq2    H4 2114   2.213   3.124   9.187 -1.4668  0.9581  0.0990
  139TMC2    C1 2115   2.311   2.544  13.108  0.6733  0.2069 -0.2947
  139TMC2    C2 2116   2.389   2.606  13.015  0.0961 -0.4279  0.1773
  139TMC2    C3 2117   2.347   2.724  12.951 -0.3218  0.7068  0.0696
  139TMC2    C4 2118   2.180   2.591  13.140 -0.0920 -0.3935  0.0899
  139TMC2    C5 2119   2.145   2.706  13.074 -0.0512 -0.1263  0.2529
  139TMC2    C6 2120   2.228   2.779  12.989  0.0339 -0.0084  0.4708
  139TMC2     C 2121   2.372   2.427  13.171 -0.8936 -0.2984 -0.2976
  139TMC2     O 2122   2.458   2.372  13.102 -0.0556  0.5052 -0.0591
  139TMC2     H 2123   2.493   2.581  12.996  0.9049  2.9872  0.1131
  139TMC2    H1 2124   2.117   2.535  13.207  2.0963 -2.7080  0.1986
  139TMC2    H2 2125   2.203   2.877  12.952  1.0360 -0.4406 -1.3635
  139TMC2    C7 2126   2.055   2.792  13.147  0.2476 -0.6045 -0.0023
  139TMC2    C8 2127   2.437   2.807  12.872 -1.0085 -0.9441 -0.2200
  139TMC2    O1 2128   2.070   2.912  13.147  0.3715  0.3520  0.6009
  139TMC2    O2 2129   2.428   2.927  12.863 -0.1440  0.5571 -0.4981
  139TMC2    O5 2130   2.501   2.721  12.789  0.2011  0.0057  0.1701
  139TMC2    H5 2131   2.465   2.630  12.784 -1.3370  0.7320 -1.6920
  140MPD2     C 2132   2.382   2.325  13.517 -0.3517 -0.4456  0.9602
  140MPD2    C1 2133   2.396   2.299  13.383 -0.6016 -0.6091  1.3028
  140MPD2    C2 2134   2.474   2.195  13.340  0.2618 -0.4003 -0.0866
  140MPD2    C3 2135   2.527   2.107  13.435  1.1850 -0.0142  0.1031
  140MPD2    C4 2136   2.513   2.125  13.575 -0.1963  0.0331  0.1263
  140MPD2    C5 2137   2.435   2.235  13.613 -0.1773 -1.0603 -0.4278
  140MPD2     H 2138   2.495   2.190  13.234  2.6983 -0.1922  0.3898
  140MPD2    H1 2139   2.549   2.049  13.644  3.9989  0.4473 -1.6163
  140MPD2    H2 2140   2.328   2.413  13.548  1.0596  1.6483 -2.5344
  140MPD2    H3 2141   2.408   2.258  13.716 -0.3603  1.7133 -1.0908
  140MPD2     N 2142   2.615   2.011  13.376 -0.2282  0.6164 -0.3637
  140MPD2    H5 2143   2.609   2.008  13.275  2.1333 -0.3082 -0.4681
  140MPD2    N1 2144   2.339   2.402  13.306  0.1458  0.8092 -0.5790
  140MPD2    H7 2145   2.285   2.469  13.359 -0.8807 -1.1077  0.7804
  141TCq2    C1 2146   2.989   3.748  14.709 -0.4837 -0.5465 -0.2636
  141TCq2    O2 2147   2.974   3.838  14.626  0.3117 -0.0104 -0.5662
  141TCq2    C2 2148   2.997   3.780  14.850 -0.0124  0.0955 -0.1453
  141TCq2    C3 2149   2.980   3.684  14.947  0.4120  0.2452  0.0058
  141TCq2    C4 2150   3.017   3.711  15.077 -0.2133 -0.8333 -0.2042
  141TCq2    C5 2151   3.075   3.835  15.116  0.2460  0.0034 -0.0947
  141TCq2    C6 2152   3.079   3.935  15.019 -0.0356 -1.0166  0.2008
  141TCq2    C7 2153   3.029   3.910  14.891  0.6398  0.3367  1.2815
  141TCq2    C8 2154   3.120   4.071  15.063  0.2344 -0.7863 -0.1002
  141TCq2    O4 2155   3.115   4.102  15.183 -0.8277  0.3903  0.4049
  141TCq2    C9 2156   3.006   3.610  15.174  0.1792 -0.4082  0.3616
  141TCq2    O5 2157   3.048   3.641  15.284 -0.4554 -0.0889 -0.1748
  141TCq2    O6 2158   2.976   3.491  15.136 -0.0359 -0.1867  0.1819
  141TCq2    H2 2159   2.929   3.590  14.930 -3.3352  2.3440 -0.4346
  141TCq2    H3 2160   3.107   3.847  15.219 -2.0084  4.1154  0.1259
  141TCq2    H4 2161   3.027   3.982  14.810 -0.0309 -2.3829 -1.1579
  142MPD2     C 2162   0.607   1.588   9.598  0.0933 -0.1037 -0.6222
  142MPD2    C1 2163   0.487   1.611   9.537  0.2853 -1.0879  0.0684
  142MPD2    C2 2164   0.455   1.734   9.496  0.2075  0.4318 -0.0786
  142MPD2    C3 2165   0.541   1.842   9.507  0.5169  0.2903 -0.2542
  142MPD2    C4 2166   0.664   1.813   9.567 -0.1230 -0.1618  0.6889
  142MPD2    C5 2167   0.702   1.689   9.607 -0.6203 -0.3916 -0.2931
  142MPD2     H 2168   0.356   1.746   9.452 -0.1135  0.3163  0.6114
  142MPD2    H1 2169   0.733   1.894   9.585 -1.9589  1.7702 -1.0037
  142MPD2    H2 2170   0.627   1.490   9.640 -0.1135 -0.8898 -2.3663
  142MPD2    H3 2171   0.795   1.670   9.659 -0.7698 -0.9112 -0.2155
  142MPD2     N 2172   0.520   1.982   9.476 -0.2367 -0.7475  0.3854
  142MPD2    H5 2173   0.583   2.050   9.517 -2.6841 -0.3288  3.4134
  142MPD2    N1 2174   0.393   1.506   9.538 -0.4784  0.1480  0.1431
  142MPD2    H7 2175   0.429   1.428   9.591 -0.9949 -0.5662 -0.5603
  143TCq2    C1 2176   0.407   2.029   9.417 -0.0876 -0.0861  0.1086
  143TCq2    O2 2177   0.324   1.954   9.369 -0.4282  0.1167  0.0626
  143TCq2    C2 2178   0.412   2.175   9.381  0.5938 -0.6501  0.4945
  143TCq2    C3 2179   0.298   2.221   9.318 -0.0675 -0.4749  0.8313
  143TCq2    C4 2180   0.284   2.344   9.265 -0.4042 -1.0383  0.0867
  143TCq2    C5 2181   0.394   2.427   9.271 -0.5543 -0.0869 -0.3041
  143TCq2    C6 2182   0.506   2.379   9.337  0.0807  0.4338  0.0814
  143TCq2    C7 2183   0.512   2.259   9.400 -0.0918 -0.0555 -0.2041
  143TCq2    C8 2184   0.610   2.476   9.383  0.4209 -0.3315 -0.6743
  143TCq2    O4 2185   0.692   2.451   9.468 -0.0991 -0.5014 -0.5511
  143TCq2    C9 2186   0.173   2.374   9.180 -0.0904  0.3501  0.5140
  143TCq2    O5 2187   0.166   2.496   9.139 -0.0646 -0.7761 -0.0330
  143TCq2    O6 2188   0.093   2.282   9.156 -0.0746  0.1161 -0.4236
  143TCq2    H2 2189   0.219   2.147   9.309 -0.5739  0.0351  1.1440
  143TCq2    H3 2190   0.389   2.529   9.235  0.2675 -0.1994 -0.7308
  143TCq2    H4 2191   0.602   2.228   9.452  0.2685 -0.0656 -0.8200
  144MPD2     C 2192   3.715   2.040   0.839 -0.0372  0.0492 -0.3119
  144MPD2    C1 2193   3.693   1.905   0.873 -0.4571 -0.3921 -0.4484
  144MPD2    C2 2194   3.761   1.849   0.971 -0.0694 -0.4315 -0.5130
  144MPD2    C3 2195   3.863   1.917   1.037 -0.0011 -1.1213  0.5066
  144MPD2    C4 2196   3.885   2.050   1.007 -0.3596 -0.2479  0.1592
  144MPD2    C5 2197   3.807   2.107   0.915  0.4857 -0.2103 -0.1739
  144MPD2     H 2198   3.745   1.746   1.003  1.6022 -0.5426 -0.0267
  144MPD2    H1 2199   3.957   2.109   1.062 -1.5401  0.9795  0.3732
  144MPD2    H2 2200   3.665   2.095   0.760 -0.5927 -0.4314 -0.2892
  144MPD2    H3 2201   3.815   2.214   0.895  2.8172 -0.2902  0.3282
  144MPD2     N 2202   3.939   1.842   1.130 -0.1458  0.1998 -0.2498
  144MPD2    H5 2203   3.923   1.741   1.130  1.3564 -0.0287 -0.8729
  144MPD2    N1 2204   3.590   1.827   0.818  0.5881  0.4965  0.3344
  144MPD2    H7 2205   3.587   1.731   0.851  0.7887  0.3927  0.0536
  145TCq2    C1 2206   4.034   1.893   1.211 -0.5598 -0.2372  0.0531
  145TCq2    O2 2207   4.034   2.008   1.258  0.5709  0.3866  0.8851
  145TCq2    C2 2208   4.084   1.788   1.298  0.7263  0.1473  0.1856
  145TCq2    C3 2209   4.122   1.677   1.235  0.3493  0.3645  0.2501
  145TCq2    C4 2210   4.152   1.572   1.309 -0.1478 -0.7793  0.2208
  145TCq2    C5 2211   4.131   1.579   1.446 -0.5143 -0.8547 -0.1478
  145TCq2    C6 2212   4.087   1.689   1.507  0.1932  0.7227 -0.1396
  145TCq2    C7 2213   4.063   1.800   1.431  0.0207  0.1493 -0.3763
  145TCq2    C8 2214   4.104   1.699   1.651 -0.5823  0.4079  0.2151
  145TCq2    O4 2215   4.191   1.627   1.694 -0.4062 -0.1381 -0.0646
  145TCq2    C9 2216   4.190   1.450   1.240  0.4654 -0.8416 -0.0732
  145TCq2    O5 2217   4.169   1.444   1.116  0.2801 -0.6252  0.7465
  145TCq2    O6 2218   4.193   1.344   1.307  0.1575 -0.5029 -0.5703
  145TCq2    H2 2219   4.130   1.674   1.127  0.1642 -1.7032  0.2936
  145TCq2    H3 2220   4.163   1.484   1.489  0.8627  0.2513  1.2523
  145TCq2    H4 2221   4.008   1.887   1.464  2.5658  1.9872 -0.9564
  146TMC2    C1 2222   4.195   4.566  12.328 -0.0279 -0.1239  0.5175
  146TMC2    C2 2223   4.073   4.515  12.287  0.1530  0.1444  0.2446
  146TMC2    C3 2224   4.071   4.444  12.172 -0.0305  0.1457  0.2942
  146TMC2    C4 2225   4.316   4.529  12.278  0.7296  0.1481 -0.3157
  146TMC2    C5 2226   4.310   4.451  12.163 -0.1817 -0.3093  0.2159
  146TMC2    C6 2227   4.187   4.411  12.102 -0.5554  0.0064  0.0308
  146TMC2     C 2228   4.182   4.628  12.461  0.1831 -0.5987 -0.7596
  146TMC2     O 2229   4.068   4.650  12.495 -0.6243 -0.2212 -0.5914
  146TMC2     H 2230   4.000   4.505  12.366  1.0244 -1.7503  0.8268
  146TMC2    H1 2231   4.412   4.572  12.306  0.0114  0.5990  1.4308
  146TMC2    H2 2232   4.183   4.343  12.018  1.1956 -0.0985  0.0235
  146TMC2    C7 2233   4.430   4.422  12.095 -0.4216 -0.9242  0.1976
  146TMC2    C8 2234   3.941   4.378  12.147  0.2640 -0.0085  0.3977
  146TMC2    O1 2235   4.441   4.472  11.984  0.2471 -0.0350  0.0398
  146TMC2    O2 2236   3.927   4.270  12.094  0.7204  0.1050 -0.0514
  146TMC2    O5 2237   3.839   4.463  12.176  0.3038  0.2111  0.4875
  146TMC2    H5 2238   3.868   4.548  12.218 -0.0586  1.7157 -2.3228
  147MPD2     C 2239   0.224   4.362  12.152 -0.1730  0.6276 -0.0494
  147MPD2    C1 2240   0.164   4.354  12.275  0.6959 -0.6369 -0.0961
  147MPD2    C2 2241   0.024   4.348  12.276 -0.3535 -0.3971  0.2447
  147MPD2    C3 2242   4.668   4.366  12.167  0.0987  0.1927  0.5019
  147MPD2    C4 2243   0.007   4.369  12.038  0.3612  0.1049  0.8780
  147MPD2    C5 2244   0.141   4.366  12.042  0.2154 -0.0285  0.7729
  147MPD2     H 2245   4.692   4.345  12.370 -1.4878 -2.0564 -0.4650
  147MPD2    H1 2246   4.678   4.377  11.942  1.4667 -2.1174  0.1308
  147MPD2    H2 2247   0.332   4.363  12.147 -0.2293  0.8337 -1.0745
  147MPD2    H3 2248   0.193   4.369  11.947 -0.6004 -0.3115  0.3141
  147MPD2     N 2249   4.531   4.390  12.191 -0.6947  0.9464 -0.0809
  147MPD2    H5 2250   4.501   4.381  12.288 -1.6640 -0.8980 -0.5597
  147MPD2    N1 2251   0.244   4.348  12.393 -0.0422  0.2777  0.4265
  147MPD2    H7 2252   0.343   4.329  12.377 -0.6706 -1.8726 -0.9066
  148MPD2     C 2253   0.323   2.205  11.199  0.4520  0.0361 -0.0448
  148MPD2    C1 2254   0.366   2.312  11.112 -0.0412  0.6905  0.1642
  148MPD2    C2 2255   0.357   2.303  10.976  0.2087 -0.1203 -0.2665
  148MPD2    C3 2256   0.286   2.194  10.929 -0.2278  0.4965 -0.2500
  148MPD2    C4 2257   0.244   2.088  11.006 -0.0472 -0.2892  0.3128
  148MPD2    C5 2258   0.264   2.099  11.142 -0.0499 -0.2645 -0.3710
  148MPD2     H 2259   0.367   2.396  10.920  0.6159  0.5107  0.8416
  148MPD2    H1 2260   0.191   2.002  10.967 -1.5044  0.9653 -0.4732
  148MPD2    H2 2261   0.339   2.192  11.305 -2.1780  0.7025  0.4435
  148MPD2    H3 2262   0.234   2.021  11.211  1.4899 -1.3013 -0.8790
  148MPD2     N 2263   0.234   2.200  10.795  0.0365 -0.0477  0.2618
  148MPD2    H5 2264   0.168   2.124  10.787  1.4914 -1.3038  0.1463
  148MPD2    N1 2265   0.435   2.423  11.156  0.4737 -0.1954 -0.6467
  148MPD2    H7 2266   0.469   2.484  11.082  0.0628  0.8766  0.0502
  149TCq2    C1 2267   0.455   2.465  11.287 -0.4305 -0.2315  0.2779
  149TCq2    O2 2268   0.411   2.418  11.389 -0.5529  0.3662  0.0900
  149TCq2    C2 2269   0.522   2.596  11.288  0.1620  0.7565 -0.4621
  149TCq2    C3 2270   0.459   2.686  11.365  0.3712 -0.3077  1.4511
  149TCq2    C4 2271   0.471   2.815  11.329  0.1091  0.1235  0.8027
  149TCq2    C5 2272   0.534   2.853  11.217  0.5430 -0.0035 -0.0241
  149TCq2    C6 2273   0.600   2.761  11.140  0.3044 -0.5859  0.1199
  149TCq2    C7 2274   0.601   2.630  11.180 -1.0434  0.2189  0.2396
  149TCq2    C8 2275   0.655   2.782  11.002 -0.6771  0.6509 -0.0627
  149TCq2    O4 2276   0.695   2.689  10.930  0.2953 -0.2712  0.1082
  149TCq2    C9 2277   0.381   2.910  11.388 -0.2993  0.2436  0.5923
  149TCq2    O5 2278   0.336   3.008  11.320 -0.3171  0.3588  0.5645
  149TCq2    O6 2279   0.322   2.870  11.496  0.5379  0.3917  0.0585
  149TCq2    H2 2280   0.416   2.662  11.461  0.2737  1.9885  1.9711
  149TCq2    H3 2281   0.533   2.960  11.196  2.4525  0.1191  0.5160
  149TCq2    H4 2282   0.664   2.557  11.130  0.7331  0.0717  2.6822
  150MPD2     C 2283   2.052   2.408  12.071  0.3650 -0.1563 -0.1577
  150MPD2    C1 2284   2.018   2.519  12.002  0.6406 -0.0106  0.3010
  150MPD2    C2 2285   2.097   2.637  12.017  0.5755  0.0316 -0.9601
  150MPD2    C3 2286   2.210   2.632  12.093 -0.4609  0.3577  0.4362
  150MPD2    C4 2287   2.235   2.520  12.167  0.2444 -0.3955 -0.2255
  150MPD2    C5 2288   2.157   2.413  12.157  0.6458  0.7096 -0.4832
  150MPD2     H 2289   2.065   2.732  11.976  3.1133 -0.5472 -4.2269
  150MPD2    H1 2290   2.309   2.518  12.246 -1.7677 -0.7845  1.6264
  150MPD2    H2 2291   1.990   2.319  12.075  1.3067 -0.9265 -2.7494
  150MPD2    H3 2292   2.174   2.327  12.220  0.4970  1.2197  0.2463
  150MPD2     N 2293   2.289   2.755  12.108  0.1223  0.1596  0.0634
  150MPD2    H5 2294   2.256   2.835  12.054  1.3067  1.1385  0.7915
  150MPD2    N1 2295   1.913   2.508  11.910  0.1679  0.4799  0.2230
  150MPD2    H7 2296   1.856   2.424  11.912  0.2277  0.3991 -1.6179
  151TCq2    C1 2297   2.406   2.777  12.178  0.0305 -0.2211 -0.3303
  151TCq2    O2 2298   2.460   2.698  12.254  0.4806 -0.2674 -0.8732
  151TCq2    C2 2299   2.461   2.914  12.176 -0.5090 -0.9746  0.9260
  151TCq2    C3 2300   2.397   3.016  12.123 -0.5700 -0.7423 -0.0137
  151TCq2    C4 2301   2.463   3.136  12.105 -0.0956  0.3859 -0.5347
  151TCq2    C5 2302   2.587   3.154  12.156 -0.1558  0.2547  0.7022
  151TCq2    C6 2303   2.645   3.056  12.231 -0.1099 -0.3730  0.8392
  151TCq2    C7 2304   2.584   2.932  12.242 -0.2453 -1.1411  0.6712
  151TCq2    C8 2305   2.781   3.078  12.281 -0.4055 -0.1646  0.0225
  151TCq2    O4 2306   2.834   3.176  12.225 -0.8437 -0.3144 -0.3110
  151TCq2    C9 2307   2.398   3.234  12.012  0.1770 -0.1991 -0.1459
  151TCq2    O5 2308   2.468   3.328  11.965  0.0810  0.1356  0.7048
  151TCq2    O6 2309   2.272   3.232  11.991  0.2454 -0.1468  0.4709
  151TCq2    H2 2310   2.297   3.001  12.084 -0.1551  1.4366 -1.9471
  151TCq2    H3 2311   2.642   3.244  12.133 -0.6133  0.4301  0.2960
  151TCq2    H4 2312   2.630   2.852  12.299  0.3433 -2.6516 -1.9208
  152MPD2     C 2313   1.792   2.215  12.330 -0.2094  0.1440  0.1105
  152MPD2    C1 2314   1.780   2.353  12.325 -0.2542 -0.0625 -0.0923
  152MPD2    C2 2315   1.661   2.411  12.272 -0.5387  0.3514 -0.0509
  152MPD2    C3 2316   1.562   2.321  12.228 -0.4413  0.3020  0.0426
  152MPD2    C4 2317   1.584   2.186  12.224 -0.5951  0.0497  0.1323
  152MPD2    C5 2318   1.691   2.133  12.290 -0.6455  0.3524 -0.4203
  152MPD2     H 2319   1.643   2.518  12.271 -0.5231  0.3622  2.0881
  152MPD2    H1 2320   1.509   2.122  12.180 -1.7884  0.1151  2.0781
  152MPD2    H2 2321   1.884   2.171  12.366 -0.8899 -0.0987  1.5079
  152MPD2    H3 2322   1.698   2.025  12.283 -0.0714  0.3166  0.5871
  152MPD2     N 2323   1.444   2.372  12.172  0.1580 -0.0740 -0.4892
  152MPD2    H5 2324   1.453   2.472  12.158  0.5015  0.0215  0.4078
  152MPD2    N1 2325   1.891   2.432  12.376 -0.3670  0.6925 -0.0397
  152MPD2    H7 2326   1.951   2.369  12.428 -0.7141  1.0414  0.7837
  153TCq2    C1 2327   1.899   2.568  12.365  0.4288  0.0094  0.0206
  153TCq2    O2 2328   1.832   2.652  12.305  1.0256  0.3163 -0.1176
  153TCq2    C2 2329   2.024   2.618  12.426 -0.6053 -0.2576 -0.6931
  153TCq2    C3 2330   2.082   2.534  12.519  0.1139  0.0625  0.0887
  153TCq2    C4 2331   2.208   2.560  12.558 -0.1149  0.1146 -0.3407
  153TCq2    C5 2332   2.270   2.679  12.531  0.9723 -0.4907 -0.6746
  153TCq2    C6 2333   2.200   2.771  12.445  0.1113  0.5545  0.6435
  153TCq2    C7 2334   2.076   2.736  12.386 -0.0737  0.2030 -0.3141
  153TCq2    C8 2335   2.236   2.918  12.448 -0.2959  0.3896  0.5197
  153TCq2    O4 2336   2.166   2.981  12.374  0.4108  0.5701 -0.1459
  153TCq2    C9 2337   2.270   2.472  12.650  0.5631 -0.7069  0.4400
  153TCq2    O5 2338   2.195   2.381  12.691 -0.3901  0.1290  0.0356
  153TCq2    O6 2339   2.375   2.511  12.708 -0.2329 -0.2771 -0.1747
  153TCq2    H2 2340   2.046   2.435  12.543 -0.0491 -0.2449 -1.3928
  153TCq2    H3 2341   2.371   2.701  12.565  1.3349 -0.7749 -1.5572
  153TCq2    H4 2342   2.025   2.786  12.304  0.1734 -0.8033 -1.0774
  154MPD2     C 2343   4.516   2.232   0.571  0.0358 -0.1153  0.1620
  154MPD2    C1 2344   4.539   2.292   0.695  0.1750  0.1789 -0.4534
  154MPD2    C2 2345   4.466   2.406   0.724  0.4659 -0.2233  0.3395
  154MPD2    C3 2346   4.369   2.452   0.637 -0.0449  0.0227  0.1395
  154MPD2    C4 2347   4.349   2.385   0.518  0.3495  0.6244  0.5721
  154MPD2    C5 2348   4.427   2.279   0.486  0.0653  0.2725  0.1602
  154MPD2     H 2349   4.484   2.453   0.820  0.0308 -0.9790  0.7965
  154MPD2    H1 2350   4.267   2.401   0.450 -2.4333 -1.3800  3.4544
  154MPD2    H2 2351   4.577   2.148   0.542 -1.7677 -1.8889  1.5162
  154MPD2    H3 2352   4.427   2.226   0.391 -1.4070  1.3903 -0.4626
  154MPD2     N 2353   4.299   2.569   0.675 -0.3719 -0.1142 -0.3359
  154MPD2    H5 2354   4.317   2.603   0.769  1.8523 -1.5996 -0.2233
  154MPD2    N1 2355   4.636   2.236   0.781  0.2927 -0.2798  0.0247
  154MPD2    H7 2356   4.680   2.154   0.742  0.9709 -0.8854  2.1089
  155TCq2    C1 2357   4.665   2.275   0.913  0.6559 -0.0493  0.2230
  155TCq2    O2 2358   4.589   2.340   0.988  0.6321 -0.0613 -0.8812
  155TCq2    C2 2359   0.048   2.193   0.982  0.1220  0.1530  0.3973
  155TCq2    C3 2360   0.054   2.189   1.119  0.5901 -0.4414  0.0391
  155TCq2    C4 2361   0.131   2.096   1.186 -0.1530  0.0720 -0.2994
  155TCq2    C5 2362   0.197   2.002   1.110 -0.0468  0.7084  0.7025
  155TCq2    C6 2363   0.197   2.009   0.972 -0.0506  0.4967 -0.7398
  155TCq2    C7 2364   0.126   2.108   0.904 -0.2098 -0.4122 -0.1678
  155TCq2    C8 2365   0.260   1.898   0.889 -0.1832 -0.5361 -0.1700
  155TCq2    O4 2366   0.252   1.909   0.766  0.3879 -0.2921  0.4277
  155TCq2    C9 2367   0.123   2.090   1.330  0.3408 -0.7273  0.4766
  155TCq2    O5 2368   0.086   2.196   1.391 -0.1979 -0.0547  0.4050
  155TCq2    O6 2369   0.152   1.979   1.377  0.1608 -0.3440 -0.5828
  155TCq2    H2 2370   4.715   2.251   1.185  2.1613  0.6462  0.4556
  155TCq2    H3 2371   0.246   1.920   1.162  1.4104 -0.2554 -2.2138
  155TCq2    H4 2372   0.125   2.108   0.796  1.5102 -0.2570 -0.2001
  156MPD2     C 2373   1.361   4.695  12.587  0.1982  0.0416  0.1378
  156MPD2    C1 2374   1.363   0.086  12.505  0.2377 -0.1107  0.3122
  156MPD2    C2 2375   1.444   0.195  12.541  0.4368 -0.4620 -0.1975
  156MPD2    C3 2376   1.507   0.190  12.659 -0.5758 -0.4502  0.9905
  156MPD2    C4 2377   1.503   0.085  12.741  0.2922  0.7176 -0.4438
  156MPD2    C5 2378   1.429   4.699  12.704  0.0574  0.8867 -0.2583
  156MPD2     H 2379   1.456   0.287  12.484 -0.8699  0.4006  0.9264
  156MPD2    H1 2380   1.564   0.086  12.831  1.6852 -1.0405 -1.3805
  156MPD2    H2 2381   1.300   4.608  12.565  0.2792 -0.1250  0.5794
  156MPD2    H3 2382   1.428   4.617  12.775 -0.1848  1.3611  0.2925
  156MPD2     N 2383   1.591   0.299  12.679  0.5160 -0.5300 -0.2010
  156MPD2    H5 2384   1.595   0.366  12.603  1.2508  0.1812  0.4745
  156MPD2    N1 2385   1.287   0.079  12.385  0.6652  0.2971  0.2319
  156MPD2    H7 2386   1.236   4.715  12.367  2.4133 -0.9199  1.0346
  157TCq2    C1 2387   1.293   0.166  12.275 -0.2398 -0.2356  0.4221
  157TCq2    O2 2388   1.374   0.260  12.253  0.1619  0.1187 -0.0767
  157TCq2    C2 2389   1.220   0.110  12.165 -0.3130  0.0558 -0.2741
  157TCq2    C3 2390   1.099   0.039  12.183 -0.0682  0.2325  0.8293
  157TCq2    C4 2391   1.029   0.011  12.063 -0.9658 -0.3545  0.1501
  157TCq2    C5 2392   1.075   0.051  11.936  0.4988 -0.3531  0.6387
  157TCq2    C6 2393   1.185   0.134  11.932  0.5436 -0.2331  0.1750
  157TCq2    C7 2394   1.260   0.155  12.043 -0.1669  0.4182 -0.2101
  157TCq2    C8 2395   1.218   0.212  11.815  0.4896 -0.1336 -0.5035
  157TCq2    O4 2396   1.312   0.290  11.822  0.5403 -0.9653 -0.0705
  157TCq2    C9 2397   0.922   4.640  12.073  0.2982 -0.1660  0.0425
  157TCq2    O5 2398   0.876   4.576  11.974 -0.2675 -0.3677 -0.5910
  157TCq2    O6 2399   0.903   4.589  12.186  0.0630 -0.1995  0.3344
  157TCq2    H2 2400   1.061   0.005  12.279  0.3442  0.5746  1.1137
  157TCq2    H3 2401   1.020   0.023  11.847  0.6992 -1.2291  0.7905
  157TCq2    H4 2402   1.344   0.223  12.036  0.0928 -0.0636 -1.8047
  158TMC2    C1 2403   2.562   4.143  13.940 -0.3710 -0.1919  0.8111
  158TMC2    C2 2404   2.590   4.271  13.922 -0.0380  0.9023 -0.0518
  158TMC2    C3 2405   2.565   4.320  13.795 -0.1978  0.1762  0.2122
  158TMC2    C4 2406   2.493   4.069  13.845 -0.3965 -0.0906  0.2999
  158TMC2    C5 2407   2.480   4.116  13.719 -0.4354  0.4630  0.3626
  158TMC2    C6 2408   2.521   4.242  13.689  0.2110 -0.0020  0.0467
  158TMC2     C 2409   2.624   4.076  14.055 -0.4327 -0.4203  0.0004
  158TMC2     O 2410   2.719   4.135  14.103  0.6231 -0.4129 -0.3924
  158TMC2     H 2411   2.641   4.323  14.002  0.8202 -0.3341  0.2043
  158TMC2    H1 2412   2.485   3.963  13.863 -2.7851 -0.1171 -1.0136
  158TMC2    H2 2413   2.491   4.298  13.602  1.2545 -1.2659 -1.1306
  158TMC2    C7 2414   2.440   4.036  13.603  0.4219  0.6548 -0.5142
  158TMC2    C8 2415   2.629   4.447  13.768  0.4232  0.2429  0.0708
  158TMC2    O1 2416   2.478   4.091  13.502  0.2135  0.5151 -0.2603
  158TMC2    O2 2417   2.649   4.531  13.856 -0.2977  0.3957  0.0250
  158TMC2    O5 2418   2.698   4.437  13.653 -0.1444 -0.2390  0.1904
  158TMC2    H5 2419   2.692   4.344  13.622 -0.8670 -0.3526  0.6625
  159MPD2     C 2420   2.681   3.740  14.425  0.0980  1.0854 -0.3797
  159MPD2    C1 2421   2.628   3.670  14.318  0.6355 -0.0851 -0.0773
  159MPD2    C2 2422   2.598   3.745  14.206 -0.0839 -0.3417 -0.2739
  159MPD2    C3 2423   2.637   3.875  14.190 -0.2979 -0.0246 -0.7595
  159MPD2    C4 2424   2.699   3.934  14.300  0.3722 -0.0081 -0.3133
  159MPD2    C5 2425   2.720   3.872  14.420  0.2899  0.7348  0.4090
  159MPD2     H 2426   2.531   3.705  14.130  2.7723  1.1127 -3.5569
  159MPD2    H1 2427   2.735   4.036  14.291  1.6696 -0.1979  2.9162
  159MPD2    H2 2428   2.705   3.693  14.519 -2.7000  1.3281  0.4732
  159MPD2    H3 2429   2.769   3.914  14.508  0.3901  1.7611 -0.1360
  159MPD2     N 2430   2.594   3.945  14.072  0.2093 -0.2179 -0.7425
  159MPD2    H5 2431   2.539   3.889  14.007  2.7283 -1.5725 -1.6936
  159MPD2    N1 2432   2.602   3.530  14.342 -0.5397  0.3283 -0.1934
  159MPD2    H7 2433   2.596   3.495  14.437  0.1756 -0.3571 -0.4050
  160TMC2    C1 2434   2.601   1.845   1.765  0.2011  0.0755 -0.3208
  160TMC2    C2 2435   2.684   1.871   1.869  0.3671 -0.2481 -0.0294
  160TMC2    C3 2436   2.794   1.950   1.842 -0.3472 -0.4864  0.5671
  160TMC2    C4 2437   2.601   1.904   1.642  0.2983 -0.4466  0.1813
  160TMC2    C5 2438   2.710   1.990   1.630  0.0173  0.5725  0.4772
  160TMC2    C6 2439   2.811   2.015   1.725  0.1429  0.5618 -0.3929
  160TMC2     C 2440   2.502   1.747   1.793  0.0469 -0.1030 -0.0051
  160TMC2     O 2441   2.526   1.664   1.879 -0.2712  0.8655  0.2336
  160TMC2     H 2442   2.673   1.842   1.973 -2.7643  2.6646  0.4145
  160TMC2    H1 2443   2.533   1.891   1.559  2.2339  3.3483 -2.0034
  160TMC2    H2 2444   2.897   2.081   1.717  0.5652  0.4203  2.7775
  160TMC2    C7 2445   2.740   2.027   1.494  0.5237  0.0099  0.0640
  160TMC2    C8 2446   2.871   2.002   1.951  0.2502 -0.7777  0.2412
  160TMC2    O1 2447   2.672   1.976   1.408  0.0387  0.7452 -0.3987
  160TMC2    O2 2448   2.894   2.120   1.972  0.0244  0.0842  0.2334
  160TMC2    O5 2449   2.916   1.909   2.038 -0.3969  0.0055  0.9477
  160TMC2    H5 2450   2.904   1.814   2.013  3.6738 -1.1254  3.2683
  161MPD2     C 2451   2.252   1.583   1.776 -0.3014  0.2597  0.2394
  161MPD2    C1 2452   2.255   1.715   1.746 -1.1220 -0.1310 -0.5335
  161MPD2    C2 2453   2.139   1.785   1.721  0.3139  0.6968  0.0714
  161MPD2    C3 2454   2.017   1.713   1.729  0.7529  0.2756 -0.1826
  161MPD2    C4 2455   2.015   1.583   1.747 -0.7962 -0.1244  0.2002
  161MPD2    C5 2456   2.131   1.515   1.778 -0.0113  0.1248  0.4189
  161MPD2     H 2457   2.152   1.887   1.685 -1.6591  0.1915 -2.0900
  161MPD2    H1 2458   1.920   1.531   1.740  0.4139 -2.3271 -0.0622
  161MPD2    H2 2459   2.340   1.526   1.803  1.6626  2.9582 -0.4755
  161MPD2    H3 2460   2.134   1.412   1.813  0.5067 -0.2827 -0.8133
  161MPD2     N 2461   1.898   1.773   1.688  0.1686  0.4609  0.3506
  161MPD2    H5 2462   1.813   1.719   1.673 -0.3791  1.1115  1.1671
  161MPD2    N1 2463   2.382   1.788   1.741  0.0063 -0.1403  0.6464
  161MPD2    H7 2464   2.378   1.881   1.702  0.2309  0.4771  2.0975
  162TMC2    C1 2465   0.094   3.714   1.114  0.4925 -0.4236 -0.4487
  162TMC2    C2 2466   0.038   3.808   1.027 -0.0911  0.1866 -0.0490
  162TMC2    C3 2467   4.632   3.858   1.059  0.1947 -0.2245  0.0372
  162TMC2    C4 2468   0.030   3.684   1.230 -0.0454 -0.8542 -0.3141
  162TMC2    C5 2469   4.627   3.737   1.258  0.0703  0.3555  0.4855
  162TMC2    C6 2470   4.565   3.834   1.177  0.7275 -0.6666 -0.1301
  162TMC2     C 2471   0.200   3.641   1.067  0.1028  0.0172  0.8418
  162TMC2     O 2472   0.267   3.695   0.980 -0.4455  0.2817 -0.0482
  162TMC2     H 2473   0.097   3.850   0.947  1.3953 -1.8696 -0.0461
  162TMC2    H1 2474   0.076   3.611   1.295 -1.5586 -1.4638  0.0756
  162TMC2    H2 2475   4.471   3.885   1.195  0.7563 -0.1391 -1.4850
  162TMC2    C7 2476   4.547   3.686   1.368 -0.4001 -0.6391  0.0332
  162TMC2    C8 2477   4.585   3.983   0.994 -0.0872 -0.1495  0.3624
  162TMC2    O1 2478   4.430   3.719   1.361  0.4436 -0.2957  0.1847
  162TMC2    O2 2479   4.520   4.074   1.044 -0.0971  0.0152  0.0418
  162TMC2    O5 2480   4.650   3.993   0.878 -0.0743  0.5730  0.1921
  162TMC2    H5 2481   4.691   3.908   0.852 -4.5554 -1.4855 -0.1464
  163MPD2     C 2482   0.477   3.209   1.004 -0.7150 -0.3837 -0.2443
  163MPD2    C1 2483   0.447   3.306   0.912  0.2152 -0.1262  0.6479
  163MPD2    C2 2484   0.363   3.414   0.957 -0.3824  0.1694  0.5819
  163MPD2    C3 2485   0.307   3.416   1.080 -0.0711 -0.7777  0.0139
  163MPD2    C4 2486   0.328   3.309   1.164  0.4033  0.2894  0.5559
  163MPD2    C5 2487   0.420   3.209   1.133  0.1703 -0.2657 -0.1117
  163MPD2     H 2488   0.324   3.487   0.886 -2.2081 -0.7612  0.6176
  163MPD2    H1 2489   0.267   3.309   1.254  2.0241 -3.3779  1.6807
  163MPD2    H2 2490   0.537   3.121   0.985 -2.4564 -1.5118 -0.6102
  163MPD2    H3 2491   0.441   3.123   1.195 -0.6780 -0.2137  0.2575
  163MPD2     N 2492   0.211   3.515   1.122  0.4272  0.4357  0.9208
  163MPD2    H5 2493   0.149   3.486   1.197  0.8262 -3.2914 -0.1693
  163MPD2    N1 2494   0.496   3.296   0.775  0.2708 -0.1454 -0.5350
  163MPD2    H7 2495   0.539   3.207   0.754 -0.9173 -0.5466 -1.2559
  164TCq2    C1 2496   0.781   3.546  11.422  0.3885 -0.1213 -0.0208
  164TCq2    O2 2497   0.716   3.542  11.528  0.0882  0.5268  0.0422
  164TCq2    C2 2498   0.781   3.679  11.362  0.2977 -0.3869  0.4014
  164TCq2    C3 2499   0.874   3.705  11.263 -0.3519 -0.1798  0.8204
  164TCq2    C4 2500   0.867   3.825  11.197  0.2578  0.5018 -0.1575
  164TCq2    C5 2501   0.761   3.919  11.217  0.6254 -0.4944  0.3796
  164TCq2    C6 2502   0.670   3.887  11.310  0.1199 -0.0621 -0.3317
  164TCq2    C7 2503   0.686   3.779  11.394  0.5756  0.3158 -0.4346
  164TCq2    C8 2504   0.532   3.951  11.305 -0.2001  0.6644 -0.0251
  164TCq2    O4 2505   0.472   3.975  11.202 -0.0550  0.2756 -0.0976
  164TCq2    C9 2506   0.963   3.847  11.094 -0.1425 -0.2977 -0.5415
  164TCq2    O5 2507   1.053   3.763  11.077 -0.1468 -0.1329 -0.5018
  164TCq2    O6 2508   0.937   3.952  11.025 -0.3954 -0.2813 -0.5739
  164TCq2    H2 2509   0.962   3.642  11.256  1.2424  2.3007 -2.0915
  164TCq2    H3 2510   0.751   4.006  11.153 -1.7485  0.4146  2.0241
  164TCq2    H4 2511   0.614   3.744  11.467  0.2244 -1.3428 -1.5733
  165MPD2     C 2512   1.463   0.461   1.394  0.5347 -1.0465 -0.8801
  165MPD2    C1 2513   1.599   0.480   1.382 -0.3900 -0.8410 -0.4583
  165MPD2    C2 2514   1.658   0.602   1.393 -0.2057 -0.4937  0.0443
  165MPD2    C3 2515   1.584   0.705   1.450  0.2278 -0.2686  0.1078
  165MPD2    C4 2516   1.454   0.682   1.476  0.4271  0.0664 -0.4513
  165MPD2    C5 2517   1.392   0.569   1.440 -0.0579 -0.1043  0.1515
  165MPD2     H 2518   1.763   0.607   1.366 -1.1182  1.5922 -3.0654
  165MPD2    H1 2519   1.387   0.758   1.515 -1.0251 -2.8218  2.6578
  165MPD2    H2 2520   1.421   0.362   1.386 -0.4143 -0.7125  0.1114
  165MPD2    H3 2521   1.285   0.565   1.452  0.1294  0.0636  1.9294
  165MPD2     N 2522   1.635   0.831   1.469  0.4131  0.2435 -0.0920
  165MPD2    H5 2523   1.566   0.897   1.503  2.1722  1.0012  2.0287
  165MPD2    N1 2524   1.662   0.368   1.335  0.0009 -0.1730  0.0837
  165MPD2    H7 2525   1.607   0.285   1.316 -0.3550  0.6754 -2.5233
  166TCq2    C1 2526   1.770   0.869   1.460  0.0267  0.5079  0.7606
  166TCq2    O2 2527   1.861   0.808   1.410  0.1675 -0.2753  0.1291
  166TCq2    C2 2528   1.785   1.003   1.507 -0.2995 -0.5951 -0.0135
  166TCq2    C3 2529   1.691   1.055   1.588 -1.4975 -0.6415 -0.0378
  166TCq2    C4 2530   1.707   1.184   1.636  0.3610  0.1097  0.1375
  166TCq2    C5 2531   1.819   1.261   1.611  0.6809 -0.4059  0.1366
  166TCq2    C6 2532   1.910   1.203   1.533  0.4037 -0.4482  0.8095
  166TCq2    C7 2533   1.894   1.082   1.473  0.3430  0.3573 -0.2973
  166TCq2    C8 2534   2.016   1.275   1.464 -0.1907 -0.3356 -0.6513
  166TCq2    O4 2535   2.119   1.224   1.425 -0.0213  0.2873 -0.0270
  166TCq2    C9 2536   1.607   1.241   1.720 -0.3173  0.1512  0.5718
  166TCq2    O5 2537   1.530   1.156   1.770  0.4831 -0.1731 -0.1591
  166TCq2    O6 2538   1.601   1.367   1.739  0.0013  0.0737  0.1819
  166TCq2    H2 2539   1.598   1.010   1.621 -0.7814 -1.8609  0.3479
  166TCq2    H3 2540   1.828   1.361   1.651  0.1086  0.3674 -1.6882
  166TCq2    H4 2541   1.968   1.051   1.400 -0.2596 -1.8862  0.0526
  167TMC2    C1 2542   4.475   3.540  12.394 -0.3823 -0.2471  0.9463
  167TMC2    C2 2543   4.406   3.607  12.488  0.1418  0.1857  0.2867
  167TMC2    C3 2544   4.410   3.568  12.616 -0.5882  0.1542  0.0247
  167TMC2    C4 2545   4.537   3.423  12.415  0.7633 -0.7933 -1.2347
  167TMC2    C5 2546   4.543   3.390  12.545  0.1067 -1.2530  0.2179
  167TMC2    C6 2547   4.474   3.452  12.638 -0.1737 -0.0817 -0.0569
  167TMC2     C 2548   4.457   3.582  12.256  0.2686 -0.6778  0.3182
  167TMC2     O 2549   4.430   3.701  12.227  0.5332  0.3344 -0.3107
  167TMC2     H 2550   4.355   3.698  12.458  1.7324  0.8868 -0.2985
  167TMC2    H1 2551   4.574   3.351  12.343 -1.7961 -1.5327 -1.7958
  167TMC2    H2 2552   4.477   3.411  12.738  0.2723 -0.2891 -0.1515
  167TMC2    C7 2553   4.589   3.255  12.574  0.7543 -0.2427 -0.8145
  167TMC2    C8 2554   4.294   3.587  12.703  0.8778 -0.1110 -0.1192
  167TMC2    O1 2555   4.531   3.198  12.665 -0.2892 -0.0627 -0.2177
  167TMC2    O2 2556   4.252   3.486  12.761  0.5447  0.2945  0.2759
  167TMC2    O5 2557   4.231   3.703  12.681 -0.0592 -0.5670 -0.0097
  167TMC2    H5 2558   4.284   3.768  12.628 -2.8884  1.1633 -0.6989
  168MPD2     C 2559   4.418   3.597  11.962 -0.5430 -0.0560 -0.7703
  168MPD2    C1 2560   4.446   3.483  12.031 -0.0009 -0.3050 -0.0949
  168MPD2    C2 2561   4.472   3.369  11.952 -0.1753 -0.3797  0.2463
  168MPD2    C3 2562   4.480   3.378  11.814  0.3637 -0.1927  0.1296
  168MPD2    C4 2563   4.463   3.493  11.754  0.2974 -0.1968  0.4193
  168MPD2    C5 2564   4.426   3.596  11.828  0.8744 -0.2358 -0.1178
  168MPD2     H 2565   4.488   3.277  12.007  0.1760  0.5946  1.7855
  168MPD2    H1 2566   4.471   3.508  11.647  0.3961  0.4558  0.5207
  168MPD2    H2 2567   4.381   3.689  12.005 -0.7728 -0.9893  0.9979
  168MPD2    H3 2568   4.393   3.682  11.771 -0.0251  0.1141  0.9279
  168MPD2     N 2569   4.521   3.267  11.734  0.4158 -0.7770  0.2030
  168MPD2    H5 2570   4.548   3.288  11.638 -0.1868 -0.0601  0.1890
  168MPD2    N1 2571   4.446   3.474  12.172  0.2111  1.0258  0.4089
  168MPD2    H7 2572   4.465   3.383  12.212 -2.3587  0.2012 -0.2582
  169MPD1     C 2573   4.067   2.158   8.946  0.9741  0.4405  0.2974
  169MPD1    C1 2574   4.071   2.260   9.045  0.1662  0.3975  0.2139
  169MPD1    C2 2575   3.951   2.312   9.085  0.0342  0.3463 -0.3775
  169MPD1    C3 2576   3.827   2.269   9.038 -0.5136 -0.0493 -0.3085
  169MPD1    C4 2577   3.824   2.156   8.959  0.0177  0.0247  0.0986
  169MPD1    C5 2578   3.940   2.118   8.911  0.7878 -0.7513 -0.4681
  169MPD1     H 2579   3.943   2.394   9.155 -0.4870  0.8576 -1.0363
  169MPD1    H1 2580   3.736   2.106   8.921 -0.1287 -0.6843  1.3785
  169MPD1    H2 2581   4.158   2.121   8.900  0.7942 -0.5980  0.7835
  169MPD1    H3 2582   3.945   2.040   8.836 -1.5878 -2.1020  0.7820
  169MPD1     N 2583   3.709   2.317   9.097 -0.2806 -0.1048  0.5382
  169MPD1    H5 2584   3.722   2.387   9.170  0.0174  1.2840 -0.8493
  169MPD1    N1 2585   4.199   2.309   9.079  0.1580 -0.4623 -0.6905
  169MPD1    H6 2586   4.192   2.372   9.159 -2.4815 -0.3825 -1.0156
  169MPD1    H7 2587   4.266   2.235   9.102  0.8287  0.3908  0.0947
  170MPD1     C 2588   0.085   0.632  13.445  0.2158  0.3446  0.3285
  170MPD1    C1 2589   0.111   0.623  13.576 -0.4297  0.1909  0.1750
  170MPD1    C2 2590   0.229   0.671  13.628 -0.0909  1.1691  0.1519
  170MPD1    C3 2591   0.315   0.738  13.539 -0.0989  0.0039 -0.1611
  170MPD1    C4 2592   0.274   0.758  13.410 -0.0496 -0.6200  0.2438
  170MPD1    C5 2593   0.161   0.711  13.371 -0.5031  0.7797  0.4499
  170MPD1     H 2594   0.249   0.660  13.734  2.8326  0.6721 -0.4619
  170MPD1    H1 2595   0.331   0.807  13.333 -0.3377 -0.9007 -0.1500
  170MPD1    H2 2596   4.712   0.593  13.409  2.4383 -1.8633 -3.0840
  170MPD1    H3 2597   0.128   0.718  13.268 -1.1883 -0.0434  0.6139
  170MPD1     N 2598   0.447   0.783  13.585 -0.4710 -0.6957  0.1012
  170MPD1    H5 2599   0.470   0.767  13.683 -2.1226 -1.0670  0.4305
  170MPD1    N1 2600   0.023   0.546  13.655  0.1957  0.2458 -0.1422
  170MPD1    H6 2601   4.656   0.525  13.609  0.0443  1.7411 -0.5573
  170MPD1    H7 2602   0.000   0.590  13.744 -0.3380 -0.4781  0.0762
  171MPD1     C 2603   3.995   2.049  15.594  0.2288 -0.5795 -0.0287
  171MPD1    C1 2604   4.120   2.104  15.585 -0.1679  0.1558  0.2736
  171MPD1    C2 2605   4.221   2.029  15.635  0.0079 -0.8039 -0.1441
  171MPD1    C3 2606   4.201   1.900  15.689 -0.4001  0.1044 -0.0491
  171MPD1    C4 2607   4.077   1.847  15.699 -0.3703  1.1510 -0.4766
  171MPD1    C5 2608   3.980   1.920  15.641  0.5316 -0.4411  0.5039
  171MPD1     H 2609   4.321   2.071  15.625 -0.0412 -0.2914  1.4677
  171MPD1    H1 2610   4.063   1.746  15.734  0.9968  1.0685 -0.1691
  171MPD1    H2 2611   3.902   2.095  15.564  0.9442  0.2288 -0.9732
  171MPD1    H3 2612   3.877   1.890  15.652  1.0523 -2.1997  0.5331
  171MPD1     N 2613   4.314   1.817  15.735  0.1989  0.4474 -0.5743
  171MPD1    H5 2614   4.296   1.720  15.761  0.4445  0.6883  0.4770
  171MPD1    N1 2615   4.133   2.240  15.554  0.2242  0.0005 -0.9254
  171MPD1    H6 2616   4.066   2.272  15.484  0.5683  0.2209 -1.1543
  171MPD1    H7 2617   4.225   2.271  15.526  0.0724  0.5175 -0.8422
  172MPD1     C 2618   3.371   1.155   0.899 -0.1571 -0.0541  0.3305
  172MPD1    C1 2619   3.416   1.267   0.968 -0.5007 -0.6275 -0.0686
  172MPD1    C2 2620   3.522   1.329   0.904  0.1938  0.1551 -0.1873
  172MPD1    C3 2621   3.587   1.289   0.787 -0.5025 -0.1214  0.3486
  172MPD1    C4 2622   3.539   1.176   0.724 -0.3669 -0.5156  0.3503
  172MPD1    C5 2623   3.425   1.110   0.779  0.3626  0.3603  0.1699
  172MPD1     H 2624   3.557   1.420   0.953 -2.6959 -0.2650  2.6752
  172MPD1    H1 2625   3.575   1.142   0.627  0.2487  1.4206 -0.1050
  172MPD1    H2 2626   3.284   1.105   0.940 -0.1765 -1.4275 -1.3769
  172MPD1    H3 2627   3.401   1.014   0.735  0.0778  0.6285 -0.2554
  172MPD1     N 2628   3.695   1.357   0.729 -0.3891 -0.0002  0.3654
  172MPD1    H5 2629   3.712   1.329   0.633 -1.1956 -2.7731  1.0179
  172MPD1    N1 2630   3.337   1.328   1.065  0.4832 -0.1389  0.0031
  172MPD1    H6 2631   3.291   1.263   1.128 -1.2916  0.5287 -0.6105
  172MPD1    H7 2632   3.387   1.391   1.128 -1.2118 -0.1274  1.3263
  173MPD1     C 2633   0.149   1.571  14.118  0.0936  0.5087  0.1965
  173MPD1    C1 2634   0.199   1.450  14.082 -0.6019  0.3280 -0.3227
  173MPD1    C2 2635   0.240   1.363  14.180 -0.3357  0.2894  0.1485
  173MPD1    C3 2636   0.219   1.391  14.309  0.5327 -0.2109 -0.3063
  173MPD1    C4 2637   0.159   1.508  14.343  0.2161 -0.1924  0.2379
  173MPD1    C5 2638   0.132   1.602  14.247 -0.2034 -0.0695 -0.1859
  173MPD1     H 2639   0.299   1.272  14.171 -0.1874  0.4320 -0.3481
  173MPD1    H1 2640   0.128   1.538  14.442  1.2315 -0.0356  0.5156
  173MPD1    H2 2641   0.127   1.650  14.048 -0.7499 -0.0868 -0.1959
  173MPD1    H3 2642   0.087   1.698  14.269  2.4636  0.7073  1.9678
  173MPD1     N 2643   0.265   1.293  14.398  0.1041 -0.0803 -0.4001
  173MPD1    H5 2644   0.297   1.211  14.348  1.0764 -0.6714  1.1978
  173MPD1    N1 2645   0.223   1.428  13.943 -1.2878  0.5429  0.3963
  173MPD1    H6 2646   0.146   1.452  13.881 -3.4396 -0.3722  2.7208
  173MPD1    H7 2647   0.234   1.327  13.935  0.8210  0.9505 -1.9520
  174MPD1     C 2648   0.402   0.553  14.146  0.6619 -0.4259 -0.4054
  174MPD1    C1 2649   0.457   0.537  14.272 -1.2227  0.5288  0.1654
  174MPD1    C2 2650   0.415   0.628  14.372 -0.3410 -0.0534 -0.3484
  174MPD1    C3 2651   0.308   0.709  14.350 -0.9456  0.0117  0.2853
  174MPD1    C4 2652   0.232   0.699  14.233 -0.6006  0.0679 -1.3081
  174MPD1    C5 2653   0.284   0.616  14.138  0.6056  0.0615 -0.3138
  174MPD1     H 2654   0.474   0.637  14.463  0.7954 -3.0857 -0.7775
  174MPD1    H1 2655   0.145   0.758  14.209  0.1717  0.7798 -2.3634
  174MPD1    H2 2656   0.441   0.500  14.059  0.2088  0.8517 -1.3928
  174MPD1    H3 2657   0.232   0.617  14.044  3.2463 -1.2349 -1.7841
  174MPD1     N 2658   0.273   0.821  14.428  0.0484 -0.0631 -0.4091
  174MPD1    H5 2659   0.219   0.894  14.382  0.3247 -0.4755 -1.3842
  174MPD1    N1 2660   0.580   0.474  14.289  0.5175 -0.1489  0.2989
  174MPD1    H6 2661   0.573   0.388  14.234  2.6578  1.2151 -2.0765
  174MPD1    H7 2662   0.591   0.449  14.387  2.6887  2.5485  0.7439
  175MPD1     C 2663   3.716   1.123  16.836 -0.2533 -0.0048  0.4455
  175MPD1    C1 2664   3.623   1.179  16.757  0.3639  0.0605 -0.2957
  175MPD1    C2 2665   3.616   1.312  16.738 -0.6665  0.5107  0.4020
  175MPD1    C3 2666   3.707   1.395  16.804  0.4301 -0.2102 -0.1048
  175MPD1    C4 2667   3.792   1.344  16.901  0.3230 -0.2818  0.4392
  175MPD1    C5 2668   3.806   1.202  16.909  0.3070  0.4073 -0.1316
  175MPD1     H 2669   3.548   1.339  16.658 -0.4824  1.9686  0.7230
  175MPD1    H1 2670   3.865   1.401  16.957 -0.4374  0.1747  0.9676
  175MPD1    H2 2671   3.724   1.016  16.854  0.7347 -0.1548 -0.8796
  175MPD1    H3 2672   3.880   1.155  16.972  2.0174  1.1321 -1.6084
  175MPD1     N 2673   3.733   1.533  16.778 -0.5591 -0.0580  0.2940
  175MPD1    H5 2674   3.808   1.569  16.836  0.8539  1.4161 -2.4633
  175MPD1    N1 2675   3.539   1.101  16.671  0.2937 -0.6071  0.4097
  175MPD1    H6 2676   3.453   1.145  16.639 -0.6275 -0.6853  2.7216
  175MPD1    H7 2677   3.509   1.013  16.714  0.5320 -1.4112 -1.0915
  176MPD1     C 2678   0.590   4.495   0.312 -0.4910 -0.3101 -0.1785
  176MPD1    C1 2679   0.473   4.446   0.258 -0.4576 -0.4729 -0.2649
  176MPD1    C2 2680   0.431   4.498   0.136 -0.6597  0.2738  0.1837
  176MPD1    C3 2681   0.504   4.590   0.061 -0.1934  0.6011  0.0541
  176MPD1    C4 2682   0.621   4.623   0.118  0.0728  0.0321 -0.1078
  176MPD1    C5 2683   0.659   4.583   0.239  0.4114 -0.1780 -0.5978
  176MPD1     H 2684   0.345   4.461   0.081  0.0005 -0.1843 -0.5313
  176MPD1    H1 2685   0.689   4.695   0.074  1.6721 -1.4375 -0.0125
  176MPD1    H2 2686   0.620   4.458   0.409 -0.6669  0.1818  0.0625
  176MPD1    H3 2687   0.749   4.625   0.282 -0.8279  2.0146 -0.1687
  176MPD1     N 2688   0.455   4.646  17.625  0.0011  0.0801 -0.2005
  176MPD1    H5 2689   0.365   4.615  17.592 -0.6540  2.1003 -0.3260
  176MPD1    N1 2690   0.392   4.365   0.338  0.3330  1.1148  0.1303
  176MPD1    H6 2691   0.451   4.308   0.397 -1.2320 -1.2479 -0.6038
  176MPD1    H7 2692   0.332   4.310   0.276 -1.6918  2.6279  0.7424
  177MPD1     C 2693   3.737   3.494  10.225  0.2033 -0.2616  0.2844
  177MPD1    C1 2694   3.754   3.626  10.189 -0.0174 -0.6028  1.0457
  177MPD1    C2 2695   3.725   3.651  10.057 -0.0304  0.2390 -0.7705
  177MPD1    C3 2696   3.662   3.561   9.970  0.0214 -0.1301 -0.5922
  177MPD1    C4 2697   3.632   3.433  10.016 -0.3117 -0.1574 -0.2996
  177MPD1    C5 2698   3.664   3.408  10.143  0.0685  0.5710  0.2416
  177MPD1     H 2699   3.751   3.751  10.027  1.1751  0.4483  0.9444
  177MPD1    H1 2700   3.577   3.361   9.956  3.2495 -3.2758  0.1328
  177MPD1    H2 2701   3.759   3.455  10.324  1.2535 -1.1491 -0.2934
  177MPD1    H3 2702   3.647   3.308  10.182  2.4438  0.1971  0.2854
  177MPD1     N 2703   3.618   3.602   9.837 -0.6577  0.3479 -0.9446
  177MPD1    H5 2704   3.658   3.688   9.801 -1.6329  1.0889 -0.2784
  177MPD1    N1 2705   3.830   3.710  10.269 -0.0829  0.0137 -0.9571
  177MPD1    H6 2706   3.814   3.809  10.256  1.1881  0.5665  1.6845
  177MPD1    H7 2707   3.835   3.687  10.368 -0.6689 -0.7613 -1.1048
  178MPD1     C 2708   1.043   0.425  17.478  0.2034  0.7121 -0.3181
  178MPD1    C1 2709   1.009   0.291  17.516 -0.1959  0.4311 -0.6314
  178MPD1    C2 2710   1.018   0.194  17.420  0.0299  0.1198 -0.2686
  178MPD1    C3 2711   1.061   0.220  17.290  0.4066 -0.4686  0.1477
  178MPD1    C4 2712   1.109   0.347  17.262 -0.4837  0.0573 -0.6993
  178MPD1    C5 2713   1.096   0.449  17.354 -0.6787 -0.8180 -0.6935
  178MPD1     H 2714   1.000   0.092  17.454  1.8263  0.0560  0.5323
  178MPD1    H1 2715   1.156   0.372  17.167  2.1081  2.1139  1.0880
  178MPD1    H2 2716   1.044   0.508  17.547  1.0740 -0.9402  1.6651
  178MPD1    H3 2717   1.121   0.552  17.330 -0.6308 -0.1894  2.0736
  178MPD1     N 2718   1.064   0.115  17.194  0.4328 -0.8629  0.3604
  178MPD1    H5 2719   1.130   0.136  17.120  0.8319 -1.5216  0.5259
  178MPD1    N1 2720   0.957   0.265  17.642 -0.5170  0.1419  0.2502
  178MPD1    H6 2721   0.997   0.338   0.013  1.7332  0.2295 -1.3572
  178MPD1    H7 2722   0.998   0.180  17.679  0.0605  0.2803 -0.0772
  179MPD1     C 2723   1.297   1.874  15.515 -0.0208 -0.3675  0.2917
  179MPD1    C1 2724   1.166   1.869  15.547 -0.5800  0.5711 -0.4263
  179MPD1    C2 2725   1.099   1.983  15.601 -0.7704 -0.6753  0.2286
  179MPD1    C3 2726   1.164   2.105  15.608  0.4231 -1.0520 -0.1125
  179MPD1    C4 2727   1.301   2.112  15.563  0.1409  0.6252  0.0862
  179MPD1    C5 2728   1.364   1.996  15.516  0.2376  0.5449 -1.1393
  179MPD1     H 2729   1.002   1.980  15.649 -0.1950  0.8609  1.5174
  179MPD1    H1 2730   1.363   2.200  15.579  1.4162 -0.2719  0.1344
  179MPD1    H2 2731   1.361   1.795  15.475  2.4931  1.3450  0.9726
  179MPD1    H3 2732   1.470   2.001  15.492  0.2268 -0.9793 -1.5480
  179MPD1     N 2733   1.105   2.222  15.660  0.2955 -0.8492  0.0481
  179MPD1    H5 2734   1.157   2.308  15.660 -0.8625 -0.1557  3.0968
  179MPD1    N1 2735   1.104   1.741  15.545 -0.4372 -0.3716 -0.0652
  179MPD1    H6 2736   1.003   1.735  15.551 -0.3287 -1.3166  0.8109
  179MPD1    H7 2737   1.151   1.684  15.475 -0.5671 -0.0838 -0.3823
  180MPD1     C 2738   1.152   3.608  15.143 -0.2047  0.3562 -0.0107
  180MPD1    C1 2739   1.161   3.524  15.038  0.1944  0.0968  0.5731
  180MPD1    C2 2740   1.111   3.565  14.917 -0.5588  0.2169 -0.4829
  180MPD1    C3 2741   1.032   3.678  14.907  0.6527  0.1127  0.0022
  180MPD1    C4 2742   1.006   3.742  15.020  0.3357 -0.3652 -0.2382
  180MPD1    C5 2743   1.065   3.713  15.136 -0.2054  0.0469 -0.0543
  180MPD1     H 2744   1.134   3.504  14.830  0.1022  1.3962 -1.1338
  180MPD1    H1 2745   0.929   3.818  15.024  0.2965 -0.3212 -2.1199
  180MPD1    H2 2746   1.203   3.586  15.235 -0.8104 -0.7776  0.0632
  180MPD1    H3 2747   1.040   3.779  15.218 -1.7315 -0.0736 -0.4271
  180MPD1     N 2748   0.972   3.693  14.785 -0.3045  0.2961  0.3923
  180MPD1    H5 2749   1.004   3.632  14.710 -0.6866  1.0654 -0.4018
  180MPD1    N1 2750   1.242   3.410  15.055  0.0307 -0.3246 -0.5806
  180MPD1    H6 2751   1.197   3.330  15.011 -1.5342  0.1837  0.1006
  180MPD1    H7 2752   1.255   3.385  15.153  1.6107 -0.3612 -0.7873
  181MPD1     C 2753   1.840   0.334  10.104 -0.0897  0.7682  0.4070
  181MPD1    C1 2754   1.844   0.449  10.182 -0.2160  0.1100 -0.5315
  181MPD1    C2 2755   1.944   0.537  10.170  0.1470  0.8238 -0.6781
  181MPD1    C3 2756   2.036   0.523  10.070 -0.1673  0.0704  0.5273
  181MPD1    C4 2757   2.034   0.413   9.986 -0.1528 -0.2855  0.2214
  181MPD1    C5 2758   1.941   0.318  10.010 -0.2678 -0.3012 -0.0720
  181MPD1     H 2759   1.949   0.624  10.235 -1.3835  1.9804 -2.1070
  181MPD1    H1 2760   2.120   0.394   9.923 -1.2455 -1.0952 -1.0216
  181MPD1    H2 2761   1.769   0.254  10.120  0.5612  0.0287 -0.4029
  181MPD1    H3 2762   1.934   0.224   9.956  3.5279 -1.0104  0.6333
  181MPD1     N 2763   2.147   0.610  10.057 -0.5844 -0.0688 -0.2219
  181MPD1    H5 2764   2.214   0.586   9.984  0.0167 -0.0022  0.3069
  181MPD1    N1 2765   1.757   0.457  10.292 -0.2500 -0.1919 -0.5187
  181MPD1    H6 2766   1.662   0.430  10.268 -0.5366 -0.0759  0.4681
  181MPD1    H7 2767   1.762   0.551  10.331  1.4893 -0.4416 -0.1298
  182MPD1     C 2768   3.154   0.050   1.356 -0.4310 -0.8373  0.4084
  182MPD1    C1 2769   3.085   0.083   1.245 -0.5166 -0.1886 -0.6706
  182MPD1    C2 2770   3.057   4.703   1.159  0.4941  0.3846  0.3113
  182MPD1    C3 2771   3.091   4.572   1.190  0.0418  0.0686 -0.4583
  182MPD1    C4 2772   3.136   4.541   1.318 -0.5085  0.2019 -0.1008
  182MPD1    C5 2773   3.178   4.646   1.396  0.4438 -0.2628  0.3154
  182MPD1     H 2774   3.003   0.007   1.069  0.7515  3.1562  0.9558
  182MPD1    H1 2775   3.173   4.442   1.343 -1.8272 -0.3633 -0.3264
  182MPD1    H2 2776   3.175   0.136   1.419  0.6747 -1.2034  0.5337
  182MPD1    H3 2777   3.245   4.629   1.479  2.1167 -1.5527 -1.2941
  182MPD1     N 2778   3.047   4.460   1.116  0.6429 -0.2083 -0.3759
  182MPD1    H5 2779   3.070   4.366   1.148  0.7230 -0.1553 -0.2763
  182MPD1    N1 2780   3.065   0.220   1.208  0.1547  0.6292 -0.0874
  182MPD1    H6 2781   3.042   0.272   1.293  1.5744  2.6596 -0.9371
  182MPD1    H7 2782   2.986   0.222   1.144 -0.2618 -0.9226  0.3970
  183MPD1     C 2783   4.266   1.435   9.382  0.4792  0.1789 -0.2158
  183MPD1    C1 2784   4.158   1.507   9.433  0.1044  0.5429 -0.1665
  183MPD1    C2 2785   4.058   1.444   9.499  0.1365 -0.0789 -0.1526
  183MPD1    C3 2786   4.063   1.309   9.529  0.2977  0.5452 -0.9714
  183MPD1    C4 2787   4.166   1.234   9.477  0.0593  0.1141 -0.1986
  183MPD1    C5 2788   4.269   1.297   9.414 -0.0750 -0.1770 -0.2292
  183MPD1     H 2789   3.968   1.500   9.521  0.4801  0.3049  0.2786
  183MPD1    H1 2790   4.167   1.126   9.488  3.5833  0.0993 -0.5769
  183MPD1    H2 2791   4.350   1.478   9.329 -0.3948  0.2846 -1.5214
  183MPD1    H3 2792   4.353   1.242   9.374 -0.4020 -1.8263  1.3689
  183MPD1     N 2793   3.951   1.259   9.596  0.2717  0.1331 -0.2682
  183MPD1    H5 2794   3.880   1.324   9.629 -2.7373 -3.1076 -0.4262
  183MPD1    N1 2795   4.133   1.637   9.381 -0.1555 -0.2009  0.1711
  183MPD1    H6 2796   4.071   1.696   9.437 -0.4487  0.3322 -0.7276
  183MPD1    H7 2797   4.224   1.680   9.373  0.5291 -1.2014  2.4553
  184MPD1     C 2798   3.002   2.691   9.765 -0.2776  0.2196 -0.7948
  184MPD1    C1 2799   2.891   2.695   9.686  0.0348  0.1443  0.2406
  184MPD1    C2 2800   2.851   2.814   9.624 -0.4867  0.4529  0.4603
  184MPD1    C3 2801   2.935   2.923   9.624  0.1692  0.0026 -0.1264
  184MPD1    C4 2802   3.044   2.921   9.698  0.6886  0.0699  0.0672
  184MPD1    C5 2803   3.087   2.801   9.759  0.6253  0.3641  0.2885
  184MPD1     H 2804   2.755   2.812   9.575  0.1590  0.9082 -0.8110
  184MPD1    H1 2805   3.112   3.005   9.703  0.7668 -0.0718  1.3151
  184MPD1    H2 2806   3.033   2.602   9.819  0.9996  1.9553  1.3053
  184MPD1    H3 2807   3.182   2.803   9.810  1.3024 -1.2787 -0.8982
  184MPD1     N 2808   2.908   3.046   9.546  0.3657  0.2509 -0.1332
  184MPD1    H5 2809   2.971   3.124   9.565  1.2877 -0.3055 -0.9587
  184MPD1    N1 2810   2.792   2.600   9.704 -0.3047 -0.5112  0.3515
  184MPD1    H6 2811   2.839   2.511   9.687 -1.9862 -0.7768 -2.8551
  184MPD1    H7 2812   2.712   2.617   9.643 -0.6140  0.3054  0.9872
  185MPD1     C 2813   2.337   3.153   8.733 -0.5878  0.1330 -0.1832
  185MPD1    C1 2814   2.449   3.230   8.696 -0.4524 -0.3644  0.1555
  185MPD1    C2 2815   2.550   3.241   8.793  0.0996  0.1008 -0.6881
  185MPD1    C3 2816   2.541   3.179   8.913  0.2184 -0.3773  0.1245
  185MPD1    C4 2817   2.427   3.106   8.951 -0.3632 -0.4844 -0.2782
  185MPD1    C5 2818   2.329   3.097   8.856  0.2650  0.1021 -0.4684
  185MPD1     H 2819   2.635   3.304   8.771 -0.6120  1.2214 -0.1753
  185MPD1    H1 2820   2.419   3.056   9.047  2.0926 -0.1773  0.0751
  185MPD1    H2 2821   2.248   3.157   8.671  0.7330 -0.0015 -2.1266
  185MPD1    H3 2822   2.233   3.049   8.868  2.0001 -2.9053  1.4917
  185MPD1     N 2823   2.639   3.187   9.017  0.6464  0.1381 -0.1084
  185MPD1    H5 2824   2.611   3.169   9.113 -0.5031  0.4808 -0.3796
  185MPD1    N1 2825   2.442   3.298   8.571 -0.3830 -0.4432  0.0210
  185MPD1    H6 2826   2.526   3.344   8.538 -1.5176  0.6247 -1.3659
  185MPD1    H7 2827   2.421   3.224   8.504  0.9372 -1.3980  0.6639
  186MPD1     C 2828   1.453   2.420  15.845 -0.2343 -0.0313 -0.2306
  186MPD1    C1 2829   1.497   2.548  15.815  0.0421 -0.5033  0.1349
  186MPD1    C2 2830   1.439   2.656  15.873 -0.5278 -0.2321  0.8044
  186MPD1    C3 2831   1.353   2.644  15.978 -0.1840  0.2794  0.0231
  186MPD1    C4 2832   1.315   2.521  16.017 -0.0864  0.1787 -0.4459
  186MPD1    C5 2833   1.369   2.409  15.953  0.8783  0.5673 -0.4129
  186MPD1     H 2834   1.458   2.755  15.834 -1.4430  0.1739  1.3895
  186MPD1    H1 2835   1.265   2.507  16.112  2.5864  2.3724  1.2641
  186MPD1    H2 2836   1.489   2.334  15.789  0.2490 -0.5781  0.9175
  186MPD1    H3 2837   1.357   2.308  15.991 -0.9671  1.1094  0.4113
  186MPD1     N 2838   1.301   2.752  16.048 -0.2016 -0.2646 -0.2952
  186MPD1    H5 2839   1.267   2.727  16.141  2.6135 -0.5300  0.6495
  186MPD1    N1 2840   1.577   2.557  15.707  0.2700 -0.4405  0.6899
  186MPD1    H6 2841   1.624   2.469  15.686  1.3521  0.0863  0.9358
  186MPD1    H7 2842   1.643   2.635  15.715  2.0139 -1.7333 -1.1112
  187MPD1     C 2843   4.521   0.339   0.592 -0.1803  0.2695 -0.4342
  187MPD1    C1 2844   4.428   0.350   0.491  0.0539  0.0042  0.4133
  187MPD1    C2 2845   4.466   0.399   0.367  0.8214 -0.0568 -1.0109
  187MPD1    C3 2846   4.595   0.457   0.356  0.7128  0.0440 -0.3554
  187MPD1    C4 2847   4.686   0.454   0.465 -0.0410 -0.2963  0.2513
  187MPD1    C5 2848   4.650   0.395   0.577 -0.7403  0.1675 -0.4018
  187MPD1     H 2849   4.394   0.395   0.287 -0.5416 -0.4680  0.2338
  187MPD1    H1 2850   0.066   0.492   0.465  0.5817 -1.9636 -0.1157
  187MPD1    H2 2851   4.478   0.299   0.683 -2.8457  3.2193 -0.3924
  187MPD1    H3 2852   4.714   0.381   0.663 -0.9273 -0.9183 -0.4392
  187MPD1     N 2853   4.644   0.518   0.240  0.3792 -0.2207  0.3546
  187MPD1    H5 2854   0.022   0.539   0.245  0.3933  0.0270 -1.1980
  187MPD1    N1 2855   4.308   0.278   0.503 -0.0325  0.1844  0.0152
  187MPD1    H6 2856   4.238   0.313   0.438  1.0540  1.4058 -0.5213
  187MPD1    H7 2857   4.260   0.291   0.591  0.8972  0.5234  0.4692
  188MPD1     C 2858   4.149   0.376  10.038  0.0285 -0.0049  0.5507
  188MPD1    C1 2859   4.177   0.352   9.901  0.1284 -0.3919  0.0996
  188MPD1    C2 2860   4.216   0.229   9.860 -0.5837 -0.1605 -0.0391
  188MPD1    C3 2861   4.244   0.128   9.954 -1.1039 -0.1532  0.3591
  188MPD1    C4 2862   4.238   0.155  10.085 -0.3019 -0.0069 -0.2645
  188MPD1    C5 2863   4.194   0.281  10.123  0.5585 -0.6179 -0.5555
  188MPD1     H 2864   4.230   0.202   9.755  0.8208  2.2836 -0.4704
  188MPD1    H1 2865   4.281   0.089  10.160 -1.6550 -1.2085 -0.5444
  188MPD1    H2 2866   4.112   0.468  10.081  0.8086  0.0420  1.1288
  188MPD1    H3 2867   4.192   0.301  10.230 -2.0916 -0.1655 -0.6849
  188MPD1     N 2868   4.285   4.718   9.921  0.3033  1.1155  0.5810
  188MPD1    H5 2869   4.290   4.654   9.999 -0.4261 -0.8187 -0.9754
  188MPD1    N1 2870   4.152   0.453   9.814  0.0061 -1.3033  0.9576
  188MPD1    H6 2871   4.143   0.547   9.853  0.3931 -1.1322  0.6446
  188MPD1    H7 2872   4.221   0.448   9.739  1.8482  1.2755  2.4250
  189MPD1     C 2873   1.765   0.216   0.400 -0.2501  0.3346  0.0233
  189MPD1    C1 2874   1.634   0.228   0.438  0.4494  0.3796 -0.4465
  189MPD1    C2 2875   1.572   0.354   0.410  0.1048  0.3642 -0.7959
  189MPD1    C3 2876   1.641   0.456   0.341 -1.3741 -0.0804 -0.2516
  189MPD1    C4 2877   1.768   0.431   0.296 -0.1107 -0.2966 -0.3990
  189MPD1    C5 2878   1.826   0.314   0.324 -0.7382 -0.2048 -0.7768
  189MPD1     H 2879   1.473   0.378   0.446  0.6764 -2.0472  2.4499
  189MPD1    H1 2880   1.822   0.505   0.239 -1.7696 -0.1484 -1.7711
  189MPD1    H2 2881   1.817   0.125   0.427 -0.7548 -0.0545 -0.3019
  189MPD1    H3 2882   1.927   0.300   0.289 -1.4961 -0.6818 -2.7467
  189MPD1     N 2883   1.574   0.577   0.307 -0.0924  0.3670 -0.4761
  189MPD1    H5 2884   1.473   0.579   0.322 -0.2040  1.0506 -1.3034
  189MPD1    N1 2885   1.585   0.141   0.528  0.3218  0.4694 -0.1886
  189MPD1    H6 2886   1.484   0.140   0.535  0.6153 -1.6371  3.8978
  189MPD1    H7 2887   1.621   0.047   0.514 -2.8691 -0.8894  0.7461
  190MPD1     C 2888   4.583   4.166  15.939 -0.7710 -0.9481  0.6674
  190MPD1    C1 2889   4.638   4.275  16.007 -0.1264  0.1014 -0.3324
  190MPD1    C2 2890   0.034   4.329  15.950  0.2030 -1.2622 -0.3707
  190MPD1    C3 2891   0.108   4.266  15.848 -0.0313  0.0217  0.6800
  190MPD1    C4 2892   0.054   4.152  15.794  0.5980 -0.2385  0.4558
  190MPD1    C5 2893   4.655   4.104  15.839 -0.4184 -0.6150 -0.7608
  190MPD1     H 2894   0.068   4.424  15.989  1.0068 -1.9611  0.6415
  190MPD1    H1 2895   0.108   4.099  15.716 -1.1370  0.9949 -1.5749
  190MPD1    H2 2896   4.485   4.125  15.961 -1.0182 -1.2894 -1.1249
  190MPD1    H3 2897   4.613   4.019  15.786 -1.9008 -0.0807 -0.4528
  190MPD1     N 2898   0.239   4.311  15.810  0.0329 -0.0272 -0.1407
  190MPD1    H5 2899   0.254   4.400  15.855 -0.3712 -0.4999  0.9457
  190MPD1    N1 2900   4.563   4.347  16.096 -0.1872  0.6135  0.1973
  190MPD1    H6 2901   4.630   4.392  16.159  0.1369  0.8784 -0.3409
  190MPD1    H7 2902   4.491   4.293  16.143  0.0214 -0.7429 -1.0690
  191MPD1     C 2903   0.172   1.009  12.999  0.2099 -0.3376  0.1419
  191MPD1    C1 2904   0.247   1.098  12.926  1.3214 -0.3287 -0.2065
  191MPD1    C2 2905   0.185   1.160  12.813 -0.0196 -0.8617 -0.0959
  191MPD1    C3 2906   0.052   1.153  12.782  1.1155  0.4448  0.4639
  191MPD1    C4 2907   4.699   1.076  12.865 -0.0763  0.3764  0.5425
  191MPD1    C5 2908   0.038   0.998  12.965  0.2677 -0.0488  1.5797
  191MPD1     H 2909   0.237   1.227  12.745  2.3024 -0.3005  2.2461
  191MPD1    H1 2910   4.591   1.070  12.855  0.0550  3.1033 -2.4545
  191MPD1    H2 2911   0.211   0.950  13.082 -1.2350 -1.6861 -0.1394
  191MPD1    H3 2912   4.694   0.928  13.015  1.3952 -1.9596  0.3799
  191MPD1     N 2913   0.009   1.199  12.657 -0.5265  0.5922  0.3824
  191MPD1    H5 2914   0.074   1.253  12.600 -0.8414 -0.5409 -1.0497
  191MPD1    N1 2915   0.386   1.096  12.951  0.4125  0.2799  0.4945
  191MPD1    H6 2916   0.435   1.179  12.917  1.9755 -1.3933 -1.3606
  191MPD1    H7 2917   0.412   1.073  13.047  0.4528  0.5319  0.5443
  192MPD1     C 2918   4.184   1.106  11.715  0.2518 -0.3472  0.4912
  192MPD1    C1 2919   4.129   1.088  11.843  0.2057  0.1515 -0.0504
  192MPD1    C2 2920   4.214   1.118  11.946 -1.1290  0.3725  0.1821
  192MPD1    C3 2921   4.348   1.156  11.932 -0.0700 -0.0772  0.3202
  192MPD1    C4 2922   4.391   1.176  11.808 -0.7891 -0.5605  0.2909
  192MPD1    C5 2923   4.312   1.148  11.703  0.1242 -0.3005 -0.5090
  192MPD1     H 2924   4.176   1.100  12.046 -0.4214 -3.2081 -0.1838
  192MPD1    H1 2925   4.488   1.215  11.779 -1.0364 -0.9461 -1.0399
  192MPD1    H2 2926   4.120   1.092  11.629  2.0112  0.4731 -0.9438
  192MPD1    H3 2927   4.353   1.165  11.604 -0.6766 -1.0940 -0.9749
  192MPD1     N 2928   4.434   1.187  12.039  0.1305  0.2974 -0.1616
  192MPD1    H5 2929   4.526   1.226  12.020  1.2319 -1.5196  1.3842
  192MPD1    N1 2930   3.992   1.066  11.861 -0.1083  0.0690 -0.0492
  192MPD1    H6 2931   3.972   1.013  11.946 -1.0544 -0.0315 -0.3363
  192MPD1    H7 2932   3.944   1.010  11.792  0.2539 -1.0501  0.6139
  193MPD1     C 2933   4.261   1.751  16.122  0.4976 -0.4170 -0.8654
  193MPD1    C1 2934   4.329   1.659  16.206  0.4129 -0.2777 -0.3830
  193MPD1    C2 2935   4.421   1.706  16.298  0.1079 -0.5788 -0.0812
  193MPD1    C3 2936   4.455   1.841  16.307 -0.1713 -0.0787  0.2355
  193MPD1    C4 2937   4.401   1.928  16.213  0.1202 -0.1514  0.4607
  193MPD1    C5 2938   4.314   1.873  16.117  0.3849 -0.4392  0.6226
  193MPD1     H 2939   4.457   1.631  16.367 -1.5267 -0.7944  0.5392
  193MPD1    H1 2940   4.437   2.028  16.195 -1.1096  0.0674 -0.7999
  193MPD1    H2 2941   4.170   1.721  16.070 -0.1903  0.2622 -0.0535
  193MPD1    H3 2942   4.274   1.934  16.037 -1.1327  0.3072  1.9367
  193MPD1     N 2943   4.549   1.897  16.391  0.1627 -0.5052  0.1051
  193MPD1    H5 2944   4.562   1.998  16.386  0.6970 -0.4921  1.5453
  193MPD1    N1 2945   4.278   1.531  16.212  0.2081 -0.2285 -0.7558
  193MPD1    H6 2946   4.237   1.504  16.122  1.6527  1.9611 -2.0647
  193MPD1    H7 2947   4.345   1.459  16.238 -2.3828 -2.4574 -0.3178
  194MPD1     C 2948   2.349   4.067  16.727  0.3120  0.3505 -0.0989
  194MPD1    C1 2949   2.345   4.055  16.863 -0.1451 -0.1020 -0.5379
  194MPD1    C2 2950   2.447   3.985  16.926  0.0171 -0.3298 -0.5162
  194MPD1    C3 2951   2.554   3.930  16.851  0.0551  0.6441  0.8313
  194MPD1    C4 2952   2.559   3.956  16.722 -0.2991 -0.0242  0.1215
  194MPD1    C5 2953   2.463   4.032  16.662 -0.1967 -0.3957  0.1821
  194MPD1     H 2954   2.440   3.976  17.034  1.2584 -2.5420 -0.6404
  194MPD1    H1 2955   2.641   3.923  16.658  0.1511 -0.7612  1.0847
  194MPD1    H2 2956   2.267   4.111  16.671 -0.2065 -0.9038 -0.3269
  194MPD1    H3 2957   2.469   4.038  16.554  1.1235  0.1984  0.2875
  194MPD1     N 2958   2.657   3.848  16.904  0.1637  0.6538 -0.2274
  194MPD1    H5 2959   2.725   3.812  16.839  1.0468  1.7865  0.0685
  194MPD1    N1 2960   2.234   4.087  16.940 -0.2173 -0.5726 -0.2595
  194MPD1    H6 2961   2.257   4.112  17.036 -0.9869  1.2011 -0.5405
  194MPD1    H7 2962   2.168   4.158  16.907 -2.4120 -1.9896  1.1023
  195MPD1     C 2963   4.624   1.023  17.618 -0.2368  0.2788 -0.1571
  195MPD1    C1 2964   4.636   0.954  17.502 -0.0054 -0.2903  0.1579
  195MPD1    C2 2965   4.543   0.860  17.476 -0.2050 -0.2585 -0.1028
  195MPD1    C3 2966   4.442   0.832  17.570  0.2642 -0.0957  1.0274
  195MPD1    C4 2967   4.438   0.894  17.687 -0.1484 -0.0143  0.8447
  195MPD1    C5 2968   4.532   0.990   0.026  0.1582 -0.5005  0.3771
  195MPD1     H 2969   4.539   0.818  17.376  1.5790  0.7152 -0.5758
  195MPD1    H1 2970   4.358   0.881   0.070 -1.2712 -0.3703 -0.4757
  195MPD1    H2 2971   4.698   1.100  17.634 -1.7662  1.2737  2.1388
  195MPD1    H3 2972   4.531   1.030   0.127 -1.9239 -0.9717  0.5410
  195MPD1     N 2973   4.344   0.734  17.543 -0.4317  0.1446  0.2758
  195MPD1    H5 2974   4.290   0.713  17.627  2.9168 -0.5964  2.2459
  195MPD1    N1 2975   0.001   1.007  17.406  0.3687  0.1704  0.0443
  195MPD1    H6 2976   0.077   1.066  17.439  1.5413 -1.3799  0.0733
  195MPD1    H7 2977   0.023   0.947  17.327  0.5935 -0.5843  0.6856
  196MPD1     C 2978   3.873   0.047   1.669  0.6498 -0.0037  0.7701
  196MPD1    C1 2979   3.777   0.141   1.638 -0.7177 -0.3795  0.4748
  196MPD1    C2 2980   3.779   0.200   1.512  0.0331  0.4459 -0.4338
  196MPD1    C3 2981   3.894   0.185   1.431 -0.2487 -0.3785  0.2642
  196MPD1    C4 2982   3.998   0.108   1.473  0.7279  0.3874  0.0214
  196MPD1    C5 2983   3.986   0.032   1.590  0.6210 -0.1543 -0.0733
  196MPD1     H 2984   3.698   0.260   1.475  0.2010 -0.7492 -2.7304
  196MPD1    H1 2985   4.090   0.102   1.417  2.7415 -0.6920  3.4387
  196MPD1    H2 2986   3.863   4.702   1.754  1.0232 -0.7924  0.1955
  196MPD1    H3 2987   4.068   4.689   1.618  1.1969 -0.7695 -3.1454
  196MPD1     N 2988   3.914   0.251   1.310 -0.0596  0.4239 -0.3628
  196MPD1    H5 2989   3.992   0.211   1.258 -0.5962  0.1044 -0.9247
  196MPD1    N1 2990   3.660   0.148   1.717  0.6504  0.1330  0.1541
  196MPD1    H6 2991   3.672   0.106   1.808  0.3613  0.8586  0.5256
  196MPD1    H7 2992   3.623   0.243   1.726  2.2272  0.4989  2.6516
  197MPD1     C 2993   3.544   3.473  17.400 -0.3628  0.2098  0.1832
  197MPD1    C1 2994   3.496   3.571  17.312  0.4313  0.1489 -0.8560
  197MPD1    C2 2995   3.432   3.525  17.197 -0.0417  0.2868 -0.7093
  197MPD1    C3 2996   3.438   3.386  17.162 -0.4262 -0.0072  0.3898
  197MPD1    C4 2997   3.487   3.289  17.253  0.2819  0.0703  0.1283
  197MPD1    C5 2998   3.539   3.341  17.369  0.3306 -0.2660 -0.4291
  197MPD1     H 2999   3.379   3.597  17.135  1.6259  0.2813 -2.1511
  197MPD1    H1 3000   3.478   3.181  17.246 -2.9863  0.3874 -0.7887
  197MPD1    H2 3001   3.583   3.502  17.497 -1.8107 -0.4608  0.9642
  197MPD1    H3 3002   3.579   3.277  17.446 -0.2735  1.6215  1.4336
  197MPD1     N 3003   3.383   3.336  17.047 -0.0682  0.1742 -1.1903
  197MPD1    H5 3004   3.376   3.235  17.041 -0.6271  0.1162  0.3608
  197MPD1    N1 3005   3.477   3.709  17.351 -0.4165  0.1519 -0.8927
  197MPD1    H6 3006   3.402   3.710  17.420 -1.2969 -1.3420 -1.8297
  197MPD1    H7 3007   3.553   3.741  17.411 -0.7660  0.6006 -0.6930
  198MPD1     C 3008   0.167   0.747  15.731  0.7343  0.3161 -0.3842
  198MPD1    C1 3009   0.279   0.682  15.684  0.1985 -0.4403 -0.5203
  198MPD1    C2 3010   0.396   0.724  15.730 -0.2236  0.0536  0.4771
  198MPD1    C3 3011   0.410   0.819  15.827 -0.3820  0.3908  0.6953
  198MPD1    C4 3012   0.298   0.869  15.887  0.2037  0.0435  0.0396
  198MPD1    C5 3013   0.173   0.837  15.830 -0.1966 -0.3007 -0.3099
  198MPD1     H 3014   0.489   0.689  15.684 -1.0951 -0.6465 -0.7633
  198MPD1    H1 3015   0.304   0.937  15.971 -1.8160  0.6504 -0.3111
  198MPD1    H2 3016   0.067   0.730  15.692  0.3923  0.6482  0.3372
  198MPD1    H3 3017   0.085   0.874  15.881  1.4534  3.2258 -0.0005
  198MPD1     N 3018   0.540   0.834  15.876 -0.1157  0.1215  0.7140
  198MPD1    H5 3019   0.613   0.781  15.829 -0.7813  0.9159 -1.2449
  198MPD1    N1 3020   0.259   0.594  15.579  0.0037 -0.0875  0.2147
  198MPD1    H6 3021   0.342   0.546  15.545 -0.3432 -1.2238  0.9798
  198MPD1    H7 3022   0.184   0.525  15.587  0.8155 -0.8968  0.7996
  199MPD1     C 3023   2.843   1.001   9.618  0.0749  0.6194 -0.8187
  199MPD1    C1 3024   2.949   1.090   9.603  0.1082  0.1551  1.1066
  199MPD1    C2 3025   2.932   1.228   9.620  0.3266 -1.3788  0.5799
  199MPD1    C3 3026   2.801   1.276   9.640 -0.8223 -0.6753 -0.9638
  199MPD1    C4 3027   2.697   1.182   9.638 -0.0419 -0.5432 -0.0219
  199MPD1    C5 3028   2.718   1.045   9.627  0.0063  0.6672  0.5711
  199MPD1     H 3029   3.011   1.300   9.602 -0.2570 -1.3125 -1.6367
  199MPD1    H1 3030   2.593   1.216   9.641  0.2830  0.5816 -1.7317
  199MPD1    H2 3031   2.844   0.896   9.591  1.5199 -0.3403  2.9795
  199MPD1    H3 3032   2.634   0.977   9.618  0.2275  0.6345 -1.2056
  199MPD1     N 3033   2.771   1.411   9.644 -0.0951 -0.0603 -0.2472
  199MPD1    H5 3034   2.673   1.432   9.627 -0.1005  2.3958  2.6691
  199MPD1    N1 3035   3.072   1.035   9.549  0.3350  0.5144 -0.1640
  199MPD1    H6 3036   3.071   0.934   9.558 -0.5017  0.5650  0.3549
  199MPD1    H7 3037   3.149   1.082   9.596  0.5176  0.8910 -0.8401
  200MPD1     C 3038   1.249   1.652  14.541 -0.5503 -0.4210  0.2119
  200MPD1    C1 3039   1.200   1.667  14.413  0.0747 -0.0292 -0.3104
  200MPD1    C2 3040   1.281   1.690  14.308  0.0450 -0.5096 -0.1507
  200MPD1    C3 3041   1.418   1.684  14.330 -0.3989  0.0736 -0.5017
  200MPD1    C4 3042   1.467   1.662  14.456 -0.8865 -0.4438 -0.0234
  200MPD1    C5 3043   1.382   1.656  14.561 -0.3376 -0.0357 -0.0445
  200MPD1     H 3044   1.237   1.707  14.210 -1.2995 -1.5618  0.2588
  200MPD1    H1 3045   1.573   1.646  14.476 -0.9250  1.7649  1.9089
  200MPD1    H2 3046   1.181   1.655  14.625 -0.4937 -1.0177  0.2800
  200MPD1    H3 3047   1.423   1.641  14.661 -0.2311 -0.7758 -0.2013
  200MPD1     N 3048   1.507   1.712  14.221 -0.0034  0.4388  0.3334
  200MPD1    H5 3049   1.463   1.749  14.137  0.7048 -0.5955 -0.4971
  200MPD1    N1 3050   1.064   1.688  14.398  0.4275 -0.1443  0.3258
  200MPD1    H6 3051   1.010   1.647  14.474 -0.6837  0.3566 -0.1872
  200MPD1    H7 3052   1.028   1.671  14.304 -0.6966 -0.1033  0.7498
  201MPD1     C 3053   3.467   1.120  13.333  0.1860  0.1272  0.0231
  201MPD1    C1 3054   3.399   1.006  13.290 -0.2829 -1.1723 -1.0243
  201MPD1    C2 3055   3.453   0.884  13.318  0.5671  0.2733 -0.1471
  201MPD1    C3 3056   3.580   0.871  13.378  0.5689  0.3768 -0.3482
  201MPD1    C4 3057   3.653   0.986  13.402  0.5302 -0.6255 -0.0966
  201MPD1    C5 3058   3.592   1.106  13.386 -0.6248  0.1846  0.3324
  201MPD1     H 3059   3.405   0.787  13.309  1.3007 -0.1630  0.6066
  201MPD1    H1 3060   3.751   0.998  13.446  1.3194  1.2090 -2.3344
  201MPD1    H2 3061   3.419   1.217  13.324 -0.6179 -0.2774 -0.0805
  201MPD1    H3 3062   3.650   1.193  13.415 -0.9046  0.8752 -1.1841
  201MPD1     N 3063   3.633   0.743  13.406 -0.7050 -0.3218 -0.1171
  201MPD1    H5 3064   3.575   0.666  13.373 -2.8922  1.2162  0.1684
  201MPD1    N1 3065   3.261   1.014  13.254 -0.1213  0.9266  0.2052
  201MPD1    H6 3066   3.244   1.093  13.193  0.2945  1.7779  1.1954
  201MPD1    H7 3067   3.229   0.923  13.221 -1.0597  1.1667  0.4705
  202MPD1     C 3068   3.582   0.139   9.168  0.4375  0.1428  0.2989
  202MPD1    C1 3069   3.687   0.051   9.165  0.0415  0.2346 -0.3177
  202MPD1    C2 3070   3.756   0.051   9.291 -0.0356  0.2181 -0.1290
  202MPD1    C3 3071   3.703   0.099   9.410 -0.7518 -0.3220 -0.5838
  202MPD1    C4 3072   3.581   0.171   9.404  0.4740  0.3676  0.6849
  202MPD1    C5 3073   3.527   0.190   9.280  0.6179 -0.4794  0.4008
  202MPD1     H 3074   3.845   4.713   9.305  0.4494  0.9116 -0.2661
  202MPD1    H1 3075   3.529   0.198   9.495  0.4961 -0.7742  1.0364
  202MPD1    H2 3076   3.521   0.148   9.079 -0.6801 -0.0263  1.0536
  202MPD1    H3 3077   3.434   0.246   9.277  0.3996 -0.9030 -0.7393
  202MPD1     N 3078   3.751   0.093   9.539 -0.2056 -0.0352  0.4018
  202MPD1    H5 3079   3.703   0.146   9.611  0.5143 -1.3769  1.8817
  202MPD1    N1 3080   3.758   0.023   9.045 -0.2813 -0.2230  0.1022
  202MPD1    H6 3081   3.694   4.717   8.971 -0.5343 -1.1061  0.6464
  202MPD1    H7 3082   3.814   4.661   9.062  0.9581  0.7669  0.8081
  203MPD1     C 3083   2.072   1.006  12.883  0.5099  0.0719  0.2896
  203MPD1    C1 3084   2.132   0.923  12.975  0.8842  0.7728 -0.3383
  203MPD1    C2 3085   2.253   0.862  12.938  0.0254 -0.1599  0.0259
  203MPD1    C3 3086   2.307   0.887  12.814 -0.8948  0.1418 -0.4603
  203MPD1    C4 3087   2.249   0.976  12.730 -0.6928  0.2349  0.1361
  203MPD1    C5 3088   2.124   1.023  12.761  0.0032 -0.0458 -0.0354
  203MPD1     H 3089   2.302   0.793  13.006 -1.4651 -1.4173 -0.1734
  203MPD1    H1 3090   2.297   1.012  12.639 -1.5558 -3.4960 -1.7932
  203MPD1    H2 3091   1.973   1.045  12.900  0.4549  0.1054 -0.1124
  203MPD1    H3 3092   2.070   1.089  12.693  1.2128 -0.3071 -1.2475
  203MPD1     N 3093   2.435   0.826  12.786 -0.0767  0.2114 -0.3317
  203MPD1    H5 3094   2.461   0.766  12.863  0.1033  2.0907  1.0672
  203MPD1    N1 3095   2.088   0.906  13.101 -0.0918 -0.1280 -0.0999
  203MPD1    H6 3096   2.147   0.843  13.154  1.3430  1.5913  0.3552
  203MPD1    H7 3097   1.990   0.881  13.098 -0.2650  0.7074 -1.9207
  204MPD1     C 3098   1.953   1.058   0.137  0.3410 -0.2635 -0.2329
  204MPD1    C1 3099   2.063   0.999   0.077 -0.1043  0.3783 -0.0464
  204MPD1    C2 3100   2.091   1.034  17.634 -0.0379 -0.2621 -0.4598
  204MPD1    C3 3101   2.026   1.133  17.574  0.2418  0.1357  0.4833
  204MPD1    C4 3102   1.930   1.209  17.640  0.1594  0.2084 -0.0975
  204MPD1    C5 3103   1.892   1.159   0.071 -0.5359  0.1863  0.3741
  204MPD1     H 3104   2.162   0.975  17.576 -1.2702 -1.9216 -0.2911
  204MPD1    H1 3105   1.869   1.287  17.596 -0.6527 -1.6926 -2.3537
  204MPD1    H2 3106   1.920   1.040   0.239 -0.0557  1.2051 -0.1090
  204MPD1    H3 3107   1.797   1.196   0.109 -0.3405  0.0418  0.9972
  204MPD1     N 3108   2.073   1.173  17.448 -0.6590 -0.0933  0.0738
  204MPD1    H5 3109   2.150   1.125  17.403  0.3292  2.3546 -0.8101
  204MPD1    N1 3110   2.128   0.895   0.144 -0.5549  0.2452  0.1279
  204MPD1    H6 3111   2.220   0.884   0.102  0.6787  0.2191  2.8832
  204MPD1    H7 3112   2.145   0.914   0.242  0.6265  2.4171 -0.4926
  205MPD1     C 3113   2.282   4.684  16.408 -0.4486 -0.0289 -0.5100
  205MPD1    C1 3114   2.254   0.097  16.416  0.3010 -0.4381  0.2607
  205MPD1    C2 3115   2.322   0.183  16.500 -0.9780 -0.0628  0.0534
  205MPD1    C3 3116   2.426   0.129  16.585  0.3152 -0.1833 -0.5742
  205MPD1    C4 3117   2.451   4.711  16.577 -0.0953  0.4720  0.0190
  205MPD1    C5 3118   2.379   4.632  16.490  0.9424 -0.2429  0.1443
  205MPD1     H 3119   2.297   0.288  16.511 -1.2542  0.0401 -1.4672
  205MPD1    H1 3120   2.526   4.674  16.646  0.5804  0.8734 -0.5100
  205MPD1    H2 3121   2.226   4.612  16.349  1.6618 -1.0665 -1.2501
  205MPD1    H3 3122   2.388   4.525  16.484  0.7504 -0.3385  1.4192
  205MPD1     N 3123   2.510   0.203  16.669  0.1154  0.0421  0.0269
  205MPD1    H5 3124   2.573   0.152  16.731 -1.2391  1.3628  2.4641
  205MPD1    N1 3125   2.146   0.152  16.337 -0.1157 -0.3248 -0.5451
  205MPD1    H6 3126   2.152   0.113  16.243  1.9380 -1.2734 -0.0094
  205MPD1    H7 3127   2.139   0.253  16.330 -0.4996 -0.2204  1.4639
  206MPD1     C 3128   2.903   3.588  15.930 -0.1781 -0.3502 -0.0408
  206MPD1    C1 3129   2.834   3.599  15.812 -0.4837 -0.0605  0.2258
  206MPD1    C2 3130   2.706   3.549  15.802  0.1746  1.0989 -0.1132
  206MPD1    C3 3131   2.641   3.503  15.915  0.0777  0.1424  0.2843
  206MPD1    C4 3132   2.718   3.491  16.033  0.5582 -0.1783  0.4955
  206MPD1    C5 3133   2.849   3.526  16.039 -0.2935 -0.3325  0.0633
  206MPD1     H 3134   2.655   3.539  15.707 -0.9635  0.7241  0.5229
  206MPD1    H1 3135   2.674   3.443  16.120 -0.3845  0.1893  0.2316
  206MPD1    H2 3136   3.010   3.606  15.936  0.0440 -1.6107 -0.2307
  206MPD1    H3 3137   2.917   3.498  16.119 -0.8368 -1.7725  0.0268
  206MPD1     N 3138   2.504   3.477  15.921 -0.1041 -0.1582 -0.4412
  206MPD1    H5 3139   2.475   3.441  16.011  1.6217  0.0907  0.2163
  206MPD1    N1 3140   2.899   3.643  15.698  0.2651  0.5602  0.3165
  206MPD1    H6 3141   2.839   3.686  15.628  1.5207  1.3592 -0.2648
  206MPD1    H7 3142   2.972   3.709  15.721  0.6505 -0.1138  1.0488
  207MPD1     C 3143   4.312   0.917   9.131 -0.9082  0.7976 -0.3957
  207MPD1    C1 3144   4.420   0.969   9.062 -0.2407 -0.0730 -0.0299
  207MPD1    C2 3145   4.519   1.032   9.134  0.2640 -0.5314 -0.1796
  207MPD1    C3 3146   4.512   1.027   9.276  0.3607  0.1217  0.0622
  207MPD1    C4 3147   4.415   0.954   9.338 -0.1133 -0.3977 -0.2514
  207MPD1    C5 3148   4.307   0.893   9.268 -0.7857  0.1813 -0.6139
  207MPD1     H 3149   4.593   1.093   9.084 -0.0531 -0.1971 -0.2382
  207MPD1    H1 3150   4.436   0.933   9.442 -0.8590  0.8241  0.1466
  207MPD1    H2 3151   4.236   0.868   9.072 -0.0960 -0.6901 -0.2081
  207MPD1    H3 3152   4.224   0.834   9.306 -0.8422 -0.5715 -1.9072
  207MPD1     N 3153   4.604   1.084   9.362 -0.1372  0.3422 -0.3393
  207MPD1    H5 3154   4.576   1.075   9.459 -1.0528  2.2653 -0.4196
  207MPD1    N1 3155   4.412   0.992   8.928  0.3179 -0.0501 -0.1262
  207MPD1    H6 3156   4.500   1.005   8.879  0.1851  0.6426 -0.1854
  207MPD1    H7 3157   4.344   0.928   8.887 -0.0300  1.1644 -1.4352
  208MPD1     C 3158   3.244   0.417   0.472 -0.1012 -0.3688  0.0977
  208MPD1    C1 3159   3.207   0.293   0.532 -0.3185 -0.4326  0.1649
  208MPD1    C2 3160   3.190   0.185   0.443 -0.3535 -0.0193  0.0136
  208MPD1    C3 3161   3.223   0.200   0.304  0.0802 -0.2638  0.3821
  208MPD1    C4 3162   3.271   0.325   0.260 -0.0519  0.0215 -0.7210
  208MPD1    C5 3163   3.289   0.424   0.345  0.4164 -0.3139  0.5108
  208MPD1     H 3164   3.163   0.086   0.479 -1.1313  0.1249 -0.1569
  208MPD1    H1 3165   3.301   0.337   0.156  1.5910  0.8086 -0.1632
  208MPD1    H2 3166   3.265   0.500   0.539 -1.3088 -1.5062  1.8805
  208MPD1    H3 3167   3.327   0.521   0.315  1.4535 -1.2122 -1.0776
  208MPD1     N 3168   3.201   0.090   0.228 -0.0916  0.1985 -0.0601
  208MPD1    H5 3169   3.170   0.006   0.276 -2.3661  1.2744  0.3503
  208MPD1    N1 3170   3.175   0.288   0.669  0.4543  0.8119 -0.1659
  208MPD1    H6 3171   3.175   0.199   0.718  1.8328  1.5484  1.2044
  208MPD1    H7 3172   3.228   0.357   0.721  2.5010  0.0304 -1.1983
  209MPD1     C 3173   4.689   0.818  11.285  0.0751  0.2427  0.1656
  209MPD1    C1 3174   0.078   0.898  11.293 -0.2781 -0.1499 -0.8182
  209MPD1    C2 3175   0.123   0.948  11.174  0.1112  0.4990  0.2681
  209MPD1    C3 3176   0.067   0.926  11.049 -0.2670  0.0784  0.4125
  209MPD1    C4 3177   4.675   0.845  11.050  0.1220  0.1629  0.1305
  209MPD1    C5 3178   4.624   0.797  11.164 -0.1172 -0.5083  0.0438
  209MPD1     H 3179   0.208   1.016  11.173 -0.3847  1.1275  0.4135
  209MPD1    H1 3180   4.610   0.825  10.965 -0.2408  2.0136 -0.0103
  209MPD1    H2 3181   4.645   0.769  11.371 -0.6066  3.0286  1.4231
  209MPD1    H3 3182   4.537   0.731  11.160 -0.3104 -0.3446  1.4010
  209MPD1     N 3183   0.132   0.978  10.937  0.9958  0.1392 -0.9655
  209MPD1    H5 3184   0.218   1.031  10.948  1.6746 -1.2876  0.5822
  209MPD1    N1 3185   0.157   0.903  11.414  0.0545  0.2925  0.2431
  209MPD1    H6 3186   0.213   0.986  11.430  0.9516  0.3494 -3.1811
  209MPD1    H7 3187   0.103   0.898  11.500  0.3685  1.2222  0.4974
  210MPD1     C 3188   0.837   1.319  11.002  0.0421  0.5368  0.3633
  210MPD1    C1 3189   0.810   1.379  10.879 -0.3644  0.3011  0.2696
  210MPD1    C2 3190   0.715   1.330  10.792 -0.0953 -0.1191  0.6424
  210MPD1    C3 3191   0.633   1.231  10.839 -0.4188  0.1230 -0.1530
  210MPD1    C4 3192   0.654   1.172  10.961  1.1946 -0.3277 -0.2042
  210MPD1    C5 3193   0.758   1.212  11.041 -0.6892 -0.0740  0.3810
  210MPD1     H 3194   0.699   1.376  10.695  0.7604 -1.8141 -0.2969
  210MPD1    H1 3195   0.587   1.094  10.997  2.1835 -0.5147  1.2622
  210MPD1    H2 3196   0.922   1.352  11.060  1.3700 -0.1968 -1.1670
  210MPD1    H3 3197   0.783   1.161  11.134 -1.3920 -0.7379  0.2090
  210MPD1     N 3198   0.524   1.175  10.773 -0.3580  0.4181 -0.8030
  210MPD1    H5 3199   0.480   1.089  10.805 -1.4186  0.3621 -2.3985
  210MPD1    N1 3200   0.896   1.479  10.829 -0.4444  0.2172 -0.0037
  210MPD1    H6 3201   0.840   1.536  10.766 -0.9936 -0.1311  0.1717
  210MPD1    H7 3202   0.922   1.543  10.903  0.6287  0.1592 -0.3299
  211MPD1     C 3203   3.153   4.690  16.510  0.2504 -0.0006 -0.5957
  211MPD1    C1 3204   3.085   4.710  16.395  0.9170 -0.4905 -0.1374
  211MPD1    C2 3205   3.019   0.103  16.367 -0.1216 -0.4794  0.6972
  211MPD1    C3 3206   3.022   0.206  16.459  0.6268 -0.0801  0.6206
  211MPD1    C4 3207   3.100   0.200  16.575 -0.0945  0.4320 -0.4699
  211MPD1    C5 3208   3.165   0.075  16.600  0.0872  0.5356 -0.0886
  211MPD1     H 3209   2.959   0.117  16.278 -0.7574  0.5722  1.2915
  211MPD1    H1 3210   3.106   0.276  16.653  1.8927  0.0066 -0.2201
  211MPD1    H2 3211   3.210   4.600  16.527 -0.4314 -0.0996  1.1707
  211MPD1    H3 3212   3.211   0.061  16.697  1.1275 -0.4183 -0.7171
  211MPD1     N 3213   2.948   0.324  16.436 -0.1507 -0.1611 -0.0555
  211MPD1    H5 3214   2.906   0.334  16.344 -1.1494 -2.4927  0.1317
  211MPD1    N1 3215   3.071   4.591  16.315 -0.3920 -0.7615 -0.5178
  211MPD1    H6 3216   3.155   4.534  16.306  2.2093  2.7328  1.7015
  211MPD1    H7 3217   3.056   4.629  16.221  0.1901 -0.5793 -0.5383
  212MPD1     C 3218   1.785   4.030  16.155 -0.0541  0.3263  0.3134
  212MPD1    C1 3219   1.693   4.073  16.247  0.4480 -0.4722 -0.3623
  212MPD1    C2 3220   1.669   3.997  16.361  0.4453 -0.3229  0.4948
  212MPD1    C3 3221   1.747   3.888  16.388 -0.1485  0.4538  0.1889
  212MPD1    C4 3222   1.829   3.843  16.287  0.1197  0.0669  0.2354
  212MPD1    C5 3223   1.849   3.912  16.174 -0.3956 -0.1783  0.2032
  212MPD1     H 3224   1.595   4.027  16.434 -1.2378 -1.9022 -0.5701
  212MPD1    H1 3225   1.880   3.749  16.305 -0.5972 -0.3138  0.2899
  212MPD1    H2 3226   1.790   4.082  16.060 -3.7024  0.6934  0.3485
  212MPD1    H3 3227   1.906   3.870  16.092 -1.8033 -1.4599 -0.1197
  212MPD1     N 3228   1.725   3.805  16.499 -0.0173  0.7311 -0.1465
  212MPD1    H5 3229   1.765   3.712  16.488 -0.3241  0.6567 -0.6566
  212MPD1    N1 3230   1.597   4.165  16.222 -0.3269 -0.5893 -0.6545
  212MPD1    H6 3231   1.630   4.225  16.147 -2.5477  0.5888 -0.6841
  212MPD1    H7 3232   1.530   4.106  16.173 -0.8562 -0.9559  0.5037
  213MPD1     C 3233   4.436   4.659  15.819  0.2587  0.1956 -0.1914
  213MPD1    C1 3234   4.456   4.557  15.733  0.5246 -0.1730  0.5599
  213MPD1    C2 3235   4.420   4.580  15.601  0.0073 -0.4346 -0.0055
  213MPD1    C3 3236   4.387   4.706  15.559 -0.2513 -0.1830  0.6180
  213MPD1    C4 3237   4.362   0.085  15.644 -0.3750 -0.0746 -0.6562
  213MPD1    C5 3238   4.392   0.061  15.775 -0.2511  0.2927 -0.0386
  213MPD1     H 3239   4.429   4.495  15.534  2.5320 -0.3383  0.2355
  213MPD1    H1 3240   4.324   0.180  15.608  0.1244 -0.3554 -1.9428
  213MPD1    H2 3241   4.420   4.650  15.925  0.7464  1.7510  0.0195
  213MPD1    H3 3242   4.374   0.141  15.846 -0.4471  1.4148 -1.3648
  213MPD1     N 3243   4.388   4.719  15.415 -0.1514  0.4720  0.1902
  213MPD1    H5 3244   4.378   4.629  15.368 -1.0354  1.3246 -1.2376
  213MPD1    N1 3245   4.445   4.424  15.779 -0.7573 -0.6432  0.3413
  213MPD1    H6 3246   4.487   4.412  15.871 -1.5999 -1.8051  0.5825
  213MPD1    H7 3247   4.499   4.361  15.720 -1.5112 -0.0600 -0.9923
  214MPD1     C 3248   3.921   4.322  14.759 -1.0619 -0.7370 -0.8656
  214MPD1    C1 3249   4.056   4.295  14.748 -0.8137  0.2765  0.1364
  214MPD1    C2 3250   4.144   4.384  14.803 -0.5505 -0.4914  0.3233
  214MPD1    C3 3251   4.094   4.500  14.867 -0.2102  0.2974 -0.1062
  214MPD1    C4 3252   3.958   4.526  14.878  0.1283 -0.0590  0.0898
  214MPD1    C5 3253   3.872   4.435  14.817 -0.4507 -0.1491  0.0191
  214MPD1     H 3254   4.249   4.367  14.782 -1.1880 -0.3457 -3.0001
  214MPD1    H1 3255   3.922   4.616  14.926 -0.6517  0.6415 -1.8127
  214MPD1    H2 3256   3.845   4.259  14.715  0.7413 -3.3725 -0.2330
  214MPD1    H3 3257   3.771   4.474  14.818 -0.0600  0.8851  0.4839
  214MPD1     N 3258   4.186   4.590  14.930  0.6606  0.0113  0.2603
  214MPD1    H5 3259   4.141   4.661  14.986  1.0818 -0.3084  1.0192
  214MPD1    N1 3260   4.100   4.188  14.662 -0.3339  0.3910  0.4289
  214MPD1    H6 3261   4.029   4.115  14.656  0.5730 -0.4274 -0.3881
  214MPD1    H7 3262   4.191   4.147  14.683 -0.6389 -0.2839  0.4201
  215MPD1     C 3263   3.938   0.732  10.818 -0.5968 -0.1887  0.3440
  215MPD1    C1 3264   3.985   0.838  10.758  0.3833 -0.1678  0.4479
  215MPD1    C2 3265   4.088   0.902  10.812  0.1324  0.3857 -0.3304
  215MPD1    C3 3266   4.141   0.870  10.937 -0.2446 -0.3223  0.4287
  215MPD1    C4 3267   4.091   0.754  10.995 -0.8403 -0.3329  0.2130
  215MPD1    C5 3268   4.002   0.682  10.924  0.3458 -0.3382 -0.0750
  215MPD1     H 3269   4.120   0.992  10.760  0.3722  1.0260  0.9038
  215MPD1    H1 3270   4.123   0.726  11.095 -0.1966 -1.6917 -0.3744
  215MPD1    H2 3271   3.849   0.679  10.785  0.5809 -2.5211  0.9174
  215MPD1    H3 3272   3.968   0.590  10.969  0.2724 -2.0158 -3.6383
  215MPD1     N 3273   4.249   0.957  10.992 -0.6071  0.5084  0.2871
  215MPD1    H5 3274   4.281   1.036  10.938 -1.2048 -0.4359 -1.4666
  215MPD1    N1 3275   3.927   0.889  10.637 -0.2220  0.4061  0.3942
  215MPD1    H6 3276   3.830   0.864  10.622  0.5506 -1.7568 -1.0190
  215MPD1    H7 3277   3.938   0.989  10.625  0.2829  0.4098  0.8450
  216MPD1     C 3278   2.544   3.036  16.789  0.3020 -0.5010 -0.4226
  216MPD1    C1 3279   2.482   2.980  16.893  0.0417  1.0228 -0.1382
  216MPD1    C2 3280   2.546   2.869  16.952  0.2294  0.2489  0.5549
  216MPD1    C3 3281   2.665   2.818  16.905  0.3394  0.0746 -1.0028
  216MPD1    C4 3282   2.722   2.866  16.788  0.1082 -0.6606  0.0503
  216MPD1    C5 3283   2.659   2.980  16.744  0.6458 -0.9452  0.6109
  216MPD1     H 3284   2.494   2.828  17.037 -0.9282  0.8393  0.1259
  216MPD1    H1 3285   2.811   2.839  16.733  1.8630 -0.1802  2.6555
  216MPD1    H2 3286   2.502   3.113  16.725  0.1446 -1.0923 -1.0351
  216MPD1    H3 3287   2.701   3.031  16.658  1.5919  2.2832  2.9784
  216MPD1     N 3288   2.707   2.695  16.964  0.0322  0.1105 -0.2433
  216MPD1    H5 3289   2.658   2.651  17.041  0.0353 -0.7836 -0.7591
  216MPD1    N1 3290   2.362   3.035  16.942 -0.1090 -0.1182  0.4756
  216MPD1    H6 3291   2.348   3.136  16.939 -1.1083 -0.2718 -0.0145
  216MPD1    H7 3292   2.323   2.989  17.024  2.0729 -1.7269  0.5921
  217MPD1     C 3293   3.286   1.219   8.945 -0.4320  0.4089  0.1390
  217MPD1    C1 3294   3.357   1.115   8.892 -1.2784 -0.0028 -0.2603
  217MPD1    C2 3295   3.291   0.993   8.875  0.5612 -0.2010  0.5980
  217MPD1    C3 3296   3.158   0.979   8.913  0.0384  0.0024 -0.1284
  217MPD1    C4 3297   3.091   1.086   8.966  0.3046 -0.0548 -0.4187
  217MPD1    C5 3298   3.149   1.204   8.977  0.5297  0.0783 -0.2074
  217MPD1     H 3299   3.346   0.916   8.822  2.0916  0.1915  1.6131
  217MPD1    H1 3300   2.988   1.098   8.995 -0.4001  0.4283 -3.1491
  217MPD1    H2 3301   3.326   1.319   8.933  0.1826 -0.0232 -1.4370
  217MPD1    H3 3302   3.096   1.288   9.021  1.7331  0.3232  0.7631
  217MPD1     N 3303   3.086   0.854   8.917 -0.4571  0.1202  0.2290
  217MPD1    H5 3304   2.987   0.863   8.937 -0.7532 -2.2940 -0.1102
  217MPD1    N1 3305   3.477   1.146   8.824 -0.0839 -0.0849 -0.2254
  217MPD1    H6 3306   3.540   1.208   8.875  1.7955 -2.5229  0.4088
  217MPD1    H7 3307   3.525   1.058   8.812  0.7660  0.2627  0.6214
  218MPD1     C 3308   3.527   0.918  12.433  0.6532 -0.5200 -0.5987
  218MPD1    C1 3309   3.579   0.998  12.525 -0.1558  0.3071 -0.0480
  218MPD1    C2 3310   3.666   0.942  12.613  0.4335 -0.2240 -0.6330
  218MPD1    C3 3311   3.706   0.811  12.602  0.3662  0.3617  0.0499
  218MPD1    C4 3312   3.666   0.734  12.495  0.5281 -0.3496 -0.1392
  218MPD1    C5 3313   3.565   0.787  12.415 -0.0211 -0.5165  0.7723
  218MPD1     H 3314   3.702   1.004  12.694  0.5162 -1.0018 -0.0680
  218MPD1    H1 3315   3.706   0.634  12.478 -0.3172 -0.6236 -0.5298
  218MPD1    H2 3316   3.453   0.955  12.362 -1.7827 -3.8722  0.1738
  218MPD1    H3 3317   3.524   0.728  12.333  1.6217  1.1872 -1.2680
  218MPD1     N 3318   3.809   0.767  12.691 -0.7218  0.8241  0.3429
  218MPD1    H5 3319   3.839   0.829  12.765 -1.7534  1.2871  0.3676
  218MPD1    N1 3320   3.539   1.134  12.548 -0.3470 -0.6253  0.4466
  218MPD1    H6 3321   3.608   1.184  12.603 -0.8625 -0.8659  1.2966
  218MPD1    H7 3322   3.531   1.202  12.472 -2.1402 -0.4317  0.8237
  219MPD1     C 3323   3.994   1.171  13.406  0.1410 -0.6106  0.4859
  219MPD1    C1 3324   4.058   1.047  13.431  0.0090  0.1651 -0.4304
  219MPD1    C2 3325   4.058   0.946  13.342 -0.1100  0.1721 -0.1164
  219MPD1    C3 3326   3.991   0.960  13.221  0.1383  0.1660  0.5579
  219MPD1    C4 3327   3.937   1.083  13.185 -0.4706  0.2125  0.5716
  219MPD1    C5 3328   3.928   1.183  13.283  0.0312  0.5844  0.1846
  219MPD1     H 3329   4.103   0.852  13.370  0.5448  1.0642  1.8060
  219MPD1    H1 3330   3.898   1.103  13.086 -0.8191  0.3164  0.7304
  219MPD1    H2 3331   3.989   1.252  13.478 -1.6540 -0.4858  0.2233
  219MPD1    H3 3332   3.872   1.275  13.269 -2.6351 -1.2807 -1.6706
  219MPD1     N 3333   4.012   0.863  13.114 -0.4370 -0.0281 -0.2309
  219MPD1    H5 3334   3.971   0.880  13.022  1.0619 -0.7535 -1.0435
  219MPD1    N1 3335   4.134   1.026  13.546  0.2436  0.2102 -0.0572
  219MPD1    H6 3336   4.086   1.081  13.617 -2.4878 -2.2554  0.0019
  219MPD1    H7 3337   4.138   0.930  13.579  3.3914 -0.4924 -2.5108
  220MPD1     C 3338   4.710   1.746   9.457  0.3133  0.0601 -0.3572
  220MPD1    C1 3339   0.051   1.764   9.577  0.3686  0.2124 -0.1146
  220MPD1    C2 3340   4.720   1.697   9.687  0.1522  0.1538  0.5740
  220MPD1    C3 3341   4.636   1.596   9.671 -0.3787 -0.4775 -0.5164
  220MPD1    C4 3342   4.584   1.564   9.546  0.5078 -0.4717  0.3886
  220MPD1    C5 3343   4.622   1.640   9.438  0.7347  0.5729 -0.5572
  220MPD1     H 3344   0.031   1.723   9.787  2.8343 -2.1892  0.3085
  220MPD1    H1 3345   4.525   1.473   9.534  1.2633 -0.6470 -2.0780
  220MPD1    H2 3346   0.003   1.812   9.372 -1.4280  2.0428  0.8975
  220MPD1    H3 3347   4.588   1.623   9.337 -0.9467  2.1038 -0.2467
  220MPD1     N 3348   4.592   1.517   9.783 -0.3219  0.9155  0.4010
  220MPD1    H5 3349   4.621   1.547   9.876 -0.8744 -0.0690  0.8897
  220MPD1    N1 3350   0.129   1.881   9.598 -0.3961  0.5215 -0.5000
  220MPD1    H6 3351   0.181   1.877   9.685 -0.9026 -2.2185 -0.3279
  220MPD1    H7 3352   0.197   1.906   9.526 -1.7618  1.0294 -1.6123
  221MPD1     C 3353   2.651   4.356  16.515 -0.0250  0.2433 -0.1315
  221MPD1    C1 3354   2.752   4.444  16.465 -0.6110 -0.2091 -0.1318
  221MPD1    C2 3355   2.721   4.507  16.347 -1.0561  0.1089  0.2487
  221MPD1    C3 3356   2.611   4.471  16.270  0.2305  0.3983 -0.2456
  221MPD1    C4 3357   2.523   4.367  16.316 -0.0864 -0.6054  0.0622
  221MPD1    C5 3358   2.541   4.322  16.444  0.4291  0.5155  0.1051
  221MPD1     H 3359   2.787   4.586  16.312  0.0888 -1.8790 -2.1041
  221MPD1    H1 3360   2.442   4.329  16.255  1.8978 -2.6661 -1.2391
  221MPD1    H2 3361   2.658   4.306  16.611 -1.8802  1.1124  0.4375
  221MPD1    H3 3362   2.461   4.257  16.477  0.7142  1.2300  2.2150
  221MPD1     N 3363   2.584   4.528  16.135  0.6478 -0.0902  0.0880
  221MPD1    H5 3364   2.494   4.504  16.095  1.1414 -0.5873 -0.6978
  221MPD1    N1 3365   2.867   4.482  16.540 -0.5681 -0.1047 -0.4576
  221MPD1    H6 3366   2.907   4.404  16.592 -0.1082 -0.5650 -1.5009
  221MPD1    H7 3367   2.940   4.523  16.481  0.7838 -2.5966 -0.5216
  222MPD1     C 3368   1.631   2.746   0.094  0.5824 -0.3171 -0.0516
  222MPD1    C1 3369   1.586   2.762   0.219 -0.1830  0.1236 -0.3136
  222MPD1    C2 3370   1.494   2.864   0.249 -1.0453  0.3201 -0.0190
  222MPD1    C3 3371   1.455   2.952   0.151 -0.4139 -0.4785 -0.2653
  222MPD1    C4 3372   1.505   2.939   0.024 -0.0237 -0.8564 -0.2504
  222MPD1    C5 3373   1.595   2.836  17.683  0.4051  0.3852 -0.3331
  222MPD1     H 3374   1.454   2.877   0.349  2.2796  2.2166  1.0590
  222MPD1    H1 3375   1.481   3.005  17.629 -0.6303 -0.8507 -0.0698
  222MPD1    H2 3376   1.693   2.659   0.074  0.8798  0.0006 -0.5093
  222MPD1    H3 3377   1.632   2.835  17.581 -0.8248  3.2809 -0.7968
  222MPD1     N 3378   1.372   3.062   0.176  0.2332  0.6534  0.5453
  222MPD1    H5 3379   1.346   3.121   0.098  1.8034 -0.1234 -0.5839
  222MPD1    N1 3380   1.617   2.667   0.313  0.2586 -0.2363 -0.0276
  222MPD1    H6 3381   1.607   2.704   0.407  1.3165  0.8108 -0.3229
  222MPD1    H7 3382   1.714   2.638   0.307  0.5287  0.8651 -0.8778
  223MPD1     C 3383   0.782   3.315   1.003  0.6232 -0.1487 -0.8789
  223MPD1    C1 3384   0.880   3.223   0.982  0.4185 -0.3556  0.0764
  223MPD1    C2 3385   0.959   3.228   0.871  0.2786  0.4508  0.1602
  223MPD1    C3 3386   0.927   3.310   0.768  0.6121 -0.2074  0.0100
  223MPD1    C4 3387   0.831   3.405   0.785 -0.5891 -0.0169 -0.0276
  223MPD1    C5 3388   0.771   3.414   0.904 -0.1787 -0.1206 -0.0388
  223MPD1     H 3389   1.034   3.150   0.870 -0.4874 -0.2989  0.6304
  223MPD1    H1 3390   0.799   3.458   0.695 -1.0342 -0.1939  0.0257
  223MPD1    H2 3391   0.723   3.331   1.092  1.1844 -1.2115 -0.3192
  223MPD1    H3 3392   0.701   3.495   0.923  1.8340  2.0032 -1.6608
  223MPD1     N 3393   1.008   3.300   0.650 -0.5026 -0.5303  0.7207
  223MPD1    H5 3394   1.082   3.231   0.651 -0.7409 -0.7967  0.2352
  223MPD1    N1 3395   0.917   3.143   1.091  0.1338  0.0598 -0.2202
  223MPD1    H6 3396   0.831   3.117   1.138  0.0163 -0.3125 -0.6476
  223MPD1    H7 3397   0.982   3.068   1.068  2.7363  1.9517  0.9132
  224MPD1     C 3398   3.535   1.156   9.256 -0.3410 -0.1638 -0.2478
  224MPD1    C1 3399   3.637   1.084   9.313 -0.4475 -0.2047 -0.4436
  224MPD1    C2 3400   3.602   0.977   9.397  1.0086  0.6623 -0.1551
  224MPD1    C3 3401   3.471   0.944   9.426 -0.1076 -0.1620 -0.8132
  224MPD1    C4 3402   3.371   1.022   9.371  0.5243 -0.7022 -0.0176
  224MPD1    C5 3403   3.407   1.122   9.280  0.3434  0.3174 -0.3127
  224MPD1     H 3404   3.684   0.918   9.437 -0.7897 -1.0370  1.0351
  224MPD1    H1 3405   3.265   0.999   9.382  0.4247 -0.3690 -0.2913
  224MPD1    H2 3406   3.547   1.248   9.200  0.6274 -0.4985 -0.5900
  224MPD1    H3 3407   3.339   1.193   9.234  0.5783  0.3860 -0.5598
  224MPD1     N 3408   3.428   0.845   9.516  0.2156 -0.6262 -0.0667
  224MPD1    H5 3409   3.328   0.836   9.528  0.6030 -3.5466  0.9713
  224MPD1    N1 3410   3.768   1.125   9.292 -0.4269 -0.5518  0.2683
  224MPD1    H6 3411   3.791   1.137   9.193 -0.0175  2.3997  0.7388
  224MPD1    H7 3412   3.829   1.048   9.317 -0.8985 -1.2892 -0.8398
  225MPD1     C 3413   4.429   1.796  12.612  0.2113 -1.1418 -0.2666
  225MPD1    C1 3414   4.398   1.658  12.600  0.1657 -0.0786 -0.1682
  225MPD1    C2 3415   4.269   1.638  12.553  0.1870  0.4291  0.4154
  225MPD1    C3 3416   4.171   1.735  12.542 -0.0832 -0.1806 -0.0193
  225MPD1    C4 3417   4.204   1.866  12.572  0.3399  0.1748 -0.7320
  225MPD1    C5 3418   4.334   1.896  12.597 -0.2926  0.0899 -0.9575
  225MPD1     H 3419   4.237   1.536  12.532 -1.1677  0.7449  0.9553
  225MPD1    H1 3420   4.132   1.947  12.572  1.4252  1.1505  2.0529
  225MPD1    H2 3421   4.525   1.817  12.656  0.1314 -2.0228  0.3168
  225MPD1    H3 3422   4.372   1.996  12.616 -1.4588  0.2285  0.6928
  225MPD1     N 3423   4.034   1.720  12.513 -0.7437 -0.1963  0.4702
  225MPD1    H5 3424   3.977   1.803  12.523  2.0606  1.9532 -1.4100
  225MPD1    N1 3425   4.497   1.565  12.592  0.1105  0.3681  0.2562
  225MPD1    H6 3426   4.570   1.593  12.657 -1.3292 -2.3202  3.0825
  225MPD1    H7 3427   4.462   1.478  12.632 -0.4487 -0.2138 -1.5033
  226MPD1     C 3428   2.902   0.346   9.313  0.5693 -0.4986  0.3266
  226MPD1    C1 3429   2.778   0.398   9.347  1.0086 -0.4515  0.9762
  226MPD1    C2 3430   2.762   0.535   9.343 -0.6211  0.5381 -0.3778
  226MPD1    C3 3431   2.866   0.619   9.299 -0.5216  0.2416  0.9778
  226MPD1    C4 3432   2.990   0.566   9.266 -0.1263  0.4789  0.3888
  226MPD1    C5 3433   3.002   0.430   9.267  0.6623  0.4178 -0.2459
  226MPD1     H 3434   2.667   0.575   9.378 -0.9203 -0.2486 -0.3053
  226MPD1    H1 3435   3.078   0.620   9.236 -0.2853  0.6403  0.2169
  226MPD1    H2 3436   2.921   0.240   9.314  0.9196 -0.4433 -0.4026
  226MPD1    H3 3437   3.095   0.384   9.235  0.5864  0.6256 -0.7695
  226MPD1     N 3438   2.834   0.761   9.300  0.1103 -0.0154  0.1088
  226MPD1    H5 3439   2.741   0.784   9.332 -0.1382 -0.6664 -0.1464
  226MPD1    N1 3440   2.686   0.318   9.407  0.0327 -0.6246  0.0333
  226MPD1    H6 3441   2.686   0.228   9.360  0.8676  0.1344 -1.4029
  226MPD1    H7 3442   2.592   0.357   9.401 -1.1935 -3.5661  0.1658
  227MPD1     C 3443   2.020   0.979   9.232 -1.0180 -0.1319  0.3698
  227MPD1    C1 3444   2.096   0.883   9.294 -0.2809 -0.2080  0.2613
  227MPD1    C2 3445   2.232   0.897   9.308 -0.4307  0.0389  0.9198
  227MPD1    C3 3446   2.290   1.022   9.271  0.3699  0.6586  0.2620
  227MPD1    C4 3447   2.211   1.124   9.217  0.0695  0.3174  0.0212
  227MPD1    C5 3448   2.074   1.100   9.191  1.6429  0.1415  0.4772
  227MPD1     H 3449   2.286   0.816   9.356 -1.5027 -2.5312 -2.2505
  227MPD1    H1 3450   2.243   1.228   9.212 -2.6186  1.0201 -2.5603
  227MPD1    H2 3451   1.917   0.962   9.205 -1.4407 -0.2257  2.0474
  227MPD1    H3 3452   2.005   1.180   9.166 -0.9822 -1.6053  2.1220
  227MPD1     N 3453   2.428   1.031   9.276 -0.5432  0.1755 -0.6082
  227MPD1    H5 3454   2.475   0.954   9.323 -1.5754  0.1794  0.4150
  227MPD1    N1 3455   2.033   0.761   9.320  0.2894  0.1483 -0.0433
  227MPD1    H6 3456   2.079   0.697   9.384 -1.1030 -1.0115 -0.2274
  227MPD1    H7 3457   1.936   0.777   9.344  0.1184 -1.4765  0.3246
  228MPD1     C 3458   1.075   4.509  12.747 -0.6765  0.1531 -0.2471
  228MPD1    C1 3459   0.989   4.582  12.671 -0.2003  0.3917  0.0286
  228MPD1    C2 3460   0.861   4.531  12.645  0.0875 -0.0066 -0.1708
  228MPD1    C3 3461   0.818   4.416  12.710  0.6402 -0.4018  0.1805
  228MPD1    C4 3462   0.904   4.342  12.782 -0.4617  0.3481 -0.1716
  228MPD1    C5 3463   1.025   4.393  12.803 -0.0201  0.0258  0.3154
  228MPD1     H 3464   0.787   4.573  12.578 -2.1341 -1.5258  1.3712
  228MPD1    H1 3465   0.871   4.252  12.833  2.3391  1.4781  3.6245
  228MPD1    H2 3466   1.176   4.540  12.771 -0.0939 -1.5579 -0.5088
  228MPD1    H3 3467   1.093   4.339  12.869  0.0942 -1.3700 -0.9417
  228MPD1     N 3468   0.686   4.387  12.690 -0.0746 -0.1518 -0.4238
  228MPD1    H5 3469   0.632   4.467  12.658 -1.7683 -0.3046  2.0319
  228MPD1    N1 3470   1.045   4.678  12.586 -0.5847 -0.8619 -0.3570
  228MPD1    H6 3471   1.121   0.005  12.634 -0.0501 -1.1789 -0.8838
  228MPD1    H7 3472   0.975   0.029  12.570  1.2233  0.4791 -2.1941
  229MPD1     C 3473   0.177   2.947  14.742  0.4863  0.3585 -0.4571
  229MPD1    C1 3474   0.229   2.863  14.645  0.6998  0.1470 -0.4122
  229MPD1    C2 3475   0.342   2.792  14.681  0.2745 -0.4830  0.2897
  229MPD1    C3 3476   0.391   2.800  14.812  0.0244 -0.2765  0.5319
  229MPD1    C4 3477   0.327   2.881  14.915  0.4274  0.0379  0.3656
  229MPD1    C5 3478   0.221   2.957  14.872 -0.4446  0.2858 -0.2160
  229MPD1     H 3479   0.398   2.739  14.604 -0.0321  0.8185 -0.8314
  229MPD1    H1 3480   0.358   2.879  15.018 -1.1199  0.6068  0.8514
  229MPD1    H2 3481   0.089   3.003  14.713 -0.1452  0.3782  1.5040
  229MPD1    H3 3482   0.170   3.026  14.937  0.1192  1.3619 -0.9044
  229MPD1     N 3483   0.507   2.732  14.854 -0.5872  0.4543 -0.2382
  229MPD1    H5 3484   0.546   2.762  14.943 -1.3687 -0.9529  0.5786
  229MPD1    N1 3485   0.183   2.860  14.511  0.5584  0.3247 -0.6530
  229MPD1    H6 3486   0.232   2.929  14.454 -0.1543  2.3798  1.2531
  229MPD1    H7 3487   0.207   2.771  14.467  0.3907 -0.0973  0.1227
  230MPD1     C 3488   1.037   2.649  15.660  0.0766  0.6032  0.5041
  230MPD1    C1 3489   1.109   2.556  15.586 -1.0023 -0.6919  0.5146
  230MPD1    C2 3490   1.051   2.519  15.466 -0.0136 -0.0376 -0.8533
  230MPD1    C3 3491   0.939   2.580  15.414  0.1863  0.6408  0.2036
  230MPD1    C4 3492   0.879   2.679  15.489  0.7854 -0.5101 -0.2385
  230MPD1    C5 3493   0.926   2.710  15.611  0.2520  0.8120 -0.0046
  230MPD1     H 3494   1.106   2.446  15.408 -1.1698 -0.1121 -1.8694
  230MPD1    H1 3495   0.785   2.721  15.455  2.2678  0.8526 -2.7143
  230MPD1    H2 3496   1.062   2.670  15.764 -1.0396  3.8060  0.1198
  230MPD1    H3 3497   0.877   2.785  15.672 -0.8187  1.6477 -1.9060
  230MPD1     N 3498   0.888   2.538  15.286 -0.5408  0.3502  0.3688
  230MPD1    H5 3499   0.938   2.456  15.253  0.2390  1.4335 -1.1474
  230MPD1    N1 3500   1.216   2.502  15.648  0.0604  0.2624  0.0055
  230MPD1    H6 3501   1.291   2.484  15.582  0.5803 -0.3416  0.7704
  230MPD1    H7 3502   1.260   2.553  15.725 -1.4514 -0.6595  1.4993
  231MPD1     C 3503   3.680   0.047  15.626 -0.3035  0.4661  0.5312
  231MPD1    C1 3504   3.704   4.713  15.498 -0.2234 -0.6746 -0.4597
  231MPD1    C2 3505   3.793   0.063  15.417 -0.2832 -0.4256 -0.2702
  231MPD1    C3 3506   3.861   0.177  15.458  1.0368 -0.0720  0.3052
  231MPD1    C4 3507   3.834   0.223  15.587 -0.1050 -0.1405  0.5871
  231MPD1    C5 3508   3.748   0.156  15.674  0.1096  0.3201  0.2778
  231MPD1     H 3509   3.811   0.025  15.317  1.0974  1.4307 -0.7234
  231MPD1    H1 3510   3.865   0.322  15.617 -0.6286  0.8629 -2.1232
  231MPD1    H2 3511   3.600   0.010  15.689 -2.4761  1.5357 -1.6331
  231MPD1    H3 3512   3.723   0.198  15.770  1.3458  1.9047 -0.0930
  231MPD1     N 3513   3.946   0.245  15.368  0.2959 -0.2852 -0.1438
  231MPD1    H5 3514   3.951   0.196  15.279 -1.0700 -2.1080  0.7907
  231MPD1    N1 3515   3.650   4.591  15.464  0.4593  0.7842 -0.1536
  231MPD1    H6 3516   3.611   4.601  15.370  0.1292  1.6938  0.0775
  231MPD1    H7 3517   3.571   4.567  15.523 -0.7750  0.3079 -1.9845
  232MPD1     C 3518   1.158   2.475  17.450  0.3269  0.1098 -0.3510
  232MPD1    C1 3519   1.153   2.412  17.566 -0.0158 -0.9481 -0.0850
  232MPD1    C2 3520   1.038   2.423  17.641 -0.5182 -0.3091  0.1287
  232MPD1    C3 3521   0.934   2.500  17.599  0.1284 -0.3391 -0.5935
  232MPD1    C4 3522   0.950   2.575  17.486  1.1052 -0.0762  0.6755
  232MPD1    C5 3523   1.060   2.560  17.408  0.1093  0.6233  0.6522
  232MPD1     H 3524   1.030   2.371   0.048 -0.0828 -1.2529 -0.3540
  232MPD1    H1 3525   0.879   2.650  17.452  0.8186 -1.2586 -1.3210
  232MPD1    H2 3526   1.245   2.467  17.385 -0.8558 -2.3259 -1.6133
  232MPD1    H3 3527   1.071   2.618  17.317  2.2643 -0.0710  0.4756
  232MPD1     N 3528   0.815   2.514  17.676  0.6327 -0.6234  0.1301
  232MPD1    H5 3529   0.812   2.459   0.073 -2.2102  0.0811  0.4924
  232MPD1    N1 3530   1.267   2.337  17.610 -0.0309  0.6198 -0.3145
  232MPD1    H6 3531   1.356   2.386  17.610  0.3635 -0.1071 -0.5178
  232MPD1    H7 3532   1.259   2.300   0.016  3.0179 -0.2710 -0.4181
  233MPD1     C 3533   2.582   3.040   1.790  0.6208  0.4131 -0.0073
  233MPD1    C1 3534   2.640   3.079   1.904  0.2149  0.5281  0.3775
  233MPD1    C2 3535   2.728   3.185   1.909  0.3854 -0.5774 -0.1044
  233MPD1    C3 3536   2.734   3.275   1.800  0.5772 -0.1237  0.6032
  233MPD1    C4 3537   2.667   3.236   1.684  0.1872  0.1264 -0.1443
  233MPD1    C5 3538   2.586   3.126   1.680  0.5351  0.1609  0.0124
  233MPD1     H 3539   2.785   3.209   1.998  1.0623  0.1533 -0.7304
  233MPD1    H1 3540   2.667   3.302   1.598  1.6654  0.1502 -0.1194
  233MPD1    H2 3541   2.525   2.949   1.776 -0.4856  1.1487 -0.3639
  233MPD1    H3 3542   2.514   3.123   1.599 -1.2194  0.1318  1.5782
  233MPD1     N 3543   2.821   3.387   1.788 -0.3077 -0.2816  0.4726
  233MPD1    H5 3544   2.812   3.450   1.709 -0.0218  0.4590  1.0267
  233MPD1    N1 3545   2.630   2.986   2.008 -0.3858 -0.4799 -0.1211
  233MPD1    H6 3546   2.551   2.922   2.000 -0.5186 -0.3577  0.2029
  233MPD1    H7 3547   2.621   3.022   2.103 -1.7857 -1.1792  0.0133
  234MPD1     C 3548   3.795   3.657   9.294 -0.4632 -0.0142  0.1076
  234MPD1    C1 3549   3.845   3.741   9.393  0.1495 -0.6392  0.3304
  234MPD1    C2 3550   3.795   3.868   9.400  0.0864 -0.4899  0.2250
  234MPD1    C3 3551   3.703   3.916   9.316  0.3018  0.0497  0.4435
  234MPD1    C4 3552   3.647   3.831   9.214  1.1229 -0.0995  0.1549
  234MPD1    C5 3553   3.687   3.697   9.214  0.2146  0.4286 -0.6654
  234MPD1     H 3554   3.832   3.932   9.479 -0.1616 -3.2833  2.5726
  234MPD1    H1 3555   3.573   3.866   9.142  3.6928 -2.8050 -3.7669
  234MPD1    H2 3556   3.850   3.565   9.280  0.2881  0.2994  1.0449
  234MPD1    H3 3557   3.640   3.635   9.138 -0.0352  0.3988 -0.4881
  234MPD1     N 3558   3.666   4.053   9.330 -0.7058 -0.4695 -0.1558
  234MPD1    H5 3559   3.717   4.108   9.399 -0.7273 -0.5470 -0.0788
  234MPD1    N1 3560   3.944   3.687   9.476  0.4484  1.0029  0.4819
  234MPD1    H6 3561   3.923   3.587   9.478 -1.0840  1.3260  0.4641
  234MPD1    H7 3562   3.930   3.725   9.570  2.1699 -0.8699  1.4981
  235MPD1     C 3563   0.682   1.136   9.856  0.6056 -0.3125  1.1117
  235MPD1    C1 3564   0.559   1.200   9.852 -0.0074  0.8136  0.2626
  235MPD1    C2 3565   0.546   1.335   9.874  0.2027  0.0139  0.0230
  235MPD1    C3 3566   0.658   1.408   9.911 -1.1496  0.0893  0.3158
  235MPD1    C4 3567   0.781   1.345   9.921  0.4120 -0.5702 -0.4850
  235MPD1    C5 3568   0.783   1.210   9.901  0.2404 -0.2932 -0.0982
  235MPD1     H 3569   0.450   1.386   9.865 -1.7997 -3.3923  2.0112
  235MPD1    H1 3570   0.879   1.383   9.947  0.9494 -1.0641 -1.7860
  235MPD1    H2 3571   0.712   1.040   9.815  0.7343  0.3847 -0.4278
  235MPD1    H3 3572   0.882   1.165   9.892 -0.2309 -1.2757 -0.3873
  235MPD1     N 3573   0.647   1.541   9.937  0.3470 -0.6630 -0.1310
  235MPD1    H5 3574   0.550   1.572   9.938 -0.2355 -2.5502  1.0148
  235MPD1    N1 3575   0.447   1.129   9.800  0.9345 -0.3066 -0.3352
  235MPD1    H6 3576   0.357   1.169   9.826  0.6759 -2.5822  2.2913
  235MPD1    H7 3577   0.449   1.035   9.839 -0.1747  0.9128  2.6471
  236MPD1     C 3578   0.029   2.955  10.175  0.3664 -0.2890 -0.4835
  236MPD1    C1 3579   4.691   2.846  10.115 -0.0907 -0.1608  0.8011
  236MPD1    C2 3580   4.717   2.722  10.168 -0.7596  0.6126  0.2409
  236MPD1    C3 3581   0.074   2.692  10.282  0.6849  1.0749 -0.6318
  236MPD1    C4 3582   0.131   2.800  10.340  0.3794 -0.1371  0.0441
  236MPD1    C5 3583   0.102   2.929  10.289 -0.6523  0.0425 -0.2041
  236MPD1     H 3584   4.687   2.634  10.111  0.7544 -0.9127  1.7938
  236MPD1    H1 3585   0.198   2.789  10.424  1.4178  0.2318 -0.7390
  236MPD1    H2 3586   0.016   3.058  10.146  1.2102  0.3476  1.3808
  236MPD1    H3 3587   0.151   3.012  10.338  1.3707 -2.0569  1.3164
  236MPD1     N 3588   0.108   2.569  10.336  0.3800  0.3705  0.3787
  236MPD1    H5 3589   0.179   2.566  10.408  1.1271 -0.3506 -0.3822
  236MPD1    N1 3590   4.604   2.855  10.003 -0.2524  0.6062  0.0910
  236MPD1    H6 3591   4.610   2.950   9.968 -1.1102 -0.0282 -1.8011
  236MPD1    H7 3592   4.614   2.796   9.920  0.4173 -0.6451  1.0544
  237MPD1     C 3593   4.477   1.726  15.326 -0.6312  0.1077  0.4479
  237MPD1    C1 3594   4.442   1.601  15.375 -0.6074 -0.5072 -0.7911
  237MPD1    C2 3595   4.314   1.581  15.419 -0.4720  0.6971  0.4397
  237MPD1    C3 3596   4.221   1.677  15.400  0.3653 -0.6019 -0.2233
  237MPD1    C4 3597   4.243   1.793  15.333  0.6712  0.1631 -0.5836
  237MPD1    C5 3598   4.378   1.819  15.303 -0.1249  0.4592 -0.6175
  237MPD1     H 3599   4.289   1.488  15.469 -1.7437  0.1338 -1.2203
  237MPD1    H1 3600   4.172   1.874  15.321 -0.5056 -0.7537  0.1687
  237MPD1    H2 3601   4.578   1.757  15.299 -0.3915 -0.1194  1.0758
  237MPD1    H3 3602   4.404   1.906  15.244 -0.2141  0.2315 -0.9919
  237MPD1     N 3603   4.090   1.648  15.431 -0.8333  0.7633 -0.0394
  237MPD1    H5 3604   4.014   1.708  15.402 -2.8574 -1.3317  0.9131
  237MPD1    N1 3605   4.541   1.520  15.424  0.7730 -0.6457  0.1059
  237MPD1    H6 3606   4.621   1.519  15.361 -1.4099 -0.9152 -2.6705
  237MPD1    H7 3607   4.506   1.425  15.423 -0.1028 -0.3284  0.5521
  238MPD1     C 3608   1.208   0.722  15.142  0.2445 -0.1045  1.0860
  238MPD1    C1 3609   1.221   0.707  15.007  0.3827 -0.1450  0.0142
  238MPD1    C2 3610   1.180   0.591  14.944 -0.1349  0.1949 -0.1188
  238MPD1    C3 3611   1.092   0.508  15.013 -0.0212 -0.0915  0.1040
  238MPD1    C4 3612   1.058   0.539  15.143 -0.3924  0.2202 -0.4141
  238MPD1    C5 3613   1.119   0.644  15.206 -0.0749 -0.1863 -0.3503
  238MPD1     H 3614   1.192   0.599  14.836  0.8353  0.5620  0.0177
  238MPD1    H1 3615   0.994   0.475  15.202 -2.1809  0.5912 -1.9279
  238MPD1    H2 3616   1.255   0.801  15.199 -0.2385  0.4574  0.6978
  238MPD1    H3 3617   1.095   0.671  15.308 -0.8853 -0.8693 -0.3605
  238MPD1     N 3618   1.045   0.385  14.958 -0.1986 -0.0446  0.3593
  238MPD1    H5 3619   1.005   0.313  15.018  2.0778 -0.1957  1.7096
  238MPD1    N1 3620   1.313   0.790  14.939 -0.0855  0.1291 -0.3685
  238MPD1    H6 3621   1.326   0.885  14.972 -2.7199  0.6889 -0.9671
  238MPD1    H7 3622   1.299   0.802  14.839 -1.1466  1.9582 -0.0047
  239MPD1     C 3623   1.476   1.097  15.035 -0.8271 -0.7584  0.4527
  239MPD1    C1 3624   1.342   1.100  15.021 -0.1816  0.0732  0.1520
  239MPD1    C2 3625   1.293   1.151  14.905 -0.1001 -0.0408 -0.1771
  239MPD1    C3 3626   1.369   1.199  14.797  0.3377 -0.5716 -0.1373
  239MPD1    C4 3627   1.500   1.182  14.809 -0.0416  0.4097 -0.3373
  239MPD1    C5 3628   1.545   1.136  14.926  0.1736 -0.2671  0.3489
  239MPD1     H 3629   1.184   1.154  14.902 -0.1515 -0.8154  1.3613
  239MPD1    H1 3630   1.575   1.198  14.733 -0.4136  0.3078 -0.7311
  239MPD1    H2 3631   1.527   1.055  15.121  0.1299 -0.6030 -0.0439
  239MPD1    H3 3632   1.652   1.126  14.943 -0.0324 -0.6384  1.4310
  239MPD1     N 3633   1.325   1.249  14.674  0.3677 -0.5755 -0.4915
  239MPD1    H5 3634   1.392   1.264  14.600 -0.7781 -1.1399 -1.6341
  239MPD1    N1 3635   1.256   1.085  15.133  0.3223 -0.1985 -0.6853
  239MPD1    H6 3636   1.300   1.020  15.198 -0.1972  2.3247  2.1845
  239MPD1    H7 3637   1.164   1.051  15.107 -0.6685  2.2555 -0.3789
  240MPD1     C 3638   0.952   1.001  14.949 -0.4666  0.1836 -0.4621
  240MPD1    C1 3639   0.924   0.937  14.835  0.1543  0.0339  0.3011
  240MPD1    C2 3640   0.883   0.808  14.843  0.4796 -0.0884 -0.1517
  240MPD1    C3 3641   0.828   0.752  14.960  0.1343 -0.0940  0.1213
  240MPD1    C4 3642   0.846   0.823  15.079 -0.3613  0.1802  0.1140
  240MPD1    C5 3643   0.918   0.941  15.068  0.3632  0.3681  0.2513
  240MPD1     H 3644   0.888   0.748  14.753  2.4776 -0.1746  0.0214
  240MPD1    H1 3645   0.805   0.797  15.175  0.6181 -4.3266 -0.6997
  240MPD1    H2 3646   0.993   1.101  14.950  0.6394 -0.2732 -0.1928
  240MPD1    H3 3647   0.932   0.991  15.164  0.9490  0.2178  0.2397
  240MPD1     N 3648   0.756   0.631  14.951  0.1596 -0.1089 -0.4286
  240MPD1    H5 3649   0.731   0.604  14.856  0.8925 -0.8586 -0.4203
  240MPD1    N1 3650   0.986   0.996  14.717 -0.5812 -0.1848  0.0157
  240MPD1    H6 3651   0.997   1.097  14.725 -1.3892 -0.1643  0.9714
  240MPD1    H7 3652   0.929   0.965  14.638 -1.0817 -0.7131  0.5828
  241MPD1     C 3653   4.721   4.625  15.373  0.8090  0.1016 -0.2331
  241MPD1    C1 3654   0.055   0.006  15.441  0.0995 -0.2473  0.5703
  241MPD1    C2 3655   0.157   0.085  15.380 -0.0671 -0.0028  0.6980
  241MPD1    C3 3656   0.201   0.054  15.249  0.0402 -0.0600  0.6153
  241MPD1    C4 3657   0.140   4.670  15.185  0.9634 -0.1381  0.2357
  241MPD1    C5 3658   0.044   4.592  15.246 -0.1296  0.2887 -0.4957
  241MPD1     H 3659   0.207   0.168  15.428 -0.3469 -0.0374  1.0514
  241MPD1    H1 3660   0.170   4.642  15.085  0.4490  0.8706 -0.2117
  241MPD1    H2 3661   4.645   4.559  15.413  1.1662 -0.7875 -1.0152
  241MPD1    H3 3662   4.721   4.503  15.202 -0.0091  0.7412 -1.5451
  241MPD1     N 3663   0.302   0.119  15.171  0.6891  0.3487  0.1861
  241MPD1    H5 3664   0.315   0.087  15.076  2.3852 -1.0090  0.8705
  241MPD1    N1 3665   0.020   0.027  15.576 -0.7576  0.3169 -0.5247
  241MPD1    H6 3666   0.025   0.121  15.613 -1.6631  0.8730 -1.8218
  241MPD1    H7 3667   4.648   4.713  15.594 -0.4829 -0.4397 -0.5497
  242MPD1     C 3668   4.670   3.730  15.935 -0.1474  0.2941 -0.1878
  242MPD1    C1 3669   4.591   3.682  15.830 -0.2079  0.3819 -0.4423
  242MPD1    C2 3670   4.655   3.672  15.709 -0.1829 -0.0114 -0.4122
  242MPD1    C3 3671   0.057   3.727  15.684 -0.0968 -0.0581  0.9828
  242MPD1    C4 3672   0.119   3.790  15.783 -0.0369 -0.6211  0.2880
  242MPD1    C5 3673   0.067   3.793  15.909  0.8390  0.3124 -0.7833
  242MPD1     H 3674   4.599   3.617  15.634  1.7488 -0.7852 -1.2940
  242MPD1    H1 3675   0.213   3.841  15.762 -0.7932 -0.8172 -3.5204
  242MPD1    H2 3676   4.627   3.739  16.034  1.6731  0.0401  0.6072
  242MPD1    H3 3677   0.133   3.822  15.990 -0.2956 -0.0524  0.2689
  242MPD1     N 3678   0.129   3.722  15.562 -0.2956 -0.1678 -0.1142
  242MPD1    H5 3679   0.212   3.778  15.554 -1.7733  2.1509  0.7713
  242MPD1    N1 3680   4.470   3.614  15.858 -0.5257  0.0519  0.1785
  242MPD1    H6 3681   4.407   3.610  15.778 -1.4809 -0.1402  0.9291
  242MPD1    H7 3682   4.416   3.653  15.935 -1.2959  3.1094 -1.9031
  243MPD1     C 3683   1.552   2.086   0.009  0.7581 -0.2797  0.5519
  243MPD1    C1 3684   1.670   2.067  17.643 -0.0536  0.3625 -0.5974
  243MPD1    C2 3685   1.681   1.988  17.529  0.4846  0.8169 -0.4944
  243MPD1    C3 3686   1.572   1.924  17.481  0.4127  0.3837 -0.7273
  243MPD1    C4 3687   1.445   1.935  17.541  0.2946 -0.6663 -0.1310
  243MPD1    C5 3688   1.441   2.020  17.648 -0.8191  0.0672  0.1200
  243MPD1     H 3689   1.777   1.981  17.479  1.1165  0.8657  0.6984
  243MPD1    H1 3690   1.351   1.893  17.507 -0.2269 -0.1954  0.7419
  243MPD1    H2 3691   1.532   2.150   0.094 -1.9951  1.3474 -1.2989
  243MPD1    H3 3692   1.342   2.019   0.004 -0.1228  1.0863  1.7185
  243MPD1     N 3693   1.594   1.826  17.379 -0.8946 -0.4394 -0.0284
  243MPD1    H5 3694   1.690   1.821  17.347  0.0224 -0.5252  2.7592
  243MPD1    N1 3695   1.771   2.147  17.676 -0.2463  0.0634 -0.6596
  243MPD1    H6 3696   1.861   2.108  17.649  0.7371  2.0413 -0.2019
  243MPD1    H7 3697   1.765   2.174   0.086  0.5453  0.1784 -0.6455
  244MPD1     C 3698   1.823   0.812  17.394 -0.3805  0.9128 -0.5993
  244MPD1    C1 3699   1.851   0.859  17.268  0.4459 -0.3874  0.1961
  244MPD1    C2 3700   1.823   0.986  17.242 -0.2220  0.7530  0.2802
  244MPD1    C3 3701   1.747   1.066  17.330 -0.1271  0.9223 -0.1997
  244MPD1    C4 3702   1.725   1.015  17.455  0.3234  0.2777  0.0629
  244MPD1    C5 3703   1.760   0.888  17.486  0.0651 -0.0223  0.3307
  244MPD1     H 3704   1.848   1.029  17.145  3.1222 -0.2101  0.7059
  244MPD1    H1 3705   1.674   1.071  17.532 -0.9153 -1.9470  0.8616
  244MPD1    H2 3706   1.870   0.716  17.412  1.5490  2.2569  1.4596
  244MPD1    H3 3707   1.746   0.852  17.587 -0.4142  0.8191  0.5657
  244MPD1     N 3708   1.713   1.196  17.289  0.2172 -0.7058 -0.5296
  244MPD1    H5 3709   1.734   1.216  17.192 -2.1809 -0.2496 -0.9637
  244MPD1    N1 3710   1.950   0.796  17.196  0.5485 -0.4448 -0.1147
  244MPD1    H6 3711   1.942   0.807  17.095 -0.7462  1.2309  0.1771
  244MPD1    H7 3712   1.942   0.697  17.218 -0.5323 -0.3489 -0.0570
  245MPD1     C 3713   4.026   3.059  12.942 -0.3331 -0.7388  0.2647
  245MPD1    C1 3714   3.968   3.120  13.047  1.0663  0.2277 -0.2895
  245MPD1    C2 3715   4.034   3.223  13.117 -0.1332 -0.1100 -0.1516
  245MPD1    C3 3716   4.158   3.265  13.077  0.1090 -0.4164 -0.8249
  245MPD1    C4 3717   4.218   3.207  12.968 -0.9207 -0.3453  0.7404
  245MPD1    C5 3718   4.153   3.099  12.909 -0.4951  0.8351  0.0550
  245MPD1     H 3719   3.985   3.273  13.200  1.3818  0.2157  0.5326
  245MPD1    H1 3720   4.318   3.227  12.932 -0.8133 -0.2093  1.1236
  245MPD1    H2 3721   3.981   2.981  12.882  3.4336 -0.6891 -2.5523
  245MPD1    H3 3722   4.197   3.059  12.819 -1.7663 -0.1569 -0.1218
  245MPD1     N 3723   4.230   3.369  13.142  0.1945 -0.4077 -0.1719
  245MPD1    H5 3724   4.176   3.418  13.213 -0.6516  0.7888 -1.6400
  245MPD1    N1 3725   3.828   3.098  13.076 -0.5189  0.0859 -0.4443
  245MPD1    H6 3726   3.809   3.118  13.174 -0.9250  0.2680 -0.5558
  245MPD1    H7 3727   3.793   3.006  13.051 -0.7533  0.5418 -1.8102
  246MPD1     C 3728   4.714   4.616   9.944 -0.6852 -0.4279 -0.7445
  246MPD1    C1 3729   4.651   0.002   9.888  0.2315  0.1731  0.0563
  246MPD1    C2 3730   4.610   4.711   9.754 -0.1948  0.3973 -0.3435
  246MPD1    C3 3731   4.628   4.594   9.682  0.0321 -0.0695  0.5692
  246MPD1    C4 3732   4.704   4.504   9.739 -0.5536 -0.0027  0.2294
  246MPD1    C5 3733   0.015   4.504   9.869 -0.0005 -0.4700 -0.9383
  246MPD1     H 3734   4.559   0.074   9.710  0.2567  0.7838 -0.1317
  246MPD1    H1 3735   0.004   4.410   9.691  1.1545  0.6134 -0.2089
  246MPD1    H2 3736   0.012   4.626  10.050  1.3706 -1.7088 -1.0044
  246MPD1    H3 3737   0.067   4.423   9.918 -1.0302  0.8662  2.3550
  246MPD1     N 3738   4.563   4.581   9.558  0.0592  0.1267  0.0074
  246MPD1    H5 3739   4.509   4.664   9.536  1.7736  1.2208 -0.0588
  246MPD1    N1 3740   4.647   0.124   9.956 -0.9181  0.2929 -0.2018
  246MPD1    H6 3741   4.587   0.201   9.928 -0.9335  0.2694 -0.2319
  246MPD1    H7 3742   4.645   0.115  10.058 -0.6246  0.4276 -0.1839
  247MPD1     C 3743   3.831   1.782  16.136  0.2222  0.1065 -0.5119
  247MPD1    C1 3744   3.690   1.810  16.144  0.0167  0.5655  0.5460
  247MPD1    C2 3745   3.650   1.925  16.081  0.0977  0.0827  0.3049
  247MPD1    C3 3746   3.735   2.007  16.014  0.5116  0.6865 -0.1433
  247MPD1    C4 3747   3.867   1.975  16.007  0.5206  0.4519 -0.5260
  247MPD1    C5 3748   3.909   1.863  16.070  0.4733 -0.2520 -0.4945
  247MPD1     H 3749   3.543   1.946  16.079 -0.1514 -0.9010  3.5541
  247MPD1    H1 3750   3.934   2.043  15.955  1.4335 -1.1746 -1.4750
  247MPD1    H2 3751   3.876   1.702  16.195  1.8416  0.9033 -0.6666
  247MPD1    H3 3752   4.017   1.853  16.069  0.3056 -1.9832 -2.8108
  247MPD1     N 3753   3.688   2.118  15.934 -0.6258  0.3060 -0.0194
  247MPD1    H5 3754   3.768   2.174  15.906 -0.1121 -1.2503 -1.6302
  247MPD1    N1 3755   3.601   1.714  16.184 -0.0716 -0.1706 -0.1755
  247MPD1    H6 3756   3.537   1.756  16.251 -0.0394 -0.7166  0.2032
  247MPD1    H7 3757   3.646   1.639  16.235  1.5144  0.7985 -0.1657
  248MPD1     C 3758   0.547   1.473   0.817  0.0751 -0.0280  0.0090
  248MPD1    C1 3759   0.512   1.477   0.946  0.2626 -0.1631 -0.0076
  248MPD1    C2 3760   0.443   1.590   0.996 -0.7537 -0.2154 -0.5514
  248MPD1    C3 3761   0.391   1.685   0.909  0.2873 -0.1546 -0.7472
  248MPD1    C4 3762   0.400   1.657   0.768 -0.3443 -0.6400  0.1094
  248MPD1    C5 3763   0.479   1.550   0.729 -0.0160 -0.4268 -0.1093
  248MPD1     H 3764   0.417   1.609   1.100 -0.8165 -2.0075 -0.2324
  248MPD1    H1 3765   0.360   1.726   0.694  1.6606 -0.0278 -0.4160
  248MPD1    H2 3766   0.619   1.395   0.796 -0.7000 -0.9778  0.8856
  248MPD1    H3 3767   0.508   1.546   0.624  1.2359  1.1353  0.1791
  248MPD1     N 3768   0.329   1.802   0.956  0.4380 -0.1755 -0.4951
  248MPD1    H5 3769   0.344   1.818   1.055 -1.9607  1.6966 -0.4156
  248MPD1    N1 3770   0.569   1.397   1.045  0.2531 -0.3045  0.0051
  248MPD1    H6 3771   0.578   1.297   1.028 -4.5178 -0.5884 -0.8990
  248MPD1    H7 3772   0.527   1.411   1.136 -3.6323  0.9108 -1.9451
  249MPD1     C 3773   4.384   0.551  10.670  0.6370  0.3028 -0.3121
  249MPD1    C1 3774   4.398   0.447  10.578 -0.3484 -0.3288  0.2417
  249MPD1    C2 3775   4.481   0.477  10.468 -0.0336  0.0711  0.4999
  249MPD1    C3 3776   4.544   0.599  10.451  0.6945  0.0376 -1.3510
  249MPD1    C4 3777   4.514   0.695  10.542 -0.0917 -0.5078  0.2358
  249MPD1    C5 3778   4.449   0.667  10.656  0.2935 -0.4207  0.0491
  249MPD1     H 3779   4.497   0.406  10.388 -0.7772  1.1471 -0.6044
  249MPD1    H1 3780   4.564   0.791  10.542  0.0198 -0.5602 -1.5881
  249MPD1    H2 3781   4.313   0.536  10.751 -0.6722 -2.1587 -1.9147
  249MPD1    H3 3782   4.429   0.749  10.724  0.1673 -0.4678  0.0680
  249MPD1     N 3783   4.629   0.608  10.343 -0.1919  0.4183  0.7195
  249MPD1    H5 3784   4.622   0.539  10.268 -0.8308  0.8727  0.3668
  249MPD1    N1 3785   4.304   0.338  10.578 -0.2370 -0.3458 -0.3086
  249MPD1    H6 3786   4.339   0.255  10.531  0.8871  0.8220 -1.5206
  249MPD1    H7 3787   4.285   0.312  10.675 -0.4026  1.0372  0.0380
  250MPD2     C 3788   2.246   1.495  12.935 -0.3163 -0.1106  0.4772
  250MPD2    C1 3789   2.159   1.593  12.981 -0.0134 -0.0717  0.1049
  250MPD2    C2 3790   2.038   1.566  13.050 -0.2072 -1.1468  0.2150
  250MPD2    C3 3791   1.991   1.437  13.058 -0.2454  0.2076  0.1545
  250MPD2    C4 3792   2.076   1.340  13.011 -0.8859 -0.0578 -0.4320
  250MPD2    C5 3793   2.192   1.365  12.940  0.3510  0.0380  0.5374
  250MPD2     H 3794   1.977   1.641  13.100  0.8735 -0.0094 -0.1550
  250MPD2    H1 3795   2.050   1.236  13.025  2.5511 -0.8537  0.1902
  250MPD2    H2 3796   2.343   1.504  12.888  0.1659 -2.1813  1.0574
  250MPD2    H3 3797   2.254   1.285  12.903  1.0280  0.5002  0.6671
  250MPD2     N 3798   1.867   1.398  13.124 -0.5874 -0.3823 -0.3438
  250MPD2    H5 3799   1.843   1.301  13.143 -1.8187 -0.1949 -0.9524
  250MPD2    N1 3800   2.210   1.727  12.972  0.2154 -0.4394  0.0141
  250MPD2    H7 3801   2.305   1.743  12.942  0.5873 -2.3032  0.1461
  251TMC3    C1 3802   2.193   1.966  12.980  0.6492 -0.0520  0.2178
  251TMC3    C2 3803   2.138   2.074  13.047  0.4123  0.4010  0.1348
  251TMC3    C3 3804   2.167   2.206  13.013 -0.6982  0.4724  0.2948
  251TMC3    C4 3805   2.279   1.985  12.879  0.5298  0.6231 -0.7475
  251TMC3    C5 3806   2.311   2.118  12.844  0.3340  0.9125  0.2438
  251TMC3    C6 3807   2.259   2.225  12.912  0.1969  0.9431 -0.2503
  251TMC3     C 3808   2.128   1.834  12.999  0.4720  0.2082  1.2776
  251TMC3     O 3809   2.010   1.844  13.031  0.0769 -0.0273 -0.9101
  251TMC3     H 3810   2.053   2.049  13.110  0.6743  4.0510  1.9768
  251TMC3    H1 3811   2.306   1.895  12.825  0.8267  0.5277 -0.4359
  251TMC3    H2 3812   2.293   2.327  12.902 -0.4877  1.0733 -1.2969
  251TMC3    C7 3813   2.414   2.138  12.735 -0.1987  0.4432 -0.7038
  251TMC3    C8 3814   2.056   2.293  13.018 -0.4947  0.3013  0.0722
  251TMC3    O1 3815   2.471   2.039  12.689  0.3050  0.4880 -0.2092
  251TMC3    O2 3816   1.979   2.265  13.111 -0.0010 -0.0515 -0.2078
  252TMC3    C1 3817   3.480   2.374   9.093  0.0799 -0.0508 -0.1613
  252TMC3    C2 3818   3.516   2.504   9.077  0.1614 -0.0285  0.3475
  252TMC3    C3 3819   3.431   2.602   9.040 -0.1102  0.1599 -0.0221
  252TMC3    C4 3820   3.349   2.349   9.099  0.1434  0.1262 -0.2384
  252TMC3    C5 3821   3.259   2.454   9.075 -0.5430 -0.3251  1.0936
  252TMC3    C6 3822   3.297   2.581   9.033 -0.4077  0.1276 -0.1719
  252TMC3     C 3823   3.586   2.271   9.076  0.4659  0.1398 -0.2936
  252TMC3     O 3824   3.553   2.152   9.063 -0.4668  0.0327  0.4214
  252TMC3     H 3825   3.619   2.535   9.075  0.7151 -1.8101  1.6290
  252TMC3    H1 3826   3.319   2.245   9.113 -3.2606  0.9891 -0.9995
  252TMC3    H2 3827   3.233   2.668   9.023 -0.5257  0.0464 -0.1191
  252TMC3    C7 3828   3.126   2.412   9.049  0.7252 -0.1472 -0.4927
  252TMC3    C8 3829   3.463   2.744   9.062 -0.9665 -0.2401 -0.0634
  252TMC3    O1 3830   3.054   2.475   8.974 -0.5384 -0.3022  0.4803
  252TMC3    O2 3831   3.441   2.822   8.973  0.4844 -0.1637 -0.2187
  253MPD2     C 3832   3.592   1.779  15.585  0.3297  0.4501  0.7438
  253MPD2    C1 3833   3.470   1.736  15.528  0.4226  0.0959  0.0067
  253MPD2    C2 3834   3.379   1.665  15.610 -0.2184  0.3804  0.8396
  253MPD2    C3 3835   3.406   1.662  15.748  0.0649  0.1772 -0.0765
  253MPD2    C4 3836   3.526   1.710  15.805  0.8651  0.1070 -0.4995
  253MPD2    C5 3837   3.622   1.755  15.716  0.6370  0.6487 -0.7539
  253MPD2     H 3838   3.282   1.632  15.576 -0.8872  0.1034  2.9947
  253MPD2    H1 3839   3.547   1.709  15.911 -0.3442  1.0647 -0.2549
  253MPD2    H2 3840   3.667   1.834  15.529  0.3527  0.6848  1.0063
  253MPD2    H3 3841   3.716   1.788  15.759  0.2059 -1.2710  1.6989
  253MPD2     N 3842   3.308   1.628  15.845 -0.3574 -0.5791 -0.1609
  253MPD2    H5 3843   3.317   1.679  15.933  1.4375 -0.3375 -0.4891
  253MPD2    N1 3844   3.441   1.761  15.393 -0.0265 -0.4130  0.3188
  253MPD2    H7 3845   3.349   1.726  15.366  0.7028 -1.4459 -0.8344
  254TMC3    C1 3846   3.085   1.589  15.912 -0.1806  0.0805  0.1868
  254TMC3    C2 3847   3.060   1.699  15.995  0.1803 -0.3217  0.2450
  254TMC3    C3 3848   2.948   1.699  16.083 -0.9832 -0.4147  0.9307
  254TMC3    C4 3849   3.011   1.477  15.934  0.5796 -0.3028 -0.2714
  254TMC3    C5 3850   2.915   1.477  16.034 -0.0605  0.0950 -0.0365
  254TMC3    C6 3851   2.886   1.579  16.113  0.8689  0.2365  0.6474
  254TMC3     C 3852   3.185   1.581  15.809 -0.0864 -0.6539 -0.3317
  254TMC3     O 3853   3.157   1.510  15.713 -0.0953 -0.2156 -0.3410
  254TMC3     H 3854   3.112   1.789  15.965  1.4311 -1.3813 -0.7336
  254TMC3    H1 3855   3.045   1.391  15.877 -1.2446 -2.7108  2.2811
  254TMC3    H2 3856   2.811   1.573  16.191 -0.3443 -1.1383 -0.6416
  254TMC3    C7 3857   2.910   1.347  16.094  0.0285 -0.0494  0.2966
  254TMC3    C8 3858   2.937   1.796  16.193  0.1742 -0.4003  0.7732
  254TMC3    O1 3859   2.870   1.253  16.023 -0.9005 -0.3858 -0.0085
  254TMC3    O2 3860   2.855   1.771  16.284 -0.5654  0.0736 -0.4710
  255MPD2     C 3861   1.997   3.550  10.163  0.3910 -0.2219 -0.5292
  255MPD2    C1 3862   2.076   3.619  10.074 -0.1404  0.1782 -0.8370
  255MPD2    C2 3863   2.207   3.578  10.044  0.4282  0.2324 -0.5053
  255MPD2    C3 3864   2.270   3.472  10.113  0.2007 -0.0398  0.2271
  255MPD2    C4 3865   2.188   3.396  10.194  0.0322  0.2838 -0.1717
  255MPD2    C5 3866   2.059   3.436  10.220  0.5149  0.1013  0.1146
  255MPD2     H 3867   2.259   3.634   9.967  1.5127  1.1937  0.9145
  255MPD2    H1 3868   2.218   3.308  10.249 -0.7530  0.7100  0.9546
  255MPD2    H2 3869   1.891   3.566  10.179  0.1161  0.6597 -3.2192
  255MPD2    H3 3870   2.007   3.368  10.286 -0.3304 -2.4769 -3.2255
  255MPD2     N 3871   2.402   3.425  10.076  0.1955  0.0717 -0.6391
  255MPD2    H5 3872   2.448   3.467   9.995  1.0959 -0.7676 -0.5706
  255MPD2    N1 3873   2.038   3.730   9.996 -0.0693  0.3148  0.9699
  255MPD2    H7 3874   2.117   3.776   9.952  0.5699 -0.2773  1.4936
  256TMC3    C1 3875   1.893   3.900   9.900  0.2904 -0.5433  0.1797
  256TMC3    C2 3876   1.999   3.964   9.844  0.6468  0.9528  0.4038
  256TMC3    C3 3877   1.978   4.052   9.741 -0.2714  0.0289 -0.3852
  256TMC3    C4 3878   1.773   3.926   9.851  0.1140  0.1170 -0.3492
  256TMC3    C5 3879   1.755   4.013   9.751 -0.3457  0.0001 -0.0585
  256TMC3    C6 3880   1.857   4.074   9.684 -0.4798  0.0096 -0.1500
  256TMC3     C 3881   1.908   3.783   9.984 -0.3842 -0.1690  0.1403
  256TMC3     O 3882   1.813   3.734  10.040  0.0602  0.1936  0.1288
  256TMC3     H 3883   2.091   3.972   9.901 -0.0252  1.3451  1.4230
  256TMC3    H1 3884   1.692   3.863   9.886 -1.1141  1.8389 -0.0426
  256TMC3    H2 3885   1.836   4.118   9.587 -2.2040 -2.9589 -1.1459
  256TMC3    C7 3886   1.623   4.012   9.691 -0.4821  0.4802 -0.0830
  256TMC3    C8 3887   2.099   4.111   9.680  0.5435 -0.0482 -0.4735
  256TMC3    O1 3888   1.548   3.920   9.725 -0.3244 -0.4185  0.5223
  256TMC3    O2 3889   2.206   4.082   9.731 -0.6689  0.8458 -0.3121
  257MPD2     C 3890   0.854   1.700  13.372  0.2168  0.0132 -0.2688
  257MPD2    C1 3891   0.815   1.600  13.277  0.3783 -0.0464 -0.3425
  257MPD2    C2 3892   0.792   1.469  13.313 -0.3852 -0.3011  0.3917
  257MPD2    C3 3893   0.793   1.429  13.446  0.5116  1.2073 -0.3911
  257MPD2    C4 3894   0.837   1.523  13.539 -0.0506 -0.0625  0.2773
  257MPD2    C5 3895   0.858   1.659  13.508  0.0074 -0.9872  0.7929
  257MPD2     H 3896   0.771   1.389  13.243 -1.0188 -0.8118  1.1723
  257MPD2    H1 3897   0.845   1.508  13.646  0.7434 -1.1031  0.0717
  257MPD2    H2 3898   0.874   1.802  13.343  0.4224  0.1664  0.4046
  257MPD2    H3 3899   0.882   1.733  13.583 -1.2855  0.1947  0.0409
  257MPD2     N 3900   0.789   1.290  13.483 -0.1724 -0.9075  0.4355
  257MPD2    H5 3901   0.757   1.229  13.409  0.0738 -0.4733 -0.0336
  257MPD2    N1 3902   0.810   1.638  13.142 -0.5740  0.0124 -0.1958
  257MPD2    H7 3903   0.845   1.731  13.120  2.1968 -0.5988  1.5974
  258TMC3    C1 3904   0.799   1.091  13.615  0.4085  0.1094 -0.1993
  258TMC3    C2 3905   0.685   1.046  13.556  0.7110 -0.2111  0.7019
  258TMC3    C3 3906   0.648   0.916  13.591 -0.3490 -0.6361 -0.6287
  258TMC3    C4 3907   0.863   1.025  13.713  0.6693 -0.1582 -0.9326
  258TMC3    C5 3908   0.821   0.895  13.741  0.0499  0.4361 -0.3614
  258TMC3    C6 3909   0.713   0.834  13.682  0.7371  0.3192 -0.1918
  258TMC3     C 3910   0.807   1.233  13.608  0.2540  0.5804 -0.2137
  258TMC3     O 3911   0.839   1.284  13.714 -0.0657 -0.0690  0.4243
  258TMC3     H 3912   0.632   1.095  13.475  1.1605 -2.7066 -1.1058
  258TMC3    H1 3913   0.945   1.086  13.749 -0.9809  1.6207 -0.1413
  258TMC3    H2 3914   0.667   0.739  13.710  2.1432 -0.5266 -0.7389
  258TMC3    C7 3915   0.835   0.860  13.878 -0.1869 -0.1632 -0.3503
  258TMC3    C8 3916   0.528   0.869  13.516  0.3916  0.9900 -0.1894
  258TMC3    O1 3917   0.742   0.801  13.937 -0.3259  0.1995  0.0789
  258TMC3    O2 3918   0.495   0.931  13.418 -0.2531  0.4780 -0.2138
  259MPD2     C 3919   4.621   3.181   1.698  1.3575  0.0529 -0.1590
  259MPD2    C1 3920   4.651   3.053   1.676  0.4514  0.2972 -0.2722
  259MPD2    C2 3921   4.696   3.019   1.546 -0.5564 -0.3276  0.2287
  259MPD2    C3 3922   4.676   3.103   1.439  0.0420  0.8567  0.0595
  259MPD2    C4 3923   4.651   3.234   1.462  0.3252  0.3818  0.4918
  259MPD2    C5 3924   4.635   3.270   1.592  0.6667  0.3607 -0.4504
  259MPD2     H 3925   4.707   2.912   1.533 -0.2467  0.0812 -2.8076
  259MPD2    H1 3926   4.653   3.317   1.393  0.0966 -0.9479 -1.1154
  259MPD2    H2 3927   4.597   3.221   1.796  0.5974  1.3173 -0.8546
  259MPD2    H3 3928   4.631   3.376   1.612  0.6913  0.0431  1.2722
  259MPD2     N 3929   4.709   3.051   1.305  0.0787  0.5951 -0.1723
  259MPD2    H5 3930   0.022   2.955   1.299  0.6814  0.7495  0.8729
  259MPD2    N1 3931   4.661   2.960   1.782  0.7680  0.2513  0.2121
  259MPD2    H7 3932   4.653   3.005   1.873  1.0016  1.4091 -0.3389
  260TMC3    C1 3933   0.018   3.061   1.062 -0.0392 -0.1761 -0.3812
  260TMC3    C2 3934   0.058   3.137   0.957 -0.0104 -0.9652 -0.7462
  260TMC3    C3 3935   0.099   3.070   0.841 -0.1795  0.2815 -0.3077
  260TMC3    C4 3936   0.030   2.923   1.064 -0.2467 -0.0420  0.6367
  260TMC3    C5 3937   0.050   2.860   0.944  0.5313 -1.0100  0.2964
  260TMC3    C6 3938   0.098   2.928   0.834 -0.6474 -0.6958 -0.2617
  260TMC3     C 3939   4.705   3.128   1.188 -0.5249  0.2862  0.6703
  260TMC3     O 3940   4.694   3.251   1.180  0.5460  0.2827  0.0307
  260TMC3     H 3941   0.078   3.243   0.968  1.5665 -1.3204 -0.0418
  260TMC3    H1 3942   4.709   2.858   1.140 -4.9631  1.9964 -0.2532
  260TMC3    H2 3943   0.147   2.873   0.755 -2.4189  1.3063 -2.7424
  260TMC3    C7 3944   0.095   2.719   0.943  0.1607 -0.3772 -0.1851
  260TMC3    C8 3945   0.169   3.140   0.735 -0.1598 -0.0713 -0.3061
  260TMC3    O1 3946   0.114   2.662   1.050 -0.4021 -0.2302 -0.2639
  260TMC3    O2 3947   0.122   3.248   0.700  0.1520  0.1240 -0.1384
  261MPD2     C 3948   1.357   1.154  12.700 -0.1180  0.0499 -0.2324
  261MPD2    C1 3949   1.418   1.275  12.723  0.4433 -0.5714 -0.5266
  261MPD2    C2 3950   1.482   1.341  12.620  0.2703 -0.0341  0.4022
  261MPD2    C3 3951   1.489   1.286  12.493 -0.2780 -0.8384 -0.3527
  261MPD2    C4 3952   1.425   1.166  12.475  0.2038 -0.6772  0.7099
  261MPD2    C5 3953   1.360   1.101  12.579 -0.1302 -0.0500 -0.3963
  261MPD2     H 3954   1.541   1.425  12.655  1.3394 -0.4896 -0.3226
  261MPD2    H1 3955   1.427   1.111  12.382  0.1244  0.8166 -0.1799
  261MPD2    H2 3956   1.301   1.096  12.773  2.1624 -1.4475  0.3561
  261MPD2    H3 3957   1.306   1.009  12.560 -2.0137  0.5265  2.2751
  261MPD2     N 3958   1.567   1.347  12.385  0.1044 -0.4573 -0.3957
  261MPD2    H5 3959   1.575   1.294  12.299 -1.6655  0.7527 -1.2827
  261MPD2    N1 3960   1.430   1.317  12.858  0.7564 -0.1920  0.0117
  261MPD2    H7 3961   1.486   1.402  12.870  0.9473 -0.2550 -0.4294
  262TMC3    C1 3962   1.685   1.519  12.267  0.1864 -0.2795 -0.0387
  262TMC3    C2 3963   1.658   1.650  12.232 -0.6357  1.2083 -0.3496
  262TMC3    C3 3964   1.680   1.684  12.104  0.4398  0.2858 -0.2837
  262TMC3    C4 3965   1.738   1.426  12.174  0.2994  0.0129  0.3554
  262TMC3    C5 3966   1.761   1.475  12.049  0.2306 -0.3840 -0.8548
  262TMC3    C6 3967   1.723   1.597  12.009 -0.1354  0.2553  0.0076
  262TMC3     C 3968   1.618   1.478  12.392 -0.3067 -0.1759 -0.4087
  262TMC3     O 3969   1.605   1.567  12.480 -0.5781 -0.1139  0.0014
  262TMC3     H 3970   1.620   1.725  12.301  1.2804  1.1438  0.7613
  262TMC3    H1 3971   1.778   1.331  12.208 -1.4274 -0.4467  1.1196
  262TMC3    H2 3972   1.730   1.637  11.908  2.1112  1.9139  0.8106
  262TMC3    C7 3973   1.790   1.372  11.948  0.1570 -0.0674 -0.2749
  262TMC3    C8 3974   1.655   1.809  12.054  0.1004 -0.8183  0.3894
  262TMC3    O1 3975   1.755   1.259  11.977 -0.0129 -0.0056  0.1632
  262TMC3    O2 3976   1.751   1.870  12.011  0.1678  0.2387 -0.1422
  263MPD2     C 3977   2.426   0.154  11.329  0.4624  0.9867  0.4402
  263MPD2    C1 3978   2.494   0.259  11.378  0.2060 -0.3994  0.2935
  263MPD2    C2 3979   2.492   0.386  11.308 -0.2433  0.4623 -0.1726
  263MPD2    C3 3980   2.455   0.391  11.173 -0.5896 -0.0408  0.7521
  263MPD2    C4 3981   2.396   0.281  11.121 -0.4260 -0.6426 -0.0223
  263MPD2    C5 3982   2.389   0.162  11.197 -0.6619  0.1895  0.7344
  263MPD2     H 3983   2.532   0.476  11.353  2.7346 -1.3071  0.7250
  263MPD2    H1 3984   2.360   0.275  11.019  0.2142 -0.1483 -0.2751
  263MPD2    H2 3985   2.419   0.055  11.373  2.0423  0.1395 -1.2507
  263MPD2    H3 3986   2.352   0.076  11.143  0.5704  1.3326 -1.9200
  263MPD2     N 3987   2.475   0.518  11.096  0.3862 -0.6299  0.5536
  263MPD2    H5 3988   2.496   0.596  11.157  2.6650 -1.4299  0.8172
  263MPD2    N1 3989   2.569   0.243  11.495  0.0430 -0.4836  0.4151
  263MPD2    H7 3990   2.591   0.149  11.526  2.8821 -0.0491 -0.2555
  264TMC3    C1 3991   2.488   0.667  10.907  0.3025 -0.5092  0.3211
  264TMC3    C2 3992   2.413   0.767  10.962  0.3633 -0.5677  0.1594
  264TMC3    C3 3993   2.400   0.883  10.886 -0.5340  0.8399  0.0315
  264TMC3    C4 3994   2.547   0.689  10.786 -0.1349 -0.1188  0.2507
  264TMC3    C5 3995   2.530   0.799  10.709  0.3307 -0.3443  0.1524
  264TMC3    C6 3996   2.448   0.896  10.752  0.1536  0.0821  0.1447
  264TMC3     C 3997   2.467   0.531  10.956  0.2539 -0.0921  0.7852
  264TMC3     O 3998   2.462   0.442  10.872 -0.2029 -0.2267 -0.0332
  264TMC3     H 3999   2.384   0.764  11.067 -2.0674 -1.0127 -0.5462
  264TMC3    H1 4000   2.610   0.612  10.744  1.6208  0.8502  1.1383
  264TMC3    H2 4001   2.435   0.986  10.693 -0.0584  0.9043  1.4427
  264TMC3    C7 4002   2.661   0.848  10.656 -0.4352  0.4806  0.0187
  264TMC3    C8 4003   2.418   1.004  10.960 -0.5755  0.7033 -0.0280
  264TMC3    O1 4004   2.749   0.777  10.611  0.2958  0.1396  0.3366
  264TMC3    O2 4005   2.479   1.086  10.893  0.0910  0.2274 -0.0957
  265MPD2     C 4006   4.579   1.131  15.713 -0.4199  0.0621 -0.7623
  265MPD2    C1 4007   4.640   1.243  15.650  0.4393  0.1854 -0.2540
  265MPD2    C2 4008   4.719   1.218  15.536  0.8051 -0.1905 -0.6774
  265MPD2    C3 4009   0.035   1.086  15.508  0.1387  0.0166  0.5842
  265MPD2    C4 4010   4.698   0.984  15.570 -0.7917  0.3094  0.0013
  265MPD2    C5 4011   4.610   1.001  15.675  0.9702  0.1586  1.1030
  265MPD2     H 4012   0.042   1.302  15.483  0.3631  0.0487 -0.6694
  265MPD2    H1 4013   4.704   0.881  15.537  1.9280 -0.5885  3.2705
  265MPD2    H2 4014   4.502   1.138  15.789  1.5301 -2.1000  1.4094
  265MPD2    H3 4015   4.575   0.913  15.728  0.4940 -0.4647 -0.2476
  265MPD2     N 4016   0.143   1.053  15.419 -0.4721 -0.3657 -0.0218
  265MPD2    H5 4017   0.152   0.953  15.400  0.4673 -0.8127  2.7689
  265MPD2    N1 4018   4.604   1.374  15.695 -0.0176  0.1316 -0.2837
  265MPD2    H7 4019   4.627   1.454  15.637 -0.9024 -0.0600 -0.8999
  266TMC3    C1 4020   4.548   1.540  15.855  0.5118 -0.2112 -0.8744
  266TMC3    C2 4021   4.622   1.569  15.967 -0.3981 -0.3128 -0.5965
  266TMC3    C3 4022   4.648   1.700  15.991  0.1047  0.2963 -0.3348
  266TMC3    C4 4023   4.523   1.629  15.755  0.8068  0.5454  0.0223
  266TMC3    C5 4024   4.539   1.760  15.788 -0.1189 -0.5361  0.4601
  266TMC3    C6 4025   4.600   1.800  15.907 -0.0064  0.0530  0.1503
  266TMC3     C 4026   4.554   1.399  15.819 -0.4663 -0.7227  0.3644
  266TMC3     O 4027   4.545   1.323  15.917  0.4434 -0.1366 -0.5501
  266TMC3     H 4028   4.659   1.494  16.036 -1.0895 -0.3969 -0.3104
  266TMC3    H1 4029   4.460   1.595  15.673  0.3379 -0.3869  0.7651
  266TMC3    H2 4030   4.616   1.906  15.921  3.6514 -0.6120  1.0642
  266TMC3    C7 4031   4.447   1.861  15.745  0.3533 -0.1621 -0.4061
  266TMC3    C8 4032   0.034   1.722  16.088 -0.2426 -0.6032  0.2983
  266TMC3    O1 4033   4.500   1.969  15.728  0.6864 -0.1484  0.6101
  266TMC3    O2 4034   0.084   1.623  16.141 -0.1295 -0.5842  0.5724
  267MPD2     C 4035   3.327   2.517   0.075 -0.1773 -0.2543  0.9764
  267MPD2    C1 4036   3.323   2.620  17.672  0.2584 -0.2875 -0.9697
  267MPD2    C2 4037   3.271   2.600  17.545  0.3120 -0.2097  0.5332
  267MPD2    C3 4038   3.220   2.476  17.505  0.6581 -0.2498  0.6212
  267MPD2    C4 4039   3.212   2.377  17.603  0.2837 -0.0844  0.6001
  267MPD2    C5 4040   3.269   2.397   0.035 -0.3977 -0.1440 -0.7543
  267MPD2     H 4041   3.278   2.681  17.474  2.6655  1.0886  2.2713
  267MPD2    H1 4042   3.152   2.290  17.579 -1.0768  1.1082 -0.3383
  267MPD2    H2 4043   3.360   2.528   0.178 -0.6920 -1.1784  1.2412
  267MPD2    H3 4044   3.269   2.315   0.106  3.0002 -0.9509 -1.7096
  267MPD2     N 4045   3.147   2.453  17.386  0.7411 -0.2695 -0.1737
  267MPD2    H5 4046   3.110   2.361  17.362  3.0003 -0.9428 -1.0583
  267MPD2    N1 4047   3.366   2.740   0.045 -0.2963 -0.3634  0.1628
  267MPD2    H7 4048   3.407   2.724   0.137 -1.2701 -0.2967  0.6072
  268TMC3    C1 4049   3.399   2.967   0.080  0.4634  0.2541  0.0774
  268TMC3    C2 4050   3.440   3.093   0.038  0.0025 -0.0472 -0.3254
  268TMC3    C3 4051   3.483   3.188   0.127  0.5164 -0.4631  0.2417
  268TMC3    C4 4052   3.391   2.945   0.220  0.6348  0.4836 -0.3918
  268TMC3    C5 4053   3.434   3.043   0.304 -0.4789  0.1309 -0.0442
  268TMC3    C6 4054   3.483   3.166   0.263  0.1979 -0.1337  0.5488
  268TMC3     C 4055   3.357   2.865  17.681 -0.0041 -0.2337 -0.0102
  268TMC3     O 4056   3.289   2.899  17.579 -0.3242  0.2595 -0.2393
  268TMC3     H 4057   3.430   3.112  17.620  0.9169 -2.4799 -0.8493
  268TMC3    H1 4058   3.342   2.855   0.255  0.1257  0.1113 -2.0922
  268TMC3    H2 4059   3.534   3.226   0.338  1.4110 -2.5176  1.6149
  268TMC3    C7 4060   3.378   3.037   0.443 -0.2022 -0.5714 -0.2244
  268TMC3    C8 4061   3.471   3.331   0.091  0.5152  0.0834  0.5855
  268TMC3    O1 4062   3.351   2.923   0.476 -0.4147 -0.1382 -0.2072
  268TMC3    O2 4063   3.539   3.405   0.162  0.1155  0.2890  0.1333
  269MPD2     C 4064   3.046   1.926  15.384 -0.0328  0.5583 -0.3620
  269MPD2    C1 4065   2.907   1.931  15.356  0.2501 -0.3027  0.4448
  269MPD2    C2 4066   2.841   2.048  15.384  0.0577  0.4128  0.0791
  269MPD2    C3 4067   2.913   2.165  15.426  0.1002  0.5204 -0.4075
  269MPD2    C4 4068   3.053   2.153  15.429 -0.1465 -0.8294  0.7504
  269MPD2    C5 4069   3.115   2.038  15.412  0.4385 -0.7934 -0.2762
  269MPD2     H 4070   2.733   2.036  15.385  0.0198  0.7042 -1.3245
  269MPD2    H1 4071   3.115   2.240  15.449  0.3584 -0.7877 -1.0741
  269MPD2    H2 4072   3.099   1.832  15.370 -0.0350  0.3427  1.0165
  269MPD2    H3 4073   3.223   2.037  15.408  0.4525 -0.8515  0.1972
  269MPD2     N 4074   2.841   2.282  15.452  0.0499 -0.2139 -0.2946
  269MPD2    H5 4075   2.742   2.265  15.436 -0.0869  0.8346 -0.5674
  269MPD2    N1 4076   2.841   1.810  15.327 -0.1760  0.9887  0.1796
  269MPD2    H7 4077   2.909   1.736  15.315  0.7646  1.9103 -0.1935
  270TMC3    C1 4078   2.662   1.655  15.277  0.0707 -0.2217 -0.4410
  270TMC3    C2 4079   2.530   1.637  15.254  0.5922 -0.2306 -1.1387
  270TMC3    C3 4080   2.489   1.515  15.204  0.0602 -0.0016 -0.1136
  270TMC3    C4 4081   2.755   1.557  15.268 -0.5403  0.1212 -0.1894
  270TMC3    C5 4082   2.708   1.436  15.219  0.0049  0.2751  0.4719
  270TMC3    C6 4083   2.580   1.411  15.181  0.0506 -0.1934 -0.1208
  270TMC3     C 4084   2.702   1.796  15.296  0.5487  0.7710  0.5693
  270TMC3     O 4085   2.616   1.882  15.276 -0.1847  0.3621 -0.3953
  270TMC3     H 4086   2.449   1.709  15.262  1.0240  0.0538  0.6708
  270TMC3    H1 4087   2.858   1.570  15.301 -1.0862 -0.0929  1.5666
  270TMC3    H2 4088   2.550   1.314  15.143 -1.7042  0.4001 -0.2841
  270TMC3    C7 4089   2.806   1.337  15.194  0.0845  0.7029  0.1423
  270TMC3    C8 4090   2.347   1.490  15.189 -0.4801  0.2116 -0.2990
  270TMC3    O1 4091   2.906   1.344  15.262  0.1078 -0.4806 -0.3064
  270TMC3    O2 4092   2.264   1.541  15.263 -0.0134  0.6373  0.4324
  271MPD2     C 4093   1.431   1.581  13.786  0.7016  0.1414  0.1146
  271MPD2    C1 4094   1.386   1.535  13.906  0.0572 -0.6318 -0.1736
  271MPD2    C2 4095   1.257   1.568  13.942  0.5103  0.1856 -0.4755
  271MPD2    C3 4096   1.165   1.633  13.859 -0.5078 -0.0160 -0.0021
  271MPD2    C4 4097   1.211   1.666  13.728 -0.1119 -0.3972 -0.2924
  271MPD2    C5 4098   1.343   1.647  13.702  0.5233 -0.0493  0.0170
  271MPD2     H 4099   1.228   1.528  14.039  1.9157  0.6991  0.1562
  271MPD2    H1 4100   1.145   1.714  13.658  0.5243 -1.8984 -1.9299
  271MPD2    H2 4101   1.531   1.560  13.750  0.5706  0.0186 -0.1774
  271MPD2    H3 4102   1.377   1.678  13.604  1.0861  0.8966  0.5106
  271MPD2     N 4103   1.024   1.654  13.882 -0.2922  0.2572 -0.2365
  271MPD2    H5 4104   0.974   1.708  13.811  0.9920  1.5724 -0.1476
  271MPD2    N1 4105   1.474   1.469  13.999 -0.1957 -0.3955  0.0865
  271MPD2    H7 4106   1.429   1.438  14.085 -0.0311 -1.6736 -0.2889
  272TMC3    C1 4107   1.656   1.330  14.077  0.0624 -0.5836  0.1078
  272TMC3    C2 4108   1.777   1.275  14.043  0.7631 -0.1032  0.6923
  272TMC3    C3 4109   1.867   1.260  14.146 -0.4702 -0.2500  0.1217
  272TMC3    C4 4110   1.623   1.357  14.203 -0.4845 -0.0759 -0.2240
  272TMC3    C5 4111   1.719   1.336  14.301 -0.5092 -0.1706  0.2614
  272TMC3    C6 4112   1.840   1.299  14.272  0.4366  0.8512  0.4279
  272TMC3     C 4113   1.596   1.408  13.966 -0.0298 -0.6958  0.8696
  272TMC3     O 4114   1.667   1.428  13.868  0.0955  0.2247 -0.0527
  272TMC3     H 4115   1.808   1.239  13.945 -1.7661  0.8901 -0.4987
  272TMC3    H1 4116   1.536   1.414  14.233 -0.7529 -2.0643  2.7443
  272TMC3    H2 4117   1.912   1.286  14.352 -0.6383  2.6169  1.6738
  272TMC3    C7 4118   1.677   1.368  14.435 -0.5377 -0.5526 -0.1161
  272TMC3    C8 4119   1.993   1.190  14.111 -0.3640  0.1063  0.0554
  272TMC3    O1 4120   1.558   1.345  14.458 -0.5143 -0.1296  0.0035
  272TMC3    O2 4121   2.025   1.190  13.994  0.2996 -0.1268  0.2450
  273MPD2     C 4122   3.132   3.927  11.923  0.2374 -0.1013  0.6808
  273MPD2    C1 4123   3.196   4.042  11.883  0.2333 -0.0452 -0.9306
  273MPD2    C2 4124   3.234   4.056  11.750  0.6757 -0.5693  0.5054
  273MPD2    C3 4125   3.210   3.954  11.655  0.0976 -0.1500  0.4431
  273MPD2    C4 4126   3.151   3.837  11.696 -0.3278  0.5333 -0.4092
  273MPD2    C5 4127   3.116   3.824  11.837  0.3130 -0.3637  0.1712
  273MPD2     H 4128   3.263   4.152  11.711 -0.7970 -0.2640  0.1827
  273MPD2    H1 4129   3.138   3.747  11.638  0.8453  0.9571 -1.3314
  273MPD2    H2 4130   3.112   3.909  12.028 -1.8543  1.8229  0.6099
  273MPD2    H3 4131   3.064   3.736  11.874  0.8306 -0.6710  0.1709
  273MPD2     N 4132   3.243   3.975  11.522 -0.3237 -0.3873 -0.1849
  273MPD2    H5 4133   3.189   3.926  11.451 -0.7426  0.8976 -0.7601
  273MPD2    N1 4134   3.222   4.148  11.968  0.3491  0.0837  0.1153
  273MPD2    H7 4135   3.173   4.156  12.057 -0.0346  3.3429 -0.4125
  274TMC3    C1 4136   3.323   4.108  11.348  0.6318  1.1085 -0.7742
  274TMC3    C2 4137   3.235   4.044  11.257  0.0247  0.2384 -0.7628
  274TMC3    C3 4138   3.179   4.127  11.164 -0.2884  0.4844  0.5393
  274TMC3    C4 4139   3.346   4.243  11.337  0.7384 -0.0154  0.2152
  274TMC3    C5 4140   3.286   4.322  11.243 -0.5737  0.2403 -0.0145
  274TMC3    C6 4141   3.199   4.265  11.156  0.0682  0.9310  0.4271
  274TMC3     C 4142   3.339   4.062  11.483  0.4274 -0.0576 -1.2984
  274TMC3     O 4143   3.431   4.112  11.551 -0.7739  0.1657  0.2255
  274TMC3     H 4144   3.217   3.937  11.256 -0.1055  0.2898 -4.3085
  274TMC3    H1 4145   3.412   4.286  11.411  0.0575  0.8299  0.3287
  274TMC3    H2 4146   3.123   4.320  11.101  0.1440 -0.8581 -1.4711
  274TMC3    C7 4147   3.289   4.466  11.253 -0.7246  0.6715  0.6652
  274TMC3    C8 4148   3.094   4.070  11.069 -0.0186 -0.6460  0.2582
  274TMC3    O1 4149   3.191   4.524  11.209 -0.1418 -0.6371 -0.1130
  274TMC3    O2 4150   3.026   3.970  11.099  0.1109 -0.1247 -0.2234
  275MPD2     C 4151   3.222   2.734  14.062  0.1358 -0.4003  0.0703
  275MPD2    C1 4152   3.265   2.655  14.166  0.1677 -0.4860  0.3315
  275MPD2    C2 4153   3.171   2.591  14.249  0.4495 -0.4054 -0.2052
  275MPD2    C3 4154   3.034   2.616  14.235 -1.2513  0.0494 -0.4783
  275MPD2    C4 4155   2.994   2.702  14.136  0.3355 -0.3812  0.1179
  275MPD2    C5 4156   3.087   2.754  14.049 -0.2348 -0.3150 -0.4905
  275MPD2     H 4157   3.216   2.525  14.322  0.5578 -0.8537 -0.6766
  275MPD2    H1 4158   2.890   2.727  14.121  0.4709  0.0109 -0.1747
  275MPD2    H2 4159   3.280   2.796  13.994 -0.2000 -1.9896 -1.6721
  275MPD2    H3 4160   3.040   2.806  13.967  0.0316 -0.6792 -0.8767
  275MPD2     N 4161   2.943   2.549  14.322  0.5346 -0.1086 -0.6753
  275MPD2    H5 4162   2.843   2.568  14.314  0.4746 -0.1841 -0.0960
  275MPD2    N1 4163   3.399   2.620  14.197 -0.3027 -0.8834  0.2298
  275MPD2    H7 4164   3.426   2.563  14.276  3.0168 -1.9681 -1.7214
  276TMC3    C1 4165   3.634   2.591  14.179 -1.1052 -0.3091 -0.3558
  276TMC3    C2 4166   3.632   2.499  14.281 -0.3399 -0.4932 -0.2841
  276TMC3    C3 4167   3.744   2.439  14.320  0.2737 -0.0835  0.2288
  276TMC3    C4 4168   3.754   2.622  14.112  0.0420 -0.5767  0.4448
  276TMC3    C5 4169   3.871   2.568  14.163 -0.9291 -0.7387  0.2058
  276TMC3    C6 4170   3.860   2.472  14.262 -0.4159  0.1371 -0.0826
  276TMC3     C 4171   3.508   2.655  14.127  0.2470 -0.7355 -0.0980
  276TMC3     O 4172   3.516   2.742  14.041 -0.0581  0.2209 -0.3291
  276TMC3     H 4173   3.538   2.479  14.332 -0.1046 -0.3700  0.1967
  276TMC3    H1 4174   3.757   2.679  14.020 -0.4509 -2.1153 -0.5120
  276TMC3    H2 4175   3.950   2.422  14.295  0.6748  1.1156 -1.6101
  276TMC3    C7 4176   3.980   2.658  14.176 -0.1215 -0.2492 -0.2122
  276TMC3    C8 4177   3.762   2.461  14.465  0.4039 -0.1618 -0.4632
  276TMC3    O1 4178   4.013   2.728  14.077  0.6086  0.0226 -0.0157
  276TMC3    O2 4179   3.826   2.561  14.502  0.1159 -0.2009  0.4893
  277MPD2     C 4180   0.353   1.329  13.513 -0.1346  0.2391 -0.1603
  277MPD2    C1 4181   0.225   1.275  13.482 -0.5646  0.1316  0.3981
  277MPD2    C2 4182   0.159   1.204  13.584 -0.4499  0.1622 -0.7768
  277MPD2    C3 4183   0.211   1.179  13.706 -0.0173 -0.2101  0.6562
  277MPD2    C4 4184   0.342   1.224  13.725  0.2437  0.0935 -0.8602
  277MPD2    C5 4185   0.412   1.296  13.633 -0.4327  1.0597  0.3467
  277MPD2     H 4186   0.055   1.179  13.565 -0.2482 -0.6058 -0.8477
  277MPD2    H1 4187   0.397   1.210  13.817 -1.5710  0.0832  0.2364
  277MPD2    H2 4188   0.406   1.383  13.435 -4.0717  0.1885 -2.8742
  277MPD2    H3 4189   0.513   1.329  13.652  0.9808 -2.4288 -1.2042
  277MPD2     N 4190   0.128   1.123  13.805  0.1357  0.3246  0.0922
  277MPD2    H5 4191   0.032   1.098  13.783  0.4754  1.8030 -3.1616
  277MPD2    N1 4192   0.165   1.299  13.355 -0.5703  0.7773  0.0344
  277MPD2    H7 4193   0.194   1.375  13.295  1.0602  2.3879  2.8881
  278TMC3    C1 4194   0.086   0.991  13.985 -0.9945 -0.5770  0.3951
  278TMC3    C2 4195   0.044   0.871  13.932 -0.5731  0.1588  0.6367
  278TMC3    C3 4196   4.640   0.824  13.950  0.0597 -0.0649  0.5270
  278TMC3    C4 4197   4.721   1.068  14.052  0.9133 -0.4813 -0.0081
  278TMC3    C5 4198   4.594   1.026  14.061  0.2869  0.1396  0.2925
  278TMC3    C6 4199   4.551   0.903  14.016 -0.5221 -0.0203 -0.2830
  278TMC3     C 4200   0.185   1.067  13.915  0.3569  0.6285 -1.0401
  278TMC3     O 4201   0.305   1.038  13.940 -0.1284  0.4278  0.4365
  278TMC3     H 4202   0.116   0.814  13.875  0.3720  1.2138  0.7723
  278TMC3    H1 4203   0.029   1.160  14.102  0.8962  0.3783 -1.5632
  278TMC3    H2 4204   4.454   0.867  14.048 -0.7344  1.0802  0.3057
  278TMC3    C7 4205   4.506   1.091  14.155 -0.7177  0.1492  0.0137
  278TMC3    C8 4206   4.613   0.679  13.924  1.3486 -0.2108 -0.0428
  278TMC3    O1 4207   4.572   1.141  14.243 -0.0143 -0.0751 -0.8723
  278TMC3    O2 4208   4.713   0.608  13.923 -0.6797 -0.6673  0.5618
  279MPD2     C 4209   3.832   1.264   0.112 -0.1944  0.0010  1.2504
  279MPD2    C1 4210   3.871   1.395   0.141  1.0320  0.3280 -1.6189
  279MPD2    C2 4211   3.933   1.468   0.040 -0.5075  0.0259  0.5959
  279MPD2    C3 4212   3.926   1.439  17.593  0.0054 -0.2342  0.0372
  279MPD2    C4 4213   3.866   1.319  17.571  0.3050  0.5102  0.1041
  279MPD2    C5 4214   3.837   1.224  17.670  0.2706 -0.5089  0.0380
  279MPD2     H 4215   3.989   1.558   0.062  0.2253 -0.2731 -0.0192
  279MPD2    H1 4216   3.859   1.286  17.468 -2.4744 -1.7733  1.0410
  279MPD2    H2 4217   3.777   1.206   0.184 -2.8557 -0.1167 -0.8794
  279MPD2    H3 4218   3.796   1.128  17.640 -0.8894  0.3128 -1.0078
  279MPD2     N 4219   3.974   1.515  17.485 -0.6905 -0.3524 -0.0222
  279MPD2    H5 4220   3.938   1.484  17.396 -1.8809 -1.5248  0.8639
  279MPD2    N1 4221   3.874   1.439   0.279 -0.0091 -0.1902 -0.5402
  279MPD2    H7 4222   3.835   1.377   0.350 -1.3016  2.6993  1.2528
  280TMC3    C1 4223   3.948   1.559   0.480 -0.2455  0.6538 -0.1539
  280TMC3    C2 4224   3.861   1.486   0.562  0.5884  0.2789  0.1179
  280TMC3    C3 4225   3.858   1.516   0.693 -0.3888 -0.5059 -0.8299
  280TMC3    C4 4226   4.032   1.652   0.532  0.1847 -0.2613  0.9038
  280TMC3    C5 4227   4.029   1.667   0.664 -0.5168 -0.3279 -0.9235
  280TMC3    C6 4228   3.942   1.606   0.747 -0.2735  0.6109  0.3900
  280TMC3     C 4229   3.940   1.554   0.332 -0.6168  0.7099 -0.3365
  280TMC3     O 4230   4.005   1.640   0.275  0.8287  0.4920 -0.1815
  280TMC3     H 4231   3.790   1.419   0.515 -1.2646  2.0662  0.3438
  280TMC3    H1 4232   4.089   1.714   0.463 -0.6023 -0.1626  0.3361
  280TMC3    H2 4233   3.929   1.645   0.847  0.1476  0.1565  0.6237
  280TMC3    C7 4234   4.037   1.811   0.695  0.5930  1.0177 -0.3993
  280TMC3    C8 4235   3.761   1.462   0.782 -0.5657  0.6964  0.0068
  280TMC3    O1 4236   4.126   1.836   0.776 -0.1326  0.1966  0.1549
  280TMC3    O2 4237   3.759   1.503   0.897 -0.2934  0.9290  0.6008
  281TMC3    C1 4238   2.730   1.820  13.328 -0.2447 -0.5330 -0.3008
  281TMC3    C2 4239   2.798   1.891  13.239 -0.2368  0.3950 -0.2665
  281TMC3    C3 4240   2.810   1.832  13.114 -0.8350  0.3164 -0.5638
  281TMC3    C4 4241   2.693   1.691  13.318  0.7859 -0.7291  0.2277
  281TMC3    C5 4242   2.711   1.634  13.191 -0.5093 -0.5669  0.1750
  281TMC3    C6 4243   2.776   1.699  13.093  0.2153  0.5726  1.0596
  281TMC3     C 4244   2.659   1.894  13.429 -0.3366 -0.0983  0.1245
  281TMC3     O 4245   2.635   1.845  13.540  0.0150 -0.5255  0.3668
  281TMC3     H 4246   2.816   1.997  13.252  0.7320  0.0385  1.3264
  281TMC3    H1 4247   2.640   1.645  13.400 -0.8451  3.0010  1.2462
  281TMC3    H2 4248   2.784   1.654  12.995 -2.7825 -0.3522  1.2358
  281TMC3    C7 4249   2.634   1.512  13.157 -0.2060  0.0694  0.1194
  281TMC3    C8 4250   2.806   1.916  12.995 -0.4601 -0.2997 -0.5776
  281TMC3    O1 4251   2.566   1.515  13.057  0.3137 -0.3236  0.6161
  281TMC3    O2 4252   2.762   1.874  12.887  0.1135  0.3653 -0.0761
  282MPD2     C 4253   0.007   3.327  14.979 -0.5451  0.0328 -0.5027
  282MPD2    C1 4254   4.600   3.371  15.001  0.1420  0.1122 -0.4714
  282MPD2    C2 4255   4.505   3.372  14.896 -1.7095 -0.3350 -0.1795
  282MPD2    C3 4256   4.547   3.345  14.769  0.2192 -0.2131  1.0476
  282MPD2    C4 4257   4.674   3.294  14.748  0.0848  0.2888  0.1932
  282MPD2    C5 4258   0.039   3.279  14.859  0.3323  0.2424 -0.2014
  282MPD2     H 4259   4.402   3.396  14.918 -1.6932  0.8175 -1.3828
  282MPD2    H1 4260   4.709   3.262  14.651  1.2273  1.6876  0.1554
  282MPD2    H2 4261   0.075   3.313  15.063 -0.8874 -1.0982 -0.4110
  282MPD2    H3 4262   0.138   3.237  14.847  0.2779  0.3226 -0.9416
  282MPD2     N 4263   4.449   3.339  14.669 -0.1579  0.1566 -0.2933
  282MPD2    H5 4264   4.361   3.382  14.696 -0.8539 -0.8622 -0.9601
  282MPD2    N1 4265   4.550   3.383  15.133  0.7042  0.4927 -0.5739
  282MPD2    H7 4266   4.456   3.420  15.130 -0.0093 -1.1069  2.0812
  283TMC3    C1 4267   4.506   3.323  15.359  0.2942 -0.3159  0.5723
  283TMC3    C2 4268   4.410   3.416  15.374  0.0302  0.0713 -0.7093
  283TMC3    C3 4269   4.345   3.425  15.497  0.4014  0.0997 -0.0811
  283TMC3    C4 4270   4.529   3.234  15.457 -0.4155 -0.2460  0.4380
  283TMC3    C5 4271   4.448   3.233  15.568 -0.3088  0.7582 -0.0978
  283TMC3    C6 4272   4.357   3.332  15.592  0.1344 -0.6388 -0.7345
  283TMC3     C 4273   4.598   3.323  15.245  0.2313  0.4802  0.4586
  283TMC3     O 4274   4.702   3.253  15.257  0.0039 -0.4977  0.3565
  283TMC3     H 4275   4.406   3.489  15.295 -2.2239 -1.6204 -2.1831
  283TMC3    H1 4276   4.597   3.153  15.433 -0.6787 -0.2905 -0.1674
  283TMC3    H2 4277   4.291   3.333  15.679  2.5648  1.7384  1.0796
  283TMC3    C7 4278   4.418   3.102  15.622  0.5874 -0.1014  0.2401
  283TMC3    C8 4279   4.318   3.558  15.560  0.2217 -0.7525  0.3533
  283TMC3    O1 4280   4.304   3.085  15.664  0.4339 -0.3653 -0.1187
  283TMC3    O2 4281   4.264   3.575  15.670 -0.7801  0.1210 -0.4966
  284MPD2     C 4282   2.924   2.205  12.429 -0.3363 -0.0144 -0.1644
  284MPD2    C1 4283   2.873   2.158  12.311 -0.2886 -0.3187 -0.3957
  284MPD2    C2 4284   2.747   2.090  12.310  0.4001  0.4218 -0.0800
  284MPD2    C3 4285   2.688   2.060  12.431 -0.7158  1.0957  1.0643
  284MPD2    C4 4286   2.739   2.103  12.546 -0.1594  0.4749 -0.0530
  284MPD2    C5 4287   2.850   2.187  12.547 -0.4279  0.5783  0.6467
  284MPD2     H 4288   2.696   2.055  12.221  1.7192  1.8290 -1.3697
  284MPD2    H1 4289   2.688   2.066  12.635  0.5254  0.2049  0.2227
  284MPD2    H2 4290   3.008   2.273  12.436 -0.1331 -0.2073 -0.7224
  284MPD2    H3 4291   2.898   2.229  12.634  2.4782 -2.0181  0.3261
  284MPD2     N 4292   2.575   1.976  12.441  0.4865 -0.5178  0.1543
  284MPD2    H5 4293   2.540   1.966  12.535  0.8061  1.0950  0.4466
  284MPD2    N1 4294   2.944   2.164  12.187  0.1824 -0.3005  0.1288
  284MPD2    H7 4295   2.887   2.126  12.112  0.0217  0.9129 -0.3715
  285TMC3    C1 4296   3.116   2.223  12.027  0.5723 -0.2813  0.1615
  285TMC3    C2 4297   3.031   2.236  11.921 -0.0970  0.0181 -1.2771
  285TMC3    C3 4298   3.094   2.249  11.798  0.1783  0.0504 -0.5886
  285TMC3    C4 4299   3.251   2.202  12.015 -0.4161  0.2930  0.1422
  285TMC3    C5 4300   3.302   2.225  11.889 -0.0918  0.0154 -0.1521
  285TMC3    C6 4301   3.227   2.242  11.775  0.1029  0.1392 -0.4333
  285TMC3     C 4302   3.073   2.205  12.168  0.1583 -0.2420 -0.4055
  285TMC3     O 4303   3.165   2.198  12.249 -0.2754  0.2386  0.6787
  285TMC3     H 4304   2.924   2.238  11.941  0.1597  2.7089 -0.1652
  285TMC3    H1 4305   3.313   2.185  12.102  1.6114 -1.9751 -1.7239
  285TMC3    H2 4306   3.275   2.238  11.678 -2.4919 -1.3559 -1.6705
  285TMC3    C7 4307   3.435   2.283  11.887  0.2736  0.0592  0.3301
  285TMC3    C8 4308   3.013   2.224  11.682 -0.2769 -0.2841  0.0490
  285TMC3    O1 4309   3.512   2.258  11.978 -0.3862  0.1969 -0.2995
  285TMC3    O2 4310   3.062   2.227  11.568  0.6336 -0.3262  0.0100
  286MPD2     C 4311   3.110   1.454   1.688  0.6399  0.1204  0.8251
  286MPD2    C1 4312   3.097   1.424   1.554 -0.2404  0.4935 -0.3952
  286MPD2    C2 4313   3.189   1.340   1.499  0.5332 -0.0832  0.2955
  286MPD2    C3 4314   3.288   1.280   1.569  0.7518 -0.9154 -0.4197
  286MPD2    C4 4315   3.302   1.306   1.702 -0.2501 -0.3296  0.4922
  286MPD2    C5 4316   3.213   1.387   1.767  0.0354 -0.4888 -0.2809
  286MPD2     H 4317   3.182   1.331   1.391 -1.1546  0.4580  0.3626
  286MPD2    H1 4318   3.384   1.265   1.760 -0.2506 -1.6501 -0.4310
  286MPD2    H2 4319   3.047   1.526   1.740  0.3696  2.0272 -2.1386
  286MPD2    H3 4320   3.227   1.401   1.874  0.9883 -1.2498 -0.3090
  286MPD2     N 4321   3.372   1.179   1.516 -0.1163 -0.1148 -0.7967
  286MPD2    H5 4322   3.440   1.140   1.581 -0.6733 -0.7090 -0.5702
  286MPD2    N1 4323   3.002   1.481   1.460 -0.4393  0.1401 -0.3372
  286MPD2    H7 4324   3.022   1.462   1.362  0.4601 -0.6054 -0.0112
  287TMC3    C1 4325   3.454   1.014   1.370  0.2752 -0.3280 -0.2685
  287TMC3    C2 4326   3.434   0.951   1.252 -0.2371  0.0410 -0.0984
  287TMC3    C3 4327   3.540   0.899   1.179 -0.1030  0.0870 -0.4423
  287TMC3    C4 4328   3.577   1.021   1.433  0.3648  0.0354 -0.3235
  287TMC3    C5 4329   3.680   0.962   1.364  0.1838 -0.6332  0.9010
  287TMC3    C6 4330   3.665   0.906   1.235  0.0299  0.2463  0.0459
  287TMC3     C 4331   3.357   1.118   1.396  0.1426 -0.0840  0.1546
  287TMC3     O 4332   3.273   1.143   1.309 -0.2156  0.4407  0.1687
  287TMC3     H 4333   3.332   0.942   1.218 -0.3395 -0.6107  0.3777
  287TMC3    H1 4334   3.603   1.069   1.527 -0.9457 -1.2644  0.7114
  287TMC3    H2 4335   3.741   0.856   1.177  0.4335  1.7286 -0.7121
  287TMC3    C7 4336   3.804   0.969   1.439 -0.0840  0.7736  0.7330
  287TMC3    C8 4337   3.525   0.843   1.048 -0.0717  0.3552  0.2827
  287TMC3    O1 4338   3.808   1.000   1.560  0.3373 -0.2895 -0.2629
  287TMC3    O2 4339   3.430   0.769   1.021 -0.5349  0.4399  0.4712
  288TMC3    C1 4340   0.291   0.959  14.614  0.3221 -0.5821  0.5783
  288TMC3    C2 4341   0.259   0.958  14.745  0.0021 -0.2617 -0.5391
  288TMC3    C3 4342   0.233   1.078  14.807  0.1951 -0.2785 -0.1732
  288TMC3    C4 4343   0.297   1.069  14.537  0.5058  0.1692 -0.1012
  288TMC3    C5 4344   0.277   1.185  14.607 -0.2948 -0.1658  0.2323
  288TMC3    C6 4345   0.244   1.191  14.738 -0.1230 -0.2536  0.4903
  288TMC3     C 4346   0.318   0.830  14.552 -0.0220  0.2386 -0.2298
  288TMC3     O 4347   0.362   0.745  14.630  0.3829  0.1785 -0.1915
  288TMC3     H 4348   0.258   0.867  14.804 -0.2619  1.7242  2.5298
  288TMC3    H1 4349   0.338   1.071  14.436  1.2056  1.8322  0.2154
  288TMC3    H2 4350   0.219   1.282  14.792  3.0884  0.6585  0.4514
  288TMC3    C7 4351   0.273   1.312  14.536  0.0635 -0.1729  0.1008
  288TMC3    C8 4352   0.147   1.084  14.918  0.3654  0.6456 -1.0324
  288TMC3    O1 4353   0.249   1.406  14.605 -0.1182 -0.0275  0.0376
  288TMC3    O2 4354   0.161   1.184  14.987 -0.1827  0.1107  0.2057
  289MPD2     C 4355   0.478   4.630  14.611 -0.2401 -0.0337  0.0518
  289MPD2    C1 4356   0.463   0.043  14.639 -0.5177  0.4869  0.9047
  289MPD2    C2 4357   0.380   0.125  14.556  0.2076 -0.4300  0.6784
  289MPD2    C3 4358   0.314   0.064  14.452  0.3283 -0.1302 -0.0949
  289MPD2    C4 4359   0.340   4.651  14.424  0.5619  0.6838 -0.2263
  289MPD2    C5 4360   0.416   4.574  14.506 -0.1063  0.6226 -0.2361
  289MPD2     H 4361   0.367   0.232  14.569 -1.2691 -0.5206 -0.0660
  289MPD2    H1 4362   0.297   4.601  14.338 -0.4021  0.0054  0.6516
  289MPD2    H2 4363   0.539   4.570  14.677 -0.3062  1.7382  1.7396
  289MPD2    H3 4364   0.428   4.468  14.483  0.2584  0.1325  2.1790
  289MPD2     N 4365   0.221   0.123  14.367 -0.7379  0.3944  0.0381
  289MPD2    H5 4366   0.185   0.083  14.281  1.5897  0.6389 -1.0547
  289MPD2    N1 4367   0.549   0.091  14.738 -0.3841  0.3085 -0.7489
  289MPD2    H7 4368   0.587   0.016  14.795 -1.7693 -1.6965 -2.4529
  290TMC3    C1 4369   0.032   0.248  14.304  0.4728 -0.1075  0.9173
  290TMC3    C2 4370   4.701   0.377  14.297  0.0400 -0.5680  0.7046
  290TMC3    C3 4371   4.569   0.379  14.259 -0.6134  0.4714  0.0468
  290TMC3    C4 4372   4.684   0.132  14.275  0.1456 -0.2609  0.2831
  290TMC3    C5 4373   4.558   0.138  14.237 -0.6412  0.0313  0.8262
  290TMC3    C6 4374   4.501   0.268  14.221  0.0901  0.1030  0.8143
  290TMC3     C 4375   0.154   0.240  14.388  0.3095  0.3007  0.1035
  290TMC3     O 4376   0.177   0.325  14.476  0.0132  0.1024  0.5851
  290TMC3     H 4377   0.033   0.465  14.330  1.1742 -0.6418 -0.9604
  290TMC3    H1 4378   0.003   0.038  14.311 -1.6717 -0.5296  1.6052
  290TMC3    H2 4379   4.393   0.280  14.220  0.0391 -0.3253  1.0169
  290TMC3    C7 4380   4.457   0.039  14.285  0.2056 -0.0203 -0.4996
  290TMC3    C8 4381   4.493   0.503  14.253  0.1991 -0.6802 -0.1121
  290TMC3    O1 4382   4.348   0.083  14.321 -0.4588  0.1589  0.1014
  290TMC3    O2 4383   4.402   0.502  14.174  0.4510 -0.2309 -0.1997
  291MPD2     C 4384   4.000   0.346   0.502  0.3035 -0.2023 -0.5598
  291MPD2    C1 4385   3.985   0.243   0.409 -0.1005  0.8060  0.2420
  291MPD2    C2 4386   4.012   0.272   0.278 -0.4587 -0.1017 -0.0637
  291MPD2    C3 4387   4.057   0.398   0.238  0.1579  0.2346  0.3558
  291MPD2    C4 4388   4.077   0.495   0.327 -0.3476 -0.1212 -0.6932
  291MPD2    C5 4389   4.050   0.470   0.456 -0.6916  0.5902 -0.0030
  291MPD2     H 4390   3.988   0.193   0.209  0.4083 -0.5588  0.1661
  291MPD2    H1 4391   4.109   0.592   0.289  0.4540 -0.2356 -0.3210
  291MPD2    H2 4392   3.983   0.329   0.607  1.1139 -1.4204 -0.6198
  291MPD2    H3 4393   4.058   0.546   0.533 -0.6734 -0.7173  1.2885
  291MPD2     N 4394   4.079   0.426   0.102  0.5857  0.0539  0.1575
  291MPD2    H5 4395   4.144   0.499   0.077 -0.7268  0.8153 -1.0123
  291MPD2    N1 4396   3.941   0.114   0.452 -0.0330 -0.8161  0.2745
  291MPD2    H7 4397   3.933   0.048   0.374 -0.9315  0.1298 -0.4321
  292TMC3    C1 4398   3.889   4.647   0.596 -0.0161 -0.2323 -0.1110
  292TMC3    C2 4399   3.867   4.595   0.725 -0.2961  0.3716  0.1218
  292TMC3    C3 4400   3.826   4.465   0.738  0.3446 -0.3394  0.0390
  292TMC3    C4 4401   3.864   4.568   0.483 -0.2711  0.7934 -0.4519
  292TMC3    C5 4402   3.834   4.433   0.506 -0.2240  0.2065 -0.8049
  292TMC3    C6 4403   3.810   4.382   0.632  0.2173  0.1773  0.2106
  292TMC3     C 4404   3.921   0.070   0.584  0.5685  0.0952  0.7802
  292TMC3     O 4405   3.941   0.131   0.690 -0.3183  0.8661  0.4418
  292TMC3     H 4406   3.892   4.663   0.806 -0.9152  0.9519 -0.1705
  292TMC3    H1 4407   3.879   4.608   0.384 -1.1802 -2.2436 -1.8231
  292TMC3    H2 4408   3.791   4.278   0.659  1.4851 -0.4818 -1.4292
  292TMC3    C7 4409   3.827   4.342   0.392  0.4269  0.1133 -0.4070
  292TMC3    C8 4410   3.814   4.419   0.870  0.0796  0.1954  0.8081
  292TMC3    O1 4411   3.888   4.375   0.290  0.1749 -1.1273 -0.4396
  292TMC3    O2 4412   3.879   4.487   0.950 -0.2755 -0.5732  0.9494
  293MPD2     C 4413   0.967   1.366  12.480 -0.0541  0.1001  0.6180
  293MPD2    C1 4414   0.875   1.334  12.578  0.2193 -0.3234 -0.2900
  293MPD2    C2 4415   0.908   1.348  12.716  0.9331  0.5039  0.4313
  293MPD2    C3 4416   1.031   1.401  12.752 -0.0544 -0.0715 -0.1431
  293MPD2    C4 4417   1.115   1.437  12.646 -0.9293 -0.2386  0.1567
  293MPD2    C5 4418   1.089   1.425  12.511 -0.1954  0.1334 -0.7847
  293MPD2     H 4419   0.842   1.303  12.789  0.3829  1.2588  0.4071
  293MPD2    H1 4420   1.209   1.489  12.662 -0.2890 -1.0315 -0.9675
  293MPD2    H2 4421   0.936   1.385  12.378 -2.3729 -2.9033  0.7544
  293MPD2    H3 4422   1.156   1.463  12.434  0.2363  0.2399 -0.3574
  293MPD2     N 4423   1.084   1.417  12.875 -0.0618 -0.5980 -0.7668
  293MPD2    H5 4424   1.171   1.469  12.879 -0.3546 -0.3102  1.8889
  293MPD2    N1 4425   0.748   1.288  12.523 -0.3541  0.3727 -0.1969
  293MPD2    H7 4426   0.738   1.282  12.422  1.6515 -1.6070 -0.2668
  294TMC3    C1 4427   0.514   1.225  12.522  0.1315  0.8411  0.1068
  294TMC3    C2 4428   0.453   1.111  12.555 -0.0456 -0.2359 -0.0503
  294TMC3    C3 4429   0.331   1.079  12.491  0.8005 -0.1265 -0.2324
  294TMC3    C4 4430   0.471   1.309  12.425  0.0598  0.1949 -0.5233
  294TMC3    C5 4431   0.363   1.269  12.356 -0.2855  0.4975 -0.8552
  294TMC3    C6 4432   0.293   1.155  12.385 -0.5427 -0.4711  0.8161
  294TMC3     C 4433   0.641   1.255  12.598 -0.1414  0.5650 -0.1129
  294TMC3     O 4434   0.629   1.249  12.721 -0.1295 -0.5202  0.5829
  294TMC3     H 4435   0.480   1.054  12.643  0.5003  1.1735  0.6869
  294TMC3    H1 4436   0.518   1.402  12.396 -2.5671  1.1769 -1.6688
  294TMC3    H2 4437   0.208   1.133  12.323  0.3137  0.3499 -0.6615
  294TMC3    C7 4438   0.352   1.300  12.215  0.2909  0.7050  0.3730
  294TMC3    C8 4439   0.293   0.937  12.494 -0.2722  0.2265  0.0733
  294TMC3    O1 4440   0.262   1.250  12.152  0.0368  0.3374 -0.0935
  294TMC3    O2 4441   0.277   0.887  12.601 -0.2400  0.4165  0.2316
  295MPD2     C 4442   0.677   4.128  17.643 -0.2394  0.0142  0.1057
  295MPD2    C1 4443   0.778   4.210  17.589 -0.5145 -0.1020  0.2864
  295MPD2    C2 4444   0.859   4.284  17.681 -0.3367  0.6076  0.0676
  295MPD2    C3 4445   0.848   4.267   0.129  0.3523  0.0592  0.1019
  295MPD2    C4 4446   0.755   4.176   0.172 -0.2437  0.1918 -0.2499
  295MPD2    C5 4447   0.667   4.113   0.086  0.9376  0.4461  0.4029
  295MPD2     H 4448   0.930   4.360  17.652 -0.9301 -0.3003 -3.7487
  295MPD2    H1 4449   0.756   4.150   0.277 -0.7227  0.3745 -0.1984
  295MPD2    H2 4450   0.622   4.068  17.571 -0.7700 -0.3291  0.8004
  295MPD2    H3 4451   0.590   4.049   0.127  1.0181  2.1206  3.1827
  295MPD2     N 4452   0.918   4.347   0.229 -0.0256  0.2067  0.0293
  295MPD2    H5 4453   0.895   4.312   0.321  0.9677  0.5879  0.4231
  295MPD2    N1 4454   0.796   4.219  17.446 -0.4026 -0.3494 -0.4349
  295MPD2    H7 4455   0.725   4.179  17.386 -1.1137  0.1203  0.1034
  296TMC3    C1 4456   1.077   4.486   0.335 -0.1347 -0.9900 -0.0975
  296TMC3    C2 4457   1.211   4.492   0.355 -0.4595  0.3854  0.1757
  296TMC3    C3 4458   1.261   4.520   0.479  0.1998 -0.3132  0.2669
  296TMC3    C4 4459   0.991   4.507   0.435  0.7855 -0.5597  0.6665
  296TMC3    C5 4460   1.036   4.527   0.568  0.5544  0.5156 -0.0151
  296TMC3    C6 4461   1.174   4.544   0.583  0.5775  0.6589 -0.0488
  296TMC3     C 4462   1.022   4.434   0.213 -0.5798 -0.0122 -0.4183
  296TMC3     O 4463   1.086   4.460   0.111  0.0747  0.2169  0.1852
  296TMC3     H 4464   1.276   4.487   0.269  0.3456  1.4182  0.7113
  296TMC3    H1 4465   0.884   4.497   0.421  1.0338  1.6255 -2.6633
  296TMC3    H2 4466   1.215   4.575   0.679 -0.6553 -1.9540  1.3375
  296TMC3    C7 4467   0.942   4.507   0.672 -0.0816 -0.6838 -0.5834
  296TMC3    C8 4468   1.404   4.552   0.486  0.2180 -0.5713 -0.3301
  296TMC3    O1 4469   0.830   4.487   0.630  0.4528  0.0631 -0.6617
  296TMC3    O2 4470   1.458   4.570   0.377  0.1936  0.4148 -0.0822
  297MPD2     C 4471   4.100   2.211  16.840 -0.2370  0.4538  0.2579
  297MPD2    C1 4472   4.084   2.194  16.708  0.0572  0.7469  0.9242
  297MPD2    C2 4473   4.104   2.297  16.616 -1.4052  0.0697 -0.3273
  297MPD2    C3 4474   4.101   2.424  16.658  0.0234  0.6043  0.3017
  297MPD2    C4 4475   4.097   2.452  16.789  0.1050  0.3025  0.2757
  297MPD2    C5 4476   4.096   2.342  16.877 -0.3747 -0.1128  0.1682
  297MPD2     H 4477   4.093   2.276  16.511 -0.4677  1.2103 -0.6516
  297MPD2    H1 4478   4.072   2.546  16.836  3.6817  1.1319  0.5327
  297MPD2    H2 4479   4.077   2.132  16.911  0.9670 -0.0274  0.1151
  297MPD2    H3 4480   4.083   2.359  16.983 -0.5238  0.6361  0.0270
  297MPD2     N 4481   4.098   2.524  16.560  0.0664 -0.1541  0.4360
  297MPD2    H5 4482   4.096   2.496  16.462  2.4590  1.5256 -0.0982
  297MPD2    N1 4483   4.041   2.071  16.656  0.3045 -0.1449  0.9242
  297MPD2    H7 4484   4.018   2.066  16.558  1.1356 -0.0482  0.7311
  298TMC3    C1 4485   3.882   1.899  16.658  0.5090  1.0366  0.9316
  298TMC3    C2 4486   3.845   1.780  16.708  0.6251 -0.1904 -0.1392
  298TMC3    C3 4487   3.721   1.743  16.658  0.4915  0.6421  0.1360
  298TMC3    C4 4488   3.804   1.980  16.585  0.4434 -0.6493 -0.3782
  298TMC3    C5 4489   3.681   1.937  16.553 -0.6039  0.1000  0.4784
  298TMC3    C6 4490   3.638   1.816  16.586 -0.1385  0.0722  0.1575
  298TMC3     C 4491   3.976   1.974  16.733 -0.8170 -0.0501 -0.3651
  298TMC3     O 4492   3.982   1.951  16.850 -0.2289  0.3535  0.0630
  298TMC3     H 4493   3.915   1.722  16.768 -1.7763 -2.2233  0.7169
  298TMC3    H1 4494   3.826   2.083  16.557  3.0687 -0.5889  1.9197
  298TMC3    H2 4495   3.543   1.771  16.557 -0.3002 -0.6471  1.8263
  298TMC3    C7 4496   3.586   2.030  16.494 -0.2775  0.2374  0.0848
  298TMC3    C8 4497   3.662   1.608  16.684  0.3982 -1.1000 -0.1782
  298TMC3    O1 4498   3.471   2.013  16.518 -0.1363  0.5035 -0.1304
  298TMC3    O2 4499   3.564   1.578  16.618 -0.1352  0.5004 -0.1745
  299MPD2     C 4500   4.331   1.748   9.919 -0.2103 -0.0892  0.2910
  299MPD2    C1 4501   4.305   1.744  10.057  0.0869 -0.5451  0.5901
  299MPD2    C2 4502   4.177   1.713  10.108  0.3288 -0.1061 -0.0451
  299MPD2    C3 4503   4.070   1.700  10.021  0.6599  0.5603  0.0783
  299MPD2    C4 4504   4.098   1.712   9.883 -0.0849 -0.2339  0.2381
  299MPD2    C5 4505   4.220   1.735   9.833 -0.1783 -0.3952  0.0476
  299MPD2     H 4506   4.170   1.696  10.215 -0.5797  2.6313  0.3294
  299MPD2    H1 4507   4.014   1.707   9.814  1.0262 -0.1692 -1.1263
  299MPD2    H2 4508   4.432   1.768   9.885 -0.0768 -1.3443 -0.0579
  299MPD2    H3 4509   4.237   1.747   9.727 -0.4861  2.6446  0.3222
  299MPD2     N 4510   3.934   1.686  10.066 -0.1661 -0.3734  0.4564
  299MPD2    H5 4511   3.860   1.714  10.003 -0.4518  0.0458  0.9750
  299MPD2    N1 4512   4.413   1.767  10.138  0.1565 -0.4797  0.9626
  299MPD2    H7 4513   4.508   1.772  10.102  0.0607 -0.4927  0.7061
  300TMC3    C1 4514   3.775   1.626  10.242  0.0778  0.5934  0.6804
  300TMC3    C2 4515   3.717   1.748  10.243  0.2917 -0.6512 -0.4925
  300TMC3    C3 4516   3.613   1.776  10.330  0.2391 -0.4053  0.2196
  300TMC3    C4 4517   3.732   1.531  10.334  0.1950  0.4258 -0.4739
  300TMC3    C5 4518   3.623   1.557  10.415  0.6374 -0.0554 -0.2757
  300TMC3    C6 4519   3.561   1.685  10.419 -0.0631  0.8040 -0.0430
  300TMC3     C 4520   3.912   1.616  10.189 -0.2221 -0.6073  0.5480
  300TMC3     O 4521   3.995   1.557  10.256 -0.7739  0.5067 -0.9010
  300TMC3     H 4522   3.757   1.829  10.183  0.6457  0.0287  0.6487
  300TMC3    H1 4523   3.795   1.443  10.343 -0.6805 -0.4540 -2.9425
  300TMC3    H2 4524   3.481   1.715  10.486 -2.1766 -0.8668 -1.8435
  300TMC3    C7 4525   3.578   1.450  10.507 -0.1166 -0.0895 -0.4669
  300TMC3    C8 4526   3.582   1.917  10.351  0.1563  0.1535 -0.1864
  300TMC3    O1 4527   3.653   1.352  10.502 -0.2090  0.0097  0.2149
  300TMC3    O2 4528   3.574   1.987  10.249 -0.1917  0.4481 -0.2006
  301MPD2     C 4529   1.537   2.688   1.817 -0.0339  0.3001  0.4732
  301MPD2    C1 4530   1.471   2.650   1.699 -0.0555 -0.4904 -0.0210
  301MPD2    C2 4531   1.497   2.526   1.641  0.5344 -0.3777 -0.4324
  301MPD2    C3 4532   1.578   2.434   1.710 -0.9117  0.0721  0.3920
  301MPD2    C4 4533   1.645   2.480   1.827 -1.0811 -0.5360  0.1480
  301MPD2    C5 4534   1.627   2.602   1.875  0.7419 -0.2878  0.6623
  301MPD2     H 4535   1.455   2.498   1.545  0.5317  2.2139 -1.1919
  301MPD2    H1 4536   1.713   2.410   1.875 -0.6985 -1.7373 -2.1099
  301MPD2    H2 4537   1.526   2.786   1.862 -0.0909  0.6854 -0.3839
  301MPD2    H3 4538   1.686   2.624   1.963 -0.6193 -3.3738  2.3182
  301MPD2     N 4539   1.606   2.301   1.665 -0.6681  0.4949  0.3693
  301MPD2    H5 4540   1.685   2.255   1.707 -2.5179 -1.5370  1.6396
  301MPD2    N1 4541   1.401   2.749   1.624 -0.3119 -0.1113 -0.5577
  301MPD2    H7 4542   1.394   2.734   1.524  2.1416 -1.6914 -0.5141
  302TMC3    C1 4543   1.604   2.110   1.541 -0.5529 -0.2510  0.2382
  302TMC3    C2 4544   1.720   2.071   1.600 -0.2222 -0.0452  0.3707
  302TMC3    C3 4545   1.768   1.940   1.593  0.4003 -0.0413 -0.3821
  302TMC3    C4 4546   1.542   2.025   1.452  0.2818 -0.6468  0.3372
  302TMC3    C5 4547   1.600   1.898   1.426 -0.0554 -0.6809  0.8050
  302TMC3    C6 4548   1.704   1.853   1.500 -0.5727 -0.3482  0.0235
  302TMC3     C 4549   1.542   2.242   1.563  0.0778  0.6215  0.0843
  302TMC3     O 4550   1.441   2.277   1.505  0.2491  0.4990 -0.2536
  302TMC3     H 4551   1.782   2.138   1.659 -0.0380 -0.0690  0.2079
  302TMC3    H1 4552   1.451   2.053   1.401  0.1425 -0.1117  0.8905
  302TMC3    H2 4553   1.736   1.750   1.485  0.0207  0.4438 -4.1205
  302TMC3    C7 4554   1.564   1.827   1.300 -0.3954 -0.8853 -0.0037
  302TMC3    C8 4555   1.884   1.908   1.667  0.1117 -0.2279 -0.8756
  302TMC3    O1 4556   1.622   1.728   1.270 -0.1997 -0.2565 -0.1626
  302TMC3    O2 4557   1.960   2.000   1.707  0.0162 -0.3208  0.0870
  303MPD2     C 4558   1.607   0.668  10.579 -0.1509  0.2903  0.4451
  303MPD2    C1 4559   1.556   0.678  10.455  0.1895  0.5409  0.1491
  303MPD2    C2 4560   1.622   0.762  10.366 -0.3168 -0.3624 -0.8731
  303MPD2    C3 4561   1.743   0.820  10.396 -0.5277 -0.6248 -0.1567
  303MPD2    C4 4562   1.793   0.803  10.522 -0.1724  0.4054  0.0601
  303MPD2    C5 4563   1.726   0.723  10.612  0.4388 -0.3242 -0.8136
  303MPD2     H 4564   1.587   0.765  10.264 -1.6801 -0.4277 -0.4029
  303MPD2    H1 4565   1.887   0.851  10.548  1.1448 -2.2311  0.1280
  303MPD2    H2 4566   1.556   0.618  10.661 -1.3447  2.6658  1.1472
  303MPD2    H3 4567   1.770   0.709  10.710 -0.4227 -3.4584 -0.8499
  303MPD2     N 4568   1.814   0.913  10.310  0.3414  0.3264 -0.2749
  303MPD2    H5 4569   1.896   0.959  10.347  1.2077  0.3446 -2.1869
  303MPD2    N1 4570   1.442   0.600  10.428  0.8288  0.3166  0.2901
  303MPD2    H7 4571   1.394   0.551  10.503  1.1329  0.6414  0.6976
  304TMC3    C1 4572   1.294   0.471  10.298  0.8360 -0.0613  0.8002
  304TMC3    C2 4573   1.239   0.459  10.171  0.7749 -0.2287  0.4103
  304TMC3    C3 4574   1.213   0.335  10.118  0.5780 -0.3579  0.3346
  304TMC3    C4 4575   1.322   0.357  10.367 -0.4064 -0.0200 -0.0157
  304TMC3    C5 4576   1.310   0.233  10.305 -0.5063 -1.4857 -0.0177
  304TMC3    C6 4577   1.248   0.228  10.190 -0.5991  0.1907  0.2313
  304TMC3     C 4578   1.407   0.559  10.304 -0.7637  0.8254 -0.6624
  304TMC3     O 4579   1.457   0.596  10.194 -1.0126  0.3953  0.0986
  304TMC3     H 4580   1.214   0.548  10.115  0.5861 -1.4283 -1.4278
  304TMC3    H1 4581   1.399   0.352  10.443  0.0229  5.1746 -0.0677
  304TMC3    H2 4582   1.204   0.134  10.157  2.8548 -0.8019 -1.5446
  304TMC3    C7 4583   1.425   0.144  10.316 -0.8522 -0.2494 -0.6802
  304TMC3    C8 4584   1.282   0.315   9.987 -0.2388 -0.2840  0.6176
  304TMC3    O1 4585   1.480   0.141  10.427  0.3126  0.0307 -0.0842
  304TMC3    O2 4586   1.345   0.211   9.978 -0.2157  0.6851  0.2100
  305MPD2     C 4587   4.418   2.983  13.985  0.2640 -0.0737  0.4604
  305MPD2    C1 4588   4.498   3.077  13.927  0.1559  0.3092  0.3065
  305MPD2    C2 4589   4.487   3.101  13.791  0.2108 -0.9002 -0.4762
  305MPD2    C3 4590   4.398   3.027  13.717  0.2103  0.4356 -0.3513
  305MPD2    C4 4591   4.324   2.923  13.775 -0.6399 -0.0813  0.3731
  305MPD2    C5 4592   4.338   2.899  13.910 -0.2499  0.1787  0.3635
  305MPD2     H 4593   4.556   3.174  13.751 -0.2562 -0.1272  0.1153
  305MPD2    H1 4594   4.260   2.861  13.713 -0.8132  0.1840  0.2908
  305MPD2    H2 4595   4.423   2.971  14.093 -0.4273 -3.4288  0.1253
  305MPD2    H3 4596   4.276   2.824  13.957  1.1002 -1.0100  0.2759
  305MPD2     N 4597   4.389   3.029  13.576  0.3635 -0.2167  0.1263
  305MPD2    H5 4598   4.317   2.964  13.543  1.3819 -0.6790 -1.1995
  305MPD2    N1 4599   4.589   3.141  14.014  0.9256  0.4091  0.5001
  305MPD2    H7 4600   4.599   3.113  14.111 -0.0400 -0.4197  0.3509
  306TMC3    C1 4601   0.012   3.302  14.095  0.8404 -0.6779  0.8018
  306TMC3    C2 4602   0.093   3.204  14.153 -0.7340 -0.2546  0.0516
  306TMC3    C3 4603   0.134   3.235  14.279 -0.9806 -0.0306 -0.3009
  306TMC3    C4 4604   4.699   3.423  14.159 -0.2530  0.3397  0.3775
  306TMC3    C5 4605   0.019   3.433  14.288  0.1663  0.4549  0.2033
  306TMC3    C6 4606   0.100   3.343  14.354 -0.1467  0.1846  0.3754
  306TMC3     C 4607   4.660   3.261  13.983  0.0081  0.0581 -0.3803
  306TMC3     O 4608   4.662   3.340  13.889 -0.2913 -0.0280 -0.1362
  306TMC3     H 4609   0.122   3.116  14.096 -1.3873 -0.1637 -0.4328
  306TMC3    H1 4610   4.620   3.481  14.112  0.5387  0.5396 -0.7320
  306TMC3    H2 4611   0.113   3.336  14.462  1.5144  1.7615  0.2883
  306TMC3    C7 4612   4.669   3.535  14.364 -0.1482  0.4475 -0.0886
  306TMC3    C8 4613   0.253   3.156  14.315 -0.6265  0.2400  0.0130
  306TMC3    O1 4614   4.567   3.585  14.315 -0.1420  0.1104 -0.2210
  306TMC3    O2 4615   0.257   3.040  14.278  0.1351 -0.6971 -0.1140
  307MPD2     C 4616   1.905   0.293   0.854 -0.3294 -0.2576  0.5432
  307MPD2    C1 4617   1.907   0.390   0.946 -0.3958 -0.0593  0.5131
  307MPD2    C2 4618   1.782   0.442   0.980  0.0551  0.6751  0.0528
  307MPD2    C3 4619   1.665   0.405   0.920 -0.5815  0.0700  0.3383
  307MPD2    C4 4620   1.668   0.307   0.820  0.3321 -0.1929 -0.3317
  307MPD2    C5 4621   1.792   0.250   0.794  0.1429 -0.0238  0.5442
  307MPD2     H 4622   1.780   0.525   1.050  2.3930  0.5125  0.3117
  307MPD2    H1 4623   1.582   0.270   0.766  0.4638 -0.6209 -0.2486
  307MPD2    H2 4624   1.996   0.253   0.811 -0.2632  0.1418  0.3124
  307MPD2    H3 4625   1.800   0.184   0.709 -0.8925  0.6229 -0.0556
  307MPD2     N 4626   1.540   0.465   0.948 -0.3067  0.0640 -0.5771
  307MPD2    H5 4627   1.547   0.549   1.005 -1.5225  1.3075 -2.2685
  307MPD2    N1 4628   2.020   0.452   0.990 -0.1700  0.2202 -0.1727
  307MPD2    H7 4629   2.006   0.535   1.047 -0.2546  0.0841  0.0054
  308TMC3    C1 4630   1.085   0.593   0.902  0.0484  0.2303 -0.0748
  308TMC3    C2 4631   1.109   0.683   1.000 -0.6079 -0.4532  0.0231
  308TMC3    C3 4632   1.229   0.686   1.073 -0.3517  0.6153 -0.2264
  308TMC3    C4 4633   1.187   0.510   0.869  0.3914 -0.4060  0.0778
  308TMC3    C5 4634   1.304   0.520   0.937 -0.2476  0.7954  0.2192
  308TMC3    C6 4635   1.327   0.594   1.046 -0.4171 -0.2668 -0.3214
  308TMC3     C 4636   1.025   0.638   0.774  0.2894 -0.4007 -0.2338
  308TMC3     O 4637   0.968   0.551   0.713 -0.0917 -0.0287  0.6001
  308TMC3     H 4638   1.029   0.750   1.028 -0.5840  0.9172 -3.1212
  308TMC3    H1 4639   1.168   0.440   0.789  2.3975 -0.6024 -0.2201
  308TMC3    H2 4640   1.416   0.581   1.107 -1.4496 -0.8879  1.0326
  308TMC3    C7 4641   1.413   0.429   0.903  0.2724 -0.0798  0.2842
  308TMC3    C8 4642   1.250   0.791   1.165 -0.9435  0.0346  0.0680
  308TMC3    O1 4643   1.380   0.328   0.845 -0.0885  0.2934 -0.4538
  308TMC3    O2 4644   1.148   0.832   1.224 -1.0646 -0.1016 -0.7243
  309MPD2     C 4645   1.471   1.185  17.088  0.4094  0.3802  0.1224
  309MPD2    C1 4646   1.477   1.281  16.992  0.2234  0.1892  0.1691
  309MPD2    C2 4647   1.388   1.383  16.981 -0.2051 -0.2892  0.2725
  309MPD2    C3 4648   1.298   1.408  17.085  0.8647  0.3309 -0.3542
  309MPD2    C4 4649   1.287   1.309  17.188 -0.2244  0.3015 -0.0184
  309MPD2    C5 4650   1.368   1.197  17.177  0.0965 -0.2285 -0.1147
  309MPD2     H 4651   1.398   1.456  16.902 -1.0277 -0.6578 -0.1676
  309MPD2    H1 4652   1.211   1.309  17.265  0.5471  2.0524  0.7372
  309MPD2    H2 4653   1.531   1.095  17.097 -0.0785 -0.0123 -0.5145
  309MPD2    H3 4654   1.363   1.124  17.258  2.0427  1.3853  1.4520
  309MPD2     N 4655   1.224   1.529  17.097 -0.6950 -0.0876 -0.1852
  309MPD2    H5 4656   1.172   1.547  17.182 -0.1879  0.4032  0.0183
  309MPD2    N1 4657   1.581   1.289  16.897  0.0406  0.4128 -0.1292
  309MPD2    H7 4658   1.555   1.351  16.820 -0.3864  0.2480 -0.1198
  310TMC3    C1 4659   1.799   1.240  16.807  0.6187  0.6562  0.8854
  310TMC3    C2 4660   1.760   1.321  16.701  0.7206  0.0152 -0.3836
  310TMC3    C3 4661   1.860   1.352  16.608  0.3900  0.5897 -0.6672
  310TMC3    C4 4662   1.923   1.182  16.819 -0.6821  0.1951  0.1451
  310TMC3    C5 4663   2.016   1.210  16.721 -0.1212 -0.0574  0.1401
  310TMC3    C6 4664   1.987   1.304  16.623  0.2634  0.0827 -1.1518
  310TMC3     C 4665   1.699   1.225  16.916 -0.5902 -0.2342 -0.6071
  310TMC3     O 4666   1.739   1.178  17.021 -0.4602  0.2046  0.0455
  310TMC3     H 4667   1.657   1.356  16.691  0.9975  1.0617  0.4237
  310TMC3    H1 4668   1.937   1.097  16.885 -0.9530  1.3100  1.6500
  310TMC3    H2 4669   2.063   1.338  16.555  0.4983  1.4442 -0.1944
  310TMC3    C7 4670   2.142   1.138  16.725 -0.2210  0.1670 -0.1513
  310TMC3    C8 4671   1.819   1.412  16.481 -0.3535  0.0314  0.0630
  310TMC3    O1 4672   2.131   1.029  16.773  0.7751 -0.4815 -0.2971
  310TMC3    O2 4673   1.717   1.473  16.481 -0.3162 -0.1895 -0.7138
  311MPD2     C 4674   3.721   2.886  12.783  0.4476  0.2189  0.0716
  311MPD2    C1 4675   3.706   3.014  12.723 -0.7350  0.2360 -0.3552
  311MPD2    C2 4676   3.584   3.082  12.738  0.6062 -0.5172 -0.8113
  311MPD2    C3 4677   3.478   3.017  12.808  0.2118 -0.1738  0.3188
  311MPD2    C4 4678   3.495   2.896  12.861  0.5221  0.0528  0.5853
  311MPD2    C5 4679   3.613   2.831  12.857 -0.6112  0.2741  0.4597
  311MPD2     H 4680   3.571   3.179  12.691  2.5376  0.1355  0.0316
  311MPD2    H1 4681   3.421   2.848  12.925 -3.7159  3.8680 -1.4251
  311MPD2    H2 4682   3.806   2.820  12.769  0.5374  0.2746  0.3531
  311MPD2    H3 4683   3.629   2.735  12.905 -1.2248 -0.4504 -0.7868
  311MPD2     N 4684   3.356   3.083  12.821 -0.1434  0.9353  0.3859
  311MPD2    H5 4685   3.353   3.178  12.788 -0.0726  0.8812  0.2244
  311MPD2    N1 4686   3.807   3.070  12.637 -0.1174  0.2412 -0.1269
  311MPD2    H7 4687   3.788   3.160  12.594 -0.4967  0.5758  0.7517
  312TMC3    C1 4688   3.133   3.125  12.869  0.2604 -0.6338 -0.8084
  312TMC3    C2 4689   3.012   3.081  12.806  0.9573  0.6280  0.3614
  312TMC3    C3 4690   2.918   3.171  12.772 -0.2273 -0.3985 -0.0772
  312TMC3    C4 4691   3.146   3.254  12.899  0.0890  0.3564 -0.0699
  312TMC3    C5 4692   3.057   3.344  12.852 -0.3710  0.1551 -0.0080
  312TMC3    C6 4693   2.941   3.304  12.791  0.3370  0.2058  0.0348
  312TMC3     C 4694   3.241   3.036  12.882  0.1626 -0.4363 -0.0296
  312TMC3     O 4695   3.211   2.926  12.928  0.4349 -0.4550 -0.4364
  312TMC3     H 4696   2.989   2.977  12.786  0.7965  0.4411  1.5159
  312TMC3    H1 4697   3.238   3.283  12.948  0.2729 -0.5968  0.1463
  312TMC3    H2 4698   2.869   3.376  12.755 -1.2995 -0.2199  2.5086
  312TMC3    C7 4699   3.053   3.479  12.895  0.6407  0.4302  0.4546
  312TMC3    C8 4700   2.794   3.119  12.714  0.3866  0.1943  0.0090
  312TMC3    O1 4701   2.985   3.559  12.827  0.4098 -0.0120  0.1752
  312TMC3    O2 4702   2.766   3.005  12.746 -0.5197  0.0703  0.0322
  313MPD2     C 4703   3.169   1.886  10.691 -0.0639 -0.0666 -0.0113
  313MPD2    C1 4704   3.199   1.979  10.596 -0.1649 -0.5313  0.6901
  313MPD2    C2 4705   3.223   1.933  10.463 -0.2236 -0.1138 -0.1611
  313MPD2    C3 4706   3.227   1.795  10.435 -0.3005  0.7128  0.3791
  313MPD2    C4 4707   3.211   1.708  10.537 -0.7309  0.2201 -0.2796
  313MPD2    C5 4708   3.174   1.750  10.662 -0.5897 -0.0936  0.2239
  313MPD2     H 4709   3.239   2.011  10.389 -0.0658 -0.3178 -0.3431
  313MPD2    H1 4710   3.213   1.602  10.514 -1.9215  0.3191 -0.8902
  313MPD2    H2 4711   3.139   1.920  10.790 -0.6529 -0.2452 -0.1287
  313MPD2    H3 4712   3.150   1.689  10.748  1.1788 -0.1899  0.6365
  313MPD2     N 4713   3.245   1.752  10.299  0.6184 -0.4438  0.3120
  313MPD2    H5 4714   3.245   1.833  10.238 -0.4117  0.8762  2.0467
  313MPD2    N1 4715   3.205   2.111  10.625  0.5141 -0.3183  0.9466
  313MPD2    H7 4716   3.210   2.163  10.538 -0.3590  0.9752  1.6827
  314TMC3    C1 4717   3.204   2.313  10.725  0.2719  0.5124  0.3168
  314TMC3    C2 4718   3.270   2.387  10.816  0.0953  0.0058 -0.4230
  314TMC3    C3 4719   3.289   2.519  10.780  0.3637  0.5982 -0.6075
  314TMC3    C4 4720   3.159   2.362  10.607 -0.1548  0.1393 -0.0377
  314TMC3    C5 4721   3.172   2.495  10.580  0.1259 -0.5098 -0.7065
  314TMC3    C6 4722   3.242   2.577  10.660 -0.2814  0.2485  0.2772
  314TMC3     C 4723   3.198   2.170  10.746  0.4061 -0.1081  0.1296
  314TMC3     O 4724   3.200   2.118  10.857 -0.5744  0.3328 -0.8770
  314TMC3     H 4725   3.317   2.339  10.901  2.1624  2.0003 -0.4245
  314TMC3    H1 4726   3.090   2.306  10.546  2.1091 -1.5894 -0.9969
  314TMC3    H2 4727   3.238   2.685  10.645 -1.8018 -0.0067 -1.1086
  314TMC3    C7 4728   3.118   2.543  10.460  0.1930  0.1174 -0.4207
  314TMC3    C8 4729   3.352   2.615  10.869  0.5350 -0.0588  0.0656
  314TMC3    O1 4730   3.011   2.491  10.425  0.2563 -0.1839  0.3638
  314TMC3    O2 4731   3.344   2.730  10.825 -0.0999 -0.3711  0.1428
  315MPD2     C 4732   3.209   1.845   0.135 -0.4946  0.3817 -0.6151
  315MPD2    C1 4733   3.260   1.910   0.247  0.7116  0.1246  0.2174
  315MPD2    C2 4734   3.363   2.006   0.222  0.0888  0.5018 -0.1808
  315MPD2    C3 4735   3.394   2.039   0.092  0.3360 -0.0664 -0.5861
  315MPD2    C4 4736   3.328   1.980  17.673 -0.0243 -0.1378 -0.5074
  315MPD2    C5 4737   3.241   1.879   0.009  0.0628 -1.4445  0.5377
  315MPD2     H 4738   3.412   2.054   0.306 -1.2969 -0.3736  1.1218
  315MPD2    H1 4739   3.334   2.020  17.573 -1.2288  1.7830  0.1950
  315MPD2    H2 4740   3.130   1.771   0.146  1.8166 -1.5835  2.8367
  315MPD2    H3 4741   3.198   1.829  17.612  0.4475  1.1843 -1.1970
  315MPD2     N 4742   3.492   2.140   0.086 -0.3778  0.9113 -0.5156
  315MPD2    H5 4743   3.510   2.188   0.173  1.4583 -0.9060  0.0962
  315MPD2    N1 4744   3.234   1.884   0.379  0.1828  0.5153 -0.0645
  315MPD2    H7 4745   3.281   1.942   0.448  0.5559  1.3381 -1.0086
  316TMC3    C1 4746   3.633   2.299   0.001 -0.4474 -0.5603  0.1347
  316TMC3    C2 4747   3.705   2.288   0.115  0.0841 -1.0849 -0.2391
  316TMC3    C3 4748   3.796   2.383   0.143 -0.3015  0.2343  0.1635
  316TMC3    C4 4749   3.644   2.402  17.596  0.2631  0.3336 -0.3051
  316TMC3    C5 4750   3.733   2.497  17.632 -0.1192 -0.4691  0.4144
  316TMC3    C6 4751   3.814   2.489   0.058 -0.1087  0.1751  0.3449
  316TMC3     C 4752   3.546   2.197  17.658  0.4211 -0.0892  0.2907
  316TMC3     O 4753   3.515   2.173  17.544 -0.3265  0.4165 -0.0456
  316TMC3     H 4754   3.687   2.203   0.180  1.0556  0.4152  1.9655
  316TMC3    H1 4755   3.578   2.399  17.510 -1.9112  0.7207  1.3574
  316TMC3    H2 4756   3.872   2.574   0.092  1.4294 -1.1680  1.1153
  316TMC3    C7 4757   3.752   2.623  17.545 -0.8255  0.7040  0.9701
  316TMC3    C8 4758   3.864   2.382   0.272 -0.0909  0.9481  0.5116
  316TMC3    O1 4759   3.813   2.717  17.597  0.3833 -0.1699  0.3577
  316TMC3    O2 4760   3.932   2.475   0.312 -0.0594 -0.1228 -0.0778
  317MPD2     C 4761   4.205   0.053  12.721  0.8151  1.0788  0.6119
  317MPD2    C1 4762   4.312   4.709  12.663 -0.5041  0.6337 -0.1436
  317MPD2    C2 4763   4.424   4.686  12.738 -0.6398 -0.1088 -0.2425
  317MPD2    C3 4764   4.440   0.020  12.861  1.2863  0.0064  0.0697
  317MPD2    C4 4765   4.334   0.092  12.916 -0.5980 -0.0608  1.3187
  317MPD2    C5 4766   4.217   0.099  12.844  0.9076  0.2287  0.1129
  317MPD2     H 4767   4.512   4.636  12.700  0.5585  2.2853 -0.6323
  317MPD2    H1 4768   4.334   0.138  13.014 -3.4883 -0.3903  1.4644
  317MPD2    H2 4769   4.112   0.067  12.668  0.2188  1.1276  1.6715
  317MPD2    H3 4770   4.134   0.165  12.867 -1.8439 -2.9260 -0.7770
  317MPD2     N 4771   4.548   4.707  12.936  0.8663 -0.2167 -0.0677
  317MPD2    H5 4772   4.620   4.654  12.888  2.2525 -0.1446  1.8949
  317MPD2    N1 4773   4.303   4.643  12.533  0.1998  0.1380  0.4191
  317MPD2    H7 4774   4.389   4.609  12.491 -0.3581  0.0163 -0.6122
  318TMC3    C1 4775   4.664   4.639  13.127 -0.3877  0.6680  0.1841
  318TMC3    C2 4776   4.628   4.553  13.229  0.1649  0.0789 -0.4903
  318TMC3    C3 4777   4.701   4.445  13.255 -0.1976 -0.0858 -0.6127
  318TMC3    C4 4778   0.047   4.611  13.046  0.1083 -0.7212  0.2307
  318TMC3    C5 4779   0.135   4.511  13.094 -0.2444  1.1811 -0.2198
  318TMC3    C6 4780   0.100   4.435  13.199 -0.2805 -0.2881  0.4816
  318TMC3     C 4781   4.565   0.004  13.072  0.1854 -0.4791 -0.5793
  318TMC3     O 4782   4.488   0.050  13.155 -0.0951  0.0738  0.2788
  318TMC3     H 4783   4.535   4.576  13.279 -0.1009 -0.5897 -0.6702
  318TMC3    H1 4784   0.081   4.689  12.979  0.2854 -0.2946  0.8175
  318TMC3    H2 4785   0.155   4.341  13.201 -0.0257 -0.1872 -1.5654
  318TMC3    C7 4786   0.262   4.494  13.014 -0.1537  0.5032  1.1207
  318TMC3    C8 4787   4.627   4.326  13.254  0.9500 -0.0771  0.2944
  318TMC3    O1 4788   0.264   4.539  12.903 -0.0634  0.0592 -0.0431
  318TMC3    O2 4789   4.679   4.221  13.286 -0.0469  0.6777 -0.0441
  319MPD2     C 4790   1.115   1.155  16.078  0.7555  0.0079  0.7571
  319MPD2    C1 4791   1.078   1.151  16.209  0.5879  0.2344  0.2813
  319MPD2    C2 4792   0.969   1.225  16.249  0.1259 -0.0558  0.1462
  319MPD2    C3 4793   0.892   1.283  16.156  0.4940 -0.5469  0.1607
  319MPD2    C4 4794   0.930   1.294  16.022 -0.3737  0.0285 -0.1393
  319MPD2    C5 4795   1.045   1.232  15.988  0.0538  0.3122  0.4113
  319MPD2     H 4796   0.946   1.217  16.355  0.7704 -1.0331  0.2135
  319MPD2    H1 4797   0.868   1.341  15.946 -0.9387 -1.7600 -0.7812
  319MPD2    H2 4798   1.212   1.116  16.048 -0.3393 -1.5496 -0.7646
  319MPD2    H3 4799   1.082   1.257  15.890  0.7997  3.6841  1.5672
  319MPD2     N 4800   0.765   1.337  16.181 -0.4217 -0.1758  0.3469
  319MPD2    H5 4801   0.714   1.374  16.102  2.0842 -1.3126 -1.7844
  319MPD2    N1 4802   1.149   1.091  16.311 -0.0639 -0.3720  0.0105
  319MPD2    H7 4803   1.131   1.124  16.405  1.1984 -3.8839  1.4834
  320TMC3    C1 4804   0.565   1.384  16.266 -0.6272  0.7696 -0.1515
  320TMC3    C2 4805   0.532   1.489  16.183  0.3786  0.0616 -0.0436
  320TMC3    C3 4806   0.406   1.490  16.124  0.5019 -0.4753 -0.2188
  320TMC3    C4 4807   0.468   1.296  16.302 -0.1646 -0.5221 -0.2710
  320TMC3    C5 4808   0.335   1.304  16.255  0.4926  0.4530 -0.4148
  320TMC3    C6 4809   0.307   1.398  16.159 -0.4467  0.1301 -0.4927
  320TMC3     C 4810   0.697   1.346  16.297  0.5207 -0.1300  0.3601
  320TMC3     O 4811   0.724   1.296  16.403  0.0539 -0.0204  0.5813
  320TMC3     H 4812   0.611   1.559  16.156 -0.3209 -0.1341 -2.5477
  320TMC3    H1 4813   0.507   1.209  16.354  0.8069 -0.0811 -0.2525
  320TMC3    H2 4814   0.212   1.388  16.108 -0.8003 -0.0323  0.2051
  320TMC3    C7 4815   0.277   1.165  16.247  0.0504  0.2615  0.8208
  320TMC3    C8 4816   0.389   1.589  16.015  0.3352 -0.3981 -0.2726
  320TMC3    O1 4817   0.234   1.127  16.137 -0.8435 -0.4822 -0.5609
  320TMC3    O2 4818   0.469   1.679  16.019  0.4580  0.1556  0.4391
  321TMC3    C1 4819   1.322   0.961  16.403 -0.5865  0.2935 -0.6594
  321TMC3    C2 4820   1.266   1.008  16.523  0.4101 -0.4003  0.1668
  321TMC3    C3 4821   1.352   1.062  16.616 -0.1247 -0.2590 -0.0158
  321TMC3    C4 4822   1.453   0.948  16.387 -0.6898 -0.1254  0.5807
  321TMC3    C5 4823   1.542   1.000  16.480 -0.3672 -0.1348  0.4803
  321TMC3    C6 4824   1.484   1.062  16.596 -0.2434 -0.7185 -0.0322
  321TMC3     C 4825   1.250   0.999  16.286  0.2893  0.1765  0.5394
  321TMC3     O 4826   1.270   0.932  16.188 -0.1960  0.2894 -0.4450
  321TMC3     H 4827   1.160   1.014  16.542  0.4324  1.6070 -0.3292
  321TMC3    H1 4828   1.485   0.910  16.290 -1.5179  1.9408 -0.4893
  321TMC3    H2 4829   1.557   1.114  16.658 -0.4373  1.0262 -1.2626
  321TMC3    C7 4830   1.640   0.897  16.518  0.1099 -0.3467 -0.2628
  321TMC3    C8 4831   1.320   1.023  16.751  0.0775  0.0733 -0.9475
  321TMC3    O1 4832   1.716   0.849  16.438 -0.0148  0.7179  0.5302
  321TMC3    O2 4833   1.426   0.991  16.805  0.3407  0.1464  0.1547
  322MPD2     C 4834   4.290   2.460  14.155 -0.4129 -0.4254 -0.0312
  322MPD2    C1 4835   4.373   2.364  14.212 -0.9915  0.7328 -0.2763
  322MPD2    C2 4836   4.360   2.235  14.174 -0.3327 -0.2675 -0.4412
  322MPD2    C3 4837   4.276   2.196  14.071 -0.0978 -0.4447  0.3764
  322MPD2    C4 4838   4.195   2.288  14.008  0.3054  0.2592 -0.4044
  322MPD2    C5 4839   4.203   2.415  14.052 -0.4959 -0.4503 -0.0132
  322MPD2     H 4840   4.422   2.156  14.214 -0.6684  1.0550  2.7162
  322MPD2    H1 4841   4.131   2.262  13.924 -0.1323 -1.0131  0.3187
  322MPD2    H2 4842   4.282   2.566  14.175  1.3146 -0.1097 -0.9642
  322MPD2    H3 4843   4.133   2.488  14.012  0.1250 -0.5340 -1.2775
  322MPD2     N 4844   4.285   2.059  14.023 -0.3571  0.3727  0.2815
  322MPD2    H5 4845   4.341   1.996  14.078  0.7268  1.5589  0.5398
  322MPD2    N1 4846   4.471   2.402  14.307 -0.3625  0.3380  0.1068
  322MPD2    H7 4847   4.486   2.499  14.332  0.2801  0.4680 -0.7585
  323TMC3    C1 4848   4.669   2.386  14.432 -0.0069 -0.1958  0.5318
  323TMC3    C2 4849   4.719   2.494  14.362  0.5259  0.0278  0.0598
  323TMC3    C3 4850   0.110   2.553  14.406  0.2821 -0.5427  0.5970
  323TMC3    C4 4851   0.015   2.338  14.545 -0.4011 -0.3051 -0.2542
  323TMC3    C5 4852   0.118   2.414  14.593  1.7990  0.6098  0.4011
  323TMC3    C6 4853   0.177   2.513  14.523 -0.2189  0.0651  0.1876
  323TMC3     C 4854   4.557   2.312  14.376  0.2152 -0.0811  0.1822
  323TMC3     O 4855   4.562   2.189  14.377 -0.2337  0.6511  0.4339
  323TMC3     H 4856   4.670   2.532  14.273 -1.6877  1.3210  1.8562
  323TMC3    H1 4857   4.705   2.244  14.588  1.1733 -0.2090  1.1062
  323TMC3    H2 4858   0.279   2.541  14.548 -0.2952  0.4588  0.0570
  323TMC3    C7 4859   0.209   2.357  14.689  0.2533 -0.4217  0.5167
  323TMC3    C8 4860   0.192   2.604  14.299 -0.3995 -0.6696 -0.4373
  323TMC3    O1 4861   0.213   2.236  14.689  0.6105  0.0262 -0.2174
  323TMC3    O2 4862   0.281   2.667  14.346 -0.3327 -0.4450  0.2043
  324MPD2     C 4863   1.334   3.451  13.941 -0.0779 -0.0972  0.1309
  324MPD2    C1 4864   1.295   3.383  14.060  0.4923 -0.3982 -0.5738
  324MPD2    C2 4865   1.186   3.296  14.048  0.4582 -0.0931 -1.1411
  324MPD2    C3 4866   1.138   3.260  13.927 -0.5481  0.5030  0.5177
  324MPD2    C4 4867   1.173   3.324  13.814 -0.3632 -0.8027 -0.4956
  324MPD2    C5 4868   1.274   3.421  13.821 -0.8333 -0.7908  0.2359
  324MPD2     H 4869   1.154   3.242  14.136 -0.6491  0.2902 -1.3203
  324MPD2    H1 4870   1.128   3.311  13.716  0.0662 -2.3491 -0.4882
  324MPD2    H2 4871   1.414   3.524  13.936 -0.1713  0.0038  0.1010
  324MPD2    H3 4872   1.306   3.462  13.726 -0.4683 -0.6168  0.4331
  324MPD2     N 4873   1.042   3.159  13.918 -0.3825 -0.0637 -0.2333
  324MPD2    H5 4874   1.003   3.113  14.000 -1.0088  0.6807 -0.1107
  324MPD2    N1 4875   1.359   3.403  14.188 -0.1641  0.1163 -0.3798
  324MPD2    H7 4876   1.334   3.342  14.265 -0.2356  0.2351 -0.3092
  325TMC3    C1 4877   0.872   3.033  13.820 -0.8703  0.4007 -0.8901
  325TMC3    C2 4878   0.839   2.939  13.724 -0.1439  1.0594  0.1305
  325TMC3    C3 4879   0.723   2.876  13.752 -0.1488 -0.0653 -0.2484
  325TMC3    C4 4880   0.790   3.072  13.921 -0.2378  0.2146 -0.3286
  325TMC3    C5 4881   0.673   3.006  13.933 -0.0955  0.5123 -0.4976
  325TMC3    C6 4882   0.639   2.914  13.845 -0.1465  0.2090 -0.3532
  325TMC3     C 4883   1.002   3.094  13.799 -0.2701 -0.4682 -0.5893
  325TMC3     O 4884   1.042   3.082  13.683  0.4550  0.0925  0.6660
  325TMC3     H 4885   0.908   2.903  13.649  0.0272 -3.0603  2.2677
  325TMC3    H1 4886   0.795   3.174  13.958 -0.3030 -0.2339  0.9389
  325TMC3    H2 4887   0.539   2.873  13.851  0.0582 -0.1497  0.7218
  325TMC3    C7 4888   0.559   3.071  13.983  0.6600  0.2928 -0.4202
  325TMC3    C8 4889   0.658   2.799  13.643 -0.6462  1.2245 -0.9447
  325TMC3    O1 4890   0.446   3.036  13.944  0.1185 -0.2104 -0.1292
  325TMC3    O2 4891   0.574   2.717  13.671 -0.0618 -0.0214  0.0671
  326MPD2     C 4892   2.503   4.421  11.311 -0.0046  0.1707  0.8884
  326MPD2    C1 4893   2.513   4.425  11.169  0.9458  0.1149  0.5140
  326MPD2    C2 4894   2.578   4.531  11.109 -0.3744  0.3090 -0.2488
  326MPD2    C3 4895   2.628   4.635  11.182  0.8169  0.0529  0.1753
  326MPD2    C4 4896   2.639   4.623  11.319 -0.2779  0.1438 -0.1182
  326MPD2    C5 4897   2.576   4.518  11.383  0.0628 -0.0305 -0.0677
  326MPD2     H 4898   2.583   4.527  11.001  1.5978 -2.4825 -0.0331
  326MPD2    H1 4899   2.696   4.690  11.382 -0.8534 -0.0914  0.6585
  326MPD2    H2 4900   2.443   4.341  11.354  0.8210 -0.8146  0.2053
  326MPD2    H3 4901   2.583   4.503  11.490 -1.3882  0.0661  0.0424
  326MPD2     N 4902   2.680   0.029  11.119 -0.1806  0.5992  0.2738
  326MPD2    H5 4903   2.731   0.093  11.179  2.3651 -0.4725 -0.7227
  326MPD2    N1 4904   2.451   4.326  11.083 -0.0109 -1.1815 -0.2017
  326MPD2    H7 4905   2.475   4.327  10.985  0.0080  1.3169 -0.1731
  327TMC3    C1 4906   2.312   4.147  11.017 -0.5669 -0.1114  0.2737
  327TMC3    C2 4907   2.199   4.186  10.945 -0.2590 -0.2441 -0.6198
  327TMC3    C3 4908   2.199   4.167  10.809  1.1082 -0.3160  0.2926
  327TMC3    C4 4909   2.422   4.090  10.957  0.8566  0.1812  0.0555
  327TMC3    C5 4910   2.420   4.064  10.820  0.8137  0.1415  0.2410
  327TMC3    C6 4911   2.311   4.104  10.748 -0.5718  0.1599  0.2581
  327TMC3     C 4912   2.359   4.240  11.123  0.1776  0.4280 -0.3137
  327TMC3     O 4913   2.289   4.244  11.221 -1.1754 -0.3230 -0.2913
  327TMC3     H 4914   2.123   4.248  10.991  0.6279  0.2314  0.2029
  327TMC3    H1 4915   2.507   4.079  11.023  0.8557  1.7117  0.3104
  327TMC3    H2 4916   2.327   4.126  10.643  1.5075  0.9110  0.7484
  327TMC3    C7 4917   2.541   4.048  10.739 -0.2082  0.6919 -0.0679
  327TMC3    C8 4918   2.142   4.274  10.727 -0.2320 -0.5434  0.0884
  327TMC3    O1 4919   2.536   4.025  10.619 -0.7118 -0.8620 -0.8521
  327TMC3    O2 4920   2.219   4.315  10.642  0.2393 -0.4821  0.4810
  328MPD2     C 4921   0.727   0.487  17.252  0.4130  0.0281 -1.0153
  328MPD2    C1 4922   0.634   0.418  17.173  0.2230 -0.5010 -0.2328
  328MPD2    C2 4923   0.565   0.491  17.075  0.9729  0.8319 -0.5619
  328MPD2    C3 4924   0.592   0.628  17.051  0.3193 -0.8052 -0.5262
  328MPD2    C4 4925   0.695   0.685  17.125  0.1381 -0.2657 -0.5480
  328MPD2    C5 4926   0.750   0.617  17.231 -0.0122 -0.0237  0.1072
  328MPD2     H 4927   0.477   0.443  17.035  1.4838 -0.2090 -0.4336
  328MPD2    H1 4928   0.718   0.791  17.121 -0.2366 -0.1880 -0.6732
  328MPD2    H2 4929   0.770   0.440  17.340 -1.0340 -0.1766 -0.4130
  328MPD2    H3 4930   0.836   0.665  17.277 -1.5289  1.5026  1.3639
  328MPD2     N 4931   0.512   0.709  16.969  0.0716 -0.1714  0.0759
  328MPD2    H5 4932   0.532   0.808  16.972 -0.6866 -0.0277  0.3648
  328MPD2    N1 4933   0.609   0.281  17.193 -0.1247 -0.0324  0.0879
  328MPD2    H7 4934   0.656   0.236  17.271 -2.2627 -0.4035  1.1725
  329TMC3    C1 4935   0.477   0.089  17.193  0.3021  0.3446 -0.3926
  329TMC3    C2 4936   0.344   0.083  17.176  0.7029 -0.1907  0.2970
  329TMC3    C3 4937   0.269   0.058  17.286  0.7312 -0.6893  0.3963
  329TMC3    C4 4938   0.533   0.071  17.315 -0.4559  0.0137  0.0574
  329TMC3    C5 4939   0.456   0.044  17.426 -0.9003 -0.1259 -0.9856
  329TMC3    C6 4940   0.318   0.031  17.414  0.0251  0.2660 -0.1822
  329TMC3     C 4941   0.529   0.199  17.112  0.1018 -0.0622 -0.0848
  329TMC3     O 4942   0.481   0.216  17.000 -0.1168  0.0215  0.3795
  329TMC3     H 4943   0.289   0.105  17.085 -0.0698 -0.4248  0.7111
  329TMC3    H1 4944   0.639   0.060  17.334 -0.2149  1.1299 -0.6455
  329TMC3    H2 4945   0.250   0.030  17.499  1.1814  0.3577  0.7488
  329TMC3    C7 4946   0.524   0.010  17.548  0.0131 -0.6276  0.0638
  329TMC3    C8 4947   0.130   0.080  17.272  0.0835 -0.1630  0.1502
  329TMC3    O1 4948   0.634   0.064  17.556 -0.4147  0.0375  0.0827
  329TMC3    O2 4949   0.074   0.108  17.378 -0.4061  0.5908 -0.3972
  330TMC3    C1 4950   3.450   3.824   9.545 -0.5790 -0.1060 -0.1984
  330TMC3    C2 4951   3.421   3.758   9.425 -0.0890  0.2322 -0.0970
  330TMC3    C3 4952   3.438   3.624   9.423 -0.4404 -0.3100 -0.4086
  330TMC3    C4 4953   3.490   3.749   9.649 -0.1433 -0.5148  0.4771
  330TMC3    C5 4954   3.499   3.616   9.641  0.0026  0.6016  1.1027
  330TMC3    C6 4955   3.469   3.545   9.534  0.7534  0.0468  0.0159
  330TMC3     C 4956   3.411   3.958   9.564 -0.4233  0.2416 -0.1136
  330TMC3     O 4957   3.442   4.003   9.675 -0.0922  0.2342 -0.4319
  330TMC3     H 4958   3.398   3.810   9.333  1.6433  0.1535 -0.5613
  330TMC3    H1 4959   3.512   3.805   9.739  1.2399  0.6682 -0.6132
  330TMC3    H2 4960   3.486   3.438   9.526  1.2790  0.1654 -0.5277
  330TMC3    C7 4961   3.538   3.536   9.754  0.1120  0.1169 -0.1684
  330TMC3    C8 4962   3.366   3.553   9.313  0.4025  0.3746 -0.2260
  330TMC3    O1 4963   3.491   3.422   9.755  0.0389 -0.2350 -0.1209
  330TMC3    O2 4964   3.330   3.614   9.217 -0.0990 -0.8298  0.2159
  331MPD2     C 4965   0.650   2.837  12.391  0.4686  0.6352  0.2523
  331MPD2    C1 4966   0.761   2.901  12.343  0.9023  0.3191  1.0274
  331MPD2    C2 4967   0.843   2.826  12.263  0.5194  0.5546  0.2249
  331MPD2    C3 4968   0.831   2.691  12.239 -0.6876 -0.8669 -0.0710
  331MPD2    C4 4969   0.727   2.624  12.312  1.2982 -0.2728 -0.4603
  331MPD2    C5 4970   0.636   2.699  12.385 -0.1156 -0.4474 -0.1011
  331MPD2     H 4971   0.917   2.892  12.220 -0.3089  1.9176  0.8565
  331MPD2    H1 4972   0.720   2.516  12.321 -0.3214 -0.0239  1.2472
  331MPD2    H2 4973   0.572   2.891  12.444 -0.9634  0.6925 -1.9149
  331MPD2    H3 4974   0.550   2.654  12.432  0.6626 -1.3265  0.4802
  331MPD2     N 4975   0.920   2.623  12.156  0.1489 -0.1980  0.4446
  331MPD2    H5 4976   0.990   2.677  12.107  0.0991  0.0407  0.6391
  331MPD2    N1 4977   0.772   3.041  12.366 -0.1142 -0.1382  0.0828
  331MPD2    H7 4978   0.687   3.086  12.399 -0.7660 -0.6490 -0.9005
  332TMC3    C1 4979   1.019   2.451  12.043 -0.5215 -0.1317  0.3184
  332TMC3    C2 4980   1.047   2.556  11.961 -0.0873 -0.3327  0.4594
  332TMC3    C3 4981   1.180   2.566  11.922  0.1786  0.1672  0.0313
  332TMC3    C4 4982   1.106   2.362  12.091 -0.7610 -0.5179  0.5510
  332TMC3    C5 4983   1.237   2.386  12.070 -0.7624 -0.6254  0.4282
  332TMC3    C6 4984   1.279   2.486  11.981  0.3476 -0.1404 -0.8432
  332TMC3     C 4985   0.915   2.485  12.137 -0.0079  0.5551  0.2736
  332TMC3     O 4986   0.864   2.392  12.201 -0.3103 -0.0956  0.2451
  332TMC3     H 4987   0.968   2.617  11.917  0.0035 -1.6882 -1.5364
  332TMC3    H1 4988   1.070   2.299  12.172  0.8773 -2.0951  0.0334
  332TMC3    H2 4989   1.383   2.498  11.953 -0.1255 -0.4928 -2.7836
  332TMC3    C7 4990   1.323   2.311  12.152  0.7241  0.2354  0.4818
  332TMC3    C8 4991   1.237   2.686  11.855  0.1987  0.5661  0.1316
  332TMC3    O1 4992   1.279   2.204  12.196  0.5303  0.5308 -0.3334
  332TMC3    O2 4993   1.351   2.715  11.893 -0.4159 -0.0154 -0.7373
  333MPD2     C 4994   1.482   2.787  11.161 -0.5869  0.3620  0.7076
  333MPD2    C1 4995   1.483   2.693  11.065  0.2115  0.0302 -0.2449
  333MPD2    C2 4996   1.421   2.576  11.096  0.4892  0.1716  0.0172
  333MPD2    C3 4997   1.356   2.557  11.215 -0.6783 -0.5038  0.4294
  333MPD2    C4 4998   1.343   2.666  11.301  0.3877  0.6056  0.1063
  333MPD2    C5 4999   1.407   2.780  11.277  0.5580  0.3863  0.6608
  333MPD2     H 5000   1.425   2.500  11.020  1.2232  1.1811 -0.9505
  333MPD2    H1 5001   1.301   2.659  11.401 -2.4776  0.9366 -1.0838
  333MPD2    H2 5002   1.543   2.877  11.158 -0.5496  0.3179  0.1953
  333MPD2    H3 5003   1.407   2.850  11.361 -4.2710 -2.2599  2.8198
  333MPD2     N 5004   1.298   2.429  11.237  0.4262  0.3444 -0.0635
  333MPD2    H5 5005   1.318   2.359  11.167 -0.5832 -0.4497  0.4388
  333MPD2    N1 5006   1.548   2.716  10.935  0.3662  0.0010  0.6882
  333MPD2    H7 5007   1.595   2.805  10.921  1.1273 -0.9638 -2.7994
  334TMC3    C1 5008   1.646   2.672  10.721  0.4771  0.8327 -0.4191
  334TMC3    C2 5009   1.732   2.586  10.666  0.7502  0.5793  0.2929
  334TMC3    C3 5010   1.817   2.632  10.575 -0.3873 -0.1229 -0.3005
  334TMC3    C4 5011   1.637   2.803  10.683  0.4854  0.7086  0.0687
  334TMC3    C5 5012   1.724   2.844  10.591 -0.0660  0.1616 -0.3870
  334TMC3    C6 5013   1.821   2.763  10.537 -0.4139 -0.0302 -0.0177
  334TMC3     C 5014   1.573   2.623  10.838 -0.0251  0.3145  0.2481
  334TMC3     O 5015   1.563   2.502  10.840 -0.3982 -0.4641 -0.0551
  334TMC3     H 5016   1.732   2.481  10.694  0.9580  0.2823 -0.8372
  334TMC3    H1 5017   1.561   2.871  10.718 -2.1459 -2.2929  0.1359
  334TMC3    H2 5018   1.886   2.808  10.464 -0.7990 -0.1499 -0.4353
  334TMC3    C7 5019   1.745   2.991  10.576  0.2268 -0.9260 -0.2241
  334TMC3    C8 5020   1.929   2.539  10.558 -0.3538  0.2550  0.2876
  334TMC3    O1 5021   1.859   3.024  10.553  0.2162  0.7697  0.3600
  334TMC3    O2 5022   1.904   2.420  10.550  0.3391  0.0654 -0.3613
  335TMC3    C1 5023   1.002   4.642  17.094 -0.6995 -1.5068 -0.1430
  335TMC3    C2 5024   0.895   4.586  17.026  0.5327  0.6709 -0.6143
  335TMC3    C3 5025   0.914   4.459  16.975  0.3799 -0.1095 -0.0220
  335TMC3    C4 5026   1.122   4.575  17.102  0.1195 -0.5241 -0.1911
  335TMC3    C5 5027   1.128   4.450  17.050 -0.2824  0.1394 -0.0865
  335TMC3    C6 5028   1.026   4.388  16.985  0.6127 -0.3283 -0.6423
  335TMC3     C 5029   0.976   0.020  17.195 -0.1606 -0.0452  0.0220
  335TMC3     O 5030   0.866   0.024  17.244 -0.5102  0.4497  0.0262
  335TMC3     H 5031   0.802   4.642  17.020  0.6850  1.0074  0.1246
  335TMC3    H1 5032   1.209   4.631  17.134  0.6338 -1.4478  0.0386
  335TMC3    H2 5033   1.032   4.286  16.947 -0.2980 -0.6880  0.1948
  335TMC3    C7 5034   1.261   4.380  17.041  0.5522 -0.8531 -1.0933
  335TMC3    C8 5035   0.801   4.392  16.916  0.2596 -0.3999  0.4341
  335TMC3    O1 5036   1.257   4.273  16.985 -0.3983 -0.1971  0.5004
  335TMC3    O2 5037   0.715   4.466  16.873 -0.2975  0.1672  0.5052
  336MPD2     C 5038   1.041   2.362  16.373  0.4487  0.1376  0.1414
  336MPD2    C1 5039   1.057   2.282  16.261  0.0375 -0.5435  0.0739
  336MPD2    C2 5040   1.071   2.145  16.285 -0.1220  0.4355  0.3947
  336MPD2    C3 5041   1.050   2.087  16.405  0.2569  1.0459  0.1075
  336MPD2    C4 5042   1.001   2.170  16.503 -0.5318  0.1171 -0.1515
  336MPD2    C5 5043   1.001   2.306  16.490 -0.3415 -0.2996 -0.8236
  336MPD2     H 5044   1.103   2.086  16.199 -0.4989 -0.7895  1.0897
  336MPD2    H1 5045   0.961   2.128  16.594 -0.1154  0.7379  0.3149
  336MPD2    H2 5046   1.038   2.470  16.362  0.4657  0.0145 -1.0535
  336MPD2    H3 5047   0.958   2.370  16.566 -1.5879 -0.7551 -1.1487
  336MPD2     N 5048   1.061   1.948  16.444  0.1753  0.2821 -0.1932
  336MPD2    H5 5049   1.039   1.924  16.540 -1.4015  0.6239 -0.4641
  336MPD2    N1 5050   1.053   2.326  16.128  0.3740  0.2104  0.3155
  336MPD2    H7 5051   1.078   2.262  16.054 -1.5196 -0.1259 -0.0321
  337TMC3    C1 5052   0.952   2.459  15.964 -0.7900  1.0602  0.0187
  337TMC3    C2 5053   0.822   2.504  15.944  0.6028  0.1718  0.4329
  337TMC3    C3 5054   0.756   2.483  15.821  0.0631 -0.5241 -0.3034
  337TMC3    C4 5055   1.010   2.379  15.873  0.0684 -0.1917  0.0709
  337TMC3    C5 5056   0.936   2.352  15.760 -0.9312  0.0314 -0.3646
  337TMC3    C6 5057   0.819   2.406  15.728  0.8806  1.4000  0.4197
  337TMC3     C 5058   0.993   2.450  16.102 -0.0517 -0.7714  0.0066
  337TMC3     O 5059   0.939   2.535  16.174  0.0582 -0.0091  0.0078
  337TMC3     H 5060   0.774   2.569  16.017 -0.5975  0.2657 -0.4479
  337TMC3    H1 5061   1.101   2.323  15.887  0.1509 -0.4234 -1.3480
  337TMC3    H2 5062   0.793   2.409  15.622  1.0101  0.8582  0.3729
  337TMC3    C7 5063   0.968   2.235  15.686 -0.6125  0.0242 -0.3707
  337TMC3    C8 5064   0.649   2.572  15.778 -0.9332 -0.4415 -0.3380
  337TMC3    O1 5065   0.874   2.173  15.641  0.4285  0.7280  0.5133
  337TMC3    O2 5066   0.610   2.655  15.861  0.4714  1.0609 -0.0766
  338MPD2     C 5067   1.355   1.480   0.975  0.3800  0.3574 -0.2196
  338MPD2    C1 5068   1.279   1.548   0.879 -0.1715 -0.5945  0.1961
  338MPD2    C2 5069   1.184   1.636   0.922 -0.0995 -0.0832  0.5279
  338MPD2    C3 5070   1.163   1.653   1.059 -0.4488  0.2007  0.5082
  338MPD2    C4 5071   1.238   1.585   1.154 -0.9417 -0.3720  0.3385
  338MPD2    C5 5072   1.337   1.505   1.105 -0.3383 -0.3166 -0.3679
  338MPD2     H 5073   1.134   1.703   0.853 -0.4268 -0.2249  0.6268
  338MPD2    H1 5074   1.237   1.598   1.262  1.1785 -0.5351  0.3921
  338MPD2    H2 5075   1.436   1.414   0.945 -0.1317 -0.0690 -0.6879
  338MPD2    H3 5076   1.401   1.453   1.175  0.7449 -0.4801 -1.4870
  338MPD2     N 5077   1.068   1.749   1.097 -0.6275 -0.5263 -0.0842
  338MPD2    H5 5078   1.019   1.793   1.019  0.3091 -0.8508 -0.8532
  338MPD2    N1 5079   1.306   1.546   0.741  0.1462 -0.1043 -0.5353
  338MPD2    H7 5080   1.248   1.610   0.687 -0.6420  1.0206  1.6319
  339TMC3    C1 5081   0.918   1.885   1.209  0.2425  0.3494 -0.1415
  339TMC3    C2 5082   0.802   1.850   1.279  0.5318  0.3340  0.5969
  339TMC3    C3 5083   0.687   1.877   1.202  0.8880 -0.0320  0.1483
  339TMC3    C4 5084   0.920   1.965   1.096 -0.4286 -1.1308 -0.0907
  339TMC3    C5 5085   0.797   1.983   1.039 -0.5691  0.0312  0.4193
  339TMC3    C6 5086   0.681   1.933   1.085 -0.2543  0.0533  0.8857
  339TMC3     C 5087   1.023   1.783   1.222 -0.7383 -0.2481 -0.4272
  339TMC3     O 5088   1.052   1.737   1.331 -0.2671 -0.4882  0.8239
  339TMC3     H 5089   0.807   1.794   1.372 -0.2425  2.5969  2.0144
  339TMC3    H1 5090   1.015   1.997   1.056 -0.7334  1.6553  1.4465
  339TMC3    H2 5091   0.587   1.937   1.031 -0.2203  0.7983  0.8826
  339TMC3    C7 5092   0.812   1.950   0.906  0.1399 -0.0397 -0.4310
  339TMC3    C8 5093   0.568   1.813   1.250 -0.8873 -0.4493  0.1028
  339TMC3    O1 5094   0.906   1.871   0.877  0.1370  0.0770  0.6883
  339TMC3    O2 5095   0.460   1.854   1.213 -0.3899 -0.6072  0.0708
  340MPD2     C 5096   1.251   4.141   9.359 -0.3498 -0.1410 -0.0570
  340MPD2    C1 5097   1.303   4.020   9.403 -0.7921 -0.2180 -0.0974
  340MPD2    C2 5098   1.420   4.008   9.479 -0.9349  0.3612  0.1845
  340MPD2    C3 5099   1.478   4.122   9.521 -0.2097 -0.6332 -0.0870
  340MPD2    C4 5100   1.436   4.243   9.469  0.3884 -0.2120  0.7100
  340MPD2    C5 5101   1.316   4.253   9.399 -0.0208 -0.1969  0.3629
  340MPD2     H 5102   1.454   3.908   9.503 -2.4892 -0.0591  0.6778
  340MPD2    H1 5103   1.489   4.330   9.506  0.8883 -0.3707  0.3622
  340MPD2    H2 5104   1.165   4.152   9.294  0.2923  1.3950 -0.6437
  340MPD2    H3 5105   1.286   4.350   9.360  0.3377  1.0059  3.0722
  340MPD2     N 5106   1.593   4.116   9.599 -0.4020 -0.2590 -0.0674
  340MPD2    H5 5107   1.663   4.188   9.603 -2.0305  1.4354 -2.2091
  340MPD2    N1 5108   1.243   3.895   9.373  1.0973  0.6344  0.1784
  340MPD2    H7 5109   1.299   3.818   9.407 -0.3396  0.6675  2.6225
  341TMC3    C1 5110   1.125   3.741   9.250  0.9184  0.2838  0.2931
  341TMC3    C2 5111   1.005   3.668   9.246  0.1634  1.0319  0.0071
  341TMC3    C3 5112   1.019   3.528   9.226  0.7848 -0.3189  0.1422
  341TMC3    C4 5113   1.244   3.691   9.217  0.9434  0.6901  0.3513
  341TMC3    C5 5114   1.252   3.550   9.191  0.1583  0.1491 -0.7188
  341TMC3    C6 5115   1.144   3.472   9.205  0.5610  0.9361 -0.4900
  341TMC3     C 5116   1.128   3.876   9.301 -0.5482  0.0164  0.2664
  341TMC3     O 5117   1.035   3.957   9.276 -0.0928 -0.1233 -0.5098
  341TMC3     H 5118   0.910   3.710   9.277  0.3823  0.3733  1.5618
  341TMC3    H1 5119   1.335   3.750   9.208  1.4777 -0.3956 -1.4489
  341TMC3    H2 5120   1.158   3.366   9.194 -1.9110  0.6644 -0.9791
  341TMC3    C7 5121   1.387   3.489   9.176  0.6334 -0.2957 -0.3642
  341TMC3    C8 5122   0.912   3.437   9.248  0.1770  0.1615  0.2382
  341TMC3    O1 5123   1.387   3.366   9.187 -0.3271  0.0640  0.4407
  341TMC3    O2 5124   0.950   3.321   9.255  0.9838  0.4191  0.7654
  342MPD2     C 5125   3.858   3.195  16.954 -0.6760 -0.3275  0.5324
  342MPD2    C1 5126   3.919   3.161  17.075 -0.1423  1.0156  0.4928
  342MPD2    C2 5127   3.942   3.260  17.170  0.4819  0.1660  0.7103
  342MPD2    C3 5128   3.904   3.390  17.141 -0.3509 -0.1356  0.3487
  342MPD2    C4 5129   3.842   3.420  17.024  1.1980 -0.7971  0.4659
  342MPD2    C5 5130   3.820   3.323  16.932 -0.0668  0.1416  0.4971
  342MPD2     H 5131   3.998   3.237  17.260  0.4789  0.0455  0.6825
  342MPD2    H1 5132   3.805   3.518  16.997 -0.3885 -1.5672 -0.2114
  342MPD2    H2 5133   3.830   3.121  16.880 -2.2019  1.4700 -0.7060
  342MPD2    H3 5134   3.775   3.349  16.836  2.3012  2.4500  0.0182
  342MPD2     N 5135   3.931   3.480  17.243 -0.3626  1.2500  0.6646
  342MPD2    H5 5136   3.981   3.440  17.323 -0.0461  0.5189  0.1027
  342MPD2    N1 5137   3.958   3.026  17.087 -0.0635 -0.4464 -0.1056
  342MPD2    H7 5138   3.937   2.969  17.006  1.2072 -1.6250  0.3814
  343TMC3    C1 5139   4.060   2.834  17.171  0.1498  0.0858 -0.3034
  343TMC3    C2 5140   4.134   2.820  17.059  0.5784 -0.4941  0.6427
  343TMC3    C3 5141   4.206   2.706  17.048  0.0402 -0.4064 -0.5124
  343TMC3    C4 5142   4.038   2.731  17.258 -1.2120 -0.0679  0.3409
  343TMC3    C5 5143   4.086   2.609  17.227 -0.0489  0.4103  0.6804
  343TMC3    C6 5144   4.165   2.594  17.118  0.0714  0.3228 -0.1562
  343TMC3     C 5145   4.002   2.963  17.197  0.2288 -0.1331 -0.4521
  343TMC3     O 5146   3.995   3.007  17.310 -0.1123 -0.5823 -0.2396
  343TMC3     H 5147   4.163   2.911  17.007  2.3651 -0.8654  0.9895
  343TMC3    H1 5148   3.963   2.741  17.336 -0.9151 -1.7413  0.8245
  343TMC3    H2 5149   4.203   2.499  17.082 -0.1667 -0.6498  2.1525
  343TMC3    C7 5150   4.041   2.497  17.308 -0.3694 -0.5550 -0.1428
  343TMC3    C8 5151   4.299   2.711  16.938  0.4789  0.4591 -0.6164
  343TMC3    O1 5152   3.982   2.408  17.250  0.2206 -0.1062 -0.3909
  343TMC3    O2 5153   4.328   2.820  16.888 -0.4238  1.4907  0.1292
  344MPD2     C 5154   0.499   1.893  10.349  0.0340 -0.0398  0.4107
  344MPD2    C1 5155   0.386   1.972  10.335  0.6014  0.2316 -0.0702
  344MPD2    C2 5156   0.391   2.108  10.304  0.1279  0.6458 -0.4385
  344MPD2    C3 5157   0.519   2.161  10.293 -0.0871 -0.2432 -0.0202
  344MPD2    C4 5158   0.633   2.083  10.325  0.1325 -0.1055 -0.2408
  344MPD2    C5 5159   0.620   1.945  10.344 -0.1243  1.1654  0.3639
  344MPD2     H 5160   0.299   2.159  10.281  1.6888  2.5693 -2.4473
  344MPD2    H1 5161   0.732   2.126  10.323  0.4424 -0.8083 -0.2567
  344MPD2    H2 5162   0.486   1.786  10.365  1.6770  0.1300  2.8932
  344MPD2    H3 5163   0.703   1.875  10.349 -0.4913  0.7837  1.1059
  344MPD2     N 5164   0.525   2.301  10.274 -0.2435 -0.1601  0.3747
  344MPD2    H5 5165   0.612   2.348  10.297  0.0866 -0.1868 -0.8387
  344MPD2    N1 5166   0.261   1.903  10.347  0.2078 -0.2029 -0.1607
  344MPD2    H7 5167   0.281   1.806  10.372 -0.2949 -0.0945  0.6596
  345TMC3    C1 5168   0.469   2.516  10.210  0.1963  0.4214  0.3829
  345TMC3    C2 5169   0.539   2.571  10.315  0.3219  0.4355  0.2265
  345TMC3    C3 5170   0.541   2.704  10.332 -0.7373  0.1219  0.1167
  345TMC3    C4 5171   0.418   2.594  10.107 -0.2489 -0.1852  0.0569
  345TMC3    C5 5172   0.423   2.726  10.132 -0.0808 -0.3627 -0.4696
  345TMC3    C6 5173   0.482   2.780  10.241 -0.2460 -1.0209 -0.0034
  345TMC3     C 5174   0.426   2.377  10.217 -0.4868  0.6232 -0.3475
  345TMC3     O 5175   0.330   2.345  10.146 -0.0607 -0.2881  0.1411
  345TMC3     H 5176   0.567   2.511  10.400 -0.1678 -2.7987 -1.8964
  345TMC3    H1 5177   0.385   2.547  10.015 -2.3769 -2.4269  1.9413
  345TMC3    H2 5178   0.451   2.878  10.276  1.2598 -0.5329 -0.0337
  345TMC3    C7 5179   0.355   2.821  10.052  0.0367  0.0143  0.2560
  345TMC3    C8 5180   0.569   2.746  10.467  0.5009 -0.2683  0.5020
  345TMC3    O1 5181   0.367   2.937  10.080 -0.5446  0.1857  0.3980
  345TMC3    O2 5182   0.554   2.663  10.555  0.1372 -0.9749 -0.6196
  346MPD2     C 5183   0.183   4.244  14.275  0.5213 -0.4783 -0.6842
  346MPD2    C1 5184   0.243   4.179  14.173  0.2953 -1.0270 -1.4071
  346MPD2    C2 5185   0.363   4.122  14.198 -0.3104 -0.3058  0.0765
  346MPD2    C3 5186   0.424   4.122  14.318  0.6325 -0.2199 -0.3808
  346MPD2    C4 5187   0.376   4.207  14.413  0.3525 -0.1087  0.2449
  346MPD2    C5 5188   0.252   4.257  14.390 -0.1710  0.5893 -0.3211
  346MPD2     H 5189   0.407   4.065  14.117 -0.3311 -1.5453  0.9332
  346MPD2    H1 5190   0.413   4.229  14.512  1.8272  0.2166 -0.3734
  346MPD2    H2 5191   0.084   4.285  14.257 -0.0812  0.2060  4.3963
  346MPD2    H3 5192   0.209   4.312  14.473  0.8590  0.5036  0.2766
  346MPD2     N 5193   0.531   4.031  14.342 -0.1774 -0.2751 -0.0462
  346MPD2    H5 5194   0.554   3.960  14.273  0.8179  0.9700 -0.9854
  346MPD2    N1 5195   0.187   4.159  14.044  0.0130  0.3175  0.2245
  346MPD2    H7 5196   0.238   4.120  13.965 -0.8887  2.4516 -1.4285
  347TMC3    C1 5197   0.695   3.916  14.479  1.3226 -0.7012  0.6202
  347TMC3    C2 5198   0.650   3.794  14.425  0.0897 -0.7771  0.5929
  347TMC3    C3 5199   0.693   3.677  14.483  0.0224 -0.2344 -0.0714
  347TMC3    C4 5200   0.771   3.918  14.593 -0.4565 -0.3391  1.0368
  347TMC3    C5 5201   0.821   3.797  14.628 -0.0034 -0.2346  0.5322
  347TMC3    C6 5202   0.781   3.676  14.586 -0.0882  0.3544 -0.8922
  347TMC3     C 5203   0.614   4.036  14.456  0.0423 -0.0085  0.0120
  347TMC3     O 5204   0.631   4.128  14.539  0.8187 -0.2116  0.2955
  347TMC3     H 5205   0.593   3.799  14.332  2.3914 -0.8244 -0.8206
  347TMC3    H1 5206   0.824   4.006  14.629  0.2017 -0.9541  1.5753
  347TMC3    H2 5207   0.821   3.582  14.622  0.6092  1.0858  0.2320
  347TMC3    C7 5208   0.897   3.805  14.752 -0.4338  0.1296 -0.6599
  347TMC3    C8 5209   0.668   3.544  14.420  0.3275 -0.6506 -1.1741
  347TMC3    O1 5210   0.884   3.908  14.819  0.1552  0.2648 -0.1452
  347TMC3    O2 5211   0.732   3.444  14.447  0.0126 -0.7587  0.0476
  348MPD2     C 5212   3.518   3.495  12.008  0.1147 -0.3498 -0.5221
  348MPD2    C1 5213   3.640   3.474  11.937  0.6944 -0.0751 -0.3623
  348MPD2    C2 5214   3.650   3.513  11.810  0.3755 -1.0599 -0.8523
  348MPD2    C3 5215   3.539   3.561  11.744  0.0690 -0.4475  0.0701
  348MPD2    C4 5216   3.424   3.580  11.814 -0.5667  0.1254 -0.1666
  348MPD2    C5 5217   3.415   3.555  11.948 -0.3037  0.3643 -0.0779
  348MPD2     H 5218   3.739   3.495  11.750  1.9143  0.6219  0.9491
  348MPD2    H1 5219   3.341   3.627  11.761 -2.1217 -1.4063  0.9254
  348MPD2    H2 5220   3.503   3.468  12.111  1.8871  2.1746  0.3908
  348MPD2    H3 5221   3.321   3.559  12.000  0.2162 -0.5967  0.9341
  348MPD2     N 5222   3.548   3.592  11.602 -0.8550 -0.5161 -0.0813
  348MPD2    H5 5223   3.643   3.584  11.566  0.3009  0.3288  2.8122
  348MPD2    N1 5224   3.749   3.404  11.993 -0.0208 -0.4026  0.4061
  348MPD2    H7 5225   3.833   3.406  11.936 -0.2905  0.5862  0.0482
  349TMC3    C1 5226   3.878   3.298  12.163 -0.4680  0.1295 -0.0325
  349TMC3    C2 5227   3.890   3.160  12.184  0.2372 -0.2199  0.6322
  349TMC3    C3 5228   4.005   3.095  12.165 -0.2925 -0.5246 -0.9334
  349TMC3    C4 5229   3.988   3.364  12.111  0.0486  0.7730 -0.1805
  349TMC3    C5 5230   4.094   3.285  12.082  0.1719  0.4212 -0.4442
  349TMC3    C6 5231   4.117   3.157  12.115  0.3405 -0.1821  0.0123
  349TMC3     C 5232   3.750   3.342  12.116  0.2233  0.3770 -0.4860
  349TMC3     O 5233   3.647   3.299  12.171 -0.0888 -0.0178  0.7753
  349TMC3     H 5234   3.798   3.105  12.197  0.1357 -0.0650  0.5691
  349TMC3    H1 5235   3.977   3.472  12.104  0.2766  0.8924  1.4317
  349TMC3    H2 5236   4.213   3.111  12.095  0.6228  0.2347  0.4120
  349TMC3    C7 5237   4.119   3.289  11.938  0.1881 -0.5599 -0.0737
  349TMC3    C8 5238   4.015   2.963  12.226 -0.0172 -0.2514  0.0338
  349TMC3    O1 5239   4.128   3.184  11.880 -0.7398 -0.2065  0.4528
  349TMC3    O2 5240   3.924   2.928  12.304 -0.2761  0.0182 -0.8173
  350MPD2     C 5241   2.489   1.424  10.043 -0.3290 -0.2236 -0.1604
  350MPD2    C1 5242   2.574   1.319  10.008 -0.4034 -0.2969  0.0364
  350MPD2    C2 5243   2.707   1.346   9.983 -0.2021 -0.3605 -0.2133
  350MPD2    C3 5244   2.760   1.473   9.986  0.0121  0.1813 -0.1688
  350MPD2    C4 5245   2.673   1.577  10.017  0.3081  0.1981  0.7567
  350MPD2    C5 5246   2.538   1.551  10.053 -1.0581 -0.4721  0.2365
  350MPD2     H 5247   2.769   1.261   9.957  0.1565 -0.9682  2.5353
  350MPD2    H1 5248   2.703   1.682  10.023 -1.3792  0.8669 -2.5332
  350MPD2    H2 5249   2.389   1.410  10.083 -0.2742 -1.2316 -0.3921
  350MPD2    H3 5250   2.472   1.634  10.076  2.2632  2.4988 -1.0303
  350MPD2     N 5251   2.899   1.494   9.962  0.6597  0.0571 -0.4556
  350MPD2    H5 5252   2.956   1.415   9.934 -2.1762 -1.8277 -0.8723
  350MPD2    N1 5253   2.535   1.182  10.019  0.2416  0.0719 -0.5181
  350MPD2    H7 5254   2.604   1.107  10.014 -1.5722 -1.5505 -1.0270
  351TMC3    C1 5255   2.413   0.981  10.052  0.0128  0.0500 -0.0900
  351TMC3    C2 5256   2.525   0.910   9.999  0.0016  0.8263 -0.2252
  351TMC3    C3 5257   2.508   0.774  10.003  0.1989 -0.1148 -1.1661
  351TMC3    C4 5258   2.305   0.921  10.098  0.9338 -0.3377  0.2720
  351TMC3    C5 5259   2.301   0.783  10.095  0.5772  0.0309 -0.5350
  351TMC3    C6 5260   2.401   0.704  10.050  0.1746 -0.0584 -0.7512
  351TMC3     C 5261   2.414   1.130  10.051  0.6354 -0.0674  0.2732
  351TMC3     O 5262   2.310   1.188  10.089 -0.6549  0.0447 -0.3295
  351TMC3     H 5263   2.621   0.951   9.971  0.7922 -1.2090 -0.4468
  351TMC3    H1 5264   2.228   0.977  10.150  3.2525  0.9888  2.2741
  351TMC3    H2 5265   2.404   0.596  10.062  1.2753 -0.1743 -2.0397
  351TMC3    C7 5266   2.179   0.717  10.137  0.1250 -0.3625  0.2555
  351TMC3    C8 5267   2.631   0.707   9.964  0.3481  0.7489 -0.0114
  351TMC3    O1 5268   2.116   0.779  10.219  0.1002 -0.3113  0.2701
  351TMC3    O2 5269   2.694   0.766   9.874 -0.1653 -0.3517 -0.1066
  352MPD2     C 5270   1.334   3.787   1.301 -0.4428 -0.4646 -0.1123
  352MPD2    C1 5271   1.197   3.752   1.304 -0.6347 -0.2118  0.6624
  352MPD2    C2 5272   1.165   3.627   1.348 -0.3327  0.5636 -0.2446
  352MPD2    C3 5273   1.258   3.533   1.395 -0.2413 -0.3971 -0.3951
  352MPD2    C4 5274   1.393   3.574   1.397 -0.6351  0.1874 -0.3779
  352MPD2    C5 5275   1.430   3.704   1.350  0.7250 -0.4049 -0.4664
  352MPD2     H 5276   1.064   3.588   1.336  0.3301 -1.6466  1.1954
  352MPD2    H1 5277   1.474   3.514   1.436 -1.1748  0.4729  1.1791
  352MPD2    H2 5278   1.359   3.882   1.256 -1.9364 -0.8671 -1.7754
  352MPD2    H3 5279   1.534   3.732   1.353  0.7187 -0.4133 -0.1594
  352MPD2     N 5280   1.227   3.400   1.413 -0.2449 -0.1107  0.1397
  352MPD2    H5 5281   1.139   3.368   1.375 -0.1291 -1.7660  1.2535
  352MPD2    N1 5282   1.115   3.848   1.252  0.5695 -0.1702 -1.1140
  352MPD2    H7 5283   1.146   3.929   1.200  0.4737  1.6378  1.6967
  353TMC3    C1 5284   1.252   3.178   1.501  0.1146  0.8859 -0.6853
  353TMC3    C2 5285   1.310   3.092   1.585 -0.4060  0.6527  0.3468
  353TMC3    C3 5286   1.303   2.956   1.568  0.4438  0.4421 -0.3095
  353TMC3    C4 5287   1.188   3.118   1.392  0.2148 -0.0465  0.3953
  353TMC3    C5 5288   1.194   2.985   1.365 -0.3272 -0.3980 -0.1368
  353TMC3    C6 5289   1.245   2.894   1.458  0.3425 -0.0169  0.2058
  353TMC3     C 5290   1.303   3.310   1.488  0.2703 -0.1233 -0.2923
  353TMC3     O 5291   1.391   3.339   1.568  0.5523 -0.4638 -0.1503
  353TMC3     H 5292   1.358   3.134   1.673  0.2951 -0.5134  0.5342
  353TMC3    H1 5293   1.145   3.172   1.308  2.7070 -1.0123 -1.5082
  353TMC3    H2 5294   1.230   2.787   1.444  1.5733 -0.0674 -0.6936
  353TMC3    C7 5295   1.106   2.921   1.266 -0.2091  0.1030 -0.4473
  353TMC3    C8 5296   1.365   2.874   1.672  0.6102  0.3576 -0.4533
  353TMC3    O1 5297   1.123   2.942   1.149 -0.2109 -0.5459  0.5558
  353TMC3    O2 5298   1.362   2.911   1.790 -0.3092  0.8133  0.3856
  354TMC3    C1 5299   2.538   4.643  13.300  0.0181 -0.8265  0.5715
  354TMC3    C2 5300   2.610   0.035  13.335  0.8266  0.5837 -0.0779
  354TMC3    C3 5301   2.749   0.037  13.315  0.1944 -0.9447 -0.6699
  354TMC3    C4 5302   2.596   4.550  13.221 -0.0713  0.2145  0.2305
  354TMC3    C5 5303   2.730   4.566  13.187  0.1076  0.6076  0.6110
  354TMC3    C6 5304   2.806   4.657  13.250 -0.4106  0.6224  0.4029
  354TMC3     C 5305   2.450   4.585  13.400 -0.5112 -0.4042 -0.3955
  354TMC3     O 5306   2.427   4.461  13.396  0.0836 -0.6883 -0.2653
  354TMC3     H 5307   2.576   0.113  13.402  0.2768 -0.8987  1.3561
  354TMC3    H1 5308   2.545   4.456  13.202 -0.1088 -0.2071  2.4356
  354TMC3    H2 5309   2.912   4.650  13.229 -0.2925  0.4574  1.0553
  354TMC3    C7 5310   2.737   4.580  13.037  0.4525  0.1693  0.7526
  354TMC3    C8 5311   2.785   0.170  13.268  0.0147  0.3058 -0.8269
  354TMC3    O1 5312   2.636   4.550  12.972  0.2084  0.2946 -0.1410
  354TMC3    O2 5313   2.691   0.246  13.248 -0.0205  0.1284  0.3672
  355MPD2     C 5314   2.258   0.775  12.059  0.3467 -0.0977  0.2631
  355MPD2    C1 5315   2.329   0.798  11.941  0.2198  0.3160 -0.2951
  355MPD2    C2 5316   2.466   0.785  11.945  0.0481  0.1349 -0.9554
  355MPD2    C3 5317   2.535   0.761  12.060 -0.4574  0.0115 -0.5168
  355MPD2    C4 5318   2.458   0.737  12.168 -0.2816 -0.2830 -0.3709
  355MPD2    C5 5319   2.323   0.739  12.168 -0.0422  0.8171 -0.5464
  355MPD2     H 5320   2.528   0.803  11.857 -0.8553  1.4646 -1.3156
  355MPD2    H1 5321   2.513   0.735  12.262  0.3980 -2.1773 -0.8051
  355MPD2    H2 5322   2.149   0.779  12.056  0.3111  0.3959  2.5404
  355MPD2    H3 5323   2.271   0.716  12.260  0.7253 -1.6687 -0.7362
  355MPD2     N 5324   2.675   0.780  12.071 -0.2049 -0.0748 -0.4439
  355MPD2    H5 5325   2.711   0.777  12.166  0.6938 -1.3720 -0.8385
  355MPD2    N1 5326   2.253   0.854  11.833  0.1863  0.5308  0.2168
  355MPD2    H7 5327   2.156   0.823  11.832  1.3026 -2.9706 -1.2659
  356TMC3    C1 5328   2.879   0.876  12.019  0.0213 -0.0452 -0.5595
  356TMC3    C2 5329   2.958   0.912  11.921  0.3280  0.6408  0.2209
  356TMC3    C3 5330   3.030   1.024  11.938  0.0126  0.2158 -0.1619
  356TMC3    C4 5331   2.883   0.928  12.148 -0.8780  0.2030 -0.3495
  356TMC3    C5 5332   2.970   1.033  12.163 -0.0514  0.0500  0.5973
  356TMC3    C6 5333   3.042   1.083  12.060 -0.1428  0.0917 -0.6749
  356TMC3     C 5334   2.759   0.802  11.968 -0.4233  1.5392 -0.8122
  356TMC3     O 5335   2.751   0.780  11.849  0.6418 -0.1884  0.2617
  356TMC3     H 5336   2.944   0.872  11.822 -0.8291  0.6079  0.3987
  356TMC3    H1 5337   2.811   0.910  12.227  1.3455 -3.3148  0.8427
  356TMC3    H2 5338   3.099   1.174  12.078 -1.7505  1.1682 -1.0219
  356TMC3    C7 5339   2.998   1.070  12.303 -0.3345  0.1168 -0.3780
  356TMC3    C8 5340   3.081   1.090  11.822  0.4375  0.5594  0.1579
  356TMC3    O1 5341   2.908   1.055  12.382  0.4106 -0.3548 -0.3969
  356TMC3    O2 5342   3.047   1.047  11.713 -0.1555  0.4061 -0.3463
  357MPD2     C 5343   2.971   3.638   1.010  0.6035  0.3761 -0.7637
  357MPD2    C1 5344   3.005   3.750   1.081  0.3821  0.0519 -0.0080
  357MPD2    C2 5345   3.048   3.736   1.216  0.3204 -0.0080  0.1010
  357MPD2    C3 5346   3.040   3.611   1.276  0.4584 -0.4770  1.3891
  357MPD2    C4 5347   3.010   3.501   1.199 -0.2858  0.3416 -0.5739
  357MPD2    C5 5348   2.978   3.515   1.065 -0.3195  0.3183  0.3720
  357MPD2     H 5349   3.078   3.829   1.262 -3.7970  0.8851  1.0046
  357MPD2    H1 5350   3.010   3.398   1.231 -0.2119  0.4835 -0.1191
  357MPD2    H2 5351   2.950   3.640   0.903  1.3566 -2.3881 -0.9486
  357MPD2    H3 5352   2.964   3.425   1.006 -0.2008  0.6749 -0.2098
  357MPD2     N 5353   3.064   3.588   1.412 -0.0505  0.2198  0.2363
  357MPD2    H5 5354   3.069   3.490   1.440 -0.5716  0.4668  1.2076
  357MPD2    N1 5355   3.006   3.870   1.007 -0.9916  0.1803  0.1377
  357MPD2    H7 5356   2.975   3.867   0.911  0.9694 -0.1549 -0.4835
  358TMC3    C1 5357   3.040   4.093   0.958 -0.5613  0.4699  0.8622
  358TMC3    C2 5358   3.030   4.066   0.830  0.3882  0.3162  0.0278
  358TMC3    C3 5359   2.993   4.178   0.752  0.6241  0.4523 -0.2607
  358TMC3    C4 5360   3.019   4.218   1.018 -0.2399  0.4950 -0.3211
  358TMC3    C5 5361   2.980   4.323   0.938 -0.4229 -0.3645 -0.5134
  358TMC3    C6 5362   2.953   4.298   0.807  0.5775  0.0872  0.0841
  358TMC3     C 5363   3.045   3.985   1.059 -0.8424 -0.1154  0.1904
  358TMC3     O 5364   3.094   4.024   1.166  0.7435  0.1054  0.1551
  358TMC3     H 5365   3.072   3.975   0.787 -1.1198 -0.5927  0.4721
  358TMC3    H1 5366   3.031   4.229   1.125 -1.4359 -1.4628  0.0244
  358TMC3    H2 5367   2.950   4.391   0.751 -0.2457  0.3398  0.5653
  358TMC3    C7 5368   2.979   4.456   0.991 -0.5363 -0.2881 -0.6604
  358TMC3    C8 5369   3.035   4.194   0.613 -0.8562 -0.0974 -0.0866
  358TMC3    O1 5370   2.948   4.551   0.922 -0.6652 -0.2054 -0.3747
  358TMC3    O2 5371   3.030   4.305   0.569  0.1122 -0.6605 -0.3345
  359MPD2     C 5372   2.798   0.039  12.005  0.0891 -0.7942 -0.5737
  359MPD2    C1 5373   2.821   4.629  12.042  0.7624  0.0503 -0.3075
  359MPD2    C2 5374   2.712   4.555  12.082 -0.3541  0.0148  0.0485
  359MPD2    C3 5375   2.584   4.613  12.088 -0.5759 -0.2369 -0.2298
  359MPD2    C4 5376   2.561   0.020  12.045  0.1157  0.2075 -0.1036
  359MPD2    C5 5377   2.674   0.093  12.006  0.3876 -0.8079 -0.0267
  359MPD2     H 5378   2.727   4.450  12.102 -2.9562 -0.5772 -1.1182
  359MPD2    H1 5379   2.462   0.063  12.040  0.8926  1.9491 -0.3353
  359MPD2    H2 5380   2.885   0.091  11.966  1.6202 -1.8256  1.4865
  359MPD2    H3 5381   2.657   0.196  11.977 -0.3347 -0.5412  1.3576
  359MPD2     N 5382   2.473   4.533  12.123 -0.1555 -0.1698 -0.2494
  359MPD2    H5 5383   2.384   4.580  12.109 -0.1833  0.1634  1.0886
  359MPD2    N1 5384   2.954   4.573  12.054  0.0442 -0.1386  0.3815
  359MPD2    H7 5385   2.953   4.480  12.096 -0.3212 -1.1025 -1.7960
  360TMC3    C1 5386   3.193   4.557  12.037 -0.8265 -0.2933 -0.6630
  360TMC3    C2 5387   3.307   4.636  12.048 -0.1838 -0.0649  0.8134
  360TMC3    C3 5388   3.425   4.577  12.034 -0.6181  0.3086 -0.3470
  360TMC3    C4 5389   3.198   4.416  12.057  0.1995 -0.6549  0.7236
  360TMC3    C5 5390   3.320   4.353  12.042 -0.6133 -0.3922  0.8826
  360TMC3    C6 5391   3.431   4.435  12.015  0.1987  0.1503  0.0728
  360TMC3     C 5392   3.072   4.627  11.998  0.4509 -0.6302 -0.0448
  360TMC3     O 5393   3.084   4.717  11.918 -0.5466  0.4788  1.3357
  360TMC3     H 5394   3.314   0.023  12.046 -1.8119  0.0550  1.4727
  360TMC3    H1 5395   3.109   4.355  12.056 -0.1868 -0.1182  2.1103
  360TMC3    H2 5396   3.530   4.390  12.016 -0.0913 -0.4973 -0.9791
  360TMC3    C7 5397   3.317   4.243  11.943  0.5818  0.0276  0.9631
  360TMC3    C8 5398   3.551   4.653  12.035 -0.2237  0.3007 -0.7345
  360TMC3    O1 5399   3.415   4.233  11.867  0.4583 -0.0285  0.1417
  360TMC3    O2 5400   3.567   0.037  12.093  0.9271  0.5511 -0.1913
  361MPD2     C 5401   0.355   3.377  16.459 -0.1117  0.1199 -0.5561
  361MPD2    C1 5402   0.343   3.399  16.597 -0.0934 -0.2389 -0.9870
  361MPD2    C2 5403   0.389   3.300  16.684 -0.1151  0.3844 -0.1489
  361MPD2    C3 5404   0.451   3.185  16.635  0.0052 -0.2536  0.5665
  361MPD2    C4 5405   0.475   3.176  16.500 -0.2835  0.0873  0.0139
  361MPD2    C5 5406   0.431   3.273  16.419  0.4405 -0.3083 -0.0042
  361MPD2     H 5407   0.370   3.310  16.790  0.0793  2.5314 -0.3349
  361MPD2    H1 5408   0.524   3.088  16.459  1.6980  0.7761  0.8911
  361MPD2    H2 5409   0.328   3.452  16.386 -1.1322  1.0055  0.7248
  361MPD2    H3 5410   0.447   3.253  16.313  0.7812 -1.6625  0.3064
  361MPD2     N 5411   0.496   3.085  16.715  0.3683 -0.0793  0.4060
  361MPD2    H5 5412   0.544   3.009  16.668 -0.1574  0.3740 -0.8673
  361MPD2    N1 5413   0.284   3.512  16.661 -0.4417  0.7503  0.1507
  361MPD2    H7 5414   0.278   3.519  16.762 -0.3994  2.2413  0.0611
  362TMC3    C1 5415   0.192   3.732  16.662  0.6961 -0.0729  0.5174
  362TMC3    C2 5416   0.097   3.687  16.755  0.1362  0.0416 -0.2330
  362TMC3    C3 5417   4.708   3.755  16.778 -0.3967 -0.5322 -0.3290
  362TMC3    C4 5418   0.168   3.848  16.588 -0.3498  0.2797  0.8593
  362TMC3    C5 5419   0.046   3.906  16.611  0.3389 -0.0547 -0.4843
  362TMC3    C6 5420   4.681   3.869  16.712  0.3210 -0.7276 -0.0451
  362TMC3     C 5421   0.266   3.631  16.590  0.2138  0.0202 -0.7160
  362TMC3     O 5422   0.318   3.661  16.480  0.1502 -0.1432  0.3184
  362TMC3     H 5423   0.112   3.601  16.819 -1.3447  0.7531  1.0648
  362TMC3    H1 5424   0.232   3.872  16.504 -1.3428  0.2199  0.0944
  362TMC3    H2 5425   4.589   3.923  16.728 -0.7966 -1.9310 -2.3918
  362TMC3    C7 5426   0.021   4.038  16.556  0.8048 -0.0807  0.5323
  362TMC3    C8 5427   4.596   3.668  16.779  0.0327  0.4005 -0.3479
  362TMC3    O1 5428   4.641   4.098  16.588 -0.0127 -0.0606 -0.2073
  362TMC3    O2 5429   4.610   3.568  16.709 -0.7507 -0.7307  0.4308
  363TMC3    C1 5430   3.796   1.103   9.690  0.4634 -0.4871 -0.3424
  363TMC3    C2 5431   3.793   1.010   9.784  0.1161  0.1264  0.3847
  363TMC3    C3 5432   3.672   1.003   9.850  0.6690  0.5954  0.3020
  363TMC3    C4 5433   3.691   1.187   9.649 -0.4054  0.6145  0.3558
  363TMC3    C5 5434   3.570   1.161   9.712 -0.0342 -0.6780  0.9751
  363TMC3    C6 5435   3.556   1.067   9.805 -0.4683 -0.1112  0.4148
  363TMC3     C 5436   3.931   1.130   9.633  1.5176 -0.3073 -0.1893
  363TMC3     O 5437   4.015   1.036   9.637  0.0061  0.1277  0.2914
  363TMC3     H 5438   3.880   0.967   9.832  1.6971  0.4529 -2.1962
  363TMC3    H1 5439   3.702   1.229   9.550 -0.1763 -2.1124 -0.7871
  363TMC3    H2 5440   3.463   1.055   9.859 -1.0196 -2.0297 -0.9575
  363TMC3    C7 5441   3.445   1.226   9.666 -0.2270  0.0433  1.2824
  363TMC3    C8 5442   3.643   0.912   9.959 -0.9871 -0.0616 -0.2815
  363TMC3    O1 5443   3.340   1.172   9.701  0.2908 -0.0081 -0.6411
  363TMC3    O2 5444   3.543   0.934  10.025 -0.6308  0.3806 -0.6082
  364MPD2     C 5445   1.847   4.681  10.635 -0.3484 -0.5880  0.2227
  364MPD2    C1 5446   1.974   4.657  10.592  0.2995 -0.0114 -0.1937
  364MPD2    C2 5447   2.037   4.543  10.633 -0.0692 -0.2567  0.0441
  364MPD2    C3 5448   1.975   4.449  10.721  0.4464 -0.3384 -0.2398
  364MPD2    C4 5449   1.846   4.471  10.762 -0.1245 -0.5000 -0.6823
  364MPD2    C5 5450   1.786   4.593  10.721 -0.1512  0.0356 -0.2299
  364MPD2     H 5451   2.135   4.523  10.591  0.8645 -0.3303  2.2586
  364MPD2    H1 5452   1.795   4.409  10.834  1.7743  0.7423  1.7656
  364MPD2    H2 5453   1.800   0.052  10.601  0.8073  0.7075  2.0888
  364MPD2    H3 5454   1.697   4.626  10.773 -0.1017 -1.7076  0.9803
  364MPD2     N 5455   2.033   4.335  10.775  0.8107 -0.4956 -0.2200
  364MPD2    H5 5456   1.975   4.289  10.844 -1.8943  0.1365 -2.0544
  364MPD2    N1 5457   2.036   0.036  10.516 -0.6587 -0.2598 -0.1121
  364MPD2    H7 5458   1.984   0.123  10.510 -2.3473 -1.1953  0.7611
  365TMC3    C1 5459   2.190   0.139  10.375 -0.2329 -0.5984  0.0712
  365TMC3    C2 5460   2.260   0.128  10.255 -0.1577 -0.0627 -0.5718
  365TMC3    C3 5461   2.308   0.249  10.208  0.2436  0.2755  0.4902
  365TMC3    C4 5462   2.166   0.259  10.442 -0.7608  0.3728 -0.1948
  365TMC3    C5 5463   2.208   0.374  10.387  0.0201 -0.6459 -0.6894
  365TMC3    C6 5464   2.278   0.369  10.270 -0.0236 -0.5218  0.1024
  365TMC3     C 5465   2.156   0.020  10.447  0.1116  0.4065 -0.5972
  365TMC3     O 5466   2.241   4.652  10.442 -0.5700 -0.3555 -0.5480
  365TMC3     H 5467   2.273   0.033  10.204  3.8270  0.9049 -1.3543
  365TMC3    H1 5468   2.131   0.253  10.545 -1.4152  0.6420 -0.3998
  365TMC3    H2 5469   2.323   0.462  10.235 -0.1701 -0.1045  1.0343
  365TMC3    C7 5470   2.217   0.497  10.468  0.0431 -0.3107 -0.1633
  365TMC3    C8 5471   2.362   0.255  10.078  0.2862 -0.5419  0.6993
  365TMC3    O1 5472   2.276   0.594  10.422  0.2912  0.4797  0.3760
  365TMC3    O2 5473   2.361   0.359  10.019 -0.0656  0.2210  0.4442
  366MPD2     C 5474   0.868   0.980  15.456  0.5238 -0.4812  0.1087
  366MPD2    C1 5475   0.899   1.095  15.522 -0.0175  0.7274  0.1375
  366MPD2    C2 5476   1.024   1.114  15.567 -0.7935 -0.0608  0.4448
  366MPD2    C3 5477   1.133   1.048  15.509 -0.2657 -0.5171  0.2745
  366MPD2    C4 5478   1.102   0.937  15.429  0.6268  0.3190  0.0214
  366MPD2    C5 5479   0.967   0.887  15.419 -0.5076  0.0206 -0.9335
  366MPD2     H 5480   1.050   1.199  15.629 -2.3426  0.6328  0.1586
  366MPD2    H1 5481   1.184   0.879  15.387 -0.4927 -0.5262 -1.0075
  366MPD2    H2 5482   0.764   0.951  15.449  0.8029 -0.9466 -2.1570
  366MPD2    H3 5483   0.934   0.804  15.358  0.7637 -0.2407 -1.2537
  366MPD2     N 5484   1.259   1.109  15.528 -0.1525 -0.4567  0.8758
  366MPD2    H5 5485   1.259   1.195  15.582 -0.3690  0.2905 -0.3086
  366MPD2    N1 5486   0.813   1.198  15.558 -0.8968  0.3701 -0.1035
  366MPD2    H7 5487   0.856   1.277  15.605 -1.1440  0.5500 -0.1811
  367TMC3    C1 5488   0.618   1.321  15.570  0.3308  0.0846 -0.0152
  367TMC3    C2 5489   0.674   1.375  15.687 -0.3398  0.0661 -0.5181
  367TMC3    C3 5490   0.634   1.502  15.718 -0.5828 -0.1873  0.2284
  367TMC3    C4 5491   0.527   1.383  15.491 -0.1099 -0.2878  0.0976
  367TMC3    C5 5492   0.483   1.507  15.546 -0.2070 -0.4474  0.0193
  367TMC3    C6 5493   0.539   1.569  15.651 -0.3151  0.3673  0.0522
  367TMC3     C 5494   0.686   1.200  15.515  0.4458 -0.6276 -0.1181
  367TMC3     O 5495   0.611   1.125  15.456  0.6105  0.0539 -0.8410
  367TMC3     H 5496   0.745   1.322  15.749 -0.8312 -1.6930 -1.4557
  367TMC3    H1 5497   0.478   1.336  15.406  1.8690 -0.6371 -0.8648
  367TMC3    H2 5498   0.498   1.664  15.684  2.4981  1.5977  0.0586
  367TMC3    C7 5499   0.397   1.589  15.463  0.6281  0.6974  0.2876
  367TMC3    C8 5500   0.730   1.582  15.784 -1.0043 -0.0698 -0.8276
  367TMC3    O1 5501   0.422   1.708  15.477 -0.2029 -0.0507 -0.2748
  367TMC3    O2 5502   0.838   1.529  15.807  0.3283  0.3159  0.2476
  368MPD2     C 5503   1.280   3.637  13.067 -0.2002 -0.7265 -0.5496
  368MPD2    C1 5504   1.304   3.768  13.034 -0.1031  0.0511 -0.3543
  368MPD2    C2 5505   1.425   3.831  13.067 -0.7215 -0.6116  0.7525
  368MPD2    C3 5506   1.516   3.755  13.144  0.4012 -0.6062 -0.5922
  368MPD2    C4 5507   1.477   3.630  13.183 -0.1988  0.3421 -0.0379
  368MPD2    C5 5508   1.370   3.569  13.144 -0.0842 -0.1880 -0.4501
  368MPD2     H 5509   1.446   3.932  13.033 -2.3049 -0.4435  0.2789
  368MPD2    H1 5510   1.543   3.572  13.246  0.4146  0.9904 -0.0823
  368MPD2    H2 5511   1.195   3.587  13.021 -1.2429  1.7274 -1.2837
  368MPD2    H3 5512   1.354   3.462  13.152  0.0065 -0.1153  0.7080
  368MPD2     N 5513   1.644   3.797  13.180  0.7737  0.0602 -0.5327
  368MPD2    H5 5514   1.702   3.734  13.234 -0.5314 -0.1780  0.5956
  368MPD2    N1 5515   1.211   3.828  12.945 -0.0346  0.2839  0.1567
  368MPD2    H7 5516   1.139   3.766  12.910  0.0402  1.2948 -1.8074
  369TMC3    C1 5517   1.099   4.000  12.807  0.0066  0.0745  0.5887
  369TMC3    C2 5518   1.119   4.085  12.703 -0.4299 -0.1370  0.2182
  369TMC3    C3 5519   1.027   4.088  12.603 -0.2794  0.2457  0.1795
  369TMC3    C4 5520   0.985   3.928  12.821 -0.1372  0.4813 -0.5368
  369TMC3    C5 5521   0.896   3.932  12.720  0.1793  0.0004  0.3685
  369TMC3    C6 5522   0.912   4.020  12.613 -0.5513  0.3784 -0.3100
  369TMC3     C 5523   1.210   3.967  12.905  0.0970  0.4625  0.4945
  369TMC3     O 5524   1.287   4.056  12.940 -0.1674  0.5942 -0.4437
  369TMC3     H 5525   1.210   4.143  12.697  0.5650 -2.0155 -3.0303
  369TMC3    H1 5526   0.968   3.864  12.907  2.0695  0.0748 -0.4106
  369TMC3    H2 5527   0.845   4.021  12.528 -0.5457  0.9435 -0.3086
  369TMC3    C7 5528   0.787   3.836  12.728  0.2038  0.0126 -0.6647
  369TMC3    C8 5529   1.067   4.132  12.477  0.2375  0.1270 -0.0011
  369TMC3    O1 5530   0.794   3.766  12.828 -0.7924 -0.3163  0.3874
  369TMC3    O2 5531   0.984   4.137  12.389 -0.0453 -0.8356  0.0890
  370TMC3    C1 5532   1.089   3.990  16.236  0.3650 -0.6434  0.3812
  370TMC3    C2 5533   1.037   3.909  16.330 -0.6916  0.4750 -0.0278
  370TMC3    C3 5534   1.002   3.783  16.293  0.4937 -0.1933  1.0135
  370TMC3    C4 5535   1.116   3.948  16.110 -0.3945  0.0208  1.1467
  370TMC3    C5 5536   1.100   3.817  16.083  0.0023 -0.0152 -0.2865
  370TMC3    C6 5537   1.050   3.729  16.170  0.0467 -0.0447  0.1527
  370TMC3     C 5538   1.093   4.138  16.264  0.7070 -0.1223  0.6292
  370TMC3     O 5539   1.029   4.170  16.363 -0.0908 -0.1581  0.7564
  370TMC3     H 5540   1.009   3.936  16.431 -0.9867 -0.3752  0.1217
  370TMC3    H1 5541   1.155   4.013  16.032  3.3448 -1.3411  1.8497
  370TMC3    H2 5542   1.031   3.629  16.135 -1.0904  0.1548  0.1700
  370TMC3    C7 5543   1.138   3.776  15.952 -0.2699  0.3815 -0.2517
  370TMC3    C8 5544   0.994   3.684  16.400  0.3047  0.4208 -0.3978
  370TMC3    O1 5545   1.142   3.851  15.855  0.4016  0.0741 -0.1505
  370TMC3    O2 5546   1.027   3.573  16.365  0.0403  0.0978  0.0647
  371TMC3    C1 5547   2.786   2.500  15.447  0.0561 -0.5503 -0.2649
  371TMC3    C2 5548   2.665   2.474  15.497 -0.8256 -0.4048 -0.6759
  371TMC3    C3 5549   2.566   2.569  15.475 -0.6226 -0.4444 -0.1829
  371TMC3    C4 5550   2.819   2.621  15.387 -0.3978  0.8027  0.5826
  371TMC3    C5 5551   2.709   2.703  15.359 -0.6944  0.0511 -0.0296
  371TMC3    C6 5552   2.582   2.671  15.391 -0.6269 -0.0551 -0.7094
  371TMC3     C 5553   2.892   2.404  15.444  0.3240 -0.3590 -0.9497
  371TMC3     O 5554   3.006   2.443  15.430  0.4598  0.2553 -0.3640
  371TMC3     H 5555   2.641   2.385  15.555  1.0136 -0.1551  0.4742
  371TMC3    H1 5556   2.919   2.630  15.345 -0.4171  0.3213  0.4344
  371TMC3    H2 5557   2.501   2.742  15.386 -0.5640  0.1340  0.8066
  371TMC3    C7 5558   2.727   2.819  15.272 -0.2220  0.0876 -0.0644
  371TMC3    C8 5559   2.429   2.522  15.491 -0.2318  0.0036 -0.0490
  371TMC3    O1 5560   2.638   2.903  15.280 -1.0868 -0.0589 -0.3005
  371TMC3    O2 5561   2.419   2.401  15.504 -0.0968  1.0992  0.2892
  372MPD2     C 5562   2.266   3.922  13.384 -0.6966  0.3219  0.5000
  372MPD2    C1 5563   2.259   3.892  13.519  0.3897 -0.9085  0.2833
  372MPD2    C2 5564   2.148   3.812  13.552 -0.0464 -0.0758  0.0694
  372MPD2    C3 5565   2.066   3.740  13.461 -0.1441  0.2207 -0.5463
  372MPD2    C4 5566   2.080   3.776  13.327 -0.2159  0.2516 -0.4593
  372MPD2    C5 5567   2.177   3.869  13.297 -1.3996 -0.1060  0.3423
  372MPD2     H 5568   2.133   3.795  13.658  2.7286  1.5813  0.7376
  372MPD2    H1 5569   2.009   3.737  13.255 -2.3024  0.9256  1.2243
  372MPD2    H2 5570   2.338   3.994  13.349 -0.5968  0.6951  1.4533
  372MPD2    H3 5571   2.177   3.911  13.197 -0.9811 -2.6808 -0.7385
  372MPD2     N 5572   1.960   3.659  13.511 -0.1588 -0.5470  0.5838
  372MPD2    H5 5573   1.961   3.649  13.612  1.0049 -0.8028  0.5426
  372MPD2    N1 5574   2.340   3.949  13.626  0.1319  0.1884 -0.3332
  372MPD2    H7 5575   2.314   3.927  13.722 -0.3518 -1.5966 -0.8763
  373TMC3    C1 5576   1.780   3.501  13.495  0.5344 -0.3023 -0.1338
  373TMC3    C2 5577   1.797   3.485  13.626 -0.0492 -0.5161  0.0617
  373TMC3    C3 5578   1.769   3.354  13.676  0.2437  0.5283 -0.5298
  373TMC3    C4 5579   1.737   3.400  13.406  0.0281 -0.0028  0.0953
  373TMC3    C5 5580   1.707   3.276  13.464  0.2795 -0.1223  0.5122
  373TMC3    C6 5581   1.721   3.248  13.596  0.1813 -0.0748 -0.7897
  373TMC3     C 5582   1.864   3.608  13.433 -0.4625 -0.1185 -0.3760
  373TMC3     O 5583   1.828   3.642  13.324  0.7013 -0.4263  0.8639
  373TMC3     H 5584   1.831   3.560  13.696  1.8763 -0.2962 -1.0994
  373TMC3    H1 5585   1.726   3.420  13.301 -0.8589 -1.1391 -0.0336
  373TMC3    H2 5586   1.705   3.153  13.646 -1.0694 -0.2238 -1.4778
  373TMC3    C7 5587   1.721   3.173  13.366 -0.2854 -0.4424  0.1465
  373TMC3    C8 5588   1.827   3.333  13.809 -0.1082  0.4457  0.4254
  373TMC3    O1 5589   1.799   3.190  13.275  0.1707 -0.0476  0.0245
  373TMC3    O2 5590   1.900   3.420  13.851 -0.0605 -0.0416 -0.3607
  374TMC3    C1 5591   2.816   3.177   9.372  0.4538 -0.1354 -0.4643
  374TMC3    C2 5592   2.908   3.275   9.414  0.4604 -0.2327  0.1373
  374TMC3    C3 5593   2.947   3.363   9.316  0.2324 -0.5211 -0.2995
  374TMC3    C4 5594   2.769   3.164   9.241  0.4360 -0.5467 -0.5997
  374TMC3    C5 5595   2.814   3.260   9.155  0.2833 -0.0886 -0.5278
  374TMC3    C6 5596   2.903   3.360   9.187 -0.2370  0.9341 -0.1761
  374TMC3     C 5597   2.808   3.057   9.453  0.3545 -0.3535 -0.3855
  374TMC3     O 5598   2.724   2.977   9.414 -0.2550  0.5143 -0.4576
  374TMC3     H 5599   2.920   3.282   9.521 -0.5775 -0.1207  0.2509
  374TMC3    H1 5600   2.692   3.089   9.226  0.3463 -0.1524 -2.1133
  374TMC3    H2 5601   2.921   3.447   9.126 -1.0367  0.9163 -0.4423
  374TMC3    C7 5602   2.754   3.263   9.022 -0.1601 -0.3055  0.2280
  374TMC3    C8 5603   2.998   3.492   9.358 -0.0283 -0.1779  0.0008
  374TMC3    O1 5604   2.810   3.315   8.927 -1.0473 -0.5464  0.1975
  374TMC3    O2 5605   2.986   3.589   9.285 -0.0178 -0.3896 -0.0477
  375MPD2     C 5606   2.329   3.726  16.562 -0.8156  0.7285 -1.0639
  375MPD2    C1 5607   2.267   3.780  16.454  0.2234  0.7190  0.6132
  375MPD2    C2 5608   2.330   3.785  16.334 -1.3091 -0.3052 -1.0873
  375MPD2    C3 5609   2.454   3.727  16.321  0.1131  0.0062  0.4435
  375MPD2    C4 5610   2.504   3.651  16.422  0.0024  0.4360  0.4738
  375MPD2    C5 5611   2.442   3.647  16.541  0.0685 -1.3026  0.1842
  375MPD2     H 5612   2.286   3.847  16.258  1.3685 -0.5177 -2.8081
  375MPD2    H1 5613   2.595   3.593  16.412  1.3453  2.2837  1.9698
  375MPD2    H2 5614   2.286   3.730  16.661  1.1181 -0.3461 -0.1748
  375MPD2    H3 5615   2.485   3.598  16.627  0.3223 -1.4238 -0.0116
  375MPD2     N 5616   2.533   3.739  16.199 -0.5013  0.2569  0.2799
  375MPD2    H5 5617   2.621   3.689  16.189 -0.5302  0.7137 -2.3169
  375MPD2    N1 5618   2.162   3.878  16.481  0.9222  0.1334 -0.2418
  375MPD2    H7 5619   2.136   3.939  16.404 -0.6806 -0.7070 -0.3677
  376TMC3    C1 5620   2.606   3.835  15.987  0.1031  0.6870 -0.6680
  376TMC3    C2 5621   2.731   3.857  16.027  0.5682 -0.2592  0.0536
  376TMC3    C3 5622   2.816   3.922  15.939 -0.5071  0.7532  0.1751
  376TMC3    C4 5623   2.562   3.854  15.866  0.3272  1.3954  0.0798
  376TMC3    C5 5624   2.651   3.900  15.777 -0.0399  0.0176  0.1630
  376TMC3    C6 5625   2.781   3.940  15.804  1.2356  0.2732 -0.6067
  376TMC3     C 5626   2.502   3.819  16.088  0.3819  0.1949 -0.2735
  376TMC3     O 5627   2.394   3.856  16.051 -0.1073  0.3294  0.1621
  376TMC3     H 5628   2.756   3.864  16.133  1.3730 -1.1772 -0.0777
  376TMC3    H1 5629   2.462   3.830  15.830  0.4754 -2.4023  2.1918
  376TMC3    H2 5630   2.844   3.983  15.727 -0.4132  1.5182 -1.2528
  376TMC3    C7 5631   2.604   3.938  15.642 -0.2900  0.8852  0.0684
  376TMC3    C8 5632   2.952   3.942  15.963 -0.0509  0.8070 -0.7152
  376TMC3    O1 5633   2.676   4.012  15.573 -0.0285  0.3018  0.4838
  376TMC3    O2 5634   3.019   4.007  15.884 -0.0127  0.4518 -0.4393
  377MPD2     C 5635   0.421   3.962  12.034 -0.4442  0.6311 -0.2779
  377MPD2    C1 5636   0.488   3.970  12.157 -0.1528 -0.0910  0.1827
  377MPD2    C2 5637   0.415   3.977  12.274  0.5534 -0.0890  0.1269
  377MPD2    C3 5638   0.273   3.988  12.264  1.0219 -0.3197  0.4659
  377MPD2    C4 5639   0.215   3.994  12.138 -0.5306  0.2859  0.2316
  377MPD2    C5 5640   0.290   3.990  12.022 -0.0896 -0.0124 -0.8972
  377MPD2     H 5641   0.468   3.963  12.368 -0.4857 -1.6877  0.4562
  377MPD2    H1 5642   0.107   3.995  12.127 -0.3510 -1.8208 -1.7157
  377MPD2    H2 5643   0.474   3.941  11.942  0.5773  1.9340  0.0177
  377MPD2    H3 5644   0.237   3.988  11.928  0.9170 -0.3752 -1.4557
  377MPD2     N 5645   0.184   3.979  12.368 -0.4701 -0.2410 -0.9757
  377MPD2    H5 5646   0.084   3.982  12.354 -0.6339 -0.6693  0.1285
  377MPD2    N1 5647   0.630   3.967  12.145 -0.3740  0.3014  0.1486
  377MPD2    H7 5648   0.660   3.961  12.048  1.3875 -0.5955  0.7369
  378TMC3    C1 5649   1.027   3.944  12.088 -0.2932 -0.0009  0.4591
  378TMC3    C2 5650   0.896   3.959  12.105 -0.5075 -0.3325  0.4654
  378TMC3    C3 5651   0.848   3.912  12.225 -0.0137 -0.1989  0.3027
  378TMC3    C4 5652   1.109   3.879  12.181  0.6889 -0.6825  0.5756
  378TMC3    C5 5653   1.052   3.841  12.301 -0.3227  0.8520  0.2676
  378TMC3    C6 5654   0.917   3.853  12.325 -0.2146 -0.0162  0.3305
  378TMC3     C 5655   1.081   3.988  11.962  0.3505  0.1280  0.7215
  378TMC3     O 5656   0.997   4.045  11.892 -0.0658 -0.6947  0.2362
  378TMC3     H 5657   0.846   4.029  12.039  2.4114 -0.4690 -1.8787
  378TMC3    H1 5658   1.217   3.881  12.167  0.2053  0.5247 -3.1273
  378TMC3    H2 5659   0.867   3.801  12.406 -0.5313  3.0572  2.1180
  378TMC3    C7 5660   1.135   3.784  12.407  0.4408 -0.9271 -0.4728
  378TMC3    C8 5661   0.716   3.963  12.254  0.2462  0.0385  0.1436
  378TMC3    O1 5662   1.082   3.775  12.517 -0.1263  0.0720 -0.2123
  378TMC3    O2 5663   0.686   3.951  12.370 -0.0305 -0.4466  0.0038
  379MPD2     C 5664   1.856   1.496  15.965  0.4964  0.1408 -0.3360
  379MPD2    C1 5665   1.772   1.553  16.063 -0.4581 -0.0909  0.3062
  379MPD2    C2 5666   1.793   1.522  16.197  1.3057  0.1192 -0.0821
  379MPD2    C3 5667   1.884   1.422  16.244  0.0419 -0.2348  0.2889
  379MPD2    C4 5668   1.963   1.365  16.142  0.5922 -0.0084 -0.4012
  379MPD2    C5 5669   1.954   1.404  16.006 -0.4438  0.3037 -0.0684
  379MPD2     H 5670   1.732   1.583  16.264  1.2707 -0.4945  0.4497
  379MPD2    H1 5671   2.043   1.298  16.172  0.6346  0.3347  0.2480
  379MPD2    H2 5672   1.843   1.514  15.859 -0.5770  1.1220 -0.0350
  379MPD2    H3 5673   2.005   1.343  15.932 -0.6158  0.8176 -0.6103
  379MPD2     N 5674   1.909   1.384  16.378 -0.2325 -0.3324  0.0575
  379MPD2    H5 5675   1.990   1.325  16.397  0.6277  0.9367  0.3059
  379MPD2    N1 5676   1.671   1.640  16.015  0.3267 -0.4165 -0.0241
  379MPD2    H7 5677   1.668   1.666  15.917  0.6372 -1.4368 -0.3105
  380TMC3    C1 5678   1.519   1.808  16.016 -0.1102  0.3063 -0.9059
  380TMC3    C2 5679   1.616   1.899  15.962  0.5075 -0.3335 -0.7838
  380TMC3    C3 5680   1.571   2.011  15.913 -0.5000 -0.9829 -0.1454
  380TMC3    C4 5681   1.387   1.838  16.017  0.4889 -0.6795 -0.2602
  380TMC3    C5 5682   1.355   1.957  15.965 -0.2101 -0.2082 -0.2944
  380TMC3    C6 5683   1.438   2.046  15.914 -0.2546  0.4373 -0.1013
  380TMC3     C 5684   1.568   1.690  16.084 -0.6848 -0.3240  0.3429
  380TMC3     O 5685   1.517   1.654  16.188 -0.6707  0.0175 -0.3488
  380TMC3     H 5686   1.722   1.873  15.967  0.4523 -0.3908  0.1385
  380TMC3    H1 5687   1.318   1.763  16.053 -0.3867  0.9065  1.3665
  380TMC3    H2 5688   1.397   2.132  15.862 -1.2802  0.2980  0.4706
  380TMC3    C7 5689   1.216   2.002  15.959 -0.3437 -0.0997 -0.4038
  380TMC3    C8 5690   1.650   2.074  15.807  0.0360  0.8345 -0.1138
  380TMC3    O1 5691   1.189   2.122  15.971  0.1393  0.2080  0.0800
  380TMC3    O2 5692   1.592   2.135  15.718  0.1795  0.7795 -0.0957
  381TMC3    C1 5693   1.299   2.979  16.141  0.1781 -0.4753  0.0233
  381TMC3    C2 5694   1.382   3.088  16.158 -0.3167 -1.2819 -0.2523
  381TMC3    C3 5695   1.376   3.174  16.269 -0.7783  0.8532  0.3000
  381TMC3    C4 5696   1.208   2.953  16.233  0.6482  0.1992 -0.4169
  381TMC3    C5 5697   1.191   3.044  16.333  0.2610  1.0872  1.3697
  381TMC3    C6 5698   1.267   3.155  16.347  0.4015  0.0654  0.2119
  381TMC3     C 5699   1.320   2.888  16.023 -0.0870  0.1645  0.6872
  381TMC3     O 5700   1.372   2.949  15.928 -0.1739  0.6304  0.5596
  381TMC3     H 5701   1.451   3.110  16.077 -1.4227  0.2366 -0.7836
  381TMC3    H1 5702   1.140   2.869  16.225 -0.9384  1.4295  0.1076
  381TMC3    H2 5703   1.238   3.228  16.422 -1.1298 -0.0112 -0.3022
  381TMC3    C7 5704   1.141   2.990  16.455 -0.2065 -0.0770  0.4128
  381TMC3    C8 5705   1.432   3.306  16.253  0.4548  0.3347  1.2247
  381TMC3    O1 5706   1.158   2.867  16.466  0.6102  0.3640  0.4460
  381TMC3    O2 5707   1.500   3.320  16.155  0.1564  0.6671 -0.6745
  382MPD2     C 5708   0.585   0.953   0.270 -0.7282  0.0726  0.8430
  382MPD2    C1 5709   0.555   0.998   0.141 -0.1097 -0.1876  0.8273
  382MPD2    C2 5710   0.462   0.933   0.069  0.8495  0.2824 -0.4143
  382MPD2    C3 5711   0.405   0.818   0.114 -0.0135  0.3577 -0.4080
  382MPD2    C4 5712   0.434   0.772   0.240  0.0058  0.0495 -0.0398
  382MPD2    C5 5713   0.522   0.842   0.313 -0.0506  0.2862  0.2323
  382MPD2     H 5714   0.438   0.959  17.655 -0.2110  0.9650  0.0090
  382MPD2    H1 5715   0.397   0.679   0.281 -0.0450 -0.8730 -2.2056
  382MPD2    H2 5716   0.661   1.000   0.332 -0.0656 -2.0831  1.6520
  382MPD2    H3 5717   0.544   0.789   0.405 -0.9382  1.8247  1.3254
  382MPD2     N 5718   0.305   0.743   0.044  0.8937  0.2254  0.5743
  382MPD2    H5 5719   0.261   0.664   0.090 -0.0294  1.1133  1.2448
  382MPD2    N1 5720   0.620   1.107   0.077 -0.7567  0.4921  0.2431
  382MPD2    H7 5721   0.586   1.127  17.672  1.5669  0.1603 -0.6595
  383TMC3    C1 5722   0.125   0.684  17.604  0.3754 -0.0070 -0.2370
  383TMC3    C2 5723   0.087   0.639  17.481 -0.0618 -0.0948 -0.5609
  383TMC3    C3 5724   4.700   0.560  17.461 -0.9690  0.3351 -0.4664
  383TMC3    C4 5725   0.053   0.636   0.026 -0.4911  0.5832  0.2879
  383TMC3    C5 5726   4.662   0.562   0.008  0.6966 -0.3959 -0.0264
  383TMC3    C6 5727   4.626   0.521  17.569  0.0513  0.3286  0.4844
  383TMC3     C 5728   0.237   0.772  17.617 -0.4862  0.4382 -0.2248
  383TMC3     O 5729   0.242   0.859  17.534 -0.4623  0.1476 -0.6844
  383TMC3     H 5730   0.137   0.680  17.394 -0.5874  2.8983  0.5161
  383TMC3    H1 5731   0.070   0.675   0.125  2.6294  0.5469 -0.2482
  383TMC3    H2 5732   4.539   0.459  17.547  1.3106 -0.5796 -2.0698
  383TMC3    C7 5733   4.580   0.527   0.123  0.0974 -0.1289 -0.4143
  383TMC3    C8 5734   4.670   0.494  17.331 -0.7639  0.4231  0.2911
  383TMC3    O1 5735   4.473   0.480   0.096 -0.6228 -0.0515  0.4479
  383TMC3    O2 5736   4.567   0.425  17.336  0.0078 -0.6009  0.0246
  384MPD2     C 5737   2.052   1.709  12.149  0.2485 -0.5500 -0.5195
  384MPD2    C1 5738   2.049   1.635  12.268 -0.3351  0.0509 -0.0692
  384MPD2    C2 5739   2.072   1.500  12.263 -0.7453 -0.5330 -0.6204
  384MPD2    C3 5740   2.085   1.435  12.142  0.4376  0.7737  0.1742
  384MPD2    C4 5741   2.090   1.507  12.028  0.7533 -0.2705  0.1082
  384MPD2    C5 5742   2.079   1.642  12.030  0.5452  0.0200  0.3424
  384MPD2     H 5743   2.072   1.439  12.352 -1.3185 -1.1522 -1.0410
  384MPD2    H1 5744   2.101   1.472  11.926  1.6734 -0.4341  0.2607
  384MPD2    H2 5745   2.042   1.817  12.150 -1.9372 -0.7373 -1.4121
  384MPD2    H3 5746   2.087   1.699  11.939 -1.1980  0.7688  0.6640
  384MPD2     N 5747   2.100   1.296  12.143 -0.0589  0.1941 -0.2192
  384MPD2    H5 5748   2.101   1.249  12.233 -0.9187 -1.2419 -0.9658
  384MPD2    N1 5749   2.008   1.693  12.389 -0.2164 -0.1222  0.6149
  384MPD2    H7 5750   1.998   1.635  12.472 -1.1813 -0.8312  0.0052
  385TMC3    C1 5751   2.083   1.079  12.066 -0.2071  0.3091 -0.1003
  385TMC3    C2 5752   1.972   1.034  11.997 -0.2268 -0.2652  0.0667
  385TMC3    C3 5753   1.873   0.968  12.073 -0.0227  0.5015 -1.1115
  385TMC3    C4 5754   2.097   1.060  12.201  0.1216  0.0568 -0.0466
  385TMC3    C5 5755   1.998   1.013  12.273 -0.6433 -0.1802  0.0580
  385TMC3    C6 5756   1.887   0.969  12.209  0.5962  0.2853  0.5240
  385TMC3     C 5757   2.115   1.215  12.030  0.2020  0.2341 -0.1234
  385TMC3     O 5758   2.125   1.238  11.908  0.0012 -0.4086 -0.0214
  385TMC3     H 5759   1.954   1.072  11.896  2.4789 -0.6067 -0.5366
  385TMC3    H1 5760   2.195   1.079  12.244  0.0561  2.3263 -0.9152
  385TMC3    H2 5761   1.794   0.943  12.260 -0.1837 -1.2800 -1.6766
  385TMC3    C7 5762   1.978   1.088  12.395 -0.2020 -0.2650 -0.9083
  385TMC3    C8 5763   1.745   0.971  12.022 -0.0521 -0.9728  0.3155
  385TMC3    O1 5764   2.061   1.175  12.411 -0.1201  0.2195  0.5527
  385TMC3    O2 5765   1.651   0.980  12.102 -0.1012 -0.0429  0.1069
  386TMC3    C1 5766   1.979   4.084  11.590  0.4947  0.0248  0.0681
  386TMC3    C2 5767   2.017   4.006  11.494 -0.1211 -0.1006 -0.2560
  386TMC3    C3 5768   1.960   4.025  11.367 -0.6133 -0.1506  0.2948
  386TMC3    C4 5769   1.892   4.183  11.574  0.0597  1.2055  0.0560
  386TMC3    C5 5770   1.830   4.198  11.452  0.3393 -0.1982 -0.2120
  386TMC3    C6 5771   1.866   4.125  11.342 -0.2497  0.0255 -0.0591
  386TMC3     C 5772   2.022   4.032  11.727 -0.1026  0.1043 -0.5132
  386TMC3     O 5773   1.952   4.053  11.824  0.1234  0.3029  0.2365
  386TMC3     H 5774   2.084   3.922  11.510  0.6402  0.9298  1.9542
  386TMC3    H1 5775   1.870   4.256  11.651 -0.2604  2.6020 -1.3585
  386TMC3    H2 5776   1.833   4.136  11.239  0.2223 -0.7634 -0.2948
  386TMC3    C7 5777   1.715   4.290  11.451 -0.4018  0.4425 -0.2142
  386TMC3    C8 5778   2.002   3.958  11.244  0.5737 -0.2549  0.4467
  386TMC3    O1 5779   1.661   4.307  11.563 -0.3192  0.1963  0.8316
  386TMC3    O2 5780   1.917   3.960  11.153  0.9383 -0.4835 -0.0183
  387MPD2     C 5781   4.223   3.981   9.401  0.2465 -0.3652  0.7177
  387MPD2    C1 5782   4.337   4.016   9.468 -0.4577 -0.8703  0.1507
  387MPD2    C2 5783   4.427   3.917   9.496 -0.6872  0.4146 -0.2031
  387MPD2    C3 5784   4.408   3.784   9.476 -0.2861 -0.2966  0.1282
  387MPD2    C4 5785   4.283   3.750   9.422  0.1167  0.2233 -0.0929
  387MPD2    C5 5786   4.193   3.850   9.382  0.4494  0.2267  0.2187
  387MPD2     H 5787   4.517   3.940   9.551 -1.4427 -0.7303  1.4886
  387MPD2    H1 5788   4.246   3.649   9.410  1.1084 -0.1623  0.0070
  387MPD2    H2 5789   4.141   4.050   9.381  0.8849  0.5367  1.1989
  387MPD2    H3 5790   4.096   3.840   9.335  0.8142  0.9268 -0.6845
  387MPD2     N 5791   4.512   3.698   9.517 -0.4906 -0.1511  0.1383
  387MPD2    H5 5792   4.591   3.756   9.544 -0.3467  0.4379 -1.5948
  387MPD2    N1 5793   4.368   4.139   9.540  0.0451  0.4107  0.6284
  387MPD2    H7 5794   4.459   4.139   9.585  0.4781 -0.3208 -0.2383
  388TMC3    C1 5795   4.319   4.318   9.677  0.2802 -0.1124  0.0507
  388TMC3    C2 5796   4.294   4.454   9.684 -0.0912 -0.4362 -0.1173
  388TMC3    C3 5797   4.324   4.523   9.798  0.1042 -0.4716 -0.3025
  388TMC3    C4 5798   4.392   4.257   9.773  0.6599 -0.2614 -0.1838
  388TMC3    C5 5799   4.421   4.332   9.889  0.1669 -0.8313 -0.6386
  388TMC3    C6 5800   4.391   4.465   9.908 -0.2296  0.3055  0.8677
  388TMC3     C 5801   4.284   4.246   9.558 -0.1423  0.3492  0.1781
  388TMC3     O 5802   4.185   4.274   9.494 -0.8807  0.4561 -0.0460
  388TMC3     H 5803   4.243   4.491   9.596  1.1869  1.3300 -0.1121
  388TMC3    H1 5804   4.402   4.149   9.771 -1.2540 -0.4507 -0.0996
  388TMC3    H2 5805   4.441   4.524   9.984  0.0321  4.8364 -2.8090
  388TMC3    C7 5806   4.506   4.276   9.988 -0.3584 -0.5285 -0.3536
  388TMC3    C8 5807   4.278   4.658   9.797  0.5930 -0.0928 -0.0152
  388TMC3    O1 5808   4.512   4.326  10.096 -0.4987 -0.2337  0.2502
  388TMC3    O2 5809   4.236   4.700   9.689  0.4427 -0.1427 -0.0379
  389MPD2     C 5810   3.889   2.035  11.608 -0.6260 -0.1768  0.2883
  389MPD2    C1 5811   3.790   2.005  11.520 -0.2980  0.1557 -0.8703
  389MPD2    C2 5812   3.665   1.971  11.566  0.8081 -0.4682 -0.0967
  389MPD2    C3 5813   3.640   1.970  11.706  0.0871  0.2085  0.1073
  389MPD2    C4 5814   3.740   2.008  11.790  0.0248 -0.0506 -0.0349
  389MPD2    C5 5815   3.865   2.025  11.743  0.0835 -0.4813 -0.3106
  389MPD2     H 5816   3.586   1.933  11.502 -0.0328  2.7702 -0.9821
  389MPD2    H1 5817   3.735   1.996  11.898  2.4788 -2.6162 -0.1982
  389MPD2    H2 5818   3.988   2.059  11.571 -2.0688  0.8949 -2.9404
  389MPD2    H3 5819   3.946   2.033  11.815 -1.5662  0.5601  1.4395
  389MPD2     N 5820   3.510   1.941  11.761  0.0821  0.5585 -0.0393
  389MPD2    H5 5821   3.497   1.956  11.860  2.1765 -0.9733  0.4771
  389MPD2    N1 5822   3.823   2.012  11.383  0.0942  0.0414 -0.2005
  389MPD2    H7 5823   3.912   2.055  11.360  0.1044 -0.5631 -1.2706
  390TMC3    C1 5824   3.280   1.871  11.773  0.0379  0.2742  0.4690
  390TMC3    C2 5825   3.289   1.821  11.900 -0.1786 -0.0739 -0.4247
  390TMC3    C3 5826   3.182   1.822  11.980  0.6231 -0.3399  0.0861
  390TMC3    C4 5827   3.160   1.903  11.716  0.6268  0.2850 -0.4456
  390TMC3    C5 5828   3.044   1.883  11.793 -0.3568  0.6414 -0.1749
  390TMC3    C6 5829   3.058   1.862  11.932 -0.7091  0.4359  0.6065
  390TMC3     C 5830   3.401   1.886  11.691  0.0481  0.0050  0.1237
  390TMC3     O 5831   3.382   1.859  11.575  0.3826 -0.2618 -0.4034
  390TMC3     H 5832   3.378   1.779  11.946 -0.1416 -0.6449 -1.0241
  390TMC3    H1 5833   3.142   1.916  11.610 -1.6800 -0.5932 -0.1663
  390TMC3    H2 5834   2.972   1.834  11.991  1.0251  0.8227  3.3301
  390TMC3    C7 5835   2.933   1.818  11.729 -0.3133  0.1690  0.0330
  390TMC3    C8 5836   3.156   1.703  12.048 -0.4337 -0.2215  0.1267
  390TMC3    O1 5837   2.957   1.735  11.637  0.1337 -0.1541  0.1900
  390TMC3    O2 5838   3.178   1.717  12.166 -0.8413 -0.4143 -0.5452
  391MPD2     C 5839   3.185   3.339  10.937 -0.7229 -0.2499 -0.1747
  391MPD2    C1 5840   3.282   3.437  10.919 -0.1036 -0.6040 -0.0269
  391MPD2    C2 5841   3.326   3.478  10.797  0.3709 -0.0230 -0.8030
  391MPD2    C3 5842   3.259   3.441  10.687 -0.2385  0.2592  0.1804
  391MPD2    C4 5843   3.163   3.339  10.701 -0.5109  0.4642  0.0956
  391MPD2    C5 5844   3.124   3.291  10.819 -0.5513  0.0093  0.5294
  391MPD2     H 5845   3.402   3.553  10.775  1.2865 -1.3578 -2.2038
  391MPD2    H1 5846   3.107   3.300  10.616  0.1266 -0.9731  0.3316
  391MPD2    H2 5847   3.161   3.303  11.036  0.1408 -1.4635 -0.4137
  391MPD2    H3 5848   3.041   3.223  10.832 -2.3624  1.9306 -1.0206
  391MPD2     N 5849   3.292   3.508  10.564 -0.5859  0.0674 -0.2097
  391MPD2    H5 5850   3.375   3.565  10.565 -0.0289 -0.7398  0.4929
  391MPD2    N1 5851   3.347   3.488  11.037 -0.4190 -0.6768  0.5954
  391MPD2    H7 5852   3.319   3.450  11.127  0.5617 -0.5522  0.9444
  392TMC3    C1 5853   3.268   3.571  10.337 -0.2912  0.0333 -0.0561
  392TMC3    C2 5854   3.239   3.522  10.210 -0.2061  0.0106 -0.2890
  392TMC3    C3 5855   3.302   3.586  10.106  0.3848 -0.1988  0.8747
  392TMC3    C4 5856   3.346   3.680  10.359 -0.5140  0.0973  0.6694
  392TMC3    C5 5857   3.402   3.745  10.254  0.0898  0.1475  0.0366
  392TMC3    C6 5858   3.386   3.697  10.120  0.4201  0.0301  0.4980
  392TMC3     C 5859   3.226   3.492  10.449  0.1129 -0.7684 -0.0472
  392TMC3     O 5860   3.123   3.430  10.425 -0.2479  0.3220 -0.3311
  392TMC3     H 5861   3.185   3.429  10.193  0.2267 -0.2602 -0.1789
  392TMC3    H1 5862   3.358   3.716  10.461 -2.2403  2.9732 -0.1252
  392TMC3    H2 5863   3.449   3.727  10.037  1.5893  0.1333  1.4207
  392TMC3    C7 5864   3.494   3.853  10.288 -0.5749 -0.0223  0.0492
  392TMC3    C8 5865   3.254   3.551   9.972 -0.2385 -0.8618  0.4586
  392TMC3    O1 5866   3.538   3.862  10.402  0.6416  0.1736  0.3800
  392TMC3    O2 5867   3.192   3.446   9.965 -0.7778  0.0677 -0.1464
  393TMC3    C1 5868   2.610   1.406  10.479 -0.3583 -0.3490 -0.7510
  393TMC3    C2 5869   2.494   1.365  10.537  0.5283 -0.2799 -0.4914
  393TMC3    C3 5870   2.462   1.232  10.521 -0.3073  0.3296 -0.1146
  393TMC3    C4 5871   2.703   1.319  10.416  0.2085 -0.2298 -0.1496
  393TMC3    C5 5872   2.663   1.185  10.405 -0.1756 -0.4498 -0.1448
  393TMC3    C6 5873   2.541   1.148  10.448 -0.2312  0.6559 -0.2624
  393TMC3     C 5874   2.598   1.540  10.424 -0.0673  0.6592 -0.3996
  393TMC3     O 5875   2.485   1.587  10.419  0.0228  0.1632 -0.2587
  393TMC3     H 5876   2.426   1.435  10.584 -1.6318 -2.8476  0.2491
  393TMC3    H1 5877   2.779   1.357  10.349 -0.1645  0.9495  0.0963
  393TMC3    H2 5878   2.504   1.046  10.446  1.8021 -0.0783 -0.1367
  393TMC3    C7 5879   2.720   1.113  10.297  0.1655  0.3424  0.0587
  393TMC3    C8 5880   2.326   1.197  10.552 -0.0210 -0.4273  0.0558
  393TMC3    O1 5881   2.660   1.016  10.255 -0.3877 -0.1846  0.3071
  393TMC3    O2 5882   2.275   1.098  10.498 -0.5459 -0.0064 -0.8485
  394TMC3    C1 5883   3.790   2.067  11.158  0.7638 -0.0361 -0.0479
  394TMC3    C2 5884   3.701   2.157  11.101  0.0901  0.4248 -0.4496
  394TMC3    C3 5885   3.750   2.274  11.049  0.1945  0.1185  0.1122
  394TMC3    C4 5886   3.928   2.095  11.157 -0.4047  0.1769 -0.8215
  394TMC3    C5 5887   3.974   2.209  11.094  0.8678  0.4480  0.8528
  394TMC3    C6 5888   3.883   2.292  11.039  0.5012 -0.5333 -1.1610
  394TMC3     C 5889   3.732   2.007  11.278 -0.0498  0.8010  0.2914
  394TMC3     O 5890   3.614   1.982  11.283 -0.0473  0.3820 -0.7036
  394TMC3     H 5891   3.594   2.146  11.114  0.1034  2.0787  1.1017
  394TMC3    H1 5892   4.002   2.024  11.190  1.0464  2.0836  0.0464
  394TMC3    H2 5893   3.929   2.382  11.001  0.2221 -1.1327 -2.9514
  394TMC3    C7 5894   4.094   2.205  11.022 -0.3715  0.6386  0.1174
  394TMC3    C8 5895   3.675   2.314  10.930  0.7463 -0.0990 -0.7265
  394TMC3    O1 5896   4.153   2.313  11.009 -0.8035  0.0681  0.2667
  394TMC3    O2 5897   3.707   2.419  10.875 -0.1490  0.3107  0.3528
  395TMC3    C1 5898   3.546   4.515  14.461 -0.3729 -0.8401  0.4534
  395TMC3    C2 5899   3.418   4.563  14.479  0.1626 -0.3453 -0.2905
  395TMC3    C3 5900   3.401   4.675  14.550  0.1854  0.3640  0.0956
  395TMC3    C4 5901   3.655   4.591  14.499  0.8196 -0.5115 -0.2069
  395TMC3    C5 5902   3.633   4.710  14.560 -0.0385  0.0762  0.0650
  395TMC3    C6 5903   3.506   0.032  14.585 -0.1587 -0.2559  0.0924
  395TMC3     C 5904   3.545   4.371  14.500  0.7234 -0.0327  1.0119
  395TMC3     O 5905   3.436   4.335  14.551 -1.0208  0.1726 -0.0179
  395TMC3     H 5906   3.330   4.504  14.453  1.2676 -1.1450 -2.1313
  395TMC3    H1 5907   3.749   4.538  14.510  0.3281 -1.1209  1.0357
  395TMC3    H2 5908   3.494   0.123  14.642 -0.2178  0.4996 -1.1141
  395TMC3    C7 5909   3.735   0.053  14.642  0.0641 -0.5662  0.4730
  395TMC3    C8 5910   3.310   4.662  14.663  0.3337 -0.7203 -0.3434
  395TMC3    O1 5911   3.703   0.126  14.731 -0.0663  0.0559  0.3093
  395TMC3    O2 5912   3.290   0.033  14.738 -0.1397  0.1844 -0.1879
  396MPD2     C 5913   3.486   0.697  17.472 -0.4671 -0.2828 -0.2448
  396MPD2    C1 5914   3.384   0.674  17.381 -0.6471  0.1922 -0.4786
  396MPD2    C2 5915   3.366   0.772  17.283 -0.0300 -0.1310  0.3930
  396MPD2    C3 5916   3.432   0.894  17.279  0.6334 -1.2546 -0.1905
  396MPD2    C4 5917   3.545   0.906  17.362 -0.4105 -1.2123  0.3856
  396MPD2    C5 5918   3.567   0.805  17.451 -0.4445  0.1768 -0.5081
  396MPD2     H 5919   3.288   0.755  17.209  1.1223  2.0347 -1.3044
  396MPD2    H1 5920   3.608   0.994  17.357 -2.5618  0.3664  1.0732
  396MPD2    H2 5921   3.510   0.626  17.551 -0.1814  0.7214  0.5576
  396MPD2    H3 5922   3.659   0.818  17.505  1.2661  2.0488 -3.8666
  396MPD2     N 5923   3.413   0.991  17.179 -0.0601 -0.7262 -0.1895
  396MPD2    H5 5924   3.480   1.066  17.171  1.8055 -2.3220  0.5116
  396MPD2    N1 5925   3.324   0.547  17.388 -0.2165  0.3950  0.3675
  396MPD2    H7 5926   3.364   0.479  17.451  0.1889 -0.3337 -0.6682
  397TMC3    C1 5927   3.185   0.367  17.323 -0.1716  0.2974  0.0743
  397TMC3    C2 5928   3.154   0.348  17.192  0.9027 -0.2013  0.6021
  397TMC3    C3 5929   3.236   0.262  17.120  0.4802  0.0641  0.3773
  397TMC3    C4 5930   3.276   0.291  17.382 -0.0424 -0.5534  1.0007
  397TMC3    C5 5931   3.339   0.187  17.314  0.3152  0.4825 -0.7165
  397TMC3    C6 5932   3.319   0.170  17.180 -0.7652  0.3531 -0.4045
  397TMC3     C 5933   3.208   0.509  17.322  0.1133 -0.2899  0.2416
  397TMC3     O 5934   3.132   0.592  17.276  0.4500  0.1460  0.3627
  397TMC3     H 5935   3.097   0.416  17.130  1.9845 -0.8206 -1.0832
  397TMC3    H1 5936   3.278   0.293  17.491 -0.8589 -0.2226  1.0174
  397TMC3    H2 5937   3.371   0.097  17.118 -1.8274 -1.5449  0.9225
  397TMC3    C7 5938   3.428   0.091  17.372 -0.2102 -0.1160 -0.3582
  397TMC3    C8 5939   3.256   0.299  16.982  0.0572  0.7468 -0.3068
  397TMC3    O1 5940   3.452   4.705  17.310  0.4035  0.1580 -0.5799
  397TMC3    O2 5941   3.165   0.368  16.931 -0.3623 -0.2729  0.0126
  398MPD2     C 5942   1.620   1.411   0.219  0.6428  0.4637 -0.5824
  398MPD2    C1 5943   1.626   1.300   0.309 -0.1877 -0.0008  0.1451
  398MPD2    C2 5944   1.674   1.318   0.439  0.3115 -0.0153  0.1810
  398MPD2    C3 5945   1.717   1.441   0.477  0.4940 -0.3045  0.2287
  398MPD2    C4 5946   1.708   1.551   0.395 -0.5627  0.0587  0.2622
  398MPD2    C5 5947   1.664   1.532   0.265  0.1069  0.2083 -0.1802
  398MPD2     H 5948   1.684   1.234   0.506  0.8164 -0.0764  0.0333
  398MPD2    H1 5949   1.733   1.652   0.427  1.9809 -0.4376 -0.1278
  398MPD2    H2 5950   1.574   1.410   0.121  1.8275 -2.3459 -1.0989
  398MPD2    H3 5951   1.655   1.619   0.200  0.5669 -0.8694 -1.6724
  398MPD2     N 5952   1.746   1.449   0.613 -0.3614 -0.3596 -0.2406
  398MPD2    H5 5953   1.727   1.369   0.671  0.1668 -0.3653 -0.0743
  398MPD2    N1 5954   1.572   1.168   0.277  1.0141  0.2746  0.0140
  398MPD2    H7 5955   1.570   1.096   0.348  0.3756  0.3925  0.1165
  399TMC3    C1 5956   1.463   0.999   0.172  0.3706 -0.1901 -0.8316
  399TMC3    C2 5957   1.558   0.912   0.215  0.1243 -0.2997 -0.2957
  399TMC3    C3 5958   1.533   0.776   0.193 -0.4091 -0.3444 -0.0952
  399TMC3    C4 5959   1.344   0.959   0.115  0.1728  0.7951 -0.7563
  399TMC3    C5 5960   1.328   0.828   0.099  0.3911 -0.1605 -0.3154
  399TMC3    C6 5961   1.417   0.733   0.142  0.4360  1.3352 -0.1029
  399TMC3     C 5962   1.497   1.139   0.170 -0.4779  0.1985 -0.1700
  399TMC3     O 5963   1.435   1.211   0.096  0.1103  0.2011  0.3041
  399TMC3     H 5964   1.661   0.942   0.225 -0.2404 -0.1003  2.7841
  399TMC3    H1 5965   1.270   1.031   0.082 -0.4866  0.2047 -0.5797
  399TMC3    H2 5966   1.398   0.627   0.130  1.1451  1.0596  1.2524
  399TMC3    C7 5967   1.192   0.776   0.101 -0.0066 -0.3943 -0.1147
  399TMC3    C8 5968   1.629   0.682   0.242  0.5378  1.1307 -1.5721
  399TMC3    O1 5969   1.186   0.663   0.148  0.1071 -0.6590  0.4883
  399TMC3    O2 5970   1.748   0.708   0.226  0.0089 -0.2063 -0.1352
  400TMC3    C1 5971   0.332   0.783  16.849  0.5932 -0.1161 -0.6525
  400TMC3    C2 5972   0.204   0.746  16.812 -0.2914 -0.1435  0.8396
  400TMC3    C3 5973   0.116   0.847  16.817 -0.0778 -0.0388  0.7311
  400TMC3    C4 5974   0.364   0.909  16.895 -0.3540 -0.3623  0.0334
  400TMC3    C5 5975   0.269   1.006  16.881 -0.8141  0.0226 -0.1797
  400TMC3    C6 5976   0.137   0.974  16.846 -0.8818  0.4386  0.1202
  400TMC3     C 5977   0.418   0.668  16.887  1.0314  0.5154  1.0862
  400TMC3     O 5978   0.382   0.552  16.853 -0.5246  0.3077  0.1144
  400TMC3     H 5979   0.185   0.647  16.772 -0.3614  0.8966 -1.7023
  400TMC3    H1 5980   0.460   0.931  16.939 -1.4055 -0.7236  2.5261
  400TMC3    H2 5981   0.058   1.048  16.839 -2.6112 -1.4541 -0.1654
  400TMC3    C7 5982   0.301   1.124  16.967 -0.2375 -0.4139 -0.1118
  400TMC3    C8 5983   4.701   0.812  16.789 -1.1655  0.4018 -1.2997
  400TMC3    O1 5984   0.418   1.146  16.989  0.2938 -0.7495  0.2248
  400TMC3    O2 5985   4.625   0.907  16.806 -0.4498  0.8748  0.1630
  401MPD2     C 5986   3.582   3.418   0.597 -0.3730 -0.4298 -0.7325
  401MPD2    C1 5987   3.571   3.365   0.719  0.5888  0.2266 -0.3760
  401MPD2    C2 5988   3.652   3.261   0.754  0.3503 -0.1829 -0.6363
  401MPD2    C3 5989   3.742   3.203   0.661  0.1257  0.0725  0.3453
  401MPD2    C4 5990   3.745   3.265   0.531 -0.0506 -0.0124  0.1735
  401MPD2    C5 5991   3.663   3.366   0.502 -0.1620 -0.1884  0.6104
  401MPD2     H 5992   3.654   3.218   0.853  2.0038 -1.2896 -1.1445
  401MPD2    H1 5993   3.809   3.232   0.451 -0.0196 -1.3267  0.7326
  401MPD2    H2 5994   3.519   3.501   0.566 -1.5395 -0.2693  2.0712
  401MPD2    H3 5995   3.670   3.419   0.407 -3.2896  0.6603  0.8638
  401MPD2     N 5996   3.826   3.093   0.699  0.0544  0.2244 -0.3089
  401MPD2    H5 5997   3.814   3.069   0.797  0.5257 -0.8270 -0.5129
  401MPD2    N1 5998   3.479   3.421   0.816  0.1192  0.4521  0.1630
  401MPD2    H7 5999   3.486   3.380   0.909 -0.2433  2.1280  0.9282
  402TMC3    C1 6000   3.988   2.918   0.693 -0.4635 -0.0920 -0.4636
  402TMC3    C2 6001   3.991   2.917   0.829  0.1518  0.6307 -0.0152
  402TMC3    C3 6002   4.056   2.816   0.895 -0.0798 -0.0547  0.0651
  402TMC3    C4 6003   4.061   2.822   0.621 -0.3441  0.1023  0.2455
  402TMC3    C5 6004   4.129   2.723   0.687  0.6959  0.5715 -0.8462
  402TMC3    C6 6005   4.118   2.718   0.826 -1.1279 -0.2027  0.3018
  402TMC3     C 6006   3.907   3.020   0.618 -0.1552 -0.0864 -0.3869
  402TMC3     O 6007   3.929   3.027   0.499  0.2105  0.4219 -0.8018
  402TMC3     H 6008   3.928   2.989   0.879 -1.7338  0.2884 -1.8858
  402TMC3    H1 6009   4.055   2.825   0.513 -0.9257  0.7643  0.2948
  402TMC3    H2 6010   4.171   2.645   0.887  0.0935  0.8424  0.4816
  402TMC3    C7 6011   4.205   2.633   0.602 -0.2641  0.6668 -0.0361
  402TMC3    C8 6012   4.052   2.809   1.043 -0.1428 -0.7368 -0.6214
  402TMC3    O1 6013   4.191   2.640   0.483  0.6727  0.2067  0.0416
  402TMC3    O2 6014   4.065   2.695   1.087  0.0851  0.0175  0.3517
  403MPD2     C 6015   1.327   1.956  12.981 -0.0866  0.2630  0.0494
  403MPD2    C1 6016   1.355   1.882  13.091  0.1829  0.0459  0.2985
  403MPD2    C2 6017   1.449   1.932  13.172 -0.1922 -0.3305  0.0981
  403MPD2    C3 6018   1.522   2.045  13.145 -0.1090 -0.8000  0.7372
  403MPD2    C4 6019   1.498   2.120  13.029  0.4126  0.0358 -0.1235
  403MPD2    C5 6020   1.394   2.071  12.941 -0.6444  0.2896 -0.6176
  403MPD2     H 6021   1.474   1.878  13.263  0.1264 -1.4334 -0.6419
  403MPD2    H1 6022   1.547   2.213  13.003 -1.0372  1.0806  0.8786
  403MPD2    H2 6023   1.249   1.922  12.914  1.1382 -0.0205 -1.2345
  403MPD2    H3 6024   1.366   2.121  12.849  0.4947  0.1259 -1.0525
  403MPD2     N 6025   1.621   2.072  13.244 -0.2165  0.8139  0.1309
  403MPD2    H5 6026   1.641   1.999  13.312 -2.0306  0.4515  0.2731
  403MPD2    N1 6027   1.292   1.757  13.113  0.2859 -0.1285  0.4788
  403MPD2    H7 6028   1.244   1.717  13.033 -1.2496  0.9296  0.8811
  404TMC3    C1 6029   1.201   1.573  13.225  0.0227 -0.0730  0.4099
  404TMC3    C2 6030   1.196   1.498  13.340  0.3679  0.2250  0.2989
  404TMC3    C3 6031   1.139   1.372  13.336 -0.4767 -0.0075  0.2603
  404TMC3    C4 6032   1.146   1.529  13.111  0.3761  0.2119  0.2364
  404TMC3    C5 6033   1.097   1.401  13.106  0.1107  0.1555 -0.2684
  404TMC3    C6 6034   1.098   1.318  13.214 -0.2740 -0.4591  1.0016
  404TMC3     C 6035   1.277   1.696  13.234  0.0577 -0.0290  1.0864
  404TMC3     O 6036   1.317   1.731  13.347 -0.2676 -0.1840 -0.0468
  404TMC3     H 6037   1.229   1.537  13.436  0.2106 -0.3187  0.5741
  404TMC3    H1 6038   1.113   1.595  13.031  0.0787 -1.1943 -0.7953
  404TMC3    H2 6039   1.055   1.219  13.207 -0.2179 -0.2755 -1.9222
  404TMC3    C7 6040   1.032   1.360  12.990 -0.3943 -0.1396  0.1958
  404TMC3    C8 6041   1.164   1.275  13.444  0.3566  0.4283 -0.2960
  404TMC3    O1 6042   0.964   1.259  12.999 -0.4340  0.0999  0.2477
  404TMC3    O2 6043   1.184   1.157  13.411  0.6726  0.2403  0.1878
  405MPD2     C 6044   2.278   1.980  14.222 -0.0617 -0.5035  0.4811
  405MPD2    C1 6045   2.164   1.992  14.148 -0.1313 -0.1413 -0.3832
  405MPD2    C2 6046   2.134   2.125  14.121  0.4400  0.0556  0.8735
  405MPD2    C3 6047   2.196   2.232  14.176 -0.4365  0.4556 -0.0071
  405MPD2    C4 6048   2.312   2.211  14.246 -0.1557  0.9034 -0.3416
  405MPD2    C5 6049   2.348   2.085  14.268 -0.3407  0.0589 -0.3005
  405MPD2     H 6050   2.038   2.144  14.074  0.8116  0.2359  0.1985
  405MPD2    H1 6051   2.362   2.291  14.300 -0.3536 -0.6674  2.1528
  405MPD2    H2 6052   2.317   1.881  14.247 -0.2684 -1.4745 -3.0656
  405MPD2    H3 6053   2.431   2.066  14.335  0.6940  2.8261 -0.7985
  405MPD2     N 6054   2.137   2.353  14.162 -0.2578 -0.4657  0.5716
  405MPD2    H5 6055   2.043   2.353  14.123  0.5581 -0.0409 -1.3863
  405MPD2    N1 6056   2.082   1.884  14.090 -0.0366 -0.4990  0.2373
  405MPD2    H7 6057   2.096   1.785  14.110 -1.4691 -1.1037 -1.7422
  406TMC3    C1 6058   1.925   2.739  14.244  0.5609  0.5948 -0.4418
  406TMC3    C2 6059   1.856   2.717  14.126 -0.4704  0.5242 -0.5722
  406TMC3    C3 6060   1.902   2.630  14.038 -0.2691 -0.1850 -0.3653
  406TMC3    C4 6061   2.046   2.667  14.276  0.4568 -0.3686  0.4790
  406TMC3    C5 6062   2.082   2.572  14.184  0.3133  0.0466 -0.4262
  406TMC3    C6 6063   2.017   2.563  14.060 -0.0382 -0.3534  0.3887
  406TMC3     C 6064   1.852   2.788  14.354  0.1418 -0.0938 -0.7857
  406TMC3     O 6065   1.913   2.836  14.444  0.3475  0.4363 -0.4216
  406TMC3     H 6066   1.769   2.778  14.106 -1.0073  0.2709  0.9693
  406TMC3    H1 6067   2.108   2.692  14.362 -0.5638  3.4924  0.0744
  406TMC3    H2 6068   2.059   2.502  13.980  1.0766  1.1620 -0.1769
  406TMC3    C7 6069   2.181   2.472  14.219 -0.2389  0.1157  0.1954
  406TMC3    C8 6070   1.818   2.594  13.927 -0.5295  0.2694  0.0705
  406TMC3    O1 6071   2.290   2.515  14.256  0.0711  0.1638  0.1109
  406TMC3    O2 6072   1.718   2.662  13.912  0.2588 -0.1830  0.3229
  407MPD2     C 6073   3.989   3.361   9.607 -0.2812  0.7743 -0.3282
  407MPD2    C1 6074   4.113   3.406   9.588  0.0633 -0.1242 -0.4485
  407MPD2    C2 6075   4.179   3.461   9.693  0.1555  0.3349  0.8645
  407MPD2    C3 6076   4.116   3.492   9.812  0.0964  0.4170  0.3560
  407MPD2    C4 6077   3.983   3.473   9.814  0.7499 -0.6310 -0.4514
  407MPD2    C5 6078   3.921   3.404   9.718 -0.2067  0.0682 -0.3013
  407MPD2     H 6079   4.286   3.466   9.676  0.2201 -0.5048  1.0425
  407MPD2    H1 6080   3.924   3.492   9.903 -1.1829  2.7086 -2.4455
  407MPD2    H2 6081   3.928   3.308   9.535 -0.3690 -1.4302  1.3896
  407MPD2    H3 6082   3.814   3.392   9.727 -0.0394 -0.6254  0.7477
  407MPD2     N 6083   4.185   3.564   9.917  0.0007  0.5333 -0.1200
  407MPD2    H5 6084   4.128   3.595   9.995  1.0228  1.1382  0.3713
  407MPD2    N1 6085   4.185   3.395   9.466 -0.0887  0.5853 -0.1674
  407MPD2    H7 6086   4.281   3.429   9.464  0.5784 -1.3196 -0.5822
  408TMC3    C1 6087   4.209   3.421   9.236  0.2961  0.4508  0.1106
  408TMC3    C2 6088   4.343   3.395   9.250  0.1509 -0.6045 -0.1539
  408TMC3    C3 6089   4.421   3.444   9.150  0.5810 -0.1005 -0.2223
  408TMC3    C4 6090   4.157   3.511   9.141  0.3455  0.4118 -0.3759
  408TMC3    C5 6091   4.243   3.575   9.054  0.0173 -0.3455 -0.0685
  408TMC3    C6 6092   4.373   3.535   9.049 -0.2627 -0.9267 -0.0504
  408TMC3     C 6093   4.116   3.392   9.349  0.1206  0.3485 -0.0421
  408TMC3     O 6094   3.994   3.384   9.324  0.2318 -0.6963  0.2281
  408TMC3     H 6095   4.388   3.332   9.326 -1.2176 -0.8520  0.4529
  408TMC3    H1 6096   4.051   3.533   9.139  0.2750  0.0259 -0.8611
  408TMC3    H2 6097   4.435   3.572   8.968  1.1195 -1.5875  0.6946
  408TMC3    C7 6098   4.231   3.716   9.044  0.1367  0.6413  0.4910
  408TMC3    C8 6099   4.555   3.488   9.189  0.4705  0.2720  0.5619
  408TMC3    O1 6100   4.336   3.776   9.054 -0.1471  0.4154  0.0186
  408TMC3    O2 6101   4.634   3.413   9.246  0.0795  0.0758  0.2107
  409MPD2     C 6102   3.858   4.285  16.586  0.2548 -0.2914 -0.8085
  409MPD2    C1 6103   3.898   4.328  16.708 -0.1989 -0.3735 -0.7599
  409MPD2    C2 6104   3.956   4.453  16.714 -0.1525 -0.1247 -0.1095
  409MPD2    C3 6105   3.986   4.528  16.600  0.5765  0.9466  0.0762
  409MPD2    C4 6106   3.957   4.476  16.478  0.7031 -0.8029  0.2381
  409MPD2    C5 6107   3.895   4.354  16.476 -0.5868 -0.5945 -0.4282
  409MPD2     H 6108   3.985   4.484  16.814  0.1864  1.2743 -0.6322
  409MPD2    H1 6109   3.991   4.526  16.388 -1.2491  2.6841  1.4446
  409MPD2    H2 6110   3.803   4.192  16.578 -0.9275  0.2426  1.1220
  409MPD2    H3 6111   3.869   4.316  16.377 -0.5788  2.3605 -1.5691
  409MPD2     N 6112   4.051   4.648  16.616  0.2408 -0.0555 -0.0218
  409MPD2    H5 6113   4.065   4.711  16.537 -1.2530 -0.2543 -0.4518
  409MPD2    N1 6114   3.880   4.247  16.820  0.2290  0.0320 -0.1891
  409MPD2    H7 6115   3.854   4.150  16.804 -1.5097  0.2635  1.2427
  410TMC3    C1 6116   4.156   0.093  16.736 -0.8050 -0.0691  0.4211
  410TMC3    C2 6117   4.268   0.138  16.808 -0.5434  0.3870  0.7203
  410TMC3    C3 6118   4.275   0.267  16.844  0.0688  0.5213 -0.4751
  410TMC3    C4 6119   4.054   0.169  16.694  0.0148 -0.2094  0.7809
  410TMC3    C5 6120   4.068   0.302  16.737  0.0166 -0.0636  0.3423
  410TMC3    C6 6121   4.170   0.353  16.819  0.0860 -0.1806 -0.4931
  410TMC3     C 6122   4.126   4.677  16.727  0.2321  1.3538 -0.2135
  410TMC3     O 6123   4.169   4.604  16.818  0.4008 -0.4777  0.1639
  410TMC3     H 6124   4.343   0.064  16.834  1.6573  2.2449 -0.3910
  410TMC3    H1 6125   3.958   0.127  16.669  0.3673 -0.4341 -0.2119
  410TMC3    H2 6126   4.177   0.458  16.846 -3.3103 -0.1188  0.1038
  410TMC3    C7 6127   3.974   0.381  16.671  0.6225 -0.0680 -0.4018
  410TMC3    C8 6128   4.388   0.339  16.907 -0.0360 -0.3652 -0.2649
  410TMC3    O1 6129   3.894   0.314  16.606  0.4864  0.0621  0.2900
  410TMC3    O2 6130   4.357   0.441  16.967 -0.0384 -0.1155 -0.6815
  411MPD2     C 6131   4.257   0.856  14.816 -0.0479  0.6616 -0.2370
  411MPD2    C1 6132   4.165   0.876  14.713 -0.4498  0.0410 -0.1588
  411MPD2    C2 6133   4.138   0.775  14.623  0.3354  0.0268 -0.0357
  411MPD2    C3 6134   4.203   0.655  14.633  0.2642  0.0753  0.5708
  411MPD2    C4 6135   4.305   0.643  14.720  0.2021  1.1426  0.4087
  411MPD2    C5 6136   4.324   0.742  14.808  0.1183 -0.0739  0.1830
  411MPD2     H 6137   4.069   0.791  14.541 -1.6679 -1.0136  1.4259
  411MPD2    H1 6138   4.368   0.555  14.727  1.5191  2.0488 -0.1579
  411MPD2    H2 6139   4.269   0.929  14.895  0.5545  1.0986 -0.7324
  411MPD2    H3 6140   4.410   0.733  14.874  0.0169  1.0003  0.4525
  411MPD2     N 6141   4.173   0.541  14.550 -0.1234 -0.4274  0.2936
  411MPD2    H5 6142   4.241   0.466  14.559 -1.6223 -1.8601 -0.3204
  411MPD2    N1 6143   4.106   1.002  14.707 -0.0685  0.2401  0.1263
  411MPD2    H7 6144   4.121   1.061  14.788 -0.6839  0.4327  0.1059
  412TMC3    C1 6145   4.043   0.417  14.401 -0.5861 -0.6900 -0.3525
  412TMC3    C2 6146   3.925   0.350  14.405  0.3104  0.6329 -0.0493
  412TMC3    C3 6147   3.904   0.242  14.323 -0.2957 -0.1983 -0.5800
  412TMC3    C4 6148   4.127   0.394  14.296  0.1302  0.6890 -0.0780
  412TMC3    C5 6149   4.093   0.298  14.200  0.8548  0.2324 -0.1658
  412TMC3    C6 6150   3.993   0.215  14.226 -0.9772 -0.4031  0.3210
  412TMC3     C 6151   4.055   0.535  14.485 -0.6621 -0.0584 -1.0476
  412TMC3     O 6152   3.955   0.594  14.517  0.1913 -0.1414 -0.2147
  412TMC3     H 6153   3.843   0.382  14.469  1.4372  0.0950  1.6703
  412TMC3    H1 6154   4.213   0.459  14.305  1.0525 -0.6061  0.3916
  412TMC3    H2 6155   3.963   0.144  14.149 -1.3536  0.0663  0.0348
  412TMC3    C7 6156   4.108   0.328  14.055  0.1178 -0.3957  0.0619
  412TMC3    C8 6157   3.763   0.250  14.276 -0.5419 -0.4814  0.1250
  412TMC3    O1 6158   4.055   0.255  13.974  0.2944  0.4998 -0.0283
  412TMC3    O2 6159   3.707   0.355  14.292  0.0167  0.5024  0.0616
  413MPD2     C 6160   0.781   3.615  15.517 -0.1645 -0.0151  0.4106
  413MPD2    C1 6161   0.708   3.550  15.412  0.6740 -0.0801  0.3749
  413MPD2    C2 6162   0.781   3.459  15.335  0.1741 -0.5816  0.9955
  413MPD2    C3 6163   0.906   3.405  15.384  0.8582  0.0919 -0.2746
  413MPD2    C4 6164   0.951   3.452  15.502  0.6998 -0.8025  0.5821
  413MPD2    C5 6165   0.896   3.561  15.565 -0.5056 -0.0806 -0.1604
  413MPD2     H 6166   0.735   3.417  15.246 -0.3867 -1.2125  1.5832
  413MPD2    H1 6167   1.039   3.412  15.552  0.4792 -0.2883  1.3779
  413MPD2    H2 6168   0.739   3.694  15.578 -1.0762  0.5871 -0.9896
  413MPD2    H3 6169   0.936   3.599  15.658 -0.6418 -1.2510  0.3804
  413MPD2     N 6170   0.952   3.283  15.326  0.2649  0.2961  0.3296
  413MPD2    H5 6171   0.889   3.242  15.258  1.4151  1.0049 -1.1583
  413MPD2    N1 6172   0.588   3.612  15.377  0.3084  0.2427  0.4974
  413MPD2    H7 6173   0.549   3.682  15.440 -1.0498 -1.3179  1.3958
  414TMC3    C1 6174   1.066   3.071  15.294  0.5202  0.5703  0.0541
  414TMC3    C2 6175   1.134   2.970  15.358 -0.0803 -0.1522  0.3898
  414TMC3    C3 6176   1.138   2.845  15.289 -0.4898  0.0213 -0.1320
  414TMC3    C4 6177   1.006   3.060  15.175  0.1177  0.0824 -0.3512
  414TMC3    C5 6178   1.005   2.944  15.108 -0.0570  0.6406  0.8807
  414TMC3    C6 6179   1.069   2.833  15.168  0.8625 -0.0613 -0.1525
  414TMC3     C 6180   1.065   3.205  15.368 -0.0005  0.1060 -0.0083
  414TMC3     O 6181   1.130   3.219  15.464  0.1236  0.9914  0.3447
  414TMC3     H 6182   1.180   2.987  15.455 -0.3334 -1.0198  0.6639
  414TMC3    H1 6183   0.984   3.154  15.125  0.2797 -0.8896 -2.2491
  414TMC3    H2 6184   1.074   2.736  15.120 -2.0463 -0.4552  0.3049
  414TMC3    C7 6185   0.938   2.956  14.977  0.5069 -0.5805 -0.0466
  414TMC3    C8 6186   1.265   2.771  15.285  0.2291 -0.1280 -0.2549
  414TMC3    O1 6187   0.846   3.038  14.978  0.5091 -0.6187 -0.1402
  414TMC3    O2 6188   1.278   2.692  15.198  0.1232 -0.2252 -0.0732
  415TMC3    C1 6189   1.896   0.993  10.096  0.7029  0.1165 -0.1968
  415TMC3    C2 6190   1.924   1.122  10.132 -0.8699 -0.3918 -0.4799
  415TMC3    C3 6191   2.010   1.199  10.057 -0.8499 -0.4129  0.4179
  415TMC3    C4 6192   1.950   0.930   9.984  0.4424 -0.5927  0.9066
  415TMC3    C5 6193   2.041   1.009   9.912 -0.4127  0.3972  0.8140
  415TMC3    C6 6194   2.070   1.142   9.944  0.1173  0.5847 -0.7357
  415TMC3     C 6195   1.793   0.919  10.176  0.0067  0.4877  0.1984
  415TMC3     O 6196   1.715   0.853  10.103 -0.0166  0.0249  0.5060
  415TMC3     H 6197   1.891   1.159  10.228 -0.2398 -2.6799  0.6237
  415TMC3    H1 6198   1.912   0.832   9.959 -1.7373  0.3196  0.6907
  415TMC3    H2 6199   2.144   1.191   9.882  1.0959 -0.1340 -0.1377
  415TMC3    C7 6200   2.137   0.953   9.819  0.2485  0.3202 -0.0223
  415TMC3    C8 6201   2.002   1.346  10.057  0.6982  0.3571  0.5817
  415TMC3    O1 6202   2.240   1.017   9.795 -0.2971  0.2260 -0.0604
  415TMC3    O2 6203   1.898   1.406  10.083 -0.0982  0.2915 -0.1071
  416MPD2     C 6204   3.423   0.104  11.570 -0.1054 -0.0721 -0.0634
  416MPD2    C1 6205   3.299   0.076  11.527  0.5238 -0.7613  0.4576
  416MPD2    C2 6206   3.290   4.699  11.426 -0.2447 -0.0923 -0.0846
  416MPD2    C3 6207   3.407   4.621  11.398  0.2264  0.1909 -0.3809
  416MPD2    C4 6208   3.524   4.658  11.459  0.0558  0.0740 -0.3541
  416MPD2    C5 6209   3.537   0.047  11.530  0.4401 -0.2538  0.0360
  416MPD2     H 6210   3.197   4.666  11.380 -0.1725  1.1525 -1.1139
  416MPD2    H1 6211   3.617   4.613  11.425 -0.1058 -0.6560  0.1855
  416MPD2    H2 6212   3.432   0.167  11.658 -3.7288 -2.1203  1.7407
  416MPD2    H3 6213   3.631   0.059  11.582  0.1225 -0.7224  0.7235
  416MPD2     N 6214   3.405   4.513  11.312  0.0405 -0.4836 -0.0843
  416MPD2    H5 6215   3.489   4.458  11.296 -0.7301 -1.5951 -0.2904
  416MPD2    N1 6216   3.182   0.138  11.587  0.2427  0.7163 -0.5686
  416MPD2    H7 6217   3.200   0.218  11.647 -1.9744  1.7881 -1.3331
  417TMC3    C1 6218   2.964   0.201  11.631  0.3998  0.1782  0.3457
  417TMC3    C2 6219   3.007   0.267  11.746 -0.4852  0.2565 -0.8058
  417TMC3    C3 6220   2.911   0.343  11.804  0.7255 -0.1297  0.5201
  417TMC3    C4 6221   2.838   0.207  11.578 -0.6183 -0.1767  0.0353
  417TMC3    C5 6222   2.746   0.291  11.645 -0.1589 -0.3255 -0.7839
  417TMC3    C6 6223   2.787   0.363  11.754  0.4627 -0.8023 -0.2096
  417TMC3     C 6224   3.056   0.116  11.557  0.2620  0.3359  0.4241
  417TMC3     O 6225   3.013   0.031  11.478 -0.0223 -0.6235  0.7324
  417TMC3     H 6226   3.085   0.225  11.809 -0.8094 -0.6377 -1.0136
  417TMC3    H1 6227   2.807   0.169  11.481  1.4371 -0.4379 -0.5091
  417TMC3    H2 6228   2.716   0.420  11.812  0.4947  1.9520 -2.8394
  417TMC3    C7 6229   2.628   0.342  11.570 -0.2268  0.0993  0.6668
  417TMC3    C8 6230   2.933   0.399  11.930  0.2337  0.1266 -0.0753
  417TMC3    O1 6231   2.589   0.454  11.592  0.6297 -0.2675 -0.0283
  417TMC3    O2 6232   2.830   0.413  11.996 -0.4287 -0.0325  0.4072
  418TMC3    C1 6233   1.930   1.519   1.028 -0.0113  0.1498  0.2599
  418TMC3    C2 6234   1.908   1.578   0.904  0.6030 -0.6626  0.5403
  418TMC3    C3 6235   1.806   1.527   0.826 -0.8300 -0.5991  0.2783
  418TMC3    C4 6236   1.852   1.416   1.082 -0.4914 -0.0941  0.8533
  418TMC3    C5 6237   1.740   1.381   1.007 -0.0649 -1.0940  0.1556
  418TMC3    C6 6238   1.721   1.433   0.877  0.4042  0.5526  0.3430
  418TMC3     C 6239   2.072   1.513   1.064  0.0475  0.8613 -0.0307
  418TMC3     O 6240   2.147   1.610   1.043  0.0912 -0.1959 -0.0408
  418TMC3     H 6241   1.976   1.654   0.867  1.4379 -0.5374  2.3316
  418TMC3    H1 6242   1.877   1.357   1.169  2.1550 -1.7781 -1.0422
  418TMC3    H2 6243   1.641   1.382   0.825  0.1812 -1.6082  2.7660
  418TMC3    C7 6244   1.656   1.271   1.035  1.1498 -0.0721 -0.5696
  418TMC3    C8 6245   1.793   1.559   0.686 -0.4863  0.4803  0.3819
  418TMC3    O1 6246   1.602   1.205   0.944  0.8166 -0.0972 -0.4311
  418TMC3    O2 6247   1.827   1.667   0.646  0.5575  0.3439 -0.4496
  419MPD2     C 6248   0.530   4.629  12.085 -0.4503  0.4062  0.4011
  419MPD2    C1 6249   0.444   0.014  12.101  0.9277  0.1409  0.2515
  419MPD2    C2 6250   0.395   0.037  12.229 -0.3069  0.1737  0.7077
  419MPD2    C3 6251   0.449   4.703  12.339 -0.1634  0.0019  0.2562
  419MPD2    C4 6252   0.541   4.597  12.324 -0.2028  0.2217  0.0981
  419MPD2    C5 6253   0.557   4.552  12.197  0.1886 -0.6847  0.3100
  419MPD2     H 6254   0.321   0.115  12.236 -1.3763 -0.6700 -1.1664
  419MPD2    H1 6255   0.579   4.537  12.406  2.2267  1.2742 -0.2722
  419MPD2    H2 6256   0.573   4.598  11.990 -2.0009  0.2250 -0.2328
  419MPD2    H3 6257   0.619   4.466  12.175  0.9389  0.0081 -0.3066
  419MPD2     N 6258   0.397   0.019  12.468 -0.3041 -0.4708 -0.0851
  419MPD2    H5 6259   0.319   0.084  12.465 -0.4824 -0.6383  0.9745
  419MPD2    N1 6260   0.384   0.090  11.997 -0.6684  0.3514 -0.2176
  419MPD2    H7 6261   0.304   0.150  12.015 -0.4574  1.1899 -1.9989
  420TMC3    C1 6262   0.384   0.031  12.703  0.0967  0.3931 -0.0776
  420TMC3    C2 6263   0.248   0.060  12.691 -0.0834 -0.4507 -0.4638
  420TMC3    C3 6264   0.193   0.133  12.789 -0.1511 -0.1182  0.1116
  420TMC3    C4 6265   0.465   0.103  12.788 -0.3556  0.2656 -0.2598
  420TMC3    C5 6266   0.405   0.190  12.873  0.1213 -0.3675 -0.3647
  420TMC3    C6 6267   0.269   0.201  12.881  0.0069 -0.1082 -0.3575
  420TMC3     C 6268   0.444   4.696  12.588  0.1504  1.0795  0.2514
  420TMC3     O 6269   0.537   4.619  12.610  0.1414 -0.2768 -0.2919
  420TMC3     H 6270   0.195   0.011  12.610 -2.0047 -0.4625  0.8108
  420TMC3    H1 6271   0.572   0.106  12.773 -0.2869  1.5622  0.4972
  420TMC3    H2 6272   0.217   0.270  12.947  2.3031  1.1554  0.1178
  420TMC3    C7 6273   0.489   0.262  12.968  0.2963 -0.3421 -0.4985
  420TMC3    C8 6274   0.061   0.186  12.773  0.5272 -0.9172 -0.0076
  420TMC3    O1 6275   0.592   0.300  12.919 -0.2208  0.1801 -0.1735
  420TMC3    O2 6276   0.012   0.236  12.868  0.2552  0.6365 -0.4101
  421TMC3    C1 6277   1.799   2.173  13.361 -0.1287  0.9321  0.6876
  421TMC3    C2 6278   1.828   2.292  13.425  0.0022  0.0913  0.6366
  421TMC3    C3 6279   1.937   2.293  13.513  0.5419 -0.2569 -0.3768
  421TMC3    C4 6280   1.880   2.062  13.370 -0.0937  0.2655 -0.3680
  421TMC3    C5 6281   1.987   2.072  13.463  0.7001  0.5486 -0.0651
  421TMC3    C6 6282   2.021   2.185  13.529 -0.4098 -0.3194 -0.7061
  421TMC3     C 6283   1.692   2.186  13.258 -0.0683 -0.0331 -0.2989
  421TMC3     O 6284   1.664   2.299  13.217  0.1920  0.3611 -0.3227
  421TMC3     H 6285   1.755   2.372  13.417 -0.9745 -1.1916 -3.2158
  421TMC3    H1 6286   1.866   1.974  13.308 -1.2149 -0.4068  0.8434
  421TMC3    H2 6287   2.109   2.183  13.591  0.9249 -1.0047 -2.6209
  421TMC3    C7 6288   2.067   1.957  13.494 -0.3938 -0.1886  0.5646
  421TMC3    C8 6289   1.978   2.420  13.572 -0.4906 -0.3066 -0.2476
  421TMC3    O1 6290   2.153   1.975  13.582  0.1214  0.0423 -0.0275
  421TMC3    O2 6291   1.942   2.523  13.519  0.6630 -0.2676 -0.1793
  422TMC3    C1 6292   4.219   3.174  12.444  0.5171  0.9261 -0.0490
  422TMC3    C2 6293   4.186   3.306  12.424  0.3007  0.5967  1.0865
  422TMC3    C3 6294   4.071   3.343  12.488  0.3208 -0.2835  0.3294
  422TMC3    C4 6295   4.152   3.081  12.517  0.2043 -0.3589  0.1543
  422TMC3    C5 6296   4.031   3.118  12.570 -0.1130  0.4746  0.0845
  422TMC3    C6 6297   3.985   3.249  12.550 -0.0749  0.3319  0.3302
  422TMC3     C 6298   4.341   3.137  12.372 -0.6762  0.4838 -0.5320
  422TMC3     O 6299   4.374   3.206  12.274 -0.2541 -0.0566  0.1233
  422TMC3     H 6300   4.259   3.377  12.386  0.3192  0.7465  1.4034
  422TMC3    H1 6301   4.184   2.977  12.520  0.5573 -0.2659 -0.4088
  422TMC3    H2 6302   3.897   3.283  12.604 -0.8749 -2.6438  0.9022
  422TMC3    C7 6303   3.933   3.023  12.611  0.4471  0.2481 -0.3836
  422TMC3    C8 6304   4.021   3.479  12.461 -0.0691 -0.5811  0.0902
  422TMC3    O1 6305   3.976   2.911  12.630 -0.1235 -0.1426 -0.4869
  422TMC3    O2 6306   4.100   3.562  12.423 -0.1367 -0.1469  0.1192
  423MPD2     C 6307   1.135   4.130   0.557  0.1671 -0.5188 -0.6680
  423MPD2    C1 6308   1.024   4.055   0.587 -0.7011  0.5617  0.3579
  423MPD2    C2 6309   0.968   3.983   0.483 -0.0766  0.3402 -0.1062
  423MPD2    C3 6310   1.023   3.982   0.355  0.0820 -0.9506 -0.1777
  423MPD2    C4 6311   1.133   4.063   0.333 -0.5846  0.0987 -0.1011
  423MPD2    C5 6312   1.188   4.139   0.435  0.5563 -0.3416  0.8989
  423MPD2     H 6313   0.880   3.922   0.498  1.6620 -2.0788  0.1982
  423MPD2    H1 6314   1.177   4.062   0.234 -0.0335  0.3870  0.1367
  423MPD2    H2 6315   1.183   4.190   0.634 -2.6167  1.5604 -0.5355
  423MPD2    H3 6316   1.268   4.209   0.414 -1.5451  1.1747 -2.1349
  423MPD2     N 6317   0.980   3.901   0.241  0.2526 -0.1247  0.1400
  423MPD2    H5 6318   1.035   3.918   0.157 -1.0076  0.6028 -0.5255
  423MPD2    N1 6319   0.965   4.039   0.717 -0.2897 -0.4386  0.1732
  423MPD2    H7 6320   0.880   3.983   0.721  0.0137 -0.9775 -1.1480
  424TMC3    C1 6321   0.941   4.063   0.947 -0.2329  0.3069  0.5776
  424TMC3    C2 6322   0.999   4.003   1.058 -0.1272 -0.1217  0.6542
  424TMC3    C3 6323   0.917   3.948   1.153 -0.5489  0.0976  0.1789
  424TMC3    C4 6324   0.807   4.081   0.937 -0.0468 -0.1828  0.2528
  424TMC3    C5 6325   0.732   4.034   1.043  0.9655  0.3466 -0.7207
  424TMC3    C6 6326   0.784   3.970   1.151  0.3381  0.6177  0.2603
  424TMC3     C 6327   1.028   4.080   0.831 -0.0891  0.0385 -0.1601
  424TMC3     O 6328   1.148   4.109   0.844 -0.1351 -0.1974 -0.2310
  424TMC3     H 6329   1.106   3.987   1.057 -0.1504 -0.1854 -1.0428
  424TMC3    H1 6330   0.779   4.139   0.849  2.1578 -1.9369 -1.6240
  424TMC3    H2 6331   0.720   3.932   1.230  2.3096 -1.0854  1.0307
  424TMC3    C7 6332   0.592   4.058   1.028  0.4443 -0.2569 -0.3158
  424TMC3    C8 6333   0.974   3.847   1.249 -0.7091 -0.3548  0.0259
  424TMC3    O1 6334   0.556   4.101   0.918  0.2549  0.4162  0.4141
  424TMC3    O2 6335   0.892   3.776   1.304  0.0261 -0.0758 -0.5683
  425MPD2     C 6336   0.005   3.555  17.552  0.6677 -0.1296  0.9235
  425MPD2    C1 6337   4.644   3.476  17.481  0.0069 -0.2361 -0.2011
  425MPD2    C2 6338   4.505   3.500  17.475  0.4740 -0.5415  0.4101
  425MPD2    C3 6339   4.448   3.610  17.537 -1.3823 -0.5589 -0.5533
  425MPD2    C4 6340   4.528   3.686  17.613 -0.1177  0.8557  0.4511
  425MPD2    C5 6341   4.659   3.655  17.625  0.1741 -0.1373  0.2840
  425MPD2     H 6342   4.444   3.436  17.413  0.2661  0.2490 -0.2145
  425MPD2    H1 6343   4.498   3.778  17.663 -1.3902  1.5506 -1.6000
  425MPD2    H2 6344   0.112   3.539  17.553  1.0797  2.4612 -0.8316
  425MPD2    H3 6345   4.712   3.716   0.009  2.2042 -0.3570 -1.0122
  425MPD2     N 6346   4.316   3.645  17.508 -0.0644  0.3904 -0.2468
  425MPD2    H5 6347   4.259   3.577  17.458 -0.2627 -0.4812  1.1593
  425MPD2    N1 6348   4.715   3.364  17.427 -0.1444 -0.0114 -0.3668
  425MPD2    H7 6349   0.091   3.358  17.456 -0.4355  0.4572  0.7218
  426TMC3    C1 6350   0.053   3.191  17.288  0.7574 -0.0200 -0.0497
  426TMC3    C2 6351   0.061   3.138  17.161 -0.5681 -0.4514 -1.1975
  426TMC3    C3 6352   0.159   3.038  17.142 -0.4067  0.3152  0.0590
  426TMC3    C4 6353   0.125   3.137  17.396  0.0171  0.8233  0.1098
  426TMC3    C5 6354   0.213   3.034  17.377  0.4589  0.5719 -0.3125
  426TMC3    C6 6355   0.229   2.984  17.248 -0.2054  0.3587 -0.5067
  426TMC3     C 6356   4.674   3.293  17.319  0.3814 -0.1509 -0.3208
  426TMC3     O 6357   4.562   3.268  17.291  0.3751 -0.1501 -0.5922
  426TMC3     H 6358   4.707   3.161  17.087 -0.8535 -0.8921 -1.0430
  426TMC3    H1 6359   0.118   3.175  17.497 -2.3386 -0.1565  0.3305
  426TMC3    H2 6360   0.285   2.892  17.236 -0.9210  0.1340 -2.2305
  426TMC3    C7 6361   0.236   2.934  17.489  0.2192 -0.8998  0.0540
  426TMC3    C8 6362   0.206   3.021  17.007 -0.3220  0.4742  0.1978
  426TMC3    O1 6363   0.318   2.840  17.473 -0.0852 -0.3162  0.0788
  426TMC3    O2 6364   0.266   2.914  16.985 -0.4707 -0.2130 -0.0461
  427MPD2     C 6365   3.360   0.712  14.684  0.0465  0.3804 -0.0443
  427MPD2    C1 6366   3.292   0.630  14.769  0.1780  0.1304 -0.0688
  427MPD2    C2 6367   3.156   0.634  14.768  0.1238  0.1944  0.2896
  427MPD2    C3 6368   3.081   0.716  14.678 -0.0985  0.3318 -1.1807
  427MPD2    C4 6369   3.151   0.798  14.592  0.2122 -0.0215  0.1762
  427MPD2    C5 6370   3.290   0.790  14.592 -0.1734  0.1454 -0.1908
  427MPD2     H 6371   3.105   0.576  14.845 -1.2827 -0.1321 -0.8908
  427MPD2    H1 6372   3.105   0.849  14.507  1.2680 -1.2604 -1.1257
  427MPD2    H2 6373   3.468   0.721  14.678  0.1708  0.1654  1.9397
  427MPD2    H3 6374   3.350   0.845  14.521  1.0014  0.0793  0.7669
  427MPD2     N 6375   2.941   0.731  14.677  0.4040 -0.6659  1.1307
  427MPD2    H5 6376   2.907   0.803  14.613 -0.9660 -2.0158  0.3341
  427MPD2    N1 6377   3.356   0.537  14.856  0.4182  0.3823 -0.1337
  427MPD2    H7 6378   3.453   0.562  14.870  0.3634  0.3997  0.2046
  428TMC3    C1 6379   3.384   0.381  15.024  0.0555 -0.1686  0.7732
  428TMC3    C2 6380   3.359   0.255  15.070 -0.9620  0.1868 -0.4421
  428TMC3    C3 6381   3.452   0.203  15.157 -0.0761  0.8411  0.2091
  428TMC3    C4 6382   3.484   0.463  15.078  0.1267 -0.0517 -0.0289
  428TMC3    C5 6383   3.565   0.399  15.164  0.1287  0.5440 -0.1821
  428TMC3    C6 6384   3.566   0.271  15.198  0.4159 -0.0356  0.6967
  428TMC3     C 6385   3.299   0.434  14.925  0.5281  0.6015  0.2582
  428TMC3     O 6386   3.190   0.388  14.909 -0.2272 -0.2126  0.0474
  428TMC3     H 6387   3.271   0.204  15.032  0.7221 -3.6258  0.7364
  428TMC3    H1 6388   3.490   0.571  15.072  0.3529  0.0734  2.3766
  428TMC3    H2 6389   3.639   0.219  15.259  0.1935  0.0667  1.0470
  428TMC3    C7 6390   3.652   0.475  15.244  0.0360 -0.2144  0.8391
  428TMC3    C8 6391   3.433   0.082  15.221 -0.0328  0.4016  0.1303
  428TMC3    O1 6392   3.656   0.443  15.359  0.4462 -0.4383  0.0215
  428TMC3    O2 6393   3.530   0.015  15.247 -0.4562 -0.0110  0.6050
  429MPD2     C 6394   3.945   0.757   0.052 -0.6692  0.0783 -0.8522
  429MPD2    C1 6395   3.958   0.772  17.607 -0.1805  0.0765  0.5170
  429MPD2    C2 6396   4.014   0.887  17.560 -0.0086  0.6018 -0.2009
  429MPD2    C3 6397   4.068   0.981  17.655  0.0372 -0.1934 -0.8254
  429MPD2    C4 6398   4.055   0.966   0.105 -0.0447  0.3834 -0.0647
  429MPD2    C5 6399   3.989   0.849   0.143  0.1320 -0.9456  0.5188
  429MPD2     H 6400   4.025   0.898  17.453  0.8736 -2.1452 -0.3847
  429MPD2    H1 6401   4.092   1.024   0.189  0.3128  0.4655 -0.2795
  429MPD2    H2 6402   3.891   0.670   0.089  0.3939  0.6653  2.1224
  429MPD2    H3 6403   3.964   0.843   0.248  2.2067 -1.7573  0.9688
  429MPD2     N 6404   4.148   1.077  17.602  0.2354  0.0490  0.1599
  429MPD2    H5 6405   4.158   1.070  17.501  1.5309 -2.7417  0.4762
  429MPD2    N1 6406   3.902   0.678  17.515 -0.3542  0.4951 -0.3582
  429MPD2    H7 6407   3.933   0.677  17.419  3.5503  0.1613  0.9103
  430TMC3    C1 6408   4.301   1.258  17.572 -0.4015  0.0743  0.4798
  430TMC3    C2 6409   4.244   1.294  17.451 -1.0160 -0.3830  0.1578
  430TMC3    C3 6410   4.316   1.387  17.375 -0.3870 -0.3348  0.4798
  430TMC3    C4 6411   4.421   1.303  17.616 -0.3242  0.1375 -0.0860
  430TMC3    C5 6412   4.488   1.389  17.533  0.1163  0.4642 -0.0205
  430TMC3    C6 6413   4.432   1.448  17.424 -0.3417 -0.0455  0.1459
  430TMC3     C 6414   4.224   1.182  17.667  0.1406 -0.6042 -0.3462
  430TMC3     O 6415   4.214   1.227   0.093  0.6719  0.3633 -0.5034
  430TMC3     H 6416   4.139   1.276  17.433 -1.2840 -0.4775  1.8831
  430TMC3    H1 6417   4.468   1.271   0.019  3.6649  3.3812 -1.0226
  430TMC3    H2 6418   4.494   1.516  17.367 -0.0783 -2.4529 -2.4504
  430TMC3    C7 6419   4.630   1.384  17.523 -0.1580  0.4651 -0.8043
  430TMC3    C8 6420   4.263   1.421  17.245  0.0388  0.3382  0.0089
  430TMC3    O1 6421   4.703   1.391  17.625  0.0429 -0.8783 -0.3748
  430TMC3    O2 6422   4.167   1.356  17.209  0.2877  0.6991 -0.0017
  431MPD2     C 6423   0.168   0.679  12.425  0.2683  0.2297  0.4366
  431MPD2    C1 6424   0.247   0.752  12.338  0.0312 -0.2967 -0.2466
  431MPD2    C2 6425   0.270   0.699  12.209 -0.2348  0.1058 -0.4893
  431MPD2    C3 6426   0.208   0.579  12.165 -0.4117  0.8376 -0.1386
  431MPD2    C4 6427   0.124   0.522  12.258 -0.0109 -0.7798  0.2677
  431MPD2    C5 6428   0.109   0.567  12.384  0.4950  0.3011  0.2943
  431MPD2     H 6429   0.343   0.751  12.148 -0.5522 -2.1525 -2.7662
  431MPD2    H1 6430   0.056   0.441  12.234  0.1014 -0.4505 -1.1556
  431MPD2    H2 6431   0.154   0.709  12.528 -0.1889 -0.4188  0.5593
  431MPD2    H3 6432   0.045   0.511  12.451  0.4676  0.9209  0.7880
  431MPD2     N 6433   0.236   0.518  12.040 -0.4961 -0.1689  0.1901
  431MPD2    H5 6434   0.218   0.419  12.034  0.5129 -0.3051 -0.8374
  431MPD2    N1 6435   0.303   0.877  12.375  0.2572 -0.1174  0.4938
  431MPD2    H7 6436   0.365   0.926  12.311  0.7666  1.2519  2.0153
  432TMC3    C1 6437   0.350   0.466  11.852 -0.1709  0.3361 -0.0270
  432TMC3    C2 6438   0.381   0.503  11.720  0.2121 -0.0053 -0.3281
  432TMC3    C3 6439   0.413   0.391  11.642 -0.3093  0.0682 -0.4553
  432TMC3    C4 6440   0.357   0.337  11.899  0.2945 -0.0499  0.4482
  432TMC3    C5 6441   0.379   0.233  11.815  0.1852 -0.0275 -0.0879
  432TMC3    C6 6442   0.416   0.262  11.683 -0.2047 -0.0885 -0.0868
  432TMC3     C 6443   0.313   0.577  11.942 -0.5993  0.3782  0.9803
  432TMC3     O 6444   0.350   0.689  11.914  1.0726 -0.1427  0.2402
  432TMC3     H 6445   0.402   0.603  11.686  0.8637  0.4275  1.3505
  432TMC3    H1 6446   0.353   0.313  12.005  2.4500 -0.7323  0.3719
  432TMC3    H2 6447   0.469   0.191  11.621  2.0309  1.2581  0.2867
  432TMC3    C7 6448   0.439   0.110  11.873  0.4723 -0.3150 -0.5991
  432TMC3    C8 6449   0.504   0.423  11.533 -0.0630 -0.0331  0.7496
  432TMC3    O1 6450   0.541   0.075  11.818 -0.4033  0.0616 -0.0136
  432TMC3    O2 6451   0.488   0.356  11.430  0.1605  0.5102  0.7037
  433MPD2     C 6452   4.021   4.075  10.726 -0.6792 -0.0528 -0.6091
  433MPD2    C1 6453   4.060   3.988  10.818  0.1201 -0.5947 -0.4594
  433MPD2    C2 6454   4.094   4.031  10.943 -0.2183  0.1725 -0.4616
  433MPD2    C3 6455   4.066   4.161  10.975  0.6206  0.1746 -0.8730
  433MPD2    C4 6456   4.026   4.251  10.878  0.2949 -0.8048 -0.0259
  433MPD2    C5 6457   3.998   4.206  10.748  0.4834 -0.1545  0.2714
  433MPD2     H 6458   4.133   3.967  11.022  2.2495  0.7645 -1.1935
  433MPD2    H1 6459   4.004   4.356  10.896 -1.9617 -0.5289 -4.3062
  433MPD2    H2 6460   4.008   4.047  10.622  2.7461  0.6045 -1.1871
  433MPD2    H3 6461   3.962   4.278  10.676 -0.4576  1.8332  2.7118
  433MPD2     N 6462   4.092   4.192  11.107  0.4595 -0.1351 -0.0654
  433MPD2    H5 6463   4.117   4.125  11.179  1.3730  0.3357  0.0557
  433MPD2    N1 6464   4.081   3.855  10.779  0.2469 -0.5694 -0.2566
  433MPD2    H7 6465   4.083   3.842  10.678 -0.2123  1.8536 -0.5742
  434TMC3    C1 6466   4.197   3.650  10.809  0.2046 -0.4519  0.8816
  434TMC3    C2 6467   4.291   3.593  10.896 -0.1150  0.2496  0.6797
  434TMC3    C3 6468   4.420   3.562  10.858  0.3388 -0.1477  0.8215
  434TMC3    C4 6469   4.235   3.662  10.678 -0.2800  0.3052  0.1061
  434TMC3    C5 6470   4.353   3.596  10.637 -0.2809  0.1890  0.8515
  434TMC3    C6 6471   4.447   3.547  10.724  0.3017 -0.5954  0.2202
  434TMC3     C 6472   4.108   3.752  10.866 -0.1724  0.0802 -1.1438
  434TMC3     O 6473   4.106   3.746  10.990  0.8192  0.1805  0.2175
  434TMC3     H 6474   4.282   3.599  11.004  0.1193  0.4622  0.6879
  434TMC3    H1 6475   4.166   3.698  10.603  0.0052 -0.8342 -0.7140
  434TMC3    H2 6476   4.545   3.515  10.691  0.3227  0.4842 -0.7622
  434TMC3    C7 6477   4.342   3.537  10.507  0.2552  0.5848  0.1504
  434TMC3    C8 6478   4.522   3.574  10.965  0.7797 -0.2727  0.3331
  434TMC3    O1 6479   4.277   3.586  10.416 -0.4597  0.6634  0.1831
  434TMC3    O2 6480   4.492   3.579  11.082  0.9267  0.6260  0.0744
  435MPD2     C 6481   0.971   4.123  15.370 -0.1173 -0.2494 -0.2859
  435MPD2    C1 6482   0.963   4.125  15.510 -0.2133 -0.2799  0.1195
  435MPD2    C2 6483   1.063   4.056  15.572 -0.2523  0.4826  0.7560
  435MPD2    C3 6484   1.172   3.997  15.510  0.0684  0.2557  0.9147
  435MPD2    C4 6485   1.184   4.000  15.371 -0.0841 -0.1552  0.3342
  435MPD2    C5 6486   1.081   4.065  15.306  0.2200  0.1056 -0.2911
  435MPD2     H 6487   1.071   4.083  15.676  2.6423 -0.6282  0.8187
  435MPD2    H1 6488   1.261   3.956  15.310 -1.3826  0.9105 -2.0611
  435MPD2    H2 6489   0.896   4.176  15.313 -0.6975 -1.1307 -0.3525
  435MPD2    H3 6490   1.083   4.061  15.198  1.4187 -1.0946 -0.2247
  435MPD2     N 6491   1.275   3.945  15.589 -0.1622 -0.0309 -0.0925
  435MPD2    H5 6492   1.255   3.938  15.688  0.6062 -3.6290 -0.1859
  435MPD2    N1 6493   0.866   4.194  15.580 -0.1209  0.1516  0.7653
  435MPD2    H7 6494   0.873   4.190  15.681  0.7327  0.1900  0.7088
  436TMC3    C1 6495   0.641   4.383  15.851 -0.4150 -0.0626  0.5185
  436TMC3    C2 6496   0.718   4.333  15.752  0.0738  0.0224 -0.6389
  436TMC3    C3 6497   0.663   4.295  15.633 -1.1357 -0.1983  0.6392
  436TMC3    C4 6498   0.503   4.359  15.846  0.0596 -0.5300 -0.2448
  436TMC3    C5 6499   0.454   4.320  15.725 -0.1516  0.6413 -0.5578
  436TMC3    C6 6500   0.533   4.287  15.621 -0.3029  0.0793 -0.2096
  436TMC3     C 6501   0.697   4.392  15.979 -0.6064  0.7448 -0.5631
  436TMC3     O 6502   0.802   4.329  15.998 -0.5584 -0.5798 -0.4725
  436TMC3     H 6503   0.825   4.349  15.759 -0.0502  0.5269  0.2133
  436TMC3    H1 6504   0.444   4.358  15.936  1.1493 -0.6086  0.4704
  436TMC3    H2 6505   0.491   4.251  15.528 -1.9357  1.4124  0.0245
  436TMC3    C7 6506   0.322   4.257  15.723  0.9381 -0.0355  0.5278
  436TMC3    C8 6507   0.741   4.233  15.533  0.0229  0.5485  0.0691
  436TMC3    O1 6508   0.288   4.180  15.633 -0.5710 -0.6236  0.3949
  436TMC3    O2 6509   0.702   4.221  15.416 -0.2872  0.1166  0.1679
  437TMC3    C1 6510   4.613   1.219  12.456 -0.1279 -0.0654  0.1501
  437TMC3    C2 6511   4.522   1.167  12.378  1.1709  0.2581  0.3273
  437TMC3    C3 6512   4.519   1.215  12.246  0.5789 -0.0503 -0.6944
  437TMC3    C4 6513   4.695   1.327  12.419  1.1396  0.0712 -0.6018
  437TMC3    C5 6514   4.687   1.378  12.292  0.0447  0.7262 -0.7711
  437TMC3    C6 6515   4.604   1.312  12.204  0.5495  0.1829  0.0353
  437TMC3     C 6516   4.606   1.180  12.595 -0.0674 -0.0178  0.6006
  437TMC3     O 6517   4.511   1.112  12.630 -0.3253 -0.5763 -0.0611
  437TMC3     H 6518   4.447   1.099  12.416  1.2081  0.0992  0.1173
  437TMC3    H1 6519   0.017   1.390  12.496  1.3688 -1.8559  0.8280
  437TMC3    H2 6520   4.590   1.359  12.108 -0.1603  1.8787  0.9744
  437TMC3    C7 6521   0.056   1.486  12.244  0.5074  0.3614 -0.5743
  437TMC3    C8 6522   4.406   1.178  12.170  0.1510  0.1438 -0.4391
  437TMC3    O1 6523   0.040   1.520  12.128 -0.6319  0.2134  0.2814
  437TMC3    O2 6524   4.308   1.135  12.234 -0.0008 -0.6620 -0.6881
  438MPD2     C 6525   2.239   2.045  16.938  0.2699 -0.2444  0.3807
  438MPD2    C1 6526   2.342   1.962  16.978  0.6096 -0.1355  0.3925
  438MPD2    C2 6527   2.318   1.836  17.017 -0.5227 -0.2531 -0.1912
  438MPD2    C3 6528   2.187   1.787  17.017 -0.0105  0.9956  0.0789
  438MPD2    C4 6529   2.087   1.874  16.999  0.6150  0.2300 -0.0873
  438MPD2    C5 6530   2.104   2.005  16.961  0.2100 -0.2423  0.5586
  438MPD2     H 6531   2.388   1.769  17.065 -0.2062  0.9675  1.0238
  438MPD2    H1 6532   1.984   1.843  17.015  0.4870  0.7246  0.0707
  438MPD2    H2 6533   2.262   2.146  16.908 -1.0949 -0.1078 -0.1930
  438MPD2    H3 6534   2.020   2.074  16.962 -0.2792 -0.8131 -0.5758
  438MPD2     N 6535   2.156   1.650  17.051  0.3034 -0.1495 -0.1931
  438MPD2    H5 6536   2.062   1.616  17.035  0.7186 -1.4331  0.0551
  438MPD2    N1 6537   2.478   1.991  16.978 -1.2741 -0.7024 -0.6625
  438MPD2    H7 6538   2.542   1.918  17.006 -1.5976 -0.7192  0.0282
  439TMC3    C1 6539   2.668   2.087  16.905  0.3352 -0.2721  0.0627
  439TMC3    C2 6540   2.717   2.167  16.800 -0.1154 -0.0948  0.3555
  439TMC3    C3 6541   2.842   2.142  16.748 -0.3028 -0.2302 -0.8564
  439TMC3    C4 6542   2.745   1.997  16.976  1.1343 -0.4828  0.1136
  439TMC3    C5 6543   2.877   1.993  16.929 -0.5534  0.1366  0.1815
  439TMC3    C6 6544   2.925   2.059  16.818  0.1257 -0.2730 -0.0638
  439TMC3     C 6545   2.529   2.103  16.936 -0.1377 -0.2293  0.3882
  439TMC3     O 6546   2.476   2.200  16.881 -0.2937 -0.3150 -0.8072
  439TMC3     H 6547   2.652   2.229  16.739 -0.3811 -0.7606 -0.0402
  439TMC3    H1 6548   2.722   1.947  17.070 -0.9539 -1.0978 -0.7334
  439TMC3    H2 6549   3.022   2.034  16.778  0.2719 -0.4293  0.3879
  439TMC3    C7 6550   2.971   1.943  17.028  1.2073 -0.1549  1.0286
  439TMC3    C8 6551   2.845   2.126  16.606 -0.4291 -0.2019  0.2228
  439TMC3    O1 6552   3.078   2.004  17.044  0.2566 -0.2654  0.4537
  439TMC3    O2 6553   2.747   2.089  16.538  0.2824 -0.1319  0.4045
  440MPD2     C 6554   1.078   2.036  14.848  0.6172  0.5081  0.2685
  440MPD2    C1 6555   1.101   2.166  14.909 -0.2406 -0.1356 -0.0914
  440MPD2    C2 6556   1.230   2.183  14.959 -0.3721  0.5039  0.0248
  440MPD2    C3 6557   1.336   2.090  14.948  0.3729 -0.3425 -0.2698
  440MPD2    C4 6558   1.311   1.973  14.891  0.1356 -0.3958  0.2060
  440MPD2    C5 6559   1.185   1.948  14.842  0.2430  0.5135  0.2506
  440MPD2     H 6560   1.255   2.283  14.993 -2.8013  0.1103  2.9993
  440MPD2    H1 6561   1.377   1.888  14.881  0.2936 -0.0383 -1.7823
  440MPD2    H2 6562   0.987   2.014  14.794  0.2783 -0.1463  1.1140
  440MPD2    H3 6563   1.164   1.861  14.781 -0.0697  1.0765 -0.4401
  440MPD2     N 6564   1.469   2.115  14.979  0.4689 -0.4788  0.1842
  440MPD2    H5 6565   1.540   2.049  14.950  2.2353  1.6496 -0.3429
  440MPD2    N1 6566   1.011   2.271  14.917 -0.4863 -0.2146 -0.0629
  440MPD2    H7 6567   1.043   2.356  14.963 -2.1032  0.9474 -1.0771
  441TMC3    C1 6568   1.664   2.236  15.034  0.7936 -0.2424  0.0026
  441TMC3    C2 6569   1.726   2.355  15.034 -0.7392 -0.7174  0.2681
  441TMC3    C3 6570   1.835   2.375  15.114 -0.2669 -0.2385  0.3316
  441TMC3    C4 6571   1.709   2.127  15.102 -0.2821  0.0311  0.4503
  441TMC3    C5 6572   1.823   2.142  15.174  0.1369 -0.0354 -1.2300
  441TMC3    C6 6573   1.892   2.261  15.181  0.4122  0.3311  0.2742
  441TMC3     C 6574   1.517   2.239  15.024  0.0241  0.5760 -0.1314
  441TMC3     O 6575   1.465   2.347  15.047  0.6365 -0.0596 -0.1686
  441TMC3     H 6576   1.669   2.438  14.995  1.2488  1.2392  1.5702
  441TMC3    H1 6577   1.659   2.031  15.103 -1.0961  0.4527 -0.1307
  441TMC3    H2 6578   1.976   2.283  15.246 -0.5055  3.3822  0.4335
  441TMC3    C7 6579   1.824   2.053  15.288 -0.3330 -0.7050 -0.6736
  441TMC3    C8 6580   1.843   2.503  15.182 -0.7536  0.5373  0.6300
  441TMC3    O1 6581   1.725   1.985  15.314  0.4151 -0.1052 -0.4970
  441TMC3    O2 6582   1.955   2.547  15.210 -0.3377 -0.1300 -0.1384
  442MPD2     C 6583   3.659   3.444  16.413 -0.4224  0.1579 -0.5479
  442MPD2    C1 6584   3.720   3.403  16.292 -0.4324 -0.2782 -0.5540
  442MPD2    C2 6585   3.805   3.288  16.288 -0.2411  1.0430  0.4342
  442MPD2    C3 6586   3.840   3.230  16.409 -0.3823 -0.2436 -0.2464
  442MPD2    C4 6587   3.778   3.276  16.522  0.3063  0.6161 -0.7051
  442MPD2    C5 6588   3.681   3.380  16.526  0.4169  0.3863  0.6424
  442MPD2     H 6589   3.855   3.271  16.193 -3.8154 -3.0961 -0.7093
  442MPD2    H1 6590   3.807   3.242  16.620  1.0227  1.5550 -0.5818
  442MPD2    H2 6591   3.585   3.523  16.405  1.6554  1.9438 -1.8455
  442MPD2    H3 6592   3.642   3.413  16.622  0.1470  0.5387  0.4803
  442MPD2     N 6593   3.925   3.111  16.413 -0.6503  0.5260 -0.2255
  442MPD2    H5 6594   3.941   3.077  16.507 -0.0533 -2.7727 -1.5012
  442MPD2    N1 6595   3.702   3.458  16.163 -0.0114  0.0420  0.0419
  442MPD2    H7 6596   3.751   3.406  16.091 -1.4944 -1.5412  0.1939
  443TMC3    C1 6597   3.602   3.597  15.994  0.5735  0.3348 -0.1405
  443TMC3    C2 6598   3.664   3.532  15.886  0.4442  0.8491  0.8217
  443TMC3    C3 6599   3.606   3.553  15.763  0.6054 -0.0798 -0.2405
  443TMC3    C4 6600   3.487   3.668  15.973 -0.1287 -0.4514 -0.1598
  443TMC3    C5 6601   3.428   3.670  15.844 -0.6270 -0.2545 -0.2155
  443TMC3    C6 6602   3.497   3.629  15.734  0.1540  0.2983  0.1188
  443TMC3     C 6603   3.620   3.561  16.140  0.1962 -0.1253  0.2782
  443TMC3     O 6604   3.581   3.643  16.222  0.3349 -0.6202 -0.0133
  443TMC3     H 6605   3.759   3.480  15.897 -0.3642 -0.7134  0.4242
  443TMC3    H1 6606   3.440   3.724  16.052 -0.4148 -0.9244  0.0100
  443TMC3    H2 6607   3.449   3.637  15.637 -0.8916  2.9889  0.8759
  443TMC3    C7 6608   3.299   3.602  15.844 -0.0877 -0.0883  0.0030
  443TMC3    C8 6609   3.637   3.450  15.659  0.2613  0.4347 -0.0493
  443TMC3    O1 6610   3.279   3.534  15.744  0.0370 -0.1537  0.1806
  443TMC3    O2 6611   3.622   3.485  15.543  0.1084 -0.0024  0.1878
  444MPD2     C 6612   4.531   2.676  16.757  0.0762  0.6297 -1.0223
  444MPD2    C1 6613   4.473   2.570  16.820  0.3240  0.3015  0.4343
  444MPD2    C2 6614   4.520   2.438  16.794 -0.0509 -0.0402  0.7129
  444MPD2    C3 6615   4.636   2.423  16.714 -0.6971  0.0794  0.1656
  444MPD2    C4 6616   4.704   2.537  16.666  0.6130 -0.1289  0.0711
  444MPD2    C5 6617   4.639   2.653  16.680 -0.7273 -0.5664  0.6891
  444MPD2     H 6618   4.479   2.353  16.846 -0.1545  0.0554  0.7875
  444MPD2    H1 6619   0.065   2.532  16.596  1.3416 -0.5021  0.9565
  444MPD2    H2 6620   4.512   2.781  16.779  0.3408 -0.0405  2.5298
  444MPD2    H3 6621   4.690   2.742  16.645  0.5960 -0.4958  2.7803
  444MPD2     N 6622   4.680   2.294  16.685 -0.3142 -0.0585  0.3972
  444MPD2    H5 6623   4.619   2.215  16.702 -0.7813 -0.5265 -3.3638
  444MPD2    N1 6624   4.359   2.589  16.901 -0.2897 -0.8997 -0.0787
  444MPD2    H7 6625   4.330   2.500  16.941 -1.4129  0.7474  2.7888
  445TMC3    C1 6626   0.089   2.110  16.614 -0.3411  0.6379  0.7883
  445TMC3    C2 6627   4.705   2.038  16.575  0.4415  0.2976  0.0939
  445TMC3    C3 6628   0.006   1.902  16.546  0.0970 -0.5162 -0.4530
  445TMC3    C4 6629   0.211   2.053  16.642  0.1238  0.4656  0.1698
  445TMC3    C5 6630   0.214   1.917  16.647  0.3426 -0.1495 -0.8364
  445TMC3    C6 6631   0.116   1.840  16.590 -0.4253  0.2571  0.2866
  445TMC3     C 6632   0.083   2.255  16.637  0.1086  0.0760 -0.0793
  445TMC3     O 6633   0.184   2.327  16.631  0.2191 -0.1302 -0.2354
  445TMC3     H 6634   4.615   2.086  16.538  0.0482 -0.7518 -0.3010
  445TMC3    H1 6635   0.298   2.109  16.673  0.0057  0.7571 -0.0213
  445TMC3    H2 6636   0.133   1.741  16.549  1.4716  0.5498  0.3350
  445TMC3    C7 6637   0.344   1.852  16.661  0.0398 -1.1482  0.4170
  445TMC3    C8 6638   4.627   1.827  16.481 -0.7504 -0.7135 -0.1409
  445TMC3    O1 6639   0.447   1.912  16.626  0.1252 -0.0841  0.0542
  445TMC3    O2 6640   4.630   1.705  16.505 -0.2975 -0.6399  0.4979
  446MPD2     C 6641   4.096   3.307  11.308  0.2997  0.2102 -0.9806
  446MPD2    C1 6642   4.041   3.384  11.209 -0.6115 -0.1528 -0.0254
  446MPD2    C2 6643   4.094   3.506  11.193  0.2451 -0.1323  0.1674
  446MPD2    C3 6644   4.208   3.551  11.262 -0.0285  0.6489 -0.2777
  446MPD2    C4 6645   4.264   3.463  11.355 -0.2850 -0.2822  0.0201
  446MPD2    C5 6646   4.203   3.348  11.381 -0.2699  0.3894 -0.3543
  446MPD2     H 6647   4.047   3.576  11.125 -0.2973 -0.8201 -0.1712
  446MPD2    H1 6648   4.344   3.492  11.422  0.5951  0.7833 -1.5031
  446MPD2    H2 6649   4.043   3.215  11.329 -1.3076  2.1581  3.6042
  446MPD2    H3 6650   4.247   3.286  11.457 -0.0865  0.0484 -0.7365
  446MPD2     N 6651   4.250   3.680  11.244  0.3321  0.1490  0.4863
  446MPD2    H5 6652   4.217   3.728  11.160  1.8079  1.0674  0.4204
  446MPD2    N1 6653   3.927   3.331  11.140 -1.2022  0.5285  0.1873
  446MPD2    H7 6654   3.898   3.235  11.156  0.9228 -0.0104  0.8386
  447TMC3    C1 6655   4.394   3.870  11.231  0.1495 -0.1674 -0.0423
  447TMC3    C2 6656   4.370   3.883  11.095  0.2119 -0.2309  0.0413
  447TMC3    C3 6657   4.452   3.971  11.023 -0.3210 -0.3441 -0.1029
  447TMC3    C4 6658   4.503   3.936  11.291  0.4683  0.0693  0.2423
  447TMC3    C5 6659   4.576   4.028  11.220 -0.6768 -0.6199  0.7270
  447TMC3    C6 6660   4.556   4.040  11.082  0.5904  0.3747 -0.0934
  447TMC3     C 6661   4.358   3.745  11.302 -0.1218  0.1745 -0.0994
  447TMC3     O 6662   4.420   3.718  11.400  0.2061  0.0527 -0.2879
  447TMC3     H 6663   4.317   3.815  11.030  2.6064 -1.4091 -0.6554
  447TMC3    H1 6664   4.523   3.912  11.395  0.4714  1.0432  0.4719
  447TMC3    H2 6665   4.609   4.117  11.028  1.5746  1.4358  2.3779
  447TMC3    C7 6666   4.712   4.069  11.257 -0.1197 -0.0416  1.0683
  447TMC3    C8 6667   4.475   3.935  10.884 -0.1213  0.3256  0.4386
  447TMC3    O1 6668   0.075   4.078  11.168 -0.8315 -0.3827  0.2592
  447TMC3    O2 6669   4.381   3.894  10.820 -0.2423 -0.2544  0.1128
  448TMC3    C1 6670   2.796   3.748  17.062 -0.3937  0.5598  0.3768
  448TMC3    C2 6671   2.827   3.647  16.973 -0.4929 -0.2761  0.1108
  448TMC3    C3 6672   2.930   3.574  17.016  0.0685 -0.2781  0.0288
  448TMC3    C4 6673   2.873   3.785  17.174  0.7511 -0.6502 -0.2701
  448TMC3    C5 6674   2.981   3.706  17.206 -0.4643 -0.1431  0.3789
  448TMC3    C6 6675   3.014   3.602  17.125 -0.1949 -0.1937 -0.4561
  448TMC3     C 6676   2.674   3.824  17.039 -0.0363  0.6067  0.8280
  448TMC3     O 6677   2.611   3.859  17.142  0.1239 -0.0323 -0.2653
  448TMC3     H 6678   2.753   3.607  16.904 -1.4417 -2.6231  2.4915
  448TMC3    H1 6679   2.831   3.859  17.241  0.2392 -1.7220  0.5704
  448TMC3    H2 6680   3.103   3.545  17.145  0.4475  0.6263 -0.9837
  448TMC3    C7 6681   3.036   3.727  17.340 -0.6533 -0.0230 -0.2545
  448TMC3    C8 6682   2.946   3.447  16.949  0.1398  0.1078  0.0110
  448TMC3    O1 6683   3.012   3.834  17.397  0.0444  0.3567  0.0069
  448TMC3    O2 6684   2.995   3.354  17.013 -0.5097  0.0890  0.3321
  449MPD2     C 6685   3.891   1.611  14.047  0.2565 -0.6063  0.1435
  449MPD2    C1 6686   3.830   1.718  13.979  0.8716  0.5059  1.0797
  449MPD2    C2 6687   3.709   1.768  14.026 -0.0326  0.1965  0.5498
  449MPD2    C3 6688   3.666   1.747  14.152  0.0097 -0.4212 -0.3756
  449MPD2    C4 6689   3.739   1.651  14.226  0.0245 -0.1469  0.0701
  449MPD2    C5 6690   3.835   1.579  14.164 -0.4894 -0.5661 -0.6379
  449MPD2     H 6691   3.656   1.844  13.969 -1.4861 -0.7205  0.6914
  449MPD2    H1 6692   3.718   1.639  14.331  0.4548 -0.8818  0.0740
  449MPD2    H2 6693   3.974   1.563  13.997  1.3821  0.5505  0.8830
  449MPD2    H3 6694   3.892   1.504  14.217  0.1717  1.5215  1.6349
  449MPD2     N 6695   3.553   1.814  14.203  0.3389 -0.5303  0.2758
  449MPD2    H5 6696   3.504   1.888  14.154  0.8085 -0.4624 -0.0877
  449MPD2    N1 6697   3.873   1.771  13.855  0.8106  0.7750  0.0002
  449MPD2    H7 6698   3.808   1.844  13.827  2.0350  1.7953 -0.1902
  450TMC3    C1 6699   3.963   1.798  13.640 -0.1710  0.0102  0.0890
  450TMC3    C2 6700   3.947   1.718  13.533 -0.2618 -0.4463  0.2596
  450TMC3    C3 6701   3.854   1.762  13.440  0.6454 -0.6255 -0.5304
  450TMC3    C4 6702   3.902   1.918  13.653  0.0608 -0.2430  0.5646
  450TMC3    C5 6703   3.809   1.955  13.562 -0.0287 -0.0416  0.3103
  450TMC3    C6 6704   3.793   1.886  13.450  0.1714  0.6138 -0.0389
  450TMC3     C 6705   3.977   1.728  13.777 -0.1651 -0.1217 -0.0598
  450TMC3     O 6706   4.053   1.631  13.799 -0.6234 -0.8746 -0.5541
  450TMC3     H 6707   3.979   1.614  13.539 -1.0161 -0.6449  0.9375
  450TMC3    H1 6708   3.915   1.978  13.743 -0.4171  0.7359 -0.0176
  450TMC3    H2 6709   3.726   1.913  13.370 -0.4273 -0.8286 -0.0239
  450TMC3    C7 6710   3.683   1.971  13.641 -0.1344 -0.1505 -0.3432
  450TMC3    C8 6711   3.878   1.721  13.304 -0.0860  0.2026 -0.1479
  450TMC3    O1 6712   3.674   1.927  13.754  0.1541 -0.4913 -0.7778
  450TMC3    O2 6713   3.802   1.770  13.216 -0.1099  0.6780 -0.0847
  451MPD2     C 6714   4.669   0.323   1.694 -0.2351 -0.4353 -0.2781
  451MPD2    C1 6715   0.050   0.389   1.630 -0.5304  0.7021 -0.5287
  451MPD2    C2 6716   0.155   0.304   1.583 -0.0848  0.3250 -0.0587
  451MPD2    C3 6717   0.168   0.174   1.616 -0.1931  0.6795 -0.1535
  451MPD2    C4 6718   0.077   0.123   1.708 -0.6593  0.3943 -0.3667
  451MPD2    C5 6719   4.689   0.196   1.738  0.0931  0.8394 -0.4098
  451MPD2     H 6720   0.236   0.351   1.527 -0.6191 -1.9556 -2.7687
  451MPD2    H1 6721   0.089   0.024   1.751  1.8097  1.2210  0.8577
  451MPD2    H2 6722   4.576   0.363   1.731  0.5282  1.2153 -0.1617
  451MPD2    H3 6723   4.609   0.164   1.803  1.1313  0.7085  0.8136
  451MPD2     N 6724   0.277   0.088   1.574 -0.0643 -0.2786  0.2130
  451MPD2    H5 6725   0.287   0.003   1.628  0.5948 -1.2864 -1.4901
  451MPD2    N1 6726   0.022   0.524   1.600  0.1900  0.2602 -0.3651
  451MPD2    H7 6727   4.654   0.559   1.634  0.7983  2.1424 -0.7362
  452TMC3    C1 6728   0.452   0.025   1.427  0.3274 -0.0162 -0.4164
  452TMC3    C2 6729   0.537   4.696   1.520 -0.3471  0.0313 -0.5661
  452TMC3    C3 6730   0.657   4.650   1.480  0.5568 -0.2239 -0.0216
  452TMC3    C4 6731   0.498   0.035   1.299 -0.5131  0.2507 -0.1233
  452TMC3    C5 6732   0.616   4.700   1.253 -0.1624  0.8957  0.4858
  452TMC3    C6 6733   0.703   4.654   1.344  0.1523  0.3941  0.0835
  452TMC3     C 6734   0.344   0.113   1.456 -0.0200  0.1616  0.0900
  452TMC3     O 6735   0.322   0.192   1.364 -0.4124  0.2317  0.1153
  452TMC3     H 6736   0.512   4.703   1.626 -0.4056  0.9691 -0.6466
  452TMC3    H1 6737   0.423   0.062   1.225  2.0460 -0.7505 -3.1035
  452TMC3    H2 6738   0.793   4.606   1.308 -0.4731 -0.7459  0.0437
  452TMC3    C7 6739   0.650   0.022   1.125  0.1895 -0.2656 -0.6962
  452TMC3    C8 6740   0.707   4.548   1.563  0.2647 -0.8535  0.2422
  452TMC3    O1 6741   0.558   0.032   1.046 -0.0285  0.0956 -0.3904
  452TMC3    O2 6742   0.635   4.524   1.658  0.3411 -0.3018  0.2865
  453TMC3    C1 6743   1.768   2.563  11.727 -0.2294  0.2375 -0.3597
  453TMC3    C2 6744   1.668   2.489  11.784  0.1370  0.5122  0.2072
  453TMC3    C3 6745   1.556   2.465  11.712  0.4118 -0.1907 -0.6050
  453TMC3    C4 6746   1.762   2.613  11.602  0.0978 -0.4708  0.2993
  453TMC3    C5 6747   1.655   2.584  11.527  0.1383  0.0119  0.2324
  453TMC3    C6 6748   1.552   2.510  11.581  0.0236 -0.1544 -0.0514
  453TMC3     C 6749   1.886   2.596  11.807 -0.2900 -0.5970 -0.0125
  453TMC3     O 6750   1.951   2.692  11.776  0.6221  0.4622 -0.4659
  453TMC3     H 6751   1.662   2.474  11.891 -0.6903 -0.4911  0.0182
  453TMC3    H1 6752   1.841   2.677  11.565 -1.2979 -0.1387 -2.1014
  453TMC3    H2 6753   1.458   2.499  11.529  0.9566 -1.0363 -1.5571
  453TMC3    C7 6754   1.688   2.537  11.392  0.5784 -0.6984  0.0437
  453TMC3    C8 6755   1.461   2.364  11.748  0.0903  0.5380  0.0146
  453TMC3    O1 6756   1.651   2.430  11.360  0.0692 -0.5228  0.0638
  453TMC3    O2 6757   1.356   2.362  11.688 -0.6262 -0.1563  0.4684
  454MPD2     C 6758   0.631   2.196  16.185  0.5733  0.0991  0.3230
  454MPD2    C1 6759   0.570   2.320  16.159  0.3689 -0.5640  0.7425
  454MPD2    C2 6760   0.580   2.419  16.253 -0.3960 -0.3901 -0.0763
  454MPD2    C3 6761   0.628   2.393  16.380 -0.8964 -0.2377 -0.5606
  454MPD2    C4 6762   0.692   2.269  16.401 -0.5581 -0.7736 -1.1364
  454MPD2    C5 6763   0.699   2.174  16.299 -0.0278  0.2207  0.5570
  454MPD2     H 6764   0.534   2.516  16.241  0.6020  0.2218  1.0456
  454MPD2    H1 6765   0.727   2.244  16.501  2.3450 -0.4360 -2.0779
  454MPD2    H2 6766   0.623   2.107  16.123  1.2344  0.0598  0.2946
  454MPD2    H3 6767   0.746   2.078  16.311 -0.7494 -0.3326 -1.0334
  454MPD2     N 6768   0.625   2.490  16.487 -0.1500  0.5950 -0.5031
  454MPD2    H5 6769   0.701   2.490  16.554  0.5410 -1.2332 -1.2753
  454MPD2    N1 6770   0.496   2.351  16.043 -0.0739 -0.5256 -0.3444
  454MPD2    H7 6771   0.450   2.440  16.025 -0.1366 -0.5759 -0.4353
  455TMC3    C1 6772   0.412   2.583  16.442 -0.6566 -0.0444 -0.4074
  455TMC3    C2 6773   0.354   2.700  16.399 -0.3352  0.0868 -0.4779
  455TMC3    C3 6774   0.232   2.697  16.333  0.4904  0.7084  0.4962
  455TMC3    C4 6775   0.346   2.463  16.419  0.0160  0.1497  0.2067
  455TMC3    C5 6776   0.229   2.461  16.351  0.9145  0.5949  0.3725
  455TMC3    C6 6777   0.168   2.574  16.313  0.1938  0.4094  0.1764
  455TMC3     C 6778   0.542   2.596  16.500  1.5219  0.1559 -0.1184
  455TMC3     O 6779   0.561   2.696  16.569 -0.2149  0.9796  0.2841
  455TMC3     H 6780   0.414   2.790  16.404 -0.3494  0.0405  0.4111
  455TMC3    H1 6781   0.378   2.384  16.486 -1.1205 -1.2708 -0.9649
  455TMC3    H2 6782   0.066   2.563  16.278  0.8117 -2.5611 -0.6437
  455TMC3    C7 6783   0.191   2.335  16.286  0.2636 -0.1070  1.0159
  455TMC3    C8 6784   0.145   2.801  16.382 -0.0181  0.4035 -0.2351
  455TMC3    O1 6785   0.088   2.336  16.219  0.3155 -0.3390 -0.9989
  455TMC3    O2 6786   0.039   2.821  16.330 -0.0568 -0.1111  1.0920
  456MPD2     C 6787   3.614   2.308  16.250  0.0306 -0.7536 -0.4563
  456MPD2    C1 6788   3.572   2.237  16.364  0.2175  0.0673 -0.5505
  456MPD2    C2 6789   3.478   2.295  16.447  0.6247 -0.0720  0.0379
  456MPD2    C3 6790   3.436   2.423  16.419 -0.3452 -0.0015 -0.9540
  456MPD2    C4 6791   3.469   2.486  16.304  0.3326 -0.4458  0.3980
  456MPD2    C5 6792   3.563   2.431  16.218 -0.0947  0.6596 -0.1929
  456MPD2     H 6793   3.438   2.250  16.537 -0.8668 -1.2971 -1.2414
  456MPD2    H1 6794   3.435   2.586  16.279 -0.4121 -0.4649  1.3336
  456MPD2    H2 6795   3.689   2.264  16.185  0.6068  0.4186 -0.5859
  456MPD2    H3 6796   3.599   2.496  16.139  0.5101  2.7075  1.7655
  456MPD2     N 6797   3.353   2.481  16.523 -0.0596  0.4573  0.0473
  456MPD2    H5 6798   3.323   2.428  16.604  2.6977 -1.3988 -0.1479
  456MPD2    N1 6799   3.638   2.114  16.397  0.9958 -0.3805  0.4261
  456MPD2    H7 6800   3.725   2.092  16.350 -0.6760  1.8403 -3.6537
  457TMC3    C1 6801   3.266   2.649  16.654 -0.0694 -1.0775  0.1768
  457TMC3    C2 6802   3.182   2.751  16.653 -0.3075  0.6516 -0.1911
  457TMC3    C3 6803   3.160   2.816  16.777  0.2115  0.5641  0.0701
  457TMC3    C4 6804   3.330   2.601  16.767 -0.5311  0.5683 -0.8387
  457TMC3    C5 6805   3.328   2.675  16.875  0.7188  0.0312 -0.0888
  457TMC3    C6 6806   3.241   2.781  16.883  0.3627 -0.5970 -0.2899
  457TMC3     C 6807   3.320   2.612  16.530  0.1234 -0.4757  0.8210
  457TMC3     O 6808   3.317   2.704  16.446 -0.5340 -0.5300 -0.2050
  457TMC3     H 6809   3.123   2.783  16.568 -1.6104 -0.0468  0.4418
  457TMC3    H1 6810   3.408   2.526  16.771 -0.9786  0.1127 -0.6455
  457TMC3    H2 6811   3.230   2.826  16.981  0.2843  1.1860 -1.1352
  457TMC3    C7 6812   3.429   2.659  16.979 -0.3900 -0.6027  0.4812
  457TMC3    C8 6813   3.085   2.938  16.788 -0.1906 -0.7814  0.2448
  457TMC3    O1 6814   3.478   2.545  16.993 -0.0598 -0.2427 -0.4323
  457TMC3    O2 6815   3.079   2.986  16.900 -0.2079 -0.4609 -0.1377
  458MPD2     C 6816   0.509   1.741  12.241 -0.7013  0.3893  0.5141
  458MPD2    C1 6817   0.490   1.687  12.365 -0.8992  0.3503  0.3074
  458MPD2    C2 6818   0.371   1.615  12.385  0.6217 -0.2079  0.1219
  458MPD2    C3 6819   0.270   1.595  12.296 -0.1856  0.5673  0.3738
  458MPD2    C4 6820   0.290   1.664  12.176 -0.3347 -0.5971  0.6482
  458MPD2    C5 6821   0.404   1.742  12.156  0.2324  0.3257 -0.1167
  458MPD2     H 6822   0.340   1.599  12.488 -0.5828 -1.1706 -0.4002
  458MPD2    H1 6823   0.213   1.669  12.099 -0.5194 -0.2962  0.8516
  458MPD2    H2 6824   0.605   1.789  12.221 -0.2350 -1.3927 -1.4591
  458MPD2    H3 6825   0.420   1.780  12.056  2.1991 -0.3798 -0.0557
  458MPD2     N 6826   0.155   1.518  12.330 -0.6154 -0.0931  0.5168
  458MPD2    H5 6827   0.158   1.480  12.424 -0.1004 -3.2839 -0.7895
  458MPD2    N1 6828   0.585   1.703  12.476  0.9879  0.1921  0.2206
  458MPD2    H7 6829   0.661   1.766  12.454  2.0036 -0.2088  2.5639
  459TMC3    C1 6830   0.698   1.658  12.697  0.3188  0.3421 -0.6328
  459TMC3    C2 6831   0.812   1.729  12.664  0.0832 -0.7113  0.0193
  459TMC3    C3 6832   0.898   1.748  12.769  0.5486  0.7449 -0.0450
  459TMC3    C4 6833   0.675   1.601  12.820 -0.4724  0.4008  0.0940
  459TMC3    C5 6834   0.768   1.626  12.916  0.6302 -0.0848 -0.2913
  459TMC3    C6 6835   0.886   1.695  12.892 -0.2388 -0.0419  0.1989
  459TMC3     C 6836   0.590   1.626  12.597  0.4164  0.2601  0.7629
  459TMC3     O 6837   0.511   1.539  12.631 -0.2696  0.7160 -0.2719
  459TMC3     H 6838   0.845   1.765  12.567  0.9089 -0.9968  0.1897
  459TMC3    H1 6839   0.590   1.539  12.849 -1.7931  1.9535 -0.4246
  459TMC3    H2 6840   0.959   1.717  12.968 -0.2623  0.4375  0.0829
  459TMC3    C7 6841   0.754   1.560  13.037 -0.6713  0.1404  0.7488
  459TMC3    C8 6842   1.034   1.785  12.741 -0.1592 -0.8664 -0.2111
  459TMC3    O1 6843   0.673   1.474  13.054  1.0506  0.0995  0.6690
  459TMC3    O2 6844   1.113   1.739  12.819  0.1504  0.5768  0.1029
  460MPD2     C 6845   0.069   3.875  10.721 -0.6982  0.1015  0.3721
  460MPD2    C1 6846   4.656   3.892  10.729  0.6509 -0.4578 -0.2185
  460MPD2    C2 6847   4.578   3.866  10.618 -0.8728  0.0574 -0.3067
  460MPD2    C3 6848   4.643   3.816  10.505  0.5104  0.1646  0.1584
  460MPD2    C4 6849   0.058   3.806  10.500  0.0504 -0.1718  0.5237
  460MPD2    C5 6850   0.130   3.830  10.608  0.2086  0.3448  0.3586
  460MPD2     H 6851   4.473   3.890  10.624 -0.4196  2.2482 -1.4882
  460MPD2    H1 6852   0.108   3.771  10.410 -1.6820 -0.1738 -0.4486
  460MPD2    H2 6853   0.141   3.910  10.794  0.9180 -2.4750  0.0344
  460MPD2    H3 6854   0.238   3.836  10.608  0.2061  0.5657  3.7642
  460MPD2     N 6855   4.557   3.804  10.390  0.3166  0.2303 -0.5953
  460MPD2    H5 6856   4.465   3.846  10.390  0.3086  0.2129 -0.5379
  460MPD2    N1 6857   4.606   3.939  10.844 -0.3823 -0.4902 -0.0735
  460MPD2    H7 6858   4.672   3.968  10.915 -0.7205 -0.0318  0.0574
  461TMC3    C1 6859   4.513   3.760  10.165 -0.7660  0.0178 -0.4105
  461TMC3    C2 6860   4.476   3.650  10.089  0.4300  0.6238 -0.2362
  461TMC3    C3 6861   4.366   3.674  10.011  0.2855 -0.2091  0.6902
  461TMC3    C4 6862   4.453   3.882  10.164 -0.4774 -0.4981  0.0669
  461TMC3    C5 6863   4.348   3.900  10.072  0.0980 -0.0111 -0.7833
  461TMC3    C6 6864   4.303   3.795  10.000 -0.0946  0.4141 -0.3170
  461TMC3     C 6865   4.601   3.736  10.278 -0.4995  0.5811 -0.1585
  461TMC3     O 6866   4.689   3.657  10.259  0.2610  0.1960 -0.2162
  461TMC3     H 6867   4.519   3.552  10.106 -2.3311 -0.4220  0.6472
  461TMC3    H1 6868   4.488   3.963  10.225 -0.5415 -0.5480  0.1709
  461TMC3    H2 6869   4.219   3.809   9.932 -1.3723 -1.5240  0.8530
  461TMC3    C7 6870   4.279   4.026  10.077  0.1950 -0.1991  1.0617
  461TMC3    C8 6871   4.320   3.564   9.931 -0.2310 -0.0113 -0.1503
  461TMC3    O1 6872   4.236   4.071   9.975 -0.1695 -0.5520  0.2654
  461TMC3    O2 6873   4.404   3.494   9.876 -0.3216 -0.1569  0.0521
  462TMC3    C1 6874   4.249   0.539  17.435 -0.5079  0.1348 -0.3360
  462TMC3    C2 6875   4.276   0.442  17.342  0.4312 -0.1878  0.3131
  462TMC3    C3 6876   4.205   0.324  17.356 -0.7304 -0.7105  0.1544
  462TMC3    C4 6877   4.179   0.513  17.553 -0.3926 -0.2960 -0.4908
  462TMC3    C5 6878   4.122   0.390  17.560  0.7140 -0.2424  0.1011
  462TMC3    C6 6879   4.129   0.292  17.458  0.9418  0.2626 -0.8811
  462TMC3     C 6880   4.324   0.669  17.426 -0.2767  0.3932  0.1621
  462TMC3     O 6881   4.372   0.688  17.318  0.7399 -0.5255  0.1711
  462TMC3     H 6882   4.333   0.467  17.253  0.9383 -0.3773  0.5877
  462TMC3    H1 6883   4.171   0.595  17.624  0.7319 -1.0773  0.5466
  462TMC3    H2 6884   4.097   0.189  17.466  0.6639  0.3877 -0.3917
  462TMC3    C7 6885   4.048   0.350  17.679 -1.2220 -0.1226 -0.2769
  462TMC3    C8 6886   4.237   0.216  17.270 -0.2112  0.3735 -0.6094
  462TMC3    O1 6887   3.979   0.245  17.675 -0.0719  0.0696  0.0500
  462TMC3    O2 6888   4.147   0.149  17.226 -0.1089 -0.5504  0.5113
  463MPD2     C 6889   0.821   3.802   2.199  0.0516  0.0384 -0.1378
  463MPD2    C1 6890   0.736   3.841   2.098  0.2158 -0.5748  0.4686
  463MPD2    C2 6891   0.784   3.889   1.972 -0.3347  1.0652  0.2588
  463MPD2    C3 6892   0.923   3.891   1.953 -0.1370  0.3137  0.1643
  463MPD2    C4 6893   1.002   3.866   2.061  0.4926  0.1014 -0.1759
  463MPD2    C5 6894   0.953   3.811   2.175 -0.3751 -0.0137  0.1408
  463MPD2     H 6895   0.713   3.919   1.897  1.2933 -0.1579 -1.7633
  463MPD2    H1 6896   1.111   3.866   2.055  0.5973 -1.3641  1.6185
  463MPD2    H2 6897   0.783   3.772   2.296  2.0379  0.9641  0.9376
  463MPD2    H3 6898   1.021   3.794   2.257 -2.8242 -2.4567  1.6430
  463MPD2     N 6899   0.981   3.941   1.833 -0.1106  0.1569 -0.0278
  463MPD2    H5 6900   1.081   3.947   1.849 -0.0684 -0.1960 -0.1571
  463MPD2    N1 6901   0.596   3.822   2.110  0.3217  0.0404 -0.6412
  463MPD2    H7 6902   0.537   3.857   2.035 -0.8981  2.7559  1.6005
  464TMC3    C1 6903   0.389   3.753   2.195  0.3422 -0.5071  0.2324
  464TMC3    C2 6904   0.335   3.727   2.069 -0.1231 -0.4173 -0.2445
  464TMC3    C3 6905   0.217   3.660   2.056  0.5324  0.4782 -0.7113
  464TMC3    C4 6906   0.320   3.712   2.306  0.6198  0.1155  0.0331
  464TMC3    C5 6907   0.205   3.642   2.288  0.1048 -0.5711 -1.0453
  464TMC3    C6 6908   0.152   3.614   2.165 -0.4274 -0.9730 -0.0494
  464TMC3     C 6909   0.533   3.757   2.213  0.2783 -0.7612 -1.2043
  464TMC3     O 6910   0.575   3.710   2.324 -0.6128 -0.3560  0.0210
  464TMC3     H 6911   0.384   3.754   1.976  0.0609 -2.6907 -0.8205
  464TMC3    H1 6912   0.361   3.732   2.404  0.8478 -0.6857  0.1040
  464TMC3    H2 6913   0.061   3.554   2.162 -0.0950 -1.4863  0.0946
  464TMC3    C7 6914   0.181   3.542   2.397 -0.3942  0.5303  0.5831
  464TMC3    C8 6915   0.157   3.647   1.923 -0.2693 -0.0618  0.0798
  464TMC3    O1 6916   0.194   3.576   2.516  0.1720  0.3751  0.1739
  464TMC3    O2 6917   0.221   3.681   1.827  0.0999  0.1606 -0.1471
  465MPD2     C 6918   1.935   1.666  16.719  0.2029  0.0306  0.0810
  465MPD2    C1 6919   1.808   1.705  16.773 -0.4572  0.3828  0.0292
  465MPD2    C2 6920   1.734   1.781  16.683  0.5227  0.2405 -0.0406
  465MPD2    C3 6921   1.780   1.826  16.560 -0.2602  0.3695  0.2311
  465MPD2    C4 6922   1.898   1.777  16.510  0.4253 -0.3598 -0.0419
  465MPD2    C5 6923   1.969   1.693  16.587  0.0567 -0.0153  0.2236
  465MPD2     H 6924   1.634   1.814  16.710  0.7540 -0.0837  1.2158
  465MPD2    H1 6925   1.937   1.813  16.416 -1.2809 -1.4457 -1.1722
  465MPD2    H2 6926   2.010   1.622  16.783 -1.9923  0.6340  3.1058
  465MPD2    H3 6927   2.071   1.670  16.559 -1.5459 -1.2025 -4.6531
  465MPD2     N 6928   1.694   1.909  16.488 -0.0452 -0.2836 -0.1183
  465MPD2    H5 6929   1.606   1.934  16.532  1.8772  0.2815  3.3821
  465MPD2    N1 6930   1.761   1.673  16.903 -0.1725 -0.6427  0.4092
  465MPD2    H7 6931   1.679   1.720  16.940  1.9444  2.2541  1.4287
  466TMC3    C1 6932   1.401   2.126  16.449  0.1819  0.2070  0.4326
  466TMC3    C2 6933   1.421   2.257  16.406 -0.2529 -0.2231  0.6264
  466TMC3    C3 6934   1.518   2.270  16.311 -0.7646  0.0309 -0.4875
  466TMC3    C4 6935   1.482   2.020  16.412 -0.2086  0.1563  0.0223
  466TMC3    C5 6936   1.588   2.046  16.332 -0.1817 -0.6392  0.6048
  466TMC3    C6 6937   1.609   2.165  16.274 -0.3667  0.0021  0.5024
  466TMC3     C 6938   1.402   2.119  16.592  0.0745  0.8851  0.4500
  466TMC3     O 6939   1.476   2.039  16.644 -0.2079 -0.2088 -0.2659
  466TMC3     H 6940   1.354   2.336  16.440 -2.6643 -0.9978 -2.3106
  466TMC3    H1 6941   1.456   1.921  16.449  0.4887  0.2673  0.8042
  466TMC3    H2 6942   1.698   2.171  16.212 -0.4974 -0.5738  0.2565
  466TMC3    C7 6943   1.710   1.971  16.369 -0.2898 -0.3116  0.0421
  466TMC3    C8 6944   1.556   2.396  16.254 -0.5809 -0.7133 -0.0761
  466TMC3    O1 6945   1.797   1.955  16.287 -0.1276 -0.5048 -0.0890
  466TMC3    O2 6946   1.641   2.397  16.162  0.3147 -0.1302 -0.3398
  467TMC3    C1 6947   2.697   0.788  13.782  0.3566  0.2351 -0.0203
  467TMC3    C2 6948   2.639   0.845  13.667  0.1184 -0.1691 -0.7209
  467TMC3    C3 6949   2.507   0.853  13.652 -0.8495 -0.4501 -0.2545
  467TMC3    C4 6950   2.611   0.735  13.872  0.0456  0.6092  0.7582
  467TMC3    C5 6951   2.471   0.739  13.858 -0.1682  0.5907  0.2599
  467TMC3    C6 6952   2.421   0.800  13.747 -0.1283  0.1411  0.5715
  467TMC3     C 6953   2.832   0.808  13.810  0.1891 -0.1039  0.4785
  467TMC3     O 6954   2.873   0.810  13.927 -0.2239  0.2334  0.1730
  467TMC3     H 6955   2.701   0.882  13.586 -0.0844  1.3598 -0.1890
  467TMC3    H1 6956   2.656   0.707  13.966 -0.3773  0.0372  0.7911
  467TMC3    H2 6957   2.315   0.821  13.739 -0.1998 -0.4980 -0.2862
  467TMC3    C7 6958   2.388   0.652  13.939  0.0568 -0.4035  0.1542
  467TMC3    C8 6959   2.442   0.921  13.547 -0.2662 -0.2056  0.3883
  467TMC3    O1 6960   2.448   0.553  13.977 -0.0387  0.2154 -0.3658
  467TMC3    O2 6961   2.328   0.890  13.519 -0.4582  0.3363 -0.2635
  468MPD2     C 6962   1.586   3.472  10.479 -0.4186 -0.1149  0.3823
  468MPD2    C1 6963   1.711   3.429  10.506 -0.2148  0.2205 -0.1514
  468MPD2    C2 6964   1.725   3.289  10.548  0.1226  0.2853 -0.5410
  468MPD2    C3 6965   1.623   3.199  10.546 -0.5905 -0.5391  0.4848
  468MPD2    C4 6966   1.503   3.249  10.499 -1.0725 -0.1439 -0.1622
  468MPD2    C5 6967   1.483   3.379  10.468  0.4451 -0.4293 -0.0080
  468MPD2     H 6968   1.825   3.269  10.585  0.4565  1.9344 -0.5340
  468MPD2    H1 6969   1.412   3.190  10.498 -1.5067  0.5058  0.4226
  468MPD2    H2 6970   1.554   3.574  10.461  1.2933  0.5539  1.2243
  468MPD2    H3 6971   1.385   3.421  10.450  0.6729  0.3339  0.5015
  468MPD2     N 6972   1.632   3.063  10.572 -0.5071  0.5752 -0.3422
  468MPD2    H5 6973   1.546   3.009  10.573 -0.7736  0.9881 -0.8110
  468MPD2    N1 6974   1.817   3.523  10.512 -0.3534 -0.1707 -0.5204
  468MPD2    H7 6975   1.912   3.487  10.517 -0.1685  0.2888 -0.7213
  469TMC3    C1 6976   1.935   3.723  10.490 -0.2002 -0.1885  0.6113
  469TMC3    C2 6977   2.028   3.691  10.583 -0.4036  0.7789 -0.0070
  469TMC3    C3 6978   2.153   3.733  10.555 -0.4646 -0.1421 -0.1860
  469TMC3    C4 6979   1.962   3.780  10.370 -0.1008 -0.5238 -0.0211
  469TMC3    C5 6980   2.089   3.829  10.361  0.0365  0.1919  0.3840
  469TMC3    C6 6981   2.192   3.788  10.441  0.3151 -0.1350 -0.5139
  469TMC3     C 6982   1.803   3.658  10.482  0.5474  0.1775  0.1214
  469TMC3     O 6983   1.717   3.715  10.417 -0.0245  0.1802  0.0872
  469TMC3     H 6984   2.009   3.619  10.661 -0.4313  0.3502 -0.4103
  469TMC3    H1 6985   1.881   3.799  10.300  0.7355 -1.6092 -1.2870
  469TMC3    H2 6986   2.289   3.836  10.436  0.6504 -1.1358 -3.7782
  469TMC3    C7 6987   2.122   3.950  10.283  0.2812 -0.2208  0.8661
  469TMC3    C8 6988   2.243   3.751  10.668  0.0146  0.5749 -0.3697
  469TMC3    O1 6989   2.241   3.958  10.252 -0.2072 -0.0368  0.2303
  469TMC3    O2 6990   2.365   3.743  10.653  0.3336  0.2976  0.6016
  470TMC3    C1 6991   3.878   0.372   1.115 -0.2304 -0.8099  0.0505
  470TMC3    C2 6992   3.866   0.506   1.088  0.1495  0.4525  0.5404
  470TMC3    C3 6993   3.945   0.563   0.986 -0.3139  0.2088 -0.3062
  470TMC3    C4 6994   3.966   0.291   1.051  0.0250 -0.0826 -0.0479
  470TMC3    C5 6995   4.037   0.353   0.949  0.5640  0.6594  0.7653
  470TMC3    C6 6996   4.030   0.484   0.914 -1.1622 -0.8379  0.0399
  470TMC3     C 6997   3.828   0.340   1.244  0.2606  0.3042 -0.1121
  470TMC3     O 6998   3.721   0.382   1.280 -0.4114 -0.3885  0.2744
  470TMC3     H 6999   3.791   0.569   1.136 -0.9131  0.3171 -0.9218
  470TMC3    H1 7000   3.972   0.184   1.070  0.7524 -0.1327 -0.5914
  470TMC3    H2 7001   4.072   0.521   0.822  1.8796 -1.7850  1.0662
  470TMC3    C7 7002   4.149   0.294   0.885 -0.3074  0.4510  0.1741
  470TMC3    C8 7003   3.981   0.703   1.009 -0.2824 -0.1189  0.0354
  470TMC3    O1 7004   4.182   0.339   0.777 -0.1312 -0.0012 -0.2808
  470TMC3    O2 7005   3.919   0.754   1.098 -0.4250  0.4565 -0.1284
  471MPD2     C 7006   4.227   1.706  16.816 -0.1306 -0.2310  0.0956
  471MPD2    C1 7007   4.198   1.570  16.844 -0.1401  0.0535 -0.0380
  471MPD2    C2 7008   4.223   1.522  16.968  0.0579  0.5795 -0.6184
  471MPD2    C3 7009   4.284   1.589  17.067  0.3347  0.4595  0.6598
  471MPD2    C4 7010   4.321   1.713  17.037 -0.2417  0.0558  0.1960
  471MPD2    C5 7011   4.293   1.777  16.913  0.0726  0.7981  0.4508
  471MPD2     H 7012   4.193   1.419  16.984  1.1787  0.7640  2.6847
  471MPD2    H1 7013   4.377   1.772  17.108 -0.1791 -0.8349  0.8781
  471MPD2    H2 7014   4.221   1.746  16.716  1.0421  0.4843  0.3235
  471MPD2    H3 7015   4.336   1.873  16.885  0.4865  0.5238  0.1288
  471MPD2     N 7016   4.309   1.540  17.193 -0.8254 -0.0852 -0.7406
  471MPD2    H5 7017   4.357   1.602  17.258  0.0437 -2.1521  0.5558
  471MPD2    N1 7018   4.142   1.480  16.754 -0.4967 -0.0420 -0.0156
  471MPD2    H7 7019   4.134   1.387  16.793  0.8575 -0.7465 -1.3984
  472TMC3    C1 7020   4.008   1.406  16.570  0.1332  0.0047  0.9040
  472TMC3    C2 7021   3.900   1.449  16.497 -0.2840  0.6535  0.6445
  472TMC3    C3 7022   3.824   1.351  16.446 -0.1277 -0.4553  0.7112
  472TMC3    C4 7023   4.033   1.273  16.598 -0.2047  0.1022  0.4876
  472TMC3    C5 7024   3.954   1.180  16.545 -0.6642  0.5189  0.1619
  472TMC3    C6 7025   3.851   1.217  16.465 -0.2665 -0.4782  0.1574
  472TMC3     C 7026   4.087   1.517  16.634 -0.3247  0.0611  0.1862
  472TMC3     O 7027   4.082   1.627  16.575 -0.3334  0.2728 -0.7071
  472TMC3     H 7028   3.882   1.555  16.481  2.2773  0.8644 -0.8867
  472TMC3    H1 7029   4.120   1.234  16.648 -0.1072 -0.2556  0.0372
  472TMC3    H2 7030   3.796   1.145  16.405 -1.4809 -0.2873  1.0373
  472TMC3    C7 7031   3.976   1.039  16.584  0.0601 -0.0910  0.1064
  472TMC3    C8 7032   3.712   1.392  16.367 -0.0560 -0.7203 -0.1270
  472TMC3    O1 7033   4.084   1.004  16.623  0.2856 -0.0978 -0.2705
  472TMC3    O2 7034   3.732   1.492  16.304  0.0722  0.5456 -0.2287
  473MPD2     C 7035   0.172   3.583  13.602  0.5222 -0.1783 -0.6090
  473MPD2    C1 7036   0.057   3.652  13.630  0.1731  0.7201 -0.2867
  473MPD2    C2 7037   0.050   3.710  13.754  0.5048  1.0376 -0.2744
  473MPD2    C3 7038   0.144   3.693  13.854  0.3393  0.2263  0.3694
  473MPD2    C4 7039   0.259   3.633  13.813 -0.3307 -0.2740 -0.1709
  473MPD2    C5 7040   0.270   3.576  13.692 -0.9595  0.3066  0.1783
  473MPD2     H 7041   4.683   3.767  13.780  0.0335  0.0449  0.3200
  473MPD2    H1 7042   0.350   3.617  13.870 -2.1710  0.1778  2.8377
  473MPD2    H2 7043   0.192   3.529  13.511 -0.3916 -1.6663  0.0787
  473MPD2    H3 7044   0.357   3.514  13.672 -0.8929  0.5625 -0.3047
  473MPD2     N 7045   0.121   3.730  13.995 -0.0156 -0.5178 -0.4603
  473MPD2    H5 7046   0.200   3.728  14.059 -0.7857  0.0128  0.5173
  473MPD2    N1 7047   4.663   3.668  13.543 -0.6100  0.0524 -0.2243
  473MPD2    H7 7048   4.584   3.722  13.577  0.3404 -0.1461  2.2635
  474TMC3    C1 7049   0.029   3.841  14.182  0.2604 -0.2566  0.7689
  474TMC3    C2 7050   4.641   3.908  14.227  0.5209  0.1039  0.3163
  474TMC3    C3 7051   4.635   3.931  14.351  0.2951  0.4582  0.1829
  474TMC3    C4 7052   0.137   3.814  14.263  0.2618  0.5770  0.0969
  474TMC3    C5 7053   0.127   3.845  14.394 -0.1362 -0.1934  0.2186
  474TMC3    C6 7054   0.013   3.903  14.439 -0.5309 -0.6936 -0.0615
  474TMC3     C 7055   0.013   3.800  14.042  0.2892  0.2590 -0.7408
  474TMC3     O 7056   4.634   3.830  13.981  0.3441  0.3706  0.2695
  474TMC3     H 7057   4.563   3.940  14.158 -0.1326 -0.7441  0.6689
  474TMC3    H1 7058   0.228   3.772  14.222 -0.2518  0.7157 -1.1768
  474TMC3    H2 7059   4.711   3.896  14.545 -0.6891 -0.7143 -0.0982
  474TMC3    C7 7060   0.250   3.839  14.470  0.5856  0.8964  0.4155
  474TMC3    C8 7061   4.537   4.031  14.398  0.0961  0.5951  0.2837
  474TMC3    O1 7062   0.342   3.770  14.429 -0.5226 -0.3329 -0.4674
  474TMC3    O2 7063   4.494   4.022  14.513  0.4379 -0.5187  0.1614
  475MPD2     C 7064   3.046   1.014   9.919  0.0444  0.1568 -0.2540
  475MPD2    C1 7065   3.098   1.119   9.988  0.4375  0.3621 -0.3016
  475MPD2    C2 7066   3.031   1.158  10.102  0.4363 -0.0049 -0.6098
  475MPD2    C3 7067   2.912   1.096  10.148 -0.1940  0.2987 -0.1946
  475MPD2    C4 7068   2.870   0.982  10.082 -0.0782 -0.4878  0.0666
  475MPD2    C5 7069   2.940   0.944   9.975 -0.2404 -0.1663  0.3295
  475MPD2     H 7070   3.070   1.246  10.153  2.1192 -0.8759 -0.3643
  475MPD2    H1 7071   2.783   0.924  10.108 -0.0361 -0.6569 -0.1693
  475MPD2    H2 7072   3.087   0.970   9.828 -2.6417  1.3167 -2.0030
  475MPD2    H3 7073   2.902   0.853   9.930  0.3580  0.1350 -0.7581
  475MPD2     N 7074   2.839   1.153  10.256 -0.0844 -0.1394 -0.1977
  475MPD2    H5 7075   2.895   1.217  10.311 -0.4750  0.9310 -1.0417
  475MPD2    N1 7076   3.187   1.205   9.921 -0.2189  0.0371  0.2544
  475MPD2    H7 7077   3.209   1.200   9.823 -0.1616 -2.0089  0.3625
  476TMC3    C1 7078   3.266   1.423   9.980 -0.1523 -0.5823 -0.9184
  476TMC3    C2 7079   3.154   1.470   9.917  0.3590  0.2215  0.4953
  476TMC3    C3 7080   3.108   1.602   9.954 -0.2000 -0.3148 -0.0565
  476TMC3    C4 7081   3.322   1.493  10.083 -0.4056 -0.4857  0.4319
  476TMC3    C5 7082   3.280   1.621  10.111  0.4528 -0.6078  0.6098
  476TMC3    C6 7083   3.179   1.677  10.035 -0.6301  0.5865  0.8712
  476TMC3     C 7084   3.280   1.278   9.989  0.2431  0.2805 -0.0237
  476TMC3     O 7085   3.333   1.231  10.085 -0.8706 -0.7533 -0.0280
  476TMC3     H 7086   3.100   1.400   9.854  0.0662  1.1555 -0.2980
  476TMC3    H1 7087   3.398   1.442  10.141  0.4931 -0.1795 -0.4915
  476TMC3    H2 7088   3.132   1.773  10.056 -2.2741 -0.3940  1.7246
  476TMC3    C7 7089   3.263   1.623  10.251 -0.2447  0.0033  0.3117
  476TMC3    C8 7090   2.962   1.615   9.957  0.3026  0.1241 -0.3277
  476TMC3    O1 7091   3.277   1.521  10.313  0.3055 -0.5967 -0.1441
  476TMC3    O2 7092   2.920   1.722   9.992 -0.0115  0.7202 -0.3678
  477MPD2     C 7093   0.780   3.352  11.784  0.2063 -0.3560 -0.0107
  477MPD2    C1 7094   0.644   3.346  11.810  0.4442  0.6977  0.2856
  477MPD2    C2 7095   0.592   3.236  11.883 -0.6824 -0.7603  0.5253
  477MPD2    C3 7096   0.671   3.126  11.915  0.1705  0.0512  0.4168
  477MPD2    C4 7097   0.806   3.135  11.881 -0.5596  0.1808 -0.1771
  477MPD2    C5 7098   0.858   3.252  11.829 -0.8963  0.1758 -0.6646
  477MPD2     H 7099   0.485   3.235  11.901 -0.8899  0.4099 -0.6147
  477MPD2    H1 7100   0.872   3.051  11.901 -0.1023  0.8781  1.1745
  477MPD2    H2 7101   0.827   3.438  11.739 -0.3541 -1.1263 -2.0541
  477MPD2    H3 7102   0.963   3.253  11.802 -0.2402 -2.3482  1.7808
  477MPD2     N 7103   0.607   3.017  11.979 -0.0214  0.3292 -0.2654
  477MPD2    H5 7104   0.514   3.030  12.017 -1.2259 -2.0389 -2.3758
  477MPD2    N1 7105   0.563   3.449  11.765  0.0223  0.3782  0.4650
  477MPD2    H7 7106   0.599   3.494  11.682  2.4283  0.6152  1.6382
  478TMC3    C1 7107   0.370   3.581  11.753 -0.1268  0.2473 -0.2064
  478TMC3    C2 7108   0.263   3.632  11.824 -0.1624 -0.0978 -0.6964
  478TMC3    C3 7109   0.168   3.703  11.754 -0.5318  0.2753 -0.2212
  478TMC3    C4 7110   0.390   3.596  11.614  0.1771 -0.0459 -0.3666
  478TMC3    C5 7111   0.287   3.654  11.552  0.6430 -0.1708  0.4281
  478TMC3    C6 7112   0.181   3.710  11.615  0.0714 -0.0258 -0.1814
  478TMC3     C 7113   0.453   3.488  11.833  0.1362 -0.3012  0.1406
  478TMC3     O 7114   0.415   3.463  11.947 -0.2169 -0.9587  0.4663
  478TMC3     H 7115   0.263   3.628  11.932  4.4585 -1.1108 -0.7565
  478TMC3    H1 7116   0.460   3.536  11.558  1.8869  1.2291  0.4047
  478TMC3    H2 7117   0.118   3.771  11.551 -1.6688 -1.4886  0.1432
  478TMC3    C7 7118   0.305   3.660  11.404  0.6478 -0.1889 -0.6799
  478TMC3    C8 7119   0.066   3.768  11.830 -0.9147  0.2949  0.0319
  478TMC3    O1 7120   0.407   3.617  11.361  0.2450 -0.0487 -0.0662
  478TMC3    O2 7121   0.077   3.762  11.947  0.2836  0.0381 -0.2647
  479MPD2     C 7122   3.870   0.759  15.130  0.3841  0.2663 -0.1725
  479MPD2    C1 7123   3.808   0.673  15.220  0.3995  0.1948  0.6126
  479MPD2    C2 7124   3.857   0.670  15.351  0.0206 -0.5101 -0.2565
  479MPD2    C3 7125   3.946   0.773  15.389  0.2382  0.3475 -0.1384
  479MPD2    C4 7126   4.008   0.854  15.295 -0.0194 -0.1142  0.0846
  479MPD2    C5 7127   3.975   0.842  15.164 -0.2656  0.3242 -0.3657
  479MPD2     H 7128   3.831   0.589  15.418 -1.7531  0.7191  0.5176
  479MPD2    H1 7129   4.093   0.918  15.317 -0.8925  1.2102 -0.3596
  479MPD2    H2 7130   3.848   0.761  15.024 -3.1997  2.4219  0.5746
  479MPD2    H3 7131   4.019   0.902  15.086 -0.6512 -0.1855 -0.9739
  479MPD2     N 7132   3.982   0.784  15.528  0.5013  0.3657 -0.0264
  479MPD2    H5 7133   4.069   0.831  15.552  1.4526 -0.6515 -1.4944
  479MPD2    N1 7134   3.709   0.581  15.175 -0.3082 -0.1128  0.2500
  479MPD2    H7 7135   3.686   0.578  15.077  0.3819  3.2189 -0.0332
  480TMC3    C1 7136   3.615   0.589  15.744  0.3859  0.1117  0.0380
  480TMC3    C2 7137   3.522   0.642  15.661  0.3765  0.5766  0.3666
  480TMC3    C3 7138   3.569   0.726  15.565  0.1891 -0.1466  0.2042
  480TMC3    C4 7139   3.746   0.619  15.743 -0.3578 -0.4737  0.3100
  480TMC3    C5 7140   3.784   0.714  15.652  0.0619 -0.3379  0.4189
  480TMC3    C6 7141   3.694   0.770  15.564  0.2057  0.5490 -0.2049
  480TMC3     C 7142   3.582   0.471  15.827 -0.6199 -0.2843  0.5145
  480TMC3     O 7143   3.675   0.417  15.886 -0.4080  0.0260 -0.0057
  480TMC3     H 7144   3.420   0.609  15.648  0.2208  1.4492 -0.6270
  480TMC3    H1 7145   3.820   0.567  15.802  0.3540  1.6042  1.2477
  480TMC3    H2 7146   3.728   0.850  15.500  1.7400  1.2157  1.4660
  480TMC3    C7 7147   3.928   0.726  15.641 -0.0909 -0.7128  0.0309
  480TMC3    C8 7148   3.486   0.737  15.442 -0.4913  0.1199  0.1261
  480TMC3    O1 7149   3.987   0.695  15.742 -0.3163  0.4576  0.0588
  480TMC3    O2 7150   3.379   0.678  15.442  0.0903 -0.2781 -0.7529
  481MPD2     C 7151   0.548   4.550  14.160  0.2731  0.1250  0.6079
  481MPD2    C1 7152   0.575   4.683  14.172 -0.0476  0.5702 -0.6905
  481MPD2    C2 7153   0.671   4.721  14.267 -0.5598 -0.7357  0.7959
  481MPD2    C3 7154   0.735   4.631  14.351 -0.2756 -0.4750  0.8363
  481MPD2    C4 7155   0.709   4.499  14.329 -0.5154 -0.4438 -0.8280
  481MPD2    C5 7156   0.613   4.462  14.241 -0.0781 -0.2703 -0.0675
  481MPD2     H 7157   0.684   0.106  14.280 -1.8805 -0.4274 -0.3676
  481MPD2    H1 7158   0.741   4.428  14.404 -1.8760  0.3391  0.4938
  481MPD2    H2 7159   0.469   4.510  14.098  2.5054 -0.3006 -1.9513
  481MPD2    H3 7160   0.578   4.360  14.230  1.1656 -0.6863 -0.2275
  481MPD2     N 7161   0.825   4.666  14.451 -0.5329  0.4813  0.8727
  481MPD2    H5 7162   0.873   4.595  14.506 -0.5491  1.1828  1.7934
  481MPD2    N1 7163   0.511   0.041  14.079 -0.3389 -0.0588 -0.2569
  481MPD2    H7 7164   0.441   0.001  14.018 -0.1636 -0.4433 -0.2069
  482TMC3    C1 7165   0.440   0.236  13.988  0.4355  0.1920 -0.7170
  482TMC3    C2 7166   0.313   0.179  13.980 -0.2446 -0.3105 -0.4228
  482TMC3    C3 7167   0.230   0.229  13.883  0.5435  0.1756 -0.0362
  482TMC3    C4 7168   0.473   0.335  13.901 -0.1892 -0.0412  0.0214
  482TMC3    C5 7169   0.397   0.356  13.790 -0.8264 -0.2538  0.1823
  482TMC3    C6 7170   0.279   0.299  13.774 -0.7386  0.4488 -1.0542
  482TMC3     C 7171   0.542   0.172  14.065  0.2725 -0.4426  0.3213
  482TMC3     O 7172   0.634   0.240  14.105 -0.4469 -0.3274 -0.4661
  482TMC3     H 7173   0.282   0.108  14.056  0.0805  0.0142  0.0103
  482TMC3    H1 7174   0.576   0.368  13.898 -0.7434  1.6275 -1.3163
  482TMC3    H2 7175   0.216   0.330  13.691 -0.6962  3.2190 -0.0480
  482TMC3    C7 7176   0.463   0.416  13.683 -0.0363 -0.3751  0.1634
  482TMC3    C8 7177   0.102   0.156  13.878  0.4644  0.0011 -0.0011
  482TMC3    O1 7178   0.560   0.491  13.705  0.0402  0.9298 -0.5336
  482TMC3    O2 7179   0.090   0.059  13.957 -0.3634  0.1308 -0.4154
  483TMC3    C1 7180   3.370   3.594   0.932 -0.1985  0.4569  0.4252
  483TMC3    C2 7181   3.345   3.727   0.936  0.0233 -0.3804 -0.0928
  483TMC3    C3 7182   3.363   3.792   1.053  0.2654  0.4017 -0.6545
  483TMC3    C4 7183   3.408   3.527   1.051  0.8142 -0.2858  0.9137
  483TMC3    C5 7184   3.426   3.599   1.166  0.0025  0.0539 -0.7408
  483TMC3    C6 7185   3.400   3.728   1.163 -0.2788 -0.5848 -0.2971
  483TMC3     C 7186   3.414   3.543   0.804  0.1803  0.1588  0.1608
  483TMC3     O 7187   3.390   3.611   0.706 -0.3028  0.5759 -0.4243
  483TMC3     H 7188   3.319   3.783   0.846  1.0994 -0.2009 -0.2944
  483TMC3    H1 7189   3.442   3.425   1.067 -2.2363 -1.5611 -0.6561
  483TMC3    H2 7190   3.408   3.784   1.256 -3.2688 -0.1470 -0.3022
  483TMC3    C7 7191   3.513   3.547   1.266 -0.3929 -0.1403  0.2752
  483TMC3    C8 7192   3.417   3.926   1.033 -0.3177  0.1874  0.1904
  483TMC3    O1 7193   3.596   3.626   1.307 -0.2208  0.0922  0.1832
  483TMC3    O2 7194   3.375   3.999   0.945 -0.4572 -0.4768  0.8552
  484MPD2     C 7195   1.149   2.071  12.546  0.5114 -0.1777  0.3113
  484MPD2    C1 7196   1.162   1.948  12.602  0.3098  0.7426  0.2040
  484MPD2    C2 7197   1.291   1.902  12.619  0.1672  0.1646  0.1613
  484MPD2    C3 7198   1.402   1.978  12.592 -0.0528 -0.1251 -0.3395
  484MPD2    C4 7199   1.381   2.105  12.535 -0.2218 -0.0808 -0.4288
  484MPD2    C5 7200   1.254   2.145  12.511  0.2657  0.4653 -0.0579
  484MPD2     H 7201   1.302   1.801  12.658 -0.7111 -0.6281 -1.6311
  484MPD2    H1 7202   1.466   2.163  12.501 -1.1637 -0.5066 -3.5804
  484MPD2    H2 7203   1.051   2.116  12.544  1.6783  2.4205  0.9821
  484MPD2    H3 7204   1.235   2.244  12.470  0.6351  0.4034 -0.3843
  484MPD2     N 7205   1.530   1.930  12.606 -0.2880 -0.2640  0.1593
  484MPD2    H5 7206   1.602   1.995  12.574 -0.8799  0.7963  0.9676
  484MPD2    N1 7207   1.049   1.883  12.640 -0.5857  0.6526 -0.1292
  484MPD2    H7 7208   0.960   1.909  12.600 -1.3867 -4.8251 -1.8715
  485TMC3    C1 7209   1.718   1.806  12.666  0.0915 -0.1745  0.1282
  485TMC3    C2 7210   1.775   1.705  12.742 -0.4144 -0.3905  0.1813
  485TMC3    C3 7211   1.910   1.675  12.723 -0.2998  0.2762 -0.4003
  485TMC3    C4 7212   1.786   1.867  12.561  0.5512  1.3690 -0.2969
  485TMC3    C5 7213   1.915   1.833  12.542 -0.0505 -0.2923  0.3523
  485TMC3    C6 7214   1.982   1.754  12.633 -0.2614  0.0167  0.8554
  485TMC3     C 7215   1.575   1.816  12.671  0.1439  1.1971 -0.6428
  485TMC3     O 7216   1.514   1.732  12.734  0.1328 -0.5760 -0.0695
  485TMC3     H 7217   1.720   1.656  12.822  1.4915 -0.6301  1.3370
  485TMC3    H1 7218   1.745   1.927  12.480  1.0052  2.1518  0.0570
  485TMC3    H2 7219   2.087   1.731  12.618 -0.3845 -0.9401  1.4473
  485TMC3    C7 7220   1.957   1.818  12.403 -0.0287 -0.5158 -0.7348
  485TMC3    C8 7221   1.926   1.532  12.685  0.3792 -0.4227 -0.8415
  485TMC3    O1 7222   1.929   1.903  12.324 -0.6546 -0.4475  0.3111
  485TMC3    O2 7223   1.992   1.511  12.584  0.4530  0.5240 -0.2716
  486MPD2     C 7224   3.625   0.784  13.008 -0.0948  0.3337 -0.4888
  486MPD2    C1 7225   3.527   0.782  12.922 -0.5061 -0.0837 -0.0044
  486MPD2    C2 7226   3.460   0.903  12.891 -0.3943 -0.5511 -0.6097
  486MPD2    C3 7227   3.494   1.019  12.964  0.4791  0.3956 -0.1281
  486MPD2    C4 7228   3.602   1.018  13.050  0.4010  0.0032 -0.3900
  486MPD2    C5 7229   3.663   0.899  13.073 -0.0264 -0.0693  0.4228
  486MPD2     H 7230   3.377   0.902  12.822  0.3100  2.1065 -1.5015
  486MPD2    H1 7231   3.645   1.105  13.097  1.2160 -1.0747  0.8448
  486MPD2    H2 7232   3.688   0.700  13.031 -1.2168 -0.4160 -0.1475
  486MPD2    H3 7233   3.741   0.881  13.146 -0.8408  0.3699  1.3847
  486MPD2     N 7234   3.438   1.141  12.918 -0.7601  0.6388 -0.0688
  486MPD2    H5 7235   3.369   1.127  12.845  0.4211 -1.2772 -0.8219
  486MPD2    N1 7236   3.504   0.661  12.850  0.4672  0.7835  0.1868
  486MPD2    H7 7237   3.561   0.579  12.866 -1.3991 -0.4766  0.4271
  487TMC3    C1 7238   3.443   0.522  12.677 -0.3183  0.4010  0.5153
  487TMC3    C2 7239   3.335   0.469  12.625 -0.4831  0.6243  0.6676
  487TMC3    C3 7240   3.314   0.341  12.640  0.2388 -0.1261  0.5718
  487TMC3    C4 7241   3.544   0.444  12.733  0.1599 -0.2681  0.5991
  487TMC3    C5 7242   3.508   0.313  12.763 -0.6724  0.2493 -0.1077
  487TMC3    C6 7243   3.393   0.263  12.719  0.2214 -0.1263 -0.1006
  487TMC3     C 7244   3.428   0.650  12.735  0.3345 -0.2118 -0.6089
  487TMC3     O 7245   3.341   0.719  12.697  0.3645  0.3128  0.2763
  487TMC3     H 7246   3.252   0.531  12.591 -0.6391 -0.1044 -0.2694
  487TMC3    H1 7247   3.638   0.474  12.776 -0.2120  0.0589  1.1926
  487TMC3    H2 7248   3.388   0.155  12.723  1.5019 -0.2436 -1.5496
  487TMC3    C7 7249   3.523   0.296  12.912  0.2959  0.8741  0.3244
  487TMC3    C8 7250   3.172   0.304  12.632  0.5985 -0.1097  0.0176
  487TMC3    O1 7251   3.514   0.398  12.979  0.3701 -0.0806  0.3333
  487TMC3    O2 7252   3.098   0.374  12.562 -0.2137 -0.5204  0.2826
  488MPD2     C 7253   3.753   2.609  16.506 -0.2526 -0.1056 -0.2774
  488MPD2    C1 7254   3.738   2.710  16.410  0.4168 -0.0885  0.2101
  488MPD2    C2 7255   3.688   2.827  16.453  0.0122 -0.1387 -0.5912
  488MPD2    C3 7256   3.645   2.848  16.583  0.6673  0.3574  0.0991
  488MPD2    C4 7257   3.659   2.744  16.678  0.4319  0.0020 -0.1480
  488MPD2    C5 7258   3.714   2.626  16.633 -0.9368 -0.3545 -0.6311
  488MPD2     H 7259   3.674   2.910  16.385  0.3426 -0.6765 -1.3172
  488MPD2    H1 7260   3.619   2.752  16.778 -1.2872 -3.7333 -0.5508
  488MPD2    H2 7261   3.797   2.515  16.477  2.8184  0.9826  0.8461
  488MPD2    H3 7262   3.736   2.551  16.707 -1.8041  0.5238  0.5202
  488MPD2     N 7263   3.575   2.973  16.606 -0.6120  0.2951 -0.6104
  488MPD2    H5 7264   3.546   3.017  16.519 -0.7001 -0.1118 -0.7861
  488MPD2    N1 7265   3.771   2.698  16.271 -0.2906  0.0349 -0.0140
  488MPD2    H7 7266   3.741   2.780  16.221 -0.1373  0.0594 -0.0633
  489TMC3    C1 7267   3.433   3.141  16.712  0.0963  0.2079 -0.0501
  489TMC3    C2 7268   3.384   3.184  16.592 -0.5444 -0.3476  0.3040
  489TMC3    C3 7269   3.324   3.307  16.587 -0.1687  0.3055  0.5347
  489TMC3    C4 7270   3.391   3.195  16.830  0.2358 -0.1089  0.2640
  489TMC3    C5 7271   3.320   3.313  16.825 -0.3109 -0.4659 -0.4884
  489TMC3    C6 7272   3.285   3.373  16.702 -0.6672  0.4123  0.3391
  489TMC3     C 7273   3.518   3.023  16.720 -0.0320 -0.2768  0.2587
  489TMC3     O 7274   3.523   2.977  16.834 -0.1437  0.1700  0.7638
  489TMC3     H 7275   3.412   3.150  16.494  1.5475 -0.8899  1.0939
  489TMC3    H1 7276   3.450   3.161  16.915  1.2876 -0.7985 -0.7423
  489TMC3    H2 7277   3.247   3.474  16.693 -1.7989 -0.1311 -0.9013
  489TMC3    C7 7278   3.340   3.404  16.934  0.6112  0.0124 -0.2208
  489TMC3    C8 7279   3.288   3.361  16.458 -0.2160  0.4502  0.2254
  489TMC3    O1 7280   3.323   3.526  16.917 -0.0062  0.3288 -0.2918
  489TMC3    O2 7281   3.296   3.482  16.459 -0.1104 -0.2690 -0.3479
  490MPD2     C 7282   4.339   2.304  17.346  0.1342 -0.1137 -0.3978
  490MPD2    C1 7283   4.354   2.182  17.415  0.3666  0.1744  0.0745
  490MPD2    C2 7284   4.449   2.170  17.511  0.1980 -0.0388  0.2865
  490MPD2    C3 7285   4.526   2.279  17.539 -0.3532 -0.4583 -0.0314
  490MPD2    C4 7286   4.521   2.396  17.464  0.7418  0.3320 -0.2146
  490MPD2    C5 7287   4.431   2.405  17.357 -0.7818 -0.2240  0.7611
  490MPD2     H 7288   4.452   2.076  17.565 -0.7347  0.1002  0.5708
  490MPD2    H1 7289   4.597   2.472  17.472 -0.0577  1.0653  0.3433
  490MPD2    H2 7290   4.257   2.326  17.279 -1.2791 -0.4827  1.2071
  490MPD2    H3 7291   4.428   2.495  17.297 -1.0004  0.9466  2.5216
  490MPD2     N 7292   4.632   2.271  17.635 -0.2065 -0.3823 -0.0044
  490MPD2    H5 7293   4.663   2.360  17.670 -0.6741 -1.2370  2.5840
  490MPD2    N1 7294   4.258   2.074  17.405  0.6988 -0.1384  0.2736
  490MPD2    H7 7295   4.265   2.000  17.474 -1.3490 -0.6230 -0.0542
  491TMC3    C1 7296   4.086   1.933  17.299  0.9820  0.1808 -0.0071
  491TMC3    C2 7297   4.093   1.845  17.403  0.5721  0.0827  0.0083
  491TMC3    C3 7298   4.054   1.719  17.383 -0.1260  0.1065  0.2495
  491TMC3    C4 7299   4.021   1.908  17.185  0.2048 -0.2982 -0.2270
  491TMC3    C5 7300   3.987   1.777  17.170  0.0704 -0.5207 -0.4981
  491TMC3    C6 7301   4.011   1.677  17.254 -0.4010  0.5064 -0.3016
  491TMC3     C 7302   4.167   2.059  17.303  0.8808 -0.1500  0.3773
  491TMC3     O 7303   4.150   2.134  17.210 -0.2076 -0.3068  0.6843
  491TMC3     H 7304   4.134   1.875  17.499 -0.4851 -0.3457  0.5918
  491TMC3    H1 7305   4.020   1.976  17.101  0.3688  2.5696  2.0869
  491TMC3    H2 7306   3.982   1.574  17.232  1.9576 -0.7147  2.3371
  491TMC3    C7 7307   3.877   1.746  17.087  0.6050  0.0908 -0.0426
  491TMC3    C8 7308   4.036   1.638  17.502  0.1816 -0.6142 -0.1138
  491TMC3    O1 7309   3.871   1.627  17.054 -0.0406 -0.5443 -0.5557
  491TMC3    O2 7310   4.102   1.674  17.603  0.5537  0.0545 -0.4924
  492MPD2     C 7311   0.138   1.764  10.947  0.4941  0.1462 -0.4143
  492MPD2    C1 7312   0.024   1.729  10.892 -0.0888  1.2420  0.1890
  492MPD2    C2 7313   4.640   1.677  10.976 -0.1769 -0.9821  0.0988
  492MPD2    C3 7314   4.654   1.677  11.114 -0.7564  0.1437  0.2991
  492MPD2    C4 7315   0.049   1.733  11.167 -0.3394  0.2195 -0.1623
  492MPD2    C5 7316   0.147   1.775  11.080 -0.5696 -0.3476  0.5614
  492MPD2     H 7317   4.550   1.633  10.935 -0.8135 -0.7736  1.2883
  492MPD2    H1 7318   0.064   1.745  11.274  1.3092 -0.6362 -0.2996
  492MPD2    H2 7319   0.217   1.806  10.885 -0.9015  1.0977 -1.5427
  492MPD2    H3 7320   0.238   1.821  11.118 -0.3536 -1.0152  0.8577
  492MPD2     N 7321   4.559   1.629  11.208  0.4291  0.1798 -0.1355
  492MPD2    H5 7322   4.590   1.615  11.304 -0.1745  0.4978  0.1117
  492MPD2    N1 7323   0.014   1.738  10.753  0.1398 -0.2732 -0.5341
  492MPD2    H7 7324   0.099   1.761  10.703  0.0151  1.7219  0.1980
  493TMC3    C1 7325   4.647   1.731  10.534 -0.5202 -0.3593  0.2373
  493TMC3    C2 7326   0.041   1.809  10.488  0.2695 -0.4219 -0.4008
  493TMC3    C3 7327   0.031   1.858  10.359  0.1299 -0.7258  0.4406
  493TMC3    C4 7328   4.542   1.705  10.451 -0.0137 -0.2624  0.3635
  493TMC3    C5 7329   4.540   1.769  10.332 -0.5890  0.1394 -0.1107
  493TMC3    C6 7330   4.639   1.847  10.283 -0.0999 -0.0736  0.7280
  493TMC3     C 7331   4.620   1.713  10.676 -1.0307  0.5535 -0.2190
  493TMC3     O 7332   4.505   1.680  10.708  0.2534 -0.2627  0.7146
  493TMC3     H 7333   0.127   1.833  10.550 -1.4229 -1.4290  2.3574
  493TMC3    H1 7334   4.464   1.645  10.496 -3.0110  1.8925 -1.9083
  493TMC3    H2 7335   4.629   1.899  10.188 -0.9829 -0.4181  0.6245
  493TMC3    C7 7336   4.413   1.778  10.274 -0.1334  1.0450  0.1424
  493TMC3    C8 7337   0.137   1.944  10.313 -0.3845 -0.1162 -0.5510
  493TMC3    O1 7338   4.317   1.758  10.346 -0.6063  0.8903 -0.0571
  493TMC3    O2 7339   0.106   2.042  10.245 -0.0965 -0.5578  0.1620
  494TMC3    C1 7340   0.571   3.355   0.561  0.6830 -0.5024  0.5081
  494TMC3    C2 7341   0.661   3.257   0.577  0.1910 -0.4046 -0.1681
  494TMC3    C3 7342   0.723   3.208   0.466 -0.3519 -0.4645  0.2195
  494TMC3    C4 7343   0.560   3.422   0.445 -0.1110  0.4647 -0.5072
  494TMC3    C5 7344   0.629   3.383   0.337  0.4643 -0.3254  0.0409
  494TMC3    C6 7345   0.717   3.271   0.348  0.5322  0.1365 -0.0906
  494TMC3     C 7346   0.496   3.399   0.680  0.2311  0.4084  0.4191
  494TMC3     O 7347   0.445   3.511   0.689  0.3817  0.2716  0.3406
  494TMC3     H 7348   0.676   3.204   0.670  1.5386 -1.8171 -1.1895
  494TMC3    H1 7349   0.495   3.509   0.442  0.3555  0.8017 -0.9088
  494TMC3    H2 7350   0.782   3.258   0.262 -0.2525 -1.3988 -0.4565
  494TMC3    C7 7351   0.591   3.424   0.205 -0.0148  0.6454  0.3021
  494TMC3    C8 7352   0.799   3.083   0.473 -0.2701 -0.1777 -0.1631
  494TMC3    O1 7353   0.619   3.347   0.114 -0.4999  1.2769 -0.0964
  494TMC3    O2 7354   0.812   3.034   0.584 -0.8908 -0.3215 -0.0532
  495TMC3    C1 7355   3.949   1.157  14.652 -0.8934 -0.2404  0.3494
  495TMC3    C2 7356   3.862   1.181  14.551  1.1058 -0.5799 -0.7678
  495TMC3    C3 7357   3.731   1.165  14.576 -0.2641  0.1886 -0.1867
  495TMC3    C4 7358   3.899   1.143  14.778  0.6589 -0.4824  0.0052
  495TMC3    C5 7359   3.765   1.156  14.805 -0.0078  0.4800 -0.2928
  495TMC3    C6 7360   3.675   1.150  14.698 -1.1971 -0.1310  0.8433
  495TMC3     C 7361   4.028   1.049  14.608  0.1299 -0.3503  0.6060
  495TMC3     O 7362   4.005   1.009  14.496 -0.4702  0.2574 -0.4295
  495TMC3     H 7363   3.891   1.202  14.449 -0.8171 -3.1954 -1.8387
  495TMC3    H1 7364   3.964   1.133  14.864 -0.6251 -0.6830  0.9511
  495TMC3    H2 7365   3.571   1.172  14.720 -1.5357 -1.3008  0.4073
  495TMC3    C7 7366   3.718   1.091  14.924  0.1553 -0.3092  0.6368
  495TMC3    C8 7367   3.665   1.090  14.478  0.2996 -0.1848  0.5438
  495TMC3    O1 7368   3.801   1.072  15.010  0.0627 -0.7174 -0.2397
  495TMC3    O2 7369   3.544   1.106  14.493 -0.5037 -0.4816  0.5512
  496MPD2     C 7370   1.512   0.832  15.710  0.1489 -0.2889 -0.9193
  496MPD2    C1 7371   1.408   0.756  15.665 -0.1663  0.7198 -0.1157
  496MPD2    C2 7372   1.282   0.770  15.717  0.4522  0.0821  0.0363
  496MPD2    C3 7373   1.261   0.865  15.823  0.0981  1.7878 -0.3177
  496MPD2    C4 7374   1.374   0.923  15.880 -0.6684 -0.5081 -0.2157
  496MPD2    C5 7375   1.494   0.913  15.816  0.3329  0.2990  0.1530
  496MPD2     H 7376   1.194   0.712  15.691  0.7387  0.6438 -2.1205
  496MPD2    H1 7377   1.364   0.993  15.961  0.8255 -0.3422 -0.1804
  496MPD2    H2 7378   1.608   0.828  15.659 -0.9215 -1.1307 -2.8392
  496MPD2    H3 7379   1.570   0.981  15.852  1.2916  0.4498 -2.1161
  496MPD2     N 7380   1.139   0.883  15.886  0.0106 -0.0226  0.4791
  496MPD2    H5 7381   1.139   0.944  15.968 -1.3286 -2.7050  2.4995
  496MPD2    N1 7382   1.426   0.673  15.554 -0.2897 -0.2135 -0.0265
  496MPD2    H7 7383   1.518   0.681  15.512 -0.6506  2.2043 -0.3666
  497TMC3    C1 7384   0.921   0.855  15.946 -0.6630  0.3938 -0.1943
  497TMC3    C2 7385   0.800   0.896  15.905 -0.4043 -0.0221 -0.3961
  497TMC3    C3 7386   0.710   0.922  16.000 -0.1057 -0.5418 -0.5669
  497TMC3    C4 7387   0.952   0.831  16.079 -0.2359 -0.3995  0.0910
  497TMC3    C5 7388   0.858   0.872  16.173  0.4805  0.8497  0.3663
  497TMC3    C6 7389   0.742   0.926  16.128 -0.0553 -0.5225 -0.1056
  497TMC3     C 7390   1.024   0.817  15.853 -1.1325 -0.1122  0.6742
  497TMC3     O 7391   0.984   0.756  15.753  0.1831  0.8564 -0.1872
  497TMC3     H 7392   0.774   0.891  15.800  0.9786  0.5089 -0.7633
  497TMC3    H1 7393   1.046   0.790  16.113 -0.8708 -2.4771 -0.6696
  497TMC3    H2 7394   0.659   0.938  16.197  0.4726 -0.3640  0.4904
  497TMC3    C7 7395   0.868   0.840  16.317 -0.2373  0.0350 -0.4434
  497TMC3    C8 7396   0.572   0.923  15.972  0.4308 -0.0671 -0.4672
  497TMC3    O1 7397   0.825   0.923  16.394  0.9518 -0.4391  0.3763
  497TMC3    O2 7398   0.500   1.007  16.026  0.1472 -0.2904  0.1450
  498MPD2     C 7399   2.189   1.756   9.814  0.1774  0.0485  0.3880
  498MPD2    C1 7400   2.269   1.651   9.797  0.0695 -0.8066 -0.8091
  498MPD2    C2 7401   2.237   1.531   9.851  0.2873 -0.6368  0.2176
  498MPD2    C3 7402   2.125   1.523   9.929 -0.6198  0.5938 -0.2408
  498MPD2    C4 7403   2.032   1.624   9.944 -0.3163 -0.5099 -0.6542
  498MPD2    C5 7404   2.073   1.744   9.886 -0.1740 -0.1295 -0.1126
  498MPD2     H 7405   2.296   1.441   9.838 -1.8485 -1.9470 -0.4503
  498MPD2    H1 7406   1.944   1.616  10.006  1.0883 -1.4361  1.2105
  498MPD2    H2 7407   2.215   1.858   9.789 -0.5062  0.2276  0.4371
  498MPD2    H3 7408   2.018   1.835   9.909 -0.2028 -0.1656 -0.0413
  498MPD2     N 7409   2.108   1.393   9.987 -0.6209 -0.2896 -0.0704
  498MPD2    H5 7410   2.189   1.332   9.980 -1.4337 -1.5291  1.3995
  498MPD2    N1 7411   2.390   1.659   9.721  0.0872 -0.2413  0.0569
  498MPD2    H7 7412   2.448   1.577   9.710 -0.7030 -0.8075  0.0541
  499TMC3    C1 7413   2.576   1.757   9.619  0.7810 -0.2854  0.7468
  499TMC3    C2 7414   2.657   1.654   9.670  0.0650  1.1404 -0.2294
  499TMC3    C3 7415   2.789   1.650   9.638 -0.0502  0.0408 -0.6132
  499TMC3    C4 7416   2.628   1.861   9.546 -0.0887  0.4638  0.8159
  499TMC3    C5 7417   2.765   1.847   9.514 -0.3877  0.0796  0.3174
  499TMC3    C6 7418   2.842   1.742   9.557  0.1886  0.0637  0.2932
  499TMC3     C 7419   2.433   1.765   9.647  0.1699 -1.0025  0.1696
  499TMC3     O 7420   2.383   1.874   9.634  0.2998 -0.0441 -0.4497
  499TMC3     H 7421   2.612   1.578   9.733  1.2133  0.1589 -0.5966
  499TMC3    H1 7422   2.558   1.929   9.499 -0.4982  0.3656  1.2823
  499TMC3    H2 7423   2.944   1.727   9.524 -0.8495 -2.3092 -1.7708
  499TMC3    C7 7424   2.836   1.944   9.430  0.0001 -0.0285  0.0336
  499TMC3    C8 7425   2.861   1.521   9.639  0.2976 -0.0753 -0.4971
  499TMC3    O1 7426   2.958   1.945   9.431 -0.3203 -0.2769 -0.2750
  499TMC3    O2 7427   2.984   1.528   9.644  0.0068 -0.8000 -1.0706
  500MPD2     C 7428   4.078   2.381  10.184 -0.2180 -0.7939 -0.6956
  500MPD2    C1 7429   4.128   2.513  10.174  0.1691 -0.0012 -0.1606
  500MPD2    C2 7430   4.064   2.611  10.103 -0.3383  0.6601  1.2384
  500MPD2    C3 7431   3.934   2.591  10.055 -0.0345  0.1264 -0.1445
  500MPD2    C4 7432   3.878   2.471  10.085 -0.5965  0.4529 -0.8808
  500MPD2    C5 7433   3.950   2.365  10.138  0.5331 -0.4547  0.7576
  500MPD2     H 7434   4.115   2.705  10.080  1.2606  0.3362  3.4146
  500MPD2    H1 7435   3.778   2.456  10.047 -0.7247  0.9441 -0.7307
  500MPD2    H2 7436   4.125   2.292  10.225  0.2471  0.7847  2.1610
  500MPD2    H3 7437   3.905   2.266  10.139  0.9649 -0.6726 -0.3822
  500MPD2     N 7438   3.859   2.688   9.991 -0.0149 -0.2073 -0.0066
  500MPD2    H5 7439   3.758   2.688   9.985  0.0760 -0.1549 -1.5761
  500MPD2    N1 7440   4.235   2.562  10.247  0.3723  0.6769  0.0787
  500MPD2    H7 7441   4.258   2.660  10.238  2.2054  0.2007 -0.6172
  501TMC3    C1 7442   4.414   2.565  10.401 -0.3575  0.1039  0.0289
  501TMC3    C2 7443   4.395   2.700  10.404 -0.6024  0.2732 -0.4531
  501TMC3    C3 7444   4.467   2.769  10.489 -0.6425 -1.2485  0.1558
  501TMC3    C4 7445   4.485   2.504  10.494  0.4806  0.6175 -0.6303
  501TMC3    C5 7446   4.550   2.577  10.587  0.3769 -0.2045  0.4034
  501TMC3    C6 7447   4.546   2.713  10.588  0.4348  0.4778 -0.1447
  501TMC3     C 7448   4.309   2.486  10.334 -0.3770  0.2055  1.1294
  501TMC3     O 7449   4.300   2.366  10.369  0.0394 -0.1252 -0.1977
  501TMC3     H 7450   4.323   2.748  10.338 -1.5438 -0.9537 -0.3358
  501TMC3    H1 7451   4.494   2.396  10.500  3.1347  0.9716  1.8889
  501TMC3    H2 7452   4.605   2.772  10.658 -0.1625  0.6162  0.2432
  501TMC3    C7 7453   4.590   2.505  10.707 -0.0164 -0.0641  0.4681
  501TMC3    C8 7454   4.481   2.913  10.472 -0.6410  0.2014 -0.1987
  501TMC3    O1 7455   4.531   2.405  10.738  0.3568  0.2346 -0.1471
  501TMC3    O2 7456   4.546   2.971  10.562 -0.1156 -0.3946 -0.0418
  502TMC3    C1 7457   3.456   1.815  15.165  0.8029 -0.4125 -0.5681
  502TMC3    C2 7458   3.495   1.915  15.073  0.5218  0.4516 -1.0543
  502TMC3    C3 7459   3.407   1.940  14.969 -0.7314  0.2450  0.3247
  502TMC3    C4 7460   3.344   1.739  15.137  0.1568  0.0536  0.0607
  502TMC3    C5 7461   3.272   1.761  15.028  0.1803 -0.6521  0.1138
  502TMC3    C6 7462   3.296   1.872  14.950 -0.0104  0.0624  0.2354
  502TMC3     C 7463   3.522   1.812  15.295 -0.3992  0.2665 -0.5165
  502TMC3     O 7464   3.616   1.891  15.305 -0.0947 -0.4978  0.7410
  502TMC3     H 7465   3.594   1.957  15.082 -0.1912  1.5526  1.6966
  502TMC3    H1 7466   3.303   1.665  15.205 -2.7497  1.2742 -0.3687
  502TMC3    H2 7467   3.228   1.883  14.867  2.1723 -0.0206 -1.5680
  502TMC3    C7 7468   3.164   1.683  15.007 -0.4056 -0.1816  0.5492
  502TMC3    C8 7469   3.444   2.035  14.868  0.0892 -0.6449 -0.4498
  502TMC3    O1 7470   3.189   1.566  15.013 -0.3119 -0.3927  0.4922
  502TMC3    O2 7471   3.418   2.011  14.753 -0.0357 -0.3509 -0.1670
  503MPD2     C 7472   0.548   2.335  16.756 -0.5410 -0.1014 -0.8443
  503MPD2    C1 7473   0.654   2.384  16.836 -0.2229 -0.1574 -0.0894
  503MPD2    C2 7474   0.759   2.307  16.873 -0.3187 -0.0279  0.7169
  503MPD2    C3 7475   0.765   2.171  16.840  0.6598  0.6805 -0.3600
  503MPD2    C4 7476   0.657   2.121  16.771 -0.2048  0.4547 -0.0631
  503MPD2    C5 7477   0.554   2.201  16.728  0.3604 -0.2069 -0.6616
  503MPD2     H 7478   0.836   2.348  16.937  1.4178 -1.7585 -0.2619
  503MPD2    H1 7479   0.640   2.015  16.753  0.8860 -0.1848  2.5888
  503MPD2    H2 7480   0.464   2.391  16.717 -1.3036  0.2311  1.2575
  503MPD2    H3 7481   0.476   2.152  16.671 -0.2105 -0.8280  0.6694
  503MPD2     N 7482   0.873   2.086  16.885 -0.1028 -0.4838  0.1417
  503MPD2    H5 7483   0.943   2.122  16.948 -0.1355 -1.4991  0.7515
  503MPD2    N1 7484   0.658   2.513  16.886  0.3504 -0.0396  0.0887
  503MPD2    H7 7485   0.742   2.533  16.939  0.2614 -1.9747  0.9606
  504TMC3    C1 7486   0.987   1.904  16.954 -0.1969 -0.1989  0.2400
  504TMC3    C2 7487   0.992   1.951  17.082  0.1365 -0.4742  1.1028
  504TMC3    C3 7488   1.066   1.885  17.175  0.5390 -0.7977  0.0913
  504TMC3    C4 7489   1.053   1.786  16.926  0.3236  0.3463 -0.1985
  504TMC3    C5 7490   1.122   1.722  17.022 -0.3454  0.3681 -0.6555
  504TMC3    C6 7491   1.147   1.781  17.147 -0.5196  0.1292 -0.0807
  504TMC3     C 7492   0.895   1.956  16.855 -0.9839  0.2817  1.1946
  504TMC3     O 7493   0.843   1.889  16.768  0.1208  0.1440 -0.7547
  504TMC3     H 7494   0.937   2.039  17.113  2.4678  1.8466 -1.4889
  504TMC3    H1 7495   1.022   1.730  16.838 -0.0834  0.8417 -0.3700
  504TMC3    H2 7496   1.215   1.742  17.221 -2.9890 -0.8704  1.6849
  504TMC3    C7 7497   1.201   1.606  16.984  0.1599 -1.1732 -0.3468
  504TMC3    C8 7498   1.050   1.931  17.317  0.5841 -0.0653 -0.5756
  504TMC3    O1 7499   1.220   1.587  16.864 -0.7232 -0.4040 -0.2968
  504TMC3    O2 7500   0.995   2.035  17.344  0.4193  0.2492 -0.5364
  505MPD2     C 7501   1.482   0.475   9.553 -0.5413 -0.0641 -0.5609
  505MPD2    C1 7502   1.502   0.362   9.620 -0.1760 -0.4176 -0.5677
  505MPD2    C2 7503   1.433   0.338   9.738 -0.1770  0.3862 -0.1101
  505MPD2    C3 7504   1.342   0.434   9.785 -0.3292  0.5971 -0.2907
  505MPD2    C4 7505   1.331   0.551   9.718 -0.4817  0.3978  0.7096
  505MPD2    C5 7506   1.395   0.574   9.596  0.4051 -0.4855  0.3671
  505MPD2     H 7507   1.424   0.241   9.786  0.6869  0.5269  0.3322
  505MPD2    H1 7508   1.267   0.631   9.751 -0.2636  0.3561  1.2251
  505MPD2    H2 7509   1.531   0.511   9.462  1.3948  1.5952  1.1323
  505MPD2    H3 7510   1.378   0.664   9.539  1.0425 -0.2713  0.5143
  505MPD2     N 7511   1.264   0.422   9.900  0.3704  0.1704  0.1155
  505MPD2    H5 7512   1.201   0.498   9.923 -0.6723 -0.1169 -1.7999
  505MPD2    N1 7513   1.601   0.274   9.561  0.0939 -0.2957  0.2543
  505MPD2    H7 7514   1.655   0.309   9.483 -2.4711 -0.7174 -1.7289
  506TMC3    C1 7515   1.765   0.103   9.565 -0.3730  0.1332  0.5566
  506TMC3    C2 7516   1.866   0.203   9.545  0.0507 -0.9601  0.8416
  506TMC3    C3 7517   1.994   0.164   9.582  0.0610  0.2476  0.3548
  506TMC3    C4 7518   1.799   4.707   9.631  0.1990 -0.9523 -0.2462
  506TMC3    C5 7519   1.925   4.682   9.675 -0.7980 -0.0382 -0.6432
  506TMC3    C6 7520   2.031   0.044   9.639 -0.1024 -0.5183  0.3680
  506TMC3     C 7521   1.635   0.149   9.606  0.0841 -0.2032 -0.4932
  506TMC3     O 7522   1.582   0.090   9.700 -0.1921  0.2695 -0.5615
  506TMC3     H 7523   1.851   0.303   9.508  0.9457 -1.6008 -1.2569
  506TMC3    H1 7524   1.723   4.631   9.646  0.8239 -1.0172  2.6389
  506TMC3    H2 7525   2.132   0.022   9.672 -0.3848 -3.0034 -0.4291
  506TMC3    C7 7526   1.924   4.670   9.818  0.1678  0.4842  0.6795
  506TMC3    C8 7527   2.104   0.259   9.590 -0.2591 -0.1856 -0.3669
  506TMC3    O1 7528   2.032   4.668   9.872 -0.3357  0.1239  0.8687
  506TMC3    O2 7529   2.218   0.216   9.573 -0.3568 -0.2570  0.2473
  507TMC3    C1 7530   1.706   1.745  14.086 -0.1247  0.4649  0.6051
  507TMC3    C2 7531   1.633   1.763  13.971 -0.0148  0.6011  0.6614
  507TMC3    C3 7532   1.701   1.798  13.855  0.4349 -0.4381 -0.6650
  507TMC3    C4 7533   1.842   1.749  14.086  0.3451 -0.1690 -0.0397
  507TMC3    C5 7534   1.913   1.784  13.963  0.2482 -0.3997  0.2857
  507TMC3    C6 7535   1.837   1.805  13.853  0.5161  0.5078  0.6104
  507TMC3     C 7536   1.648   1.718  14.219 -0.0402  0.2526  0.7029
  507TMC3     O 7537   1.718   1.699  14.312 -0.2670 -0.1808 -0.1381
  507TMC3     H 7538   1.527   1.785  13.967 -0.1199  0.2023  1.1771
  507TMC3    H1 7539   1.901   1.719  14.172  1.4962  1.5695 -0.2198
  507TMC3    H2 7540   1.896   1.836  13.768 -1.1699  2.0850  0.0198
  507TMC3    C7 7541   1.993   1.901  13.984 -0.3567  0.6383  0.1666
  507TMC3    C8 7542   1.643   1.913  13.793  0.1614 -1.1358 -0.0101
  507TMC3    O1 7543   1.971   2.002  13.919 -0.2348  0.7781  0.3193
  507TMC3    O2 7544   1.545   1.902  13.722  0.3189 -0.0328  0.0044
  508MPD2     C 7545   2.358   3.786  15.412 -0.3358 -0.9865 -0.0821
  508MPD2    C1 7546   2.436   3.888  15.470  0.0515 -0.7067 -0.1699
  508MPD2    C2 7547   2.452   4.008  15.402 -0.0488  0.6673 -0.0171
  508MPD2    C3 7548   2.381   4.038  15.289  0.0217 -0.1026 -0.3316
  508MPD2    C4 7549   2.299   3.937  15.232  0.0261  0.4102  0.9492
  508MPD2    C5 7550   2.288   3.816  15.295  0.5598 -0.7319 -0.5304
  508MPD2     H 7551   2.509   4.088  15.448  0.7587 -0.6762  1.3369
  508MPD2    H1 7552   2.240   3.961  15.143  0.5978  1.2693  0.7978
  508MPD2    H2 7553   2.342   3.689  15.457 -0.9159 -1.4866 -1.3652
  508MPD2    H3 7554   2.225   3.745  15.242 -0.8374 -1.2864  1.9160
  508MPD2     N 7555   2.393   4.166  15.231 -0.4973  0.2804 -0.2547
  508MPD2    H5 7556   2.464   4.229  15.268  0.8048  0.2732 -2.6936
  508MPD2    N1 7557   2.511   3.855  15.591  0.5746 -0.4361  0.2062
  508MPD2    H7 7558   2.496   3.769  15.644 -4.0218  1.6787  2.3284
  509TMC3    C1 7559   2.261   4.577  15.069  0.4147  0.1872  0.5263
  509TMC3    C2 7560   2.319   4.643  15.174  0.1964  0.4775  0.2855
  509TMC3    C3 7561   2.371   4.562  15.272  0.6199  0.3130 -0.3095
  509TMC3    C4 7562   2.265   4.441  15.058  0.3864 -0.4267 -0.5304
  509TMC3    C5 7563   2.318   4.367  15.158  0.5331 -0.0025  0.5669
  509TMC3    C6 7564   2.363   4.426  15.276 -0.0016  0.5194 -0.0550
  509TMC3     C 7565   2.194   4.651  14.967  0.2631 -0.7642  0.3139
  509TMC3     O 7566   2.125   4.590  14.886  0.0397 -0.4124  0.4592
  509TMC3     H 7567   2.318   0.029  15.186  1.3878  0.4127  1.0222
  509TMC3    H1 7568   2.215   4.388  14.978 -0.7846 -1.3823  0.8261
  509TMC3    H2 7569   2.417   4.372  15.353 -1.5619  1.7582  1.9050
  509TMC3    C7 7570   2.296   4.225  15.152 -0.3327 -0.3733  0.6365
  509TMC3    C8 7571   2.432   4.613  15.391 -0.3086  0.4443  0.5097
  509TMC3    O1 7572   2.181   4.196  15.115  0.5929  0.2380  0.1124
  509TMC3    O2 7573   2.408   4.557  15.495 -0.1091  0.1599 -0.3411
  510MPD2     C 7574   0.616   0.963  14.721 -0.1014  0.8271  0.5926
  510MPD2    C1 7575   0.638   1.067  14.801  0.1168  0.1754 -0.0991
  510MPD2    C2 7576   0.687   1.179  14.737 -0.1977 -0.6076  0.1757
  510MPD2    C3 7577   0.714   1.181  14.602  0.2295  0.4852  0.7970
  510MPD2    C4 7578   0.692   1.069  14.523  0.4190  0.7253  0.4427
  510MPD2    C5 7579   0.659   0.953  14.590 -0.7159  0.4055 -0.2884
  510MPD2     H 7580   0.731   1.249  14.808  0.9545 -0.8256 -0.3217
  510MPD2    H1 7581   0.720   1.059  14.419 -0.9809 -0.8453  0.2259
  510MPD2    H2 7582   0.587   0.867  14.765 -0.9468  1.3334  1.1477
  510MPD2    H3 7583   0.645   0.866  14.527  1.0645 -1.6126  2.0984
  510MPD2     N 7584   0.792   1.288  14.553 -0.0848 -0.0369 -0.1756
  510MPD2    H5 7585   0.829   1.357  14.618 -0.1102 -1.9658  1.8836
  510MPD2    N1 7586   0.613   1.051  14.943  0.3067  0.3951  0.4156
  510MPD2    H7 7587   0.569   0.964  14.970  0.8424  0.0253  0.1027
  511TMC3    C1 7588   0.517   1.090  15.154  0.4108 -0.5250  0.4363
  511TMC3    C2 7589   0.414   1.164  15.205  0.0192  0.1320  0.0129
  511TMC3    C3 7590   0.315   1.087  15.259 -0.2384  0.3313 -0.0690
  511TMC3    C4 7591   0.527   0.954  15.169  0.2989 -0.8089 -0.7239
  511TMC3    C5 7592   0.415   0.881  15.197 -0.0063  0.1384  0.0478
  511TMC3    C6 7593   0.304   0.953  15.226  0.1519 -0.4515  0.0914
  511TMC3     C 7594   0.588   1.149  15.042  0.1458 -0.4571 -0.6502
  511TMC3     O 7595   0.577   1.268  15.029 -0.0132 -0.9037 -0.2636
  511TMC3     H 7596   0.415   1.272  15.199 -0.0327  0.1547  0.3937
  511TMC3    H1 7597   0.618   0.902  15.140 -0.5494 -0.5491 -3.8774
  511TMC3    H2 7598   0.209   0.900  15.220  1.7903 -3.0962 -2.3796
  511TMC3    C7 7599   0.391   0.787  15.089 -0.1446 -0.3697 -0.4560
  511TMC3    C8 7600   0.227   1.143  15.357 -0.4195 -0.3106 -0.4139
  511TMC3    O1 7601   0.466   0.804  14.999  0.4530 -0.7306  0.1653
  511TMC3    O2 7602   0.251   1.252  15.390 -0.7600 -1.0901  0.2966
  512TMC3    C1 7603   3.807   0.584  13.425  0.3079 -0.1140 -0.9658
  512TMC3    C2 7604   3.908   0.531  13.499  0.0965  0.0199 -0.9359
  512TMC3    C3 7605   3.977   0.425  13.444 -1.0478 -0.8333 -0.9401
  512TMC3    C4 7606   3.789   0.540  13.292  0.4433 -0.3496  0.3973
  512TMC3    C5 7607   3.839   0.417  13.256 -0.0129  0.2473 -0.1085
  512TMC3    C6 7608   3.943   0.355  13.327 -0.9356  1.0212 -0.1142
  512TMC3     C 7609   3.755   0.717  13.467 -0.0529 -0.0941  0.1071
  512TMC3     O 7610   3.823   0.787  13.542 -0.2074  0.1649  0.4827
  512TMC3     H 7611   3.925   0.565  13.601  0.2084 -0.6784 -0.7195
  512TMC3    H1 7612   3.720   0.592  13.226 -1.7783 -1.7381  1.6221
  512TMC3    H2 7613   4.001   0.274  13.287 -2.7162  0.6688 -1.9823
  512TMC3    C7 7614   3.832   0.386  13.119 -0.2891  0.3214 -0.6511
  512TMC3    C8 7615   4.097   0.376  13.503  0.4763 -0.0788  0.4046
  512TMC3    O1 7616   3.801   0.481  13.047 -0.0142 -0.0050 -0.1740
  512TMC3    O2 7617   4.144   0.266  13.458 -0.3919  0.1657 -0.1785
  513MPD2     C 7618   0.885   0.232  13.365 -0.0705  0.2776  0.0974
  513MPD2    C1 7619   0.955   0.297  13.263  0.1700  0.0276  0.0533
  513MPD2    C2 7620   1.012   0.420  13.284 -0.1104  0.0477  0.1819
  513MPD2    C3 7621   0.997   0.477  13.411  0.8245  0.5071 -0.1070
  513MPD2    C4 7622   0.933   0.408  13.512 -0.2473 -0.3203 -0.0751
  513MPD2    C5 7623   0.863   0.297  13.485 -0.4979  0.0286  0.2806
  513MPD2     H 7624   1.066   0.474  13.206 -0.1854 -1.2245 -0.7617
  513MPD2    H1 7625   0.928   0.449  13.612 -0.8401 -1.4302  0.3549
  513MPD2    H2 7626   0.853   0.130  13.345  0.7007 -0.0680  0.5901
  513MPD2    H3 7627   0.797   0.252  13.558 -0.2828 -1.8009 -0.6533
  513MPD2     N 7628   1.058   0.603  13.431  0.1092  0.1417 -1.0673
  513MPD2    H5 7629   1.106   0.641  13.350  1.6031  1.2136  0.3306
  513MPD2    N1 7630   0.984   0.253  13.133  1.0908  0.1736  0.0732
  513MPD2    H7 7631   1.042   0.316  13.079  0.0626 -0.9877 -2.4330
  514TMC3    C1 7632   0.982   0.143  12.931 -0.7922  0.5263  0.4425
  514TMC3    C2 7633   0.896   0.193  12.842  0.5985  0.4309 -0.4919
  514TMC3    C3 7634   0.949   0.260  12.728  0.0693  0.0929 -1.0468
  514TMC3    C4 7635   1.118   0.169  12.931  0.1915  1.0403 -0.1274
  514TMC3    C5 7636   1.156   0.258  12.828  0.2199  0.2860 -0.0561
  514TMC3    C6 7637   1.082   0.290  12.717 -0.2726 -0.1537 -0.3618
  514TMC3     C 7638   0.935   0.140  13.067 -0.2834  0.2997  0.0542
  514TMC3     O 7639   0.842   0.071  13.109  0.0024  0.3008 -0.3097
  514TMC3     H 7640   0.790   0.172  12.843  0.3625  1.8660  3.8168
  514TMC3    H1 7641   1.186   0.143  13.011 -0.7338 -0.7344  0.0788
  514TMC3    H2 7642   1.116   0.365  12.646 -1.4063  0.2635 -0.4505
  514TMC3    C7 7643   1.264   0.347  12.874 -0.7336  0.2641  0.3765
  514TMC3    C8 7644   0.877   0.247  12.609  0.3888  0.0715 -0.0870
  514TMC3    O1 7645   1.293   0.328  12.989  0.7393  0.0121 -0.3594
  514TMC3    O2 7646   0.780   0.177  12.609  0.8898 -0.0772 -0.2178
  515MPD2     C 7647   4.292   2.469  14.574 -0.4480  0.0567 -0.3761
  515MPD2    C1 7648   4.307   2.343  14.632  0.7682 -0.5139  0.1868
  515MPD2    C2 7649   4.404   2.318  14.727  0.4037  0.4064  0.1933
  515MPD2    C3 7650   4.496   2.419  14.767 -0.4385 -0.2324  0.4699
  515MPD2    C4 7651   4.483   2.537  14.700 -0.4315 -0.0008 -0.1371
  515MPD2    C5 7652   4.387   2.564  14.605 -0.8735  0.0078  0.2878
  515MPD2     H 7653   4.397   2.225  14.781 -0.0467 -0.6824 -1.7493
  515MPD2    H1 7654   4.550   2.616  14.730  0.2505  0.0743 -1.8530
  515MPD2    H2 7655   4.224   2.494  14.494  0.4826 -0.7583 -1.4261
  515MPD2    H3 7656   4.379   2.662  14.559  0.4827 -0.3832 -0.7747
  515MPD2     N 7657   4.593   2.399  14.865 -0.1816 -0.6843  0.3785
  515MPD2    H5 7658   4.635   2.482  14.905  0.2796 -0.0439 -1.4128
  515MPD2    N1 7659   4.209   2.234  14.620  0.2616 -0.0196 -0.2258
  515MPD2    H7 7660   4.229   2.160  14.687  0.7715  0.5884  0.3036
  516TMC3    C1 7661   4.004   2.129  14.546 -0.6022  0.9601  0.3964
  516TMC3    C2 7662   3.947   2.106  14.424 -0.1130  0.1152 -0.5503
  516TMC3    C3 7663   3.823   2.039  14.422  0.3038  0.4869 -0.0353
  516TMC3    C4 7664   3.957   2.085  14.665 -0.7984 -0.1581 -0.0753
  516TMC3    C5 7665   3.836   2.016  14.652  0.3090  0.5854 -0.1392
  516TMC3    C6 7666   3.756   2.007  14.540 -0.1785  0.1930 -0.7216
  516TMC3     C 7667   4.094   2.239  14.539  0.3158  0.5525  0.6059
  516TMC3     O 7668   4.053   2.325  14.457  0.4958 -0.0739  0.2532
  516TMC3     H 7669   4.000   2.152  14.342 -0.3159 -1.8525 -1.8024
  516TMC3    H1 7670   4.003   2.114  14.759 -0.2694 -3.9062  0.8149
  516TMC3    H2 7671   3.655   1.966  14.534  0.1574 -0.9159  1.1936
  516TMC3    C7 7672   3.787   1.939  14.765  0.0256  0.1572 -0.0142
  516TMC3    C8 7673   3.737   2.077  14.310  0.4382 -0.0615  0.8128
  516TMC3    O1 7674   3.842   1.960  14.871  0.1318  0.1169  0.6442
  516TMC3    O2 7675   3.627   2.124  14.333  0.1376 -0.3333 -0.2666
  517MPD2     C 7676   3.620   3.947   0.154  0.0998  0.5463 -0.2810
  517MPD2    C1 7677   3.747   4.005   0.144 -0.0054  0.1172  0.2901
  517MPD2    C2 7678   3.785   4.108   0.231  0.1508 -0.2374 -0.4369
  517MPD2    C3 7679   3.692   4.152   0.324 -0.8106 -0.2371  0.2374
  517MPD2    C4 7680   3.569   4.095   0.336  0.5196  0.4080 -0.4229
  517MPD2    C5 7681   3.539   3.991   0.250  0.6612  0.5245  0.1249
  517MPD2     H 7682   3.877   4.159   0.205  0.1178  1.0549  1.9424
  517MPD2    H1 7683   3.500   4.124   0.414  0.0668 -0.6685 -0.4322
  517MPD2    H2 7684   3.603   3.850   0.107  2.6705 -0.4697  0.8781
  517MPD2    H3 7685   3.441   3.945   0.252  0.5567  0.8450  2.6136
  517MPD2     N 7686   3.728   4.251   0.415  0.3321  0.2573 -0.2412
  517MPD2    H5 7687   3.658   4.269   0.486 -1.7753 -0.1012 -2.2316
  517MPD2    N1 7688   3.845   3.956   0.050  0.0380 -0.2874  0.6230
  517MPD2    H7 7689   3.939   3.993   0.048 -0.1032  0.1403  2.0338
  518TMC3    C1 7690   3.899   3.815  17.551 -0.0007  0.1266  0.1434
  518TMC3    C2 7691   3.859   3.757  17.435  0.2555 -0.1788 -0.6420
  518TMC3    C3 7692   3.953   3.688  17.354  0.6816 -0.3796 -0.5507
  518TMC3    C4 7693   4.028   3.825  17.588  0.7770 -0.2170 -0.4547
  518TMC3    C5 7694   4.108   3.740  17.519  0.6010 -0.8511  0.6059
  518TMC3    C6 7695   4.075   3.662  17.408 -0.4878 -0.3902 -0.1353
  518TMC3     C 7696   3.801   3.887  17.629 -0.8936 -0.4869  0.5330
  518TMC3     O 7697   3.685   3.881  17.581 -0.0046  0.0830 -0.6202
  518TMC3     H 7698   3.755   3.753  17.407  0.3168  2.3315 -1.1640
  518TMC3    H1 7699   4.072   3.897  17.655  2.5694 -2.1228  0.4329
  518TMC3    H2 7700   4.144   3.599  17.352 -0.7737  1.0859 -2.1291
  518TMC3    C7 7701   4.246   3.749  17.554  0.1875  1.1309  1.2582
  518TMC3    C8 7702   3.897   3.614  17.241 -0.0836 -0.7460  0.3280
  518TMC3    O1 7703   4.280   3.851  17.614  0.0082  0.1990  0.1864
  518TMC3    O2 7704   3.819   3.678  17.173  0.5333 -0.1887 -0.0016
  519MPD2     C 7705   0.439   1.759  14.455  0.0339  0.6271  0.3681
  519MPD2    C1 7706   0.428   1.759  14.319  0.4256 -0.9678  0.0127
  519MPD2    C2 7707   0.479   1.650  14.247  0.0144 -0.0142 -0.3159
  519MPD2    C3 7708   0.530   1.536  14.313 -0.6828 -1.3832 -0.5739
  519MPD2    C4 7709   0.532   1.538  14.450  0.0610  0.6520 -0.1055
  519MPD2    C5 7710   0.496   1.651  14.519 -0.4760  0.8497  0.5959
  519MPD2     H 7711   0.476   1.650  14.138 -2.8509  1.2892 -0.2214
  519MPD2    H1 7712   0.573   1.456  14.507 -1.8234 -0.0359  0.2688
  519MPD2    H2 7713   0.408   1.845  14.513 -2.5683 -1.4289  2.0462
  519MPD2    H3 7714   0.492   1.649  14.627  0.9772  0.4151  0.6489
  519MPD2     N 7715   0.554   1.408  14.251 -0.2999  0.5619  0.2592
  519MPD2    H5 7716   0.561   1.331  14.316  3.5406  0.3841 -0.3616
  519MPD2    N1 7717   0.363   1.868  14.259 -1.0074  0.1422 -0.2153
  519MPD2    H7 7718   0.307   1.932  14.316 -3.1717 -2.2565  0.3450
  520TMC3    C1 7719   0.631   1.493  14.036  0.2566 -0.8684 -1.3887
  520TMC3    C2 7720   0.563   1.536  13.925 -1.0450  0.1812 -0.3013
  520TMC3    C3 7721   0.626   1.605  13.826  0.1308 -0.0597 -0.5609
  520TMC3    C4 7722   0.752   1.529  14.069 -0.5747 -0.2546 -0.3659
  520TMC3    C5 7723   0.816   1.615  13.981 -0.7040 -0.2558 -0.1497
  520TMC3    C6 7724   0.754   1.653  13.864  0.1132 -0.4673 -0.1737
  520TMC3     C 7725   0.563   1.385  14.113  0.6726  0.4038 -0.3606
  520TMC3     O 7726   0.559   1.277  14.055 -0.1188 -0.1648 -0.7001
  520TMC3     H 7727   0.465   1.504  13.892 -1.6084  0.1025  1.4783
  520TMC3    H1 7728   0.786   1.503  14.169 -0.0698 -1.0296 -0.7357
  520TMC3    H2 7729   0.804   1.710  13.786 -0.2011 -1.1817 -0.8925
  520TMC3    C7 7730   0.962   1.605  13.991 -0.2426  0.5628 -0.6526
  520TMC3    C8 7731   0.539   1.682  13.736  0.3461 -0.5244 -0.3929
  520TMC3    O1 7732   1.011   1.555  14.091  0.1055  0.0649 -0.8600
  520TMC3    O2 7733   0.589   1.780  13.685 -0.2987  0.2103 -0.3549
  521MPD2     C 7734   1.567   4.449  17.235  0.3669  0.4593  0.1824
  521MPD2    C1 7735   1.492   4.393  17.134 -0.5401 -0.2557 -0.1040
  521MPD2    C2 7736   1.543   4.330  17.026 -0.0349  0.4760 -0.1529
  521MPD2    C3 7737   1.677   4.304  17.025 -0.0887 -0.1601  0.3105
  521MPD2    C4 7738   1.755   4.339  17.128  0.5476  0.6600 -0.5294
  521MPD2    C5 7739   1.701   4.414  17.232  0.2293  0.4819 -0.4498
  521MPD2     H 7740   1.483   4.316  16.937 -1.1843  0.5972  0.5950
  521MPD2    H1 7741   1.862   4.324  17.124  0.6247  1.0435  0.0808
  521MPD2    H2 7742   1.534   4.501  17.324  2.5106  1.1227  0.5723
  521MPD2    H3 7743   1.768   4.438  17.314  1.6821 -2.3581 -0.7952
  521MPD2     N 7744   1.726   4.245  16.910 -0.1536 -0.9109  0.2060
  521MPD2    H5 7745   1.663   4.232  16.831 -1.2117  0.2433  0.8561
  521MPD2    N1 7746   1.355   4.426  17.129 -0.0689  0.1191  0.1747
  521MPD2    H7 7747   1.324   4.501  17.189 -0.3830 -1.3453  1.8625
  522TMC3    C1 7748   1.870   4.141  16.758 -0.1297 -0.1080 -0.0368
  522TMC3    C2 7749   1.960   4.037  16.744 -0.4530 -0.6091  0.0791
  522TMC3    C3 7750   2.004   4.006  16.616 -0.4098  0.0522  0.8102
  522TMC3    C4 7751   1.826   4.215  16.659 -0.2666  0.1927 -1.2213
  522TMC3    C5 7752   1.882   4.189  16.534  0.2500 -0.2908  0.7355
  522TMC3    C6 7753   1.960   4.076  16.512  0.0983  0.0743 -0.7565
  522TMC3     C 7754   1.848   4.182  16.897 -0.6428 -0.7318  0.6879
  522TMC3     O 7755   1.917   4.135  16.989  0.1057  0.3254  0.8612
  522TMC3     H 7756   1.998   3.988  16.833  0.5835 -1.1771 -0.6691
  522TMC3    H1 7757   1.763   4.300  16.682  0.4063  0.3744 -0.0517
  522TMC3    H2 7758   1.983   4.043  16.411  1.2191 -0.1459 -0.4198
  522TMC3    C7 7759   1.899   4.291  16.429  0.5657 -0.6305  0.1444
  522TMC3    C8 7760   2.086   3.888  16.595 -0.0707 -0.4471  0.4999
  522TMC3    O1 7761   2.001   4.289  16.363 -0.1543 -0.5352  0.3436
  522TMC3    O2 7762   2.082   3.813  16.692  0.1325 -0.0805 -0.2045
  523MPD2     C 7763   4.182   4.231  10.370 -0.0736  0.1965 -0.5939
  523MPD2    C1 7764   4.197   4.194  10.240  0.1557  0.1147 -0.9466
  523MPD2    C2 7765   4.148   4.287  10.142 -0.1847  0.5815 -0.5755
  523MPD2    C3 7766   4.063   4.390  10.179 -0.3348  0.7033  0.0236
  523MPD2    C4 7767   4.039   4.414  10.315  0.8795 -0.3803  0.4406
  523MPD2    C5 7768   4.114   4.340  10.405  0.5297 -0.3160 -0.4158
  523MPD2     H 7769   4.174   4.269  10.039  2.9841 -1.6577  0.6151
  523MPD2    H1 7770   3.980   4.498  10.348  1.2369 -0.3446  0.9941
  523MPD2    H2 7771   4.216   4.164  10.448 -1.4364  0.5461  0.2924
  523MPD2    H3 7772   4.097   4.356  10.511 -0.7444 -0.3355 -0.6103
  523MPD2     N 7773   4.010   4.483  10.091  0.1033  0.3999 -0.3326
  523MPD2    H5 7774   3.969   4.560  10.142 -0.1076  0.5650 -0.7505
  523MPD2    N1 7775   4.265   4.077  10.205  0.9225 -0.1913 -0.3871
  523MPD2    H7 7776   4.294   4.015  10.281 -0.5525 -0.5802 -0.1425
  524TMC3    C1 7777   3.948   4.602   9.900  0.1700  0.8953 -0.2457
  524TMC3    C2 7778   3.938   4.610   9.768  0.1013 -0.0707  0.2541
  524TMC3    C3 7779   3.899   0.012   9.714 -0.3406 -0.2403 -0.5888
  524TMC3    C4 7780   3.895   4.698   9.983  0.3511  0.4338  0.1326
  524TMC3    C5 7781   3.867   0.102   9.925 -0.0108  0.7488 -0.1517
  524TMC3    C6 7782   3.870   0.119   9.787 -0.2168 -0.0544  0.5251
  524TMC3     C 7783   4.010   4.484   9.951  0.0117 -0.0759 -0.4165
  524TMC3     O 7784   4.046   4.391   9.878  0.1503 -0.0159  0.5558
  524TMC3     H 7785   3.980   4.530   9.708  0.6220 -0.8592  1.6723
  524TMC3    H1 7786   3.868   4.680  10.087  3.1942  0.5471  0.8830
  524TMC3    H2 7787   3.840   0.215   9.746 -0.2807  0.8220  2.5858
  524TMC3    C7 7788   3.825   0.205  10.013 -0.1192  0.1748 -0.9249
  524TMC3    C8 7789   3.853   0.007   9.577  0.1352 -0.0310 -0.1602
  524TMC3    O1 7790   3.815   0.166  10.127  0.4073 -0.7148  0.0829
  524TMC3    O2 7791   3.897   4.634   9.513  0.2115 -0.6663 -0.7177
  525MPD2     C 7792   2.190   1.993  14.701  0.4568 -0.4079  0.2757
  525MPD2    C1 7793   2.303   1.955  14.629  0.0944 -0.3675 -0.1932
  525MPD2    C2 7794   2.395   2.051  14.600  0.0741 -0.0306  0.8064
  525MPD2    C3 7795   2.366   2.188  14.614  0.4592  0.0928  0.1425
  525MPD2    C4 7796   2.251   2.220  14.679 -0.5427  0.3793  0.4073
  525MPD2    C5 7797   2.171   2.125  14.731 -0.5289  0.6426 -0.9331
  525MPD2     H 7798   2.486   2.027  14.545 -0.0249  0.4885  0.4141
  525MPD2    H1 7799   2.225   2.324  14.693  0.8703  1.0716 -2.0698
  525MPD2    H2 7800   2.115   1.925  14.739  2.0924 -3.3428 -1.7079
  525MPD2    H3 7801   2.083   2.164  14.780 -1.8864 -1.8797 -1.3454
  525MPD2     N 7802   2.447   2.298  14.569 -0.0415  0.1734 -0.8788
  525MPD2    H5 7803   2.408   2.391  14.576 -2.5945 -0.6424 -3.9773
  525MPD2    N1 7804   2.331   1.821  14.594 -0.0284  0.0897  0.2142
  525MPD2    H7 7805   2.421   1.803  14.549 -0.2178  0.8124 -0.4712
  526TMC3    C1 7806   2.279   1.588  14.579  0.4244  0.1748 -0.3494
  526TMC3    C2 7807   2.214   1.483  14.649 -0.2163 -0.4257 -0.1713
  526TMC3    C3 7808   2.242   1.350  14.617 -0.1555  0.5934  0.7049
  526TMC3    C4 7809   2.350   1.565  14.465 -0.1067 -0.4095 -0.6547
  526TMC3    C5 7810   2.378   1.432  14.431  0.7979 -1.1153 -0.4224
  526TMC3    C6 7811   2.323   1.325  14.506  0.3891 -0.2469  0.5270
  526TMC3     C 7812   2.234   1.719  14.601  0.5177 -0.4226  0.1527
  526TMC3     O 7813   2.116   1.725  14.634  0.2049 -0.2822  0.3843
  526TMC3     H 7814   2.140   1.508  14.725 -0.5312  0.9957 -0.9529
  526TMC3    H1 7815   2.385   1.638  14.393 -0.0931  1.3093  1.1268
  526TMC3    H2 7816   2.341   1.222  14.476 -0.5443  0.4974 -2.6556
  526TMC3    C7 7817   2.420   1.404  14.292  0.6759  0.2744 -0.2119
  526TMC3    C8 7818   2.129   1.261  14.612  0.2581 -0.3024 -0.6809
  526TMC3    O1 7819   2.404   1.494  14.211 -0.4937 -0.3082 -0.0749
  526TMC3    O2 7820   2.101   1.224  14.497  0.6170  0.4116 -0.2613
  527MPD2     C 7821   0.103   4.102   1.189  0.5467  0.2812 -0.3296
  527MPD2    C1 7822   0.173   4.041   1.295 -0.2777  0.4001  0.4803
  527MPD2    C2 7823   0.309   4.007   1.271  0.0399 -0.6578  0.3765
  527MPD2    C3 7824   0.375   4.034   1.148 -0.1658  0.3219  0.2010
  527MPD2    C4 7825   0.294   4.094   1.053  0.0978 -0.0057  0.4968
  527MPD2    C5 7826   0.163   4.131   1.069 -0.1342  0.7953  0.5285
  527MPD2     H 7827   0.365   3.967   1.355 -1.0150  0.0719  1.4236
  527MPD2    H1 7828   0.328   4.102   0.950 -0.1214  1.5962  0.5607
  527MPD2    H2 7829   0.002   4.140   1.200  0.0901 -0.6568 -1.3519
  527MPD2    H3 7830   0.102   4.170   0.988 -0.3374  0.2412  0.4136
  527MPD2     N 7831   0.519   4.015   1.134  0.2002 -0.0612 -0.1988
  527MPD2    H5 7832   0.568   3.974   1.212  1.8784  1.1769 -0.6058
  527MPD2    N1 7833   0.116   4.008   1.419  0.1653 -0.1079 -0.4529
  527MPD2    H7 7834   0.177   3.965   1.488  0.4209  1.0676  0.0618
  528TMC3    C1 7835   4.667   3.978   1.579 -0.5574 -0.8328 -0.2513
  528TMC3    C2 7836   0.036   3.989   1.685  0.5255 -0.0533 -0.0436
  528TMC3    C3 7837   4.703   3.978   1.809 -0.0166 -0.2813 -0.1814
  528TMC3    C4 7838   4.532   3.968   1.591 -0.2625 -0.1258  0.4925
  528TMC3    C5 7839   4.486   3.959   1.717 -0.3104 -0.0185 -0.1287
  528TMC3    C6 7840   4.566   3.955   1.831  0.4057 -0.1606  0.1024
  528TMC3     C 7841   4.707   4.031   1.450 -0.2505 -0.1686  0.4488
  528TMC3     O 7842   4.616   4.076   1.378 -0.2329  0.0805  1.0081
  528TMC3     H 7843   0.139   4.013   1.662  0.1497 -0.1119 -1.8061
  528TMC3    H1 7844   4.468   3.964   1.504 -0.4813 -3.1468  0.7735
  528TMC3    H2 7845   4.520   3.950   1.929  0.4460 -1.9233  0.0393
  528TMC3    C7 7846   4.343   3.936   1.748 -0.5435  0.5330 -0.3436
  528TMC3    C8 7847   0.070   4.005   1.920 -0.0278  0.3900  0.1805
  528TMC3    O1 7848   4.312   3.902   1.859 -0.5098  0.0733 -0.4597
  528TMC3    O2 7849   0.182   4.052   1.893 -0.1230  0.4314 -0.0888
  529MPD2     C 7850   3.147   3.228   0.861  0.5102  0.1290  0.0452
  529MPD2    C1 7851   3.191   3.101   0.830 -0.0593  0.3544  0.1231
  529MPD2    C2 7852   3.237   3.070   0.703 -0.2068 -0.1337  0.6643
  529MPD2    C3 7853   3.264   3.173   0.614  0.2613 -0.3547 -0.2789
  529MPD2    C4 7854   3.220   3.297   0.648 -0.2414  0.1662  0.0267
  529MPD2    C5 7855   3.157   3.322   0.759  0.2451 -0.0935 -0.5809
  529MPD2     H 7856   3.259   2.970   0.668  1.4758  0.3091  0.4773
  529MPD2    H1 7857   3.243   3.369   0.571  1.2768 -1.2921 -0.8655
  529MPD2    H2 7858   3.104   3.263   0.954  0.2449 -2.3244  0.8480
  529MPD2    H3 7859   3.130   3.424   0.784  3.0672 -0.0716  2.4888
  529MPD2     N 7860   3.340   3.161   0.496 -0.3736  0.7251 -0.2559
  529MPD2    H5 7861   3.362   3.240   0.435  1.9889 -0.1528 -0.5292
  529MPD2    N1 7862   3.178   3.003   0.923  0.4254  0.4101  0.3992
  529MPD2    H7 7863   3.213   2.914   0.891 -1.3388 -0.4574  0.8536
  530TMC3    C1 7864   3.193   2.898   1.124  1.2051  0.4870  0.1137
  530TMC3    C2 7865   3.252   2.909   1.247  0.1524 -0.5535  0.0499
  530TMC3    C3 7866   3.273   2.798   1.325  0.3204 -0.8066  1.2072
  530TMC3    C4 7867   3.150   2.773   1.085  0.3806 -0.1092  0.0952
  530TMC3    C5 7868   3.171   2.670   1.166  0.4027  0.2025 -0.0656
  530TMC3    C6 7869   3.239   2.673   1.287 -0.0338 -0.0485 -0.0087
  530TMC3     C 7870   3.153   3.011   1.055  0.2303  0.3311 -0.7954
  530TMC3     O 7871   3.122   3.102   1.129 -0.4264  0.4461  0.3537
  530TMC3     H 7872   3.296   3.004   1.274  0.6089 -1.0645  1.0826
  530TMC3    H1 7873   3.117   2.749   0.984 -1.6186 -2.9544  1.4227
  530TMC3    H2 7874   3.270   2.589   1.348  1.0304 -0.7074 -1.4507
  530TMC3    C7 7875   3.090   2.548   1.140  0.3125 -0.1866 -0.3328
  530TMC3    C8 7876   3.339   2.824   1.455  1.0397 -0.4266  0.0657
  530TMC3    O1 7877   3.043   2.528   1.027  0.0402 -0.3740  0.3086
  530TMC3    O2 7878   3.409   2.924   1.453 -0.0856  0.0278  0.1427
  531MPD2     C 7879   1.434   0.837  12.901  0.5827  0.4354  0.2647
  531MPD2    C1 7880   1.396   0.748  12.998 -0.0561  0.0872  0.5005
  531MPD2    C2 7881   1.354   0.619  12.970 -0.0489 -0.4167  0.3748
  531MPD2    C3 7882   1.347   0.576  12.839 -0.3037 -0.1005  0.1659
  531MPD2    C4 7883   1.390   0.663  12.744 -0.2544 -0.4917  0.4095
  531MPD2    C5 7884   1.438   0.789  12.775  0.0400  0.0097 -0.8685
  531MPD2     H 7885   1.337   0.551  13.053 -1.8392 -1.2706 -0.7117
  531MPD2    H1 7886   1.383   0.638  12.639 -1.8717 -0.7230  0.5627
  531MPD2    H2 7887   1.467   0.939  12.916 -0.2800  0.9353 -1.2416
  531MPD2    H3 7888   1.480   0.856  12.701 -0.6688 -0.4001 -1.6300
  531MPD2     N 7889   1.287   0.453  12.792  0.0756  0.0214  0.3894
  531MPD2    H5 7890   1.258   0.437  12.696 -1.2487  0.1163  0.7695
  531MPD2    N1 7891   1.403   0.791  13.130 -0.0075 -0.2297  0.4223
  531MPD2    H7 7892   1.455   0.876  13.149  1.2683 -1.0900  0.7434
  532TMC3    C1 7893   1.329   0.809  13.352  0.5229  0.5644 -0.5852
  532TMC3    C2 7894   1.202   0.826  13.406  0.0261 -0.2594  0.9909
  532TMC3    C3 7895   1.180   0.781  13.532 -0.2786 -0.1603 -0.4571
  532TMC3    C4 7896   1.437   0.770  13.426  0.2422  0.2435 -0.4760
  532TMC3    C5 7897   1.412   0.744  13.559  0.9238 -0.4792 -0.3810
  532TMC3    C6 7898   1.285   0.747  13.612  0.4885 -0.4873  0.9302
  532TMC3     C 7899   1.321   0.742  13.223 -0.4757 -0.8323  0.1537
  532TMC3     O 7900   1.217   0.679  13.211  0.0198  0.1371  0.4943
  532TMC3     H 7901   1.121   0.863  13.345  0.9544 -0.4194 -0.3384
  532TMC3    H1 7902   1.532   0.756  13.377  0.2759 -1.3214  0.0237
  532TMC3    H2 7903   1.266   0.711  13.713 -1.1570 -2.1429  0.0291
  532TMC3    C7 7904   1.523   0.697  13.643 -0.5255 -0.5035  0.6363
  532TMC3    C8 7905   1.067   0.680  13.548 -0.9268  0.7116 -0.5397
  532TMC3    O1 7906   1.536   0.762  13.747  0.0013 -0.1536 -0.3462
  532TMC3    O2 7907   1.005   0.662  13.654  0.1141 -0.2940 -0.1489
  533TMC3    C1 7908   2.628   2.418  14.496  0.0360  0.2613 -0.7431
  533TMC3    C2 7909   2.750   2.411  14.432 -0.1795 -0.2068  0.2473
  533TMC3    C3 7910   2.861   2.430  14.508 -0.0985 -0.0225 -0.6272
  533TMC3    C4 7911   2.625   2.476  14.618 -0.6165 -0.2573  0.4879
  533TMC3    C5 7912   2.734   2.506  14.690 -0.1319 -0.2222  0.2880
  533TMC3    C6 7913   2.855   2.481  14.637  0.7284 -0.3078  0.3551
  533TMC3     C 7914   2.568   2.291  14.499 -0.3425  0.5154 -0.9408
  533TMC3     O 7915   2.636   2.195  14.460 -0.2680 -0.3560  0.0390
  533TMC3     H 7916   2.763   2.358  14.339  0.3037 -1.1707  0.8693
  533TMC3    H1 7917   2.536   2.485  14.680 -1.0834 -0.6950 -0.1183
  533TMC3    H2 7918   2.940   2.511  14.697 -0.3793  4.2941 -0.3780
  533TMC3    C7 7919   2.725   2.471  14.831 -0.7891  0.3708 -0.2048
  533TMC3    C8 7920   2.977   2.483  14.438 -0.9904  0.4815  0.6142
  533TMC3    O1 7921   2.792   2.374  14.862 -0.4575 -0.3248 -0.4151
  533TMC3    O2 7922   3.090   2.450  14.480  0.7427 -0.2932  0.0458
  534MPD2     C 7923   0.037   3.321   2.556 -0.3819 -0.5852  0.3671
  534MPD2    C1 7924   0.086   3.314   2.426  0.8162 -0.6178 -0.0439
  534MPD2    C2 7925   0.063   3.201   2.355  0.2346  0.1750  0.8243
  534MPD2    C3 7926   0.005   3.088   2.411  0.5062  1.2556  0.5577
  534MPD2    C4 7927   4.672   3.097   2.535  0.7331  0.4420  0.5496
  534MPD2    C5 7928   4.697   3.210   2.611 -0.9906 -0.1535  0.2815
  534MPD2     H 7929   0.107   3.196   2.256 -2.8406  0.5409 -0.5437
  534MPD2    H1 7930   4.611   3.014   2.569 -1.4614  1.4696 -0.9210
  534MPD2    H2 7931   0.057   3.414   2.606 -2.7123  0.4385 -0.6184
  534MPD2    H3 7932   4.663   3.208   2.714 -0.5485  2.3286  0.4752
  534MPD2     N 7933   4.711   2.972   2.333  0.1666  0.8025  0.2555
  534MPD2    H5 7934   4.636   2.907   2.354 -1.3984  1.7331 -2.4695
  534MPD2    N1 7935   0.151   3.416   2.353  0.4857  0.3839  0.3171
  534MPD2    H7 7936   0.164   3.397   2.254  1.1170  0.5322  0.3746
  535TMC3    C1 7937   0.018   2.836   2.143 -0.8874  0.6346 -0.6814
  535TMC3    C2 7938   4.670   2.727   2.186 -0.2209  0.9275  0.5362
  535TMC3    C3 7939   4.633   2.638   2.090 -0.2139  0.6710  0.6836
  535TMC3    C4 7940   0.029   2.874   2.014  0.3801 -0.2969 -0.9770
  535TMC3    C5 7941   4.717   2.779   1.919 -0.1413  0.9957 -0.4250
  535TMC3    C6 7942   4.660   2.666   1.961 -0.2809 -0.4691  0.4299
  535TMC3     C 7943   0.077   2.933   2.232 -0.3639  0.1934  0.3446
  535TMC3     O 7944   0.175   2.996   2.193  0.5479  0.0901  0.0675
  535TMC3     H 7945   4.694   2.713   2.290  0.5249  0.3972  0.2952
  535TMC3    H1 7946   0.086   2.961   1.984  0.4842  0.5938  1.7971
  535TMC3    H2 7947   4.619   2.594   1.891  1.4239  0.2425 -1.3094
  535TMC3    C7 7948   4.694   2.826   1.786  1.0654  0.5616 -0.0096
  535TMC3    C8 7949   4.497   2.581   2.112  0.3906 -0.2873  0.5082
  535TMC3    O1 7950   4.688   2.752   1.685  0.1776  0.4355  1.3576
  535TMC3    O2 7951   4.449   2.508   2.031  0.0566 -0.4849  0.0296
  536MPD2     C 7952   2.999   1.029  16.473 -0.1064 -0.0521  0.1640
  536MPD2    C1 7953   3.050   1.140  16.516  0.4102  0.3842 -0.6275
  536MPD2    C2 7954   3.032   1.251  16.431 -0.1976  0.9419 -0.5986
  536MPD2    C3 7955   2.970   1.244  16.303 -0.6685  0.7394  0.0137
  536MPD2    C4 7956   2.908   1.126  16.280  0.7684 -0.5700  0.3262
  536MPD2    C5 7957   2.915   1.029  16.366 -0.6738  0.2240  0.2584
  536MPD2     H 7958   3.083   1.344  16.456 -0.8750  1.3768 -0.8467
  536MPD2    H1 7959   2.852   1.094  16.194  1.8206 -2.2213  0.2562
  536MPD2    H2 7960   3.022   0.937  16.527  0.0303 -0.0932  0.0349
  536MPD2    H3 7961   2.867   0.936  16.338  1.0833  0.0930 -2.3493
  536MPD2     N 7962   2.970   1.350  16.214  0.0346  0.3252 -0.2354
  536MPD2    H5 7963   3.026   1.431  16.237  3.7068 -1.7344 -1.9921
  536MPD2    N1 7964   3.123   1.146  16.644 -0.1253 -0.1142  0.0094
  536MPD2    H7 7965   3.106   1.071  16.710 -0.8845  0.8039  0.8738
  537TMC3    C1 7966   3.239   1.240  16.823  0.8404  0.3563  0.3962
  537TMC3    C2 7967   3.291   1.355  16.877  0.6057  0.4128 -0.0527
  537TMC3    C3 7968   3.345   1.349  17.002 -0.9700  0.2085 -0.2205
  537TMC3    C4 7969   3.268   1.120  16.888 -0.0389 -0.0763  0.8693
  537TMC3    C5 7970   3.312   1.118  17.016  0.4055 -0.4288 -0.0392
  537TMC3    C6 7971   3.357   1.235  17.075  0.9230 -0.5004 -0.2954
  537TMC3     C 7972   3.203   1.252  16.685 -0.1638 -0.5205 -0.5539
  537TMC3     O 7973   3.244   1.349  16.622  0.2077  0.3128 -0.1568
  537TMC3     H 7974   3.256   1.449  16.837  0.5059  1.4034  2.3287
  537TMC3    H1 7975   3.244   1.024  16.842 -2.3084  0.9934 -0.1871
  537TMC3    H2 7976   3.383   1.227  17.180  1.2642 -3.0224 -0.5626
  537TMC3    C7 7977   3.308   1.001  17.090  0.0144  0.5173 -0.1893
  537TMC3    C8 7978   3.415   1.469  17.045 -0.2436 -0.2408  0.0968
  537TMC3    O1 7979   3.206   0.934  17.099  0.2693 -0.1240  0.0219
  537TMC3    O2 7980   3.499   1.453  17.135  0.0580 -0.1368  0.3184
  538TMC3    C1 7981   0.061   4.334  10.939 -0.3480 -0.0226  1.1650
  538TMC3    C2 7982   0.116   4.259  10.841 -0.8222 -0.4724 -1.2530
  538TMC3    C3 7983   0.047   4.255  10.721 -0.3386 -0.3183  0.2818
  538TMC3    C4 7984   4.667   4.406  10.919  0.6647  0.5958 -0.4134
  538TMC3    C5 7985   4.616   4.416  10.798  0.1669  0.1157 -0.1887
  538TMC3    C6 7986   4.656   4.337  10.693 -0.0654 -0.4129  0.7225
  538TMC3     C 7987   0.135   4.382  11.064  1.2724  0.1082 -0.9653
  538TMC3     O 7988   0.080   4.442  11.149  0.1492  0.1362 -0.0343
  538TMC3     H 7989   0.195   4.186  10.848 -1.8456 -1.1949  2.4708
  538TMC3    H1 7990   4.625   4.463  11.002 -0.7780  0.4754 -1.0714
  538TMC3    H2 7991   4.596   4.336  10.602  0.5458  0.2249  0.3094
  538TMC3    C7 7992   4.477   4.482  10.795 -1.2637 -0.7979 -0.0533
  538TMC3    C8 7993   0.132   4.233  10.608 -0.9244 -0.4369  0.0145
  538TMC3    O1 7994   4.386   4.418  10.744 -0.3684 -0.0655  0.3336
  538TMC3    O2 7995   0.223   4.145  10.613 -0.1154  0.2505  0.1886
  539MPD2     C 7996   4.606   3.972  11.943  0.0821  1.1491  0.3161
  539MPD2    C1 7997   4.608   3.938  11.809 -0.1278  0.4445  0.1279
  539MPD2    C2 7998   4.519   4.005  11.718 -0.3266 -0.0774 -0.3152
  539MPD2    C3 7999   4.433   4.105  11.760  0.3075  0.1218  0.3357
  539MPD2    C4 8000   4.438   4.134  11.894 -0.3562  0.2666 -0.7255
  539MPD2    C5 8001   4.524   4.070  11.984  0.4812  0.3071 -0.1097
  539MPD2     H 8002   4.504   3.977  11.614 -3.2596 -2.6706  0.8093
  539MPD2    H1 8003   4.374   4.214  11.929 -0.5419 -0.0299 -0.3750
  539MPD2    H2 8004   4.679   3.938  12.015 -0.4121  0.0535  0.3073
  539MPD2    H3 8005   4.528   4.109  12.085 -1.1616 -1.1433  0.5090
  539MPD2     N 8006   4.345   4.174  11.671 -0.4365 -0.3973  0.2439
  539MPD2    H5 8007   4.262   4.221  11.703  0.4775  1.3758  0.0153
  539MPD2    N1 8008   4.702   3.847  11.755  0.1974 -0.3482 -0.0558
  539MPD2    H7 8009   4.696   3.825  11.656 -1.9296  0.2742 -0.0830
  540TMC3    C1 8010   4.252   4.266  11.480  0.2712 -0.4488  0.2719
  540TMC3    C2 8011   4.211   4.240  11.352 -0.5072  1.1132  0.0899
  540TMC3    C3 8012   4.107   4.312  11.305 -0.1650  0.1175 -0.8233
  540TMC3    C4 8013   4.192   4.365  11.558  0.0682  0.5654 -0.0581
  540TMC3    C5 8014   4.089   4.438  11.501  0.1079 -0.2136 -0.2018
  540TMC3    C6 8015   4.045   4.408  11.379 -0.5964 -0.5657 -0.3111
  540TMC3     C 8016   4.361   4.195  11.541  0.1281 -0.4251 -0.3223
  540TMC3     O 8017   4.453   4.157  11.470 -0.2068 -0.5045  0.2974
  540TMC3     H 8018   4.268   4.169  11.293  1.7099  2.6257  0.4156
  540TMC3    H1 8019   4.234   4.398  11.652  0.2224 -2.3645  0.9316
  540TMC3    H2 8020   3.959   4.460  11.338 -0.7248  0.2791  1.0231
  540TMC3    C7 8021   3.991   4.506  11.577 -0.0368  0.8293  0.4532
  540TMC3    C8 8022   4.074   4.320  11.164 -0.7890  0.2222 -0.5087
  540TMC3    O1 8023   3.876   4.520  11.536  0.9079  0.1841  0.1980
  540TMC3    O2 8024   4.009   4.414  11.120 -0.5665 -0.8609  0.1497
  541MPD2     C 8025   3.118   0.259  13.151  0.0299  0.1440 -0.3206
  541MPD2    C1 8026   2.982   0.270  13.155  0.9063 -0.3463  0.0467
  541MPD2    C2 8027   2.915   0.345  13.063 -0.3359 -0.2596 -0.2972
  541MPD2    C3 8028   2.985   0.432  12.973  0.3000 -0.2847 -0.1294
  541MPD2    C4 8029   3.128   0.429  12.984 -0.0773 -0.6282 -0.3823
  541MPD2    C5 8030   3.183   0.331  13.058  0.4393 -0.2663 -0.2076
  541MPD2     H 8031   2.807   0.346  13.054 -0.3426 -3.6593 -0.6273
  541MPD2    H1 8032   3.192   0.490  12.921  0.7727 -0.7184  0.3791
  541MPD2    H2 8033   3.174   0.194  13.217 -1.0064  0.7095  1.1214
  541MPD2    H3 8034   3.290   0.314  13.055 -0.1284 -3.2685 -3.2076
  541MPD2     N 8035   2.937   0.519  12.879 -0.5918  0.5037 -0.1255
  541MPD2    H5 8036   3.003   0.578  12.830  0.1623 -0.6934 -0.5439
  541MPD2    N1 8037   2.917   0.175  13.238  0.0916  0.4241 -0.0599
  541MPD2    H7 8038   2.975   0.104  13.282  0.3899  1.2784  0.9296
  542TMC3    C1 8039   2.794   0.655  12.761 -0.2883 -0.7204  1.2077
  542TMC3    C2 8040   2.857   0.642  12.634  0.6813 -0.7372 -0.2764
  542TMC3    C3 8041   2.790   0.680  12.522  0.5405  0.3123 -0.1058
  542TMC3    C4 8042   2.674   0.708  12.778  0.4281 -0.6116  0.1499
  542TMC3    C5 8043   2.621   0.761  12.662 -0.2487 -0.2879  0.0473
  542TMC3    C6 8044   2.672   0.741  12.537 -0.0013  0.2971 -0.6558
  542TMC3     C 8045   2.805   0.539  12.848  0.3825  0.1361  0.7562
  542TMC3     O 8046   2.710   0.497  12.911  0.2288 -0.3347 -0.3356
  542TMC3     H 8047   2.957   0.603  12.620  0.2600 -1.4902 -1.1719
  542TMC3    H1 8048   2.624   0.704  12.875  0.7278  0.7918  0.3604
  542TMC3    H2 8049   2.624   0.785  12.451  0.9428  0.5419 -1.0541
  542TMC3    C7 8050   2.491   0.832  12.663 -0.3435 -0.0336  0.1166
  542TMC3    C8 8051   2.853   0.665  12.388 -0.3572 -0.7639  0.3849
  542TMC3    O1 8052   2.446   0.875  12.557  0.3757  0.6498  0.5654
  542TMC3    O2 8053   2.770   0.668  12.302  0.0013  0.1977  0.2509
  543TMC3    C1 8054   2.194   1.419  17.075  0.0530  0.6338  0.8086
  543TMC3    C2 8055   2.268   1.313  17.037 -0.2519  0.1587  0.1052
  543TMC3    C3 8056   2.250   1.194  17.097  0.0178 -0.7332 -0.5592
  543TMC3    C4 8057   2.100   1.402  17.174  0.4523 -0.1721 -0.1800
  543TMC3    C5 8058   2.092   1.281  17.237  0.4576 -0.0720  0.5061
  543TMC3    C6 8059   2.150   1.168  17.191 -0.8201 -0.0910  0.2750
  543TMC3     C 8060   2.251   1.552  17.062 -0.3448  0.0008  0.1020
  543TMC3     O 8061   2.370   1.552  17.035 -0.3447  0.4108 -0.3809
  543TMC3     H 8062   2.356   1.332  16.976  0.9831  1.7790  2.4044
  543TMC3    H1 8063   2.048   1.488  17.214  0.7437 -0.0012 -0.1662
  543TMC3    H2 8064   2.126   1.067  17.221 -2.9985  0.1266 -0.7045
  543TMC3    C7 8065   2.034   1.283  17.375  0.0501 -0.4729 -0.3977
  543TMC3    C8 8066   2.358   1.100  17.091  0.0309 -0.3422 -0.0107
  543TMC3    O1 8067   1.954   1.372  17.408  0.0353  0.1215  0.5616
  543TMC3    O2 8068   2.338   0.986  17.126 -0.1453  0.2909  0.7220
  544MPD2     C 8069   2.842   0.987  17.040  0.3381  0.8019 -0.3763
  544MPD2    C1 8070   2.733   0.904  17.039 -0.4706  0.3206 -0.0155
  544MPD2    C2 8071   2.612   0.966  17.037  0.3425 -0.2896 -0.7347
  544MPD2    C3 8072   2.598   1.100  17.071  0.0409 -0.5016  0.6141
  544MPD2    C4 8073   2.705   1.185  17.075 -0.2340  0.3507  0.4155
  544MPD2    C5 8074   2.831   1.122  17.058 -0.4511 -0.3956  0.3517
  544MPD2     H 8075   2.523   0.908  17.014 -1.1988  2.8561 -2.7813
  544MPD2    H1 8076   2.702   1.292  17.088  0.3753  0.3065  0.9380
  544MPD2    H2 8077   2.943   0.950  17.031  0.0559  0.5345 -2.4366
  544MPD2    H3 8078   2.920   1.184  17.056 -1.1181  0.5641  0.4010
  544MPD2     N 8079   2.475   1.161  17.074  0.0686 -0.5283 -0.0184
  544MPD2    H5 8080   2.472   1.262  17.089 -2.5542 -0.3628 -1.6420
  544MPD2    N1 8081   2.755   0.769  17.004  0.2000  0.2814 -0.1487
  544MPD2    H7 8082   2.849   0.749  16.971  0.0529  0.6845 -0.8073
  545TMC3    C1 8083   2.685   0.574  16.886  0.4993  0.2025 -0.2381
  545TMC3    C2 8084   2.587   0.520  16.801 -0.0773  0.3381  0.2866
  545TMC3    C3 8085   2.604   0.389  16.761 -0.2155 -0.5962 -0.2756
  545TMC3    C4 8086   2.787   0.492  16.938  0.1623 -0.0212 -0.4031
  545TMC3    C5 8087   2.800   0.365  16.894 -0.3076  0.3389 -0.6138
  545TMC3    C6 8088   2.710   0.306  16.806  0.0198 -0.0216 -0.6153
  545TMC3     C 8089   2.651   0.681  16.975  0.9338  0.1907  0.5631
  545TMC3     O 8090   2.533   0.695  16.989 -0.3133  0.7725 -1.0172
  545TMC3     H 8091   2.503   0.581  16.769 -1.2876 -1.4957 -0.0398
  545TMC3    H1 8092   2.858   0.521  17.015  0.8032  1.7319 -1.6633
  545TMC3    H2 8093   2.721   0.200  16.789  0.7267 -0.0514  0.0424
  545TMC3    C7 8094   2.869   0.278  16.995 -0.1311 -0.0131 -0.2251
  545TMC3    C8 8095   2.505   0.342  16.669  0.0901  0.0898 -0.1966
  545TMC3    O1 8096   2.862   0.306  17.113 -0.0075 -0.4843 -0.0148
  545TMC3    O2 8097   2.445   0.423  16.597 -0.2445  0.4507  0.0112
  546MPD2     C 8098   4.039   2.203   0.030  0.0258 -1.1994 -0.3434
  546MPD2    C1 8099   3.972   2.190  17.598  0.4576  0.3276 -0.4794
  546MPD2    C2 8100   3.994   2.283  17.507  0.4221  0.0679 -0.1254
  546MPD2    C3 8101   4.064   2.399  17.531 -0.9736 -0.1977 -0.5363
  546MPD2    C4 8102   4.132   2.411  17.647  0.4650 -0.0695 -0.1760
  546MPD2    C5 8103   4.106   2.322   0.057  0.3137 -0.3974 -0.0326
  546MPD2     H 8104   3.940   2.272  17.413  0.9075  0.3167 -0.4316
  546MPD2    H1 8105   4.203   2.490  17.669  1.5525 -0.9625 -0.4923
  546MPD2    H2 8106   4.024   2.136   0.115 -0.5732 -2.0002 -1.0828
  546MPD2    H3 8107   4.156   2.342   0.151 -2.0892  0.7585  1.0124
  546MPD2     N 8108   4.082   2.503  17.436 -0.1261 -0.0157  0.5268
  546MPD2    H5 8109   4.142   2.579  17.467 -1.0796  1.7642 -1.9982
  546MPD2    N1 8110   3.866   2.090  17.590 -0.2139  0.3110 -0.0849
  546MPD2    H7 8111   3.856   2.036  17.675 -1.2437 -0.4731 -0.7098
  547TMC3    C1 8112   3.713   1.945  17.484  0.2308  0.3270  0.2587
  547TMC3    C2 8113   3.617   1.935  17.390  0.1493 -0.5073 -0.1201
  547TMC3    C3 8114   3.536   1.823  17.401 -0.0486  0.0495 -0.6130
  547TMC3    C4 8115   3.729   1.852  17.582  0.2683 -0.7843 -0.0477
  547TMC3    C5 8116   3.643   1.751  17.590 -0.5779 -0.4595 -0.0568
  547TMC3    C6 8117   3.548   1.733  17.499  0.3442 -0.2358  0.2012
  547TMC3     C 8118   3.806   2.058  17.475  0.1026  0.4883  0.3134
  547TMC3     O 8119   3.815   2.103  17.361  0.0980 -0.2324 -0.1536
  547TMC3     H 8120   3.600   2.012  17.315 -1.4056  0.7340  1.4924
  547TMC3    H1 8121   3.809   1.860  17.655  0.2717 -0.8128 -0.0483
  547TMC3    H2 8122   3.460   1.672  17.516  0.9727 -1.1793  0.0629
  547TMC3    C7 8123   3.626   1.687   0.032  0.4900 -0.2350 -0.1377
  547TMC3    C8 8124   3.407   1.836  17.337 -0.7618 -0.1115 -0.0118
  547TMC3    O1 8125   3.664   1.733   0.133 -0.0003  0.5688 -0.1610
  547TMC3    O2 8126   3.381   1.941  17.284  0.3639  0.0909 -0.3773
  548MPD2     C 8127   3.640   2.428  12.329 -0.5744  0.2563  0.1463
  548MPD2    C1 8128   3.592   2.358  12.435  0.4198 -0.0365 -0.3013
  548MPD2    C2 8129   3.615   2.222  12.443  0.1829 -0.4344 -0.2880
  548MPD2    C3 8130   3.661   2.155  12.337  0.4975  0.0835 -0.0590
  548MPD2    C4 8131   3.703   2.230  12.228 -0.3775 -0.3782  0.4331
  548MPD2    C5 8132   3.697   2.366  12.221 -0.6229 -0.0250  0.6567
  548MPD2     H 8133   3.604   2.166  12.534  0.1022 -1.2077 -0.7755
  548MPD2    H1 8134   3.746   2.179  12.143  1.8569  1.4713  0.4452
  548MPD2    H2 8135   3.606   2.531  12.325  0.8105  0.6324 -1.6763
  548MPD2    H3 8136   3.734   2.421  12.135  2.2331  2.7106  3.6208
  548MPD2     N 8137   3.676   2.016  12.332 -0.5034 -0.2044  0.2924
  548MPD2    H5 8138   3.734   1.974  12.260 -2.8565  0.0820 -1.7452
  548MPD2    N1 8139   3.529   2.423  12.544  0.2852 -0.1344  0.2336
  548MPD2    H7 8140   3.518   2.524  12.544  1.2134 -0.0449 -1.4833
  549TMC3    C1 8141   3.403   2.449  12.746 -0.2160  0.1644 -0.3449
  549TMC3    C2 8142   3.324   2.546  12.696  0.1801 -0.3841 -0.0810
  549TMC3    C3 8143   3.219   2.595  12.765  0.3957 -0.4878  0.0712
  549TMC3    C4 8144   3.371   2.396  12.862  0.7729 -0.1222  0.6557
  549TMC3    C5 8145   3.252   2.427  12.922 -0.3780  0.8118 -0.1587
  549TMC3    C6 8146   3.174   2.528  12.875  0.4045  0.1286 -0.0159
  549TMC3     C 8147   3.476   2.361  12.659  0.4476  0.1482  0.5569
  549TMC3     O 8148   3.501   2.250  12.706 -0.6778  0.3342 -0.5095
  549TMC3     H 8149   3.328   2.576  12.592  1.7936 -1.7842 -0.4093
  549TMC3    H1 8150   3.439   2.322  12.902 -0.1738 -1.0493  0.5310
  549TMC3    H2 8151   3.086   2.552  12.933 -1.3259 -1.6151 -1.9119
  549TMC3    C7 8152   3.205   2.341  13.028  0.4995 -0.2408 -0.2421
  549TMC3    C8 8153   3.121   2.677  12.702 -0.1306  0.3605 -0.2892
  549TMC3    O1 8154   3.112   2.377  13.096 -0.1981  0.2286 -0.6765
  549TMC3    O2 8155   3.000   2.669  12.726 -0.3957 -0.6573  0.4487
  550TMC3    C1 8156   1.745   0.448  12.780  0.2254 -0.4949  0.0616
  550TMC3    C2 8157   1.798   0.512  12.891 -0.4095  0.9591  0.4288
  550TMC3    C3 8158   1.842   0.642  12.868 -0.6825  0.1088 -0.0507
  550TMC3    C4 8159   1.775   0.494  12.653 -0.8791  0.5043  0.5553
  550TMC3    C5 8160   1.813   0.622  12.638 -0.0739 -0.2823 -0.3023
  550TMC3    C6 8161   1.833   0.701  12.747  0.1792 -0.0800  0.1653
  550TMC3     C 8162   1.665   0.329  12.792 -0.1533 -0.3681 -0.0786
  550TMC3     O 8163   1.674   0.264  12.898  0.1662  0.4498  0.0556
  550TMC3     H 8164   1.788   0.464  12.987 -2.6908 -1.7744 -1.1789
  550TMC3    H1 8165   1.752   0.435  12.566 -2.8436  1.7695  0.2117
  550TMC3    H2 8166   1.868   0.803  12.742  0.7143 -0.2174  1.0818
  550TMC3    C7 8167   1.806   0.673  12.506 -0.7404  0.1500 -0.7350
  550TMC3    C8 8168   1.818   0.739  12.976 -0.7156 -0.1488 -0.2192
  550TMC3    O1 8169   1.770   0.789  12.493 -0.1481 -0.6759  0.1071
  550TMC3    O2 8170   1.813   0.856  12.956  0.1304 -0.1022  0.1928
  551TMC3    C1 8171   4.341   2.934  13.194 -0.5171  0.4038 -0.6149
  551TMC3    C2 8172   4.440   2.967  13.105 -0.5395  0.1689 -0.2924
  551TMC3    C3 8173   4.531   3.056  13.136  0.9528 -0.1039  0.1676
  551TMC3    C4 8174   4.340   2.979  13.319  0.6955  0.1846 -0.0312
  551TMC3    C5 8175   4.446   3.055  13.354  0.6130 -0.6083  0.4523
  551TMC3    C6 8176   4.538   3.101  13.263 -0.1165 -0.2945  0.7241
  551TMC3     C 8177   4.226   2.869  13.129 -0.1115  0.1490 -0.3592
  551TMC3     O 8178   4.243   2.816  13.023  0.0045 -0.9709 -0.0357
  551TMC3     H 8179   4.452   2.911  13.012 -2.6901  0.6950 -0.8669
  551TMC3    H1 8180   4.274   2.938  13.395  0.8449  1.1534  0.6123
  551TMC3    H2 8181   4.614   3.173  13.292  0.6864 -0.9710  0.3185
  551TMC3    C7 8182   4.470   3.096  13.489  0.0693  0.2196 -0.2233
  551TMC3    C8 8183   4.645   3.071  13.052  0.0700 -0.3404 -0.3280
  551TMC3    O1 8184   4.550   3.185  13.516  0.0975  0.3926 -0.3451
  551TMC3    O2 8185   4.701   2.978  12.993 -0.4445 -0.4304  0.5742
  552MPD2     C 8186   1.586   0.459  13.976  1.1173  0.6121  0.0407
  552MPD2    C1 8187   1.592   0.324  13.961 -0.7103  0.6399 -0.8489
  552MPD2    C2 8188   1.700   0.257  14.014  0.4366  0.2124  0.1075
  552MPD2    C3 8189   1.791   0.329  14.088  0.8091 -0.0968 -0.3194
  552MPD2    C4 8190   1.779   0.464  14.099  0.3160 -0.1324 -0.1620
  552MPD2    C5 8191   1.678   0.532  14.041  0.2800 -0.4209 -0.3158
  552MPD2     H 8192   1.707   0.149  14.000  0.9909  0.2304  0.2522
  552MPD2    H1 8193   1.853   0.522  14.155 -0.2853  0.1651  0.3233
  552MPD2    H2 8194   1.513   0.517  13.919 -0.1600  0.2572  1.2950
  552MPD2    H3 8195   1.684   0.640  14.030 -4.4707 -0.1679 -0.2460
  552MPD2     N 8196   1.902   0.266  14.164  1.0352 -0.7745 -0.2620
  552MPD2    H5 8197   1.947   0.330  14.228 -3.2968  2.5849 -0.6026
  552MPD2    N1 8198   1.505   0.256  13.880 -0.1120  1.2185 -0.6492
  552MPD2    H7 8199   1.535   0.161  13.859 -1.7645  0.2528  1.3949
  553TMC3    C1 8200   1.317   0.217  13.737  0.1457 -0.2720 -0.6285
  553TMC3    C2 8201   1.259   0.262  13.623  0.0449 -0.0164  0.0183
  553TMC3    C3 8202   1.188   0.175  13.546  0.6373 -0.3925  0.5096
  553TMC3    C4 8203   1.297   0.093  13.785 -0.3875 -0.5493  0.1656
  553TMC3    C5 8204   1.207   0.020  13.718  0.7148 -0.2834 -1.4453
  553TMC3    C6 8205   1.146   0.055  13.601  0.2209  0.8467 -0.4626
  553TMC3     C 8206   1.397   0.316  13.816  0.1352 -0.3929  0.3785
  553TMC3     O 8207   1.353   0.431  13.807 -0.3673  0.0344 -0.3643
  553TMC3     H 8208   1.280   0.361  13.585 -1.7476 -0.0697 -1.0952
  553TMC3    H1 8209   1.344   0.052  13.874 -0.0604  0.3490  0.4063
  553TMC3    H2 8210   1.096   4.703  13.539 -1.4095  1.0087  0.6482
  553TMC3    C7 8211   1.210   4.593  13.732 -0.0410 -0.0344  0.1594
  553TMC3    C8 8212   1.246   0.176  13.409 -0.2429 -0.4341  0.1410
  553TMC3    O1 8213   1.111   4.534  13.690  0.7693 -0.2130 -0.1989
  553TMC3    O2 8214   1.330   0.264  13.390 -0.3837 -0.0814 -0.1387
  554TMC3    C1 8215   3.504   3.646  11.387  0.2094  0.1040  0.3707
  554TMC3    C2 8216   3.438   3.605  11.285  0.3433  0.1870  0.6793
  554TMC3    C3 8217   3.513   3.606  11.169 -0.1082 -0.6556 -0.7352
  554TMC3    C4 8218   3.627   3.707  11.384 -0.0016  0.2952  0.1585
  554TMC3    C5 8219   3.690   3.727  11.269 -0.4187 -0.1973 -0.5527
  554TMC3    C6 8220   3.638   3.662  11.163 -0.2442  0.7211  0.0003
  554TMC3     C 8221   3.443   3.621  11.516 -0.6202 -0.3582  0.0996
  554TMC3     O 8222   3.322   3.607  11.532  0.0901  0.1299 -0.1729
  554TMC3     H 8223   3.338   3.565  11.298  0.6590 -0.1850  2.0161
  554TMC3    H1 8224   3.681   3.752  11.467  0.1659  1.6751 -0.6892
  554TMC3    H2 8225   3.694   3.657  11.070 -0.1172  1.7017  0.0329
  554TMC3    C7 8226   3.731   3.870  11.234  0.1151 -0.4172  0.4296
  554TMC3    C8 8227   3.444   3.586  11.042  0.1576  0.1061  0.2987
  554TMC3    O1 8228   3.773   3.897  11.123  0.5138 -0.5251 -0.6200
  554TMC3    O2 8229   3.481   3.666  10.958  0.3931 -0.0255 -0.7231
  555TMC3    C1 8230   2.485   3.459  14.859  0.1511  0.3218  0.2395
  555TMC3    C2 8231   2.403   3.512  14.954 -0.0101  0.5698  0.1366
  555TMC3    C3 8232   2.459   3.526  15.072 -0.0219 -0.6801  0.4606
  555TMC3    C4 8233   2.617   3.414  14.878  0.6106  0.4765  0.9913
  555TMC3    C5 8234   2.668   3.428  15.000  0.0709 -1.2355 -0.0391
  555TMC3    C6 8235   2.590   3.496  15.090  0.2541  0.1354 -0.1183
  555TMC3     C 8236   2.454   3.478  14.718  0.2640  0.6326  0.3255
  555TMC3     O 8237   2.540   3.503  14.638  0.3237  0.2215 -0.4282
  555TMC3     H 8238   2.297   3.533  14.944 -0.0815 -0.5728 -1.4223
  555TMC3    H1 8239   2.671   3.361  14.800 -1.8162 -1.0905  0.3844
  555TMC3    H2 8240   2.640   3.515  15.184  2.1042  0.3631 -1.1478
  555TMC3    C7 8241   2.721   3.308  15.064 -0.0398  0.1231 -0.3116
  555TMC3    C8 8242   2.376   3.491  15.184  0.2211 -0.2053  0.0853
  555TMC3    O1 8243   2.687   3.292  15.182  0.2629 -0.1360  0.0418
  555TMC3    O2 8244   2.263   3.530  15.197 -0.2964 -0.0457  0.7111
  556MPD2     C 8245   0.475   0.824  10.574  0.0111 -0.2019  0.6734
  556MPD2    C1 8246   0.419   0.719  10.634  0.1111  0.5196 -0.3724
  556MPD2    C2 8247   0.382   0.614  10.548  0.3080 -0.0945 -0.0172
  556MPD2    C3 8248   0.399   0.614  10.411  0.0903 -0.1109 -0.5822
  556MPD2    C4 8249   0.460   0.722  10.354 -0.1582  0.2709 -0.1814
  556MPD2    C5 8250   0.485   0.831  10.441  0.3353 -0.3711  0.0539
  556MPD2     H 8251   0.340   0.524  10.593 -0.0261 -0.2137 -0.5656
  556MPD2    H1 8252   0.470   0.728  10.246  0.5142  0.0174 -0.1313
  556MPD2    H2 8253   0.512   0.911  10.627 -0.2139  0.0586  0.4017
  556MPD2    H3 8254   0.543   0.909  10.393  0.4043  0.1533  0.9943
  556MPD2     N 8255   0.354   0.505  10.334  0.9120  0.1191 -0.9436
  556MPD2    H5 8256   0.306   0.439  10.394  2.8978 -1.9759 -1.6061
  556MPD2    N1 8257   0.400   0.698  10.780 -0.1049 -0.4407 -0.4934
  556MPD2    H7 8258   0.378   0.607  10.819  0.7163 -0.1037  0.7442
  557TMC3    C1 8259   0.290   0.378  10.148 -0.5164  0.2258 -0.6871
  557TMC3    C2 8260   0.268   0.372  10.014  1.1270  0.6432  0.0839
  557TMC3    C3 8261   0.241   0.253   9.952  0.8044  0.2060  1.1842
  557TMC3    C4 8262   0.295   0.256  10.218 -0.2752 -0.1274 -0.1443
  557TMC3    C5 8263   0.277   0.134  10.148  0.3907  0.7710 -0.0528
  557TMC3    C6 8264   0.247   0.132  10.014 -0.4843 -0.1589  0.4062
  557TMC3     C 8265   0.351   0.498  10.190  0.4617 -0.2375 -0.2739
  557TMC3     O 8266   0.396   0.580  10.110 -0.2090 -0.3376 -0.1925
  557TMC3     H 8267   0.284   0.460   9.954  1.6891  0.0671 -0.6188
  557TMC3    H1 8268   0.310   0.249  10.325  0.0040  0.0133 -0.1755
  557TMC3    H2 8269   0.226   0.043   9.956  1.0039  0.6168 -1.3470
  557TMC3    C7 8270   0.253   0.011  10.224  0.1126 -0.3640 -0.1272
  557TMC3    C8 8271   0.203   0.270   9.813 -0.6903  0.6840  0.0299
  557TMC3    O1 8272   0.245   0.028  10.346  0.4803 -0.3441 -0.3078
  557TMC3    O2 8273   0.188   0.387   9.776 -0.0001 -0.6000  0.4938
  558TMC3    C1 8274   3.791   2.899   9.904 -0.6204 -0.0698 -0.1633
  558TMC3    C2 8275   3.670   2.909   9.976 -0.0564  0.4415 -0.2836
  558TMC3    C3 8276   3.583   3.009   9.942  0.2882 -0.4812 -0.0125
  558TMC3    C4 8277   3.821   2.986   9.800  0.1841 -0.2195 -0.1406
  558TMC3    C5 8278   3.732   3.092   9.781  0.3270 -0.1755  0.3421
  558TMC3    C6 8279   3.607   3.096   9.838  0.4282  0.0309 -0.0207
  558TMC3     C 8280   3.905   2.816   9.955 -0.4266  1.6982 -0.0363
  558TMC3     O 8281   4.018   2.859   9.938  0.4899 -0.5854 -0.0017
  558TMC3     H 8282   3.646   2.842  10.058  1.3890 -1.3196 -1.3042
  558TMC3    H1 8283   3.909   2.974   9.738  0.9025  0.9276  0.6650
  558TMC3    H2 8284   3.531   3.172   9.821 -1.2119 -1.6511 -0.1653
  558TMC3    C7 8285   3.712   3.127   9.637 -0.1309 -0.2000  0.4088
  558TMC3    C8 8286   3.435   2.988   9.975  0.7091  0.2314  0.3972
  558TMC3    O1 8287   3.665   3.238   9.623  0.2956  0.3219  0.4206
  558TMC3    O2 8288   3.351   3.057   9.917  0.2648 -0.4697  0.1125
  559MPD2     C 8289   3.268   3.140  10.267 -0.0702  0.0601 -0.5337
  559MPD2    C1 8290   3.228   3.077  10.389 -0.7343 -0.4319  0.2070
  559MPD2    C2 8291   3.314   3.086  10.500 -0.6911 -0.0874 -0.1278
  559MPD2    C3 8292   3.428   3.161  10.505 -0.2038  0.5825  0.2190
  559MPD2    C4 8293   3.458   3.228  10.388  0.3778 -0.4982 -0.5651
  559MPD2    C5 8294   3.384   3.213  10.272 -0.0660  0.3711  0.2262
  559MPD2     H 8295   3.294   3.014  10.579 -0.1013  0.3227  0.3962
  559MPD2    H1 8296   3.544   3.294  10.389 -0.6600  0.8825 -3.4717
  559MPD2    H2 8297   3.231   3.124  10.167  0.6783 -0.2366 -0.7675
  559MPD2    H3 8298   3.413   3.260  10.179 -1.4754 -0.2590 -0.5312
  559MPD2     N 8299   3.501   3.173  10.624  0.0581  0.6758 -0.3827
  559MPD2    H5 8300   3.463   3.121  10.703  0.3370  1.1936  0.0911
  559MPD2    N1 8301   3.103   3.000  10.390 -1.1583  0.0041 -0.9440
  559MPD2    H7 8302   3.047   3.016  10.307  1.3240 -2.9655 -3.1979
  560TMC3    C1 8303   3.621   3.259  10.797  0.6185 -0.5714 -0.0354
  560TMC3    C2 8304   3.536   3.193  10.878 -1.1518  0.5366  0.0836
  560TMC3    C3 8305   3.573   3.193  11.008 -0.7689  0.2597  0.3368
  560TMC3    C4 8306   3.736   3.333  10.843  0.3280 -0.3198  0.2857
  560TMC3    C5 8307   3.770   3.313  10.974  0.2777  0.5947 -0.7488
  560TMC3    C6 8308   3.691   3.245  11.060  0.0895 -0.4080  0.1381
  560TMC3     C 8309   3.594   3.271  10.662 -0.2542 -0.0487 -0.3631
  560TMC3     O 8310   3.660   3.338  10.587 -0.9560 -0.2651 -0.7449
  560TMC3     H 8311   3.445   3.140  10.854 -1.5525  0.7669  1.0940
  560TMC3    H1 8312   3.805   3.392  10.784  1.9874 -3.3418 -0.7994
  560TMC3    H2 8313   3.708   3.243  11.167 -1.5499 -0.7493  0.3882
  560TMC3    C7 8314   3.873   3.392  11.035 -0.8010  0.9158  0.6871
  560TMC3    C8 8315   3.513   3.072  11.067  0.5380  0.6198 -0.3667
  560TMC3    O1 8316   3.904   3.496  10.979 -0.8112 -0.4395  0.3894
  560TMC3    O2 8317   3.397   3.044  11.038  0.1454 -0.2038 -0.3592
  561TMC3    C1 8318   1.231   2.032  11.310  0.4381  0.2697  0.4392
  561TMC3    C2 8319   1.141   1.996  11.414  0.0443 -0.1759  0.1689
  561TMC3    C3 8320   1.091   2.098  11.495  0.5252 -0.5757 -0.1131
  561TMC3    C4 8321   1.251   2.160  11.277  0.8135 -0.1669 -0.0543
  561TMC3    C5 8322   1.198   2.254  11.359 -0.1232  0.7972 -0.4317
  561TMC3    C6 8323   1.111   2.228  11.459 -0.5845 -0.2465 -0.8320
  561TMC3     C 8324   1.288   1.924  11.229 -0.0288  0.6609 -0.0755
  561TMC3     O 8325   1.297   1.810  11.282 -0.7003 -0.3962  0.0306
  561TMC3     H 8326   1.125   1.891  11.436 -0.1102 -0.3549 -0.7863
  561TMC3    H1 8327   1.325   2.193  11.205 -0.3847 -0.3230 -1.3559
  561TMC3    H2 8328   1.071   2.314  11.510 -0.0025  0.0193 -0.8259
  561TMC3    C7 8329   1.236   2.395  11.355  0.4083 -0.0828  0.0864
  561TMC3    C8 8330   0.998   2.060  11.601  0.4912  0.6360  0.1535
  561TMC3    O1 8331   1.188   2.474  11.436  0.4853  0.2205  0.2888
  561TMC3    O2 8332   0.975   1.943  11.613 -0.2815  0.4485  0.4608
  562TMC3    C1 8333   2.291   3.524  15.884 -0.1612 -1.2546 -0.4668
  562TMC3    C2 8334   2.209   3.615  15.828 -0.4613  0.8866 -0.0234
  562TMC3    C3 8335   2.126   3.692  15.906  0.5218  0.0679  0.1600
  562TMC3    C4 8336   2.273   3.488  16.014  0.9590 -0.0213 -0.0050
  562TMC3    C5 8337   2.189   3.558  16.094 -0.5100  0.1241 -0.5343
  562TMC3    C6 8338   2.123   3.666  16.039 -0.3296  0.3045  0.2443
  562TMC3     C 8339   2.420   3.536  15.833 -0.3054 -0.3032 -0.9249
  562TMC3     O 8340   2.439   3.612  15.741  0.2766 -0.8202  0.3742
  562TMC3     H 8341   2.217   3.636  15.722 -0.1551  2.2264  0.2647
  562TMC3    H1 8342   2.311   3.393  16.049  0.4487 -0.1347  0.2435
  562TMC3    H2 8343   2.046   3.708  16.104  1.5695  2.5941  1.0201
  562TMC3    C7 8344   2.163   3.515  16.231  0.3052 -0.1627  0.2450
  562TMC3    C8 8345   2.085   3.821  15.860 -0.4615  0.4133  0.5064
  562TMC3    O1 8346   2.074   3.572  16.295 -0.3122 -0.0753 -0.1576
  562TMC3    O2 8347   2.086   3.911  15.943 -0.2372 -0.5164  0.1993
  563MPD2     C 8348   4.298   0.549  15.681 -0.1166 -0.7762  0.0842
  563MPD2    C1 8349   4.361   0.629  15.781 -0.2582  0.5094 -0.0007
  563MPD2    C2 8350   4.491   0.601  15.820 -0.7213 -0.0624 -0.2109
  563MPD2    C3 8351   4.566   0.489  15.775  0.3743 -0.3985 -0.1753
  563MPD2    C4 8352   4.510   0.419  15.670  0.9807  0.2206  0.5406
  563MPD2    C5 8353   4.382   0.446  15.631  0.4847  0.4806  0.2490
  563MPD2     H 8354   4.542   0.664  15.892 -0.5132 -0.8895  0.3611
  563MPD2    H1 8355   4.541   0.320  15.638  1.2002  0.5221 -0.1705
  563MPD2    H2 8356   4.197   0.568  15.648  0.5926 -0.2537 -1.8291
  563MPD2    H3 8357   4.339   0.368  15.570 -3.1545  1.3993  1.5751
  563MPD2     N 8358   4.700   0.476  15.818 -0.1526  0.4472  0.7655
  563MPD2    H5 8359   0.007   0.544  15.888 -1.4408  1.1055  0.6520
  563MPD2    N1 8360   4.283   0.729  15.842  0.1194 -0.0814 -0.1980
  563MPD2    H7 8361   4.188   0.721  15.807  0.0943 -0.4404 -0.0494
  564TMC3    C1 8362   4.249   0.877  16.025 -0.2624  0.2814 -0.0393
  564TMC3    C2 8363   4.133   0.799  16.032 -0.7382  0.3235  0.0864
  564TMC3    C3 8364   4.092   0.747  16.150 -0.1817 -0.6242 -1.1647
  564TMC3    C4 8365   4.322   0.891  16.145 -0.0200  0.0126  0.2516
  564TMC3    C5 8366   4.293   0.816  16.256  0.3723  0.1697 -0.4512
  564TMC3    C6 8367   4.169   0.755  16.262 -0.5657 -0.5553  0.4101
  564TMC3     C 8368   4.339   0.832  15.918  0.3881 -0.6619  0.0562
  564TMC3     O 8369   4.457   0.855  15.939  0.2300 -0.6605  0.3912
  564TMC3     H 8370   4.076   0.792  15.940 -0.8245  0.1113  0.1572
  564TMC3    H1 8371   4.409   0.955  16.142 -1.5781  2.1193  0.0972
  564TMC3    H2 8372   4.135   0.696  16.346 -2.3400  1.3860  1.0495
  564TMC3    C7 8373   4.402   0.731  16.291  0.4605 -0.3551  0.1520
  564TMC3    C8 8374   4.036   0.613  16.141  0.0914 -0.2122  0.1759
  564TMC3    O1 8375   4.500   0.779  16.352  0.0869 -0.1653 -0.0906
  564TMC3    O2 8376   4.014   0.553  16.245  0.0389 -0.0693 -0.1480
  565TMC3    C1 8377   0.222   1.360   9.505 -0.2244 -0.1492  0.4773
  565TMC3    C2 8378   0.197   1.337   9.640 -0.4827 -0.2871  0.3835
  565TMC3    C3 8379   0.116   1.233   9.671 -0.3197 -0.0277  0.9353
  565TMC3    C4 8380   0.173   1.289   9.403 -1.1161 -0.1004 -0.2142
  565TMC3    C5 8381   0.082   1.187   9.439 -0.9042 -0.0129 -0.2509
  565TMC3    C6 8382   0.045   1.166   9.569  0.0207 -0.8937 -0.0210
  565TMC3     C 8383   0.279   1.487   9.472  0.4141 -0.2250 -0.7550
  565TMC3     O 8384   0.244   1.541   9.367  0.3118 -0.4132  0.1591
  565TMC3     H 8385   0.244   1.399   9.715 -0.2224  0.8633 -0.7296
  565TMC3    H1 8386   0.196   1.322   9.303  0.2466  0.7115  0.3684
  565TMC3    H2 8387   4.718   1.073   9.598  0.7478 -1.1766  0.2765
  565TMC3    C7 8388   0.003   1.133   9.323  0.2303 -0.1482 -0.0050
  565TMC3    C8 8389   0.086   1.213   9.813  0.0147  1.2007  0.2876
  565TMC3    O1 8390   0.053   1.137   9.212  0.1056 -0.0554  0.5967
  565TMC3    O2 8391   0.165   1.263   9.894 -0.7122 -0.0758 -0.2549
  566MPD2     C 8392   1.816   3.142  14.273  0.1810  0.1695  0.7401
  566MPD2    C1 8393   1.921   3.195  14.202 -0.0383  0.3125  0.2264
  566MPD2    C2 8394   1.899   3.230  14.070 -0.1681 -0.0883  0.1399
  566MPD2    C3 8395   1.769   3.224  14.019 -0.9614  0.1920  0.6572
  566MPD2    C4 8396   1.665   3.178  14.093  0.6303 -0.4467 -0.5891
  566MPD2    C5 8397   1.694   3.124  14.218  0.2599 -0.3276 -0.3175
  566MPD2     H 8398   1.981   3.264  14.007 -0.7097 -1.0907 -1.1191
  566MPD2    H1 8399   1.562   3.167  14.061  0.7425  3.7397 -2.2457
  566MPD2    H2 8400   1.829   3.110  14.376 -3.5417  0.8530  1.3978
  566MPD2    H3 8401   1.612   3.100  14.285  0.4514  1.4598  0.5634
  566MPD2     N 8402   1.746   3.255  13.885 -0.2766  0.2758  0.4495
  566MPD2    H5 8403   1.661   3.223  13.839  0.3076 -0.7940  0.1028
  566MPD2    N1 8404   2.051   3.210  14.266  0.0791 -0.0901  0.2959
  566MPD2    H7 8405   2.067   3.173  14.359 -0.8483  0.6241  0.7478
  567TMC3    C1 8406   2.286   3.242  14.276  0.0024 -0.3619  0.5730
  567TMC3    C2 8407   2.384   3.309  14.212  0.4696 -0.8639  0.2947
  567TMC3    C3 8408   2.498   3.338  14.281  1.1551 -0.4244  0.0707
  567TMC3    C4 8409   2.294   3.193  14.403 -0.8474  0.8319  0.0821
  567TMC3    C5 8410   2.410   3.227  14.470 -0.1376 -0.9045  0.3135
  567TMC3    C6 8411   2.510   3.299  14.409  0.0954  0.5616  0.5765
  567TMC3     C 8412   2.158   3.266  14.207 -0.4779  0.0908 -0.0789
  567TMC3     O 8413   2.164   3.342  14.113  0.1599  0.1918  0.1348
  567TMC3     H 8414   2.373   3.346  14.110 -1.6533  1.5072  1.3963
  567TMC3    H1 8415   2.212   3.146  14.456 -3.2496  3.2074 -1.5076
  567TMC3    H2 8416   2.603   3.324  14.458  1.0031 -1.2526 -0.2123
  567TMC3    C7 8417   2.443   3.168  14.600  0.3761 -0.0094  0.2838
  567TMC3    C8 8418   2.572   3.447  14.241 -0.2545 -0.1176 -0.7079
  567TMC3    O1 8419   2.560   3.164  14.634  0.6898  0.6022  0.0107
  567TMC3    O2 8420   2.566   3.474  14.121 -0.1131 -0.0611 -0.1747
  568MPD2     C 8421   0.242   4.253  16.338  0.1809  0.0074  0.7042
  568MPD2    C1 8422   0.123   4.221  16.408  0.7872  1.2000 -0.3515
  568MPD2    C2 8423   0.016   4.305  16.398  0.4499 -0.1712  0.0718
  568MPD2    C3 8424   0.028   4.430  16.345 -0.1624 -0.6947  0.6666
  568MPD2    C4 8425   0.142   4.461  16.286  0.4560  0.2928 -0.5203
  568MPD2    C5 8426   0.249   4.372  16.276  0.4620  0.7678 -0.3197
  568MPD2     H 8427   4.643   4.271  16.440 -0.0528  0.6492 -0.3946
  568MPD2    H1 8428   0.154   4.557  16.238  0.3619 -0.2902 -1.7066
  568MPD2    H2 8429   0.317   4.175  16.333  1.5019  1.4990 -2.4583
  568MPD2    H3 8430   0.339   4.392  16.218  0.1418 -0.9195 -1.4000
  568MPD2     N 8431   4.639   4.521  16.349 -0.5026  0.3489  0.1273
  568MPD2    H5 8432   4.552   4.480  16.380 -0.9071 -0.4047 -2.0139
  568MPD2    N1 8433   0.124   4.093  16.481 -0.0919 -0.3489  0.2088
  568MPD2    H7 8434   0.213   4.044  16.475 -0.8461 -1.8256  1.1557
  569TMC3    C1 8435   4.511   4.710  16.316 -0.5943  0.0378  0.1962
  569TMC3    C2 8436   4.505   0.104  16.378 -0.3723  1.0709 -0.1892
  569TMC3    C3 8437   4.381   0.130  16.421  0.4578 -0.8281 -0.2957
  569TMC3    C4 8438   4.400   4.643  16.271 -0.3568 -0.3358 -0.0128
  569TMC3    C5 8439   4.272   4.686  16.289 -0.1146 -0.2114  0.2045
  569TMC3    C6 8440   4.264   0.064  16.380  0.1789 -0.1843  0.5421
  569TMC3     C 8441   4.640   4.659  16.309  0.2354  0.0778  0.0593
  569TMC3     O 8442   0.017   0.009  16.279  0.2225  0.1525 -0.3558
  569TMC3     H 8443   4.592   0.142  16.429  1.1622 -0.8595 -1.3408
  569TMC3    H1 8444   4.413   4.546  16.222  2.8253  0.1159 -0.0004
  569TMC3    H2 8445   4.167   0.098  16.414 -0.8411 -3.0021  0.3942
  569TMC3    C7 8446   4.197   4.718  16.162  0.4932  0.1264 -0.4342
  569TMC3    C8 8447   4.350   0.268  16.448  0.1678 -0.7115  0.5460
  569TMC3    O1 8448   4.196   4.640  16.071 -0.2771  0.4731  0.4441
  569TMC3    O2 8449   4.235   0.306  16.422 -0.7756 -0.0534 -0.3532
  570TMC3    C1 8450   3.876   2.622  16.083  0.1785 -0.2831  0.3804
  570TMC3    C2 8451   3.998   2.602  16.032  0.5991  0.4651  0.1774
  570TMC3    C3 8452   4.017   2.634  15.898  0.2696 -0.9397 -0.5104
  570TMC3    C4 8453   3.775   2.681  16.008 -0.1581 -0.2435  0.1116
  570TMC3    C5 8454   3.799   2.708  15.876 -0.2118  0.2979  0.1210
  570TMC3    C6 8455   3.917   2.677  15.821 -1.0604 -0.2436 -0.4627
  570TMC3     C 8456   3.863   2.605  16.229  0.1401  1.0786 -0.0975
  570TMC3     O 8457   3.937   2.529  16.289 -0.0435 -0.2725  0.1946
  570TMC3     H 8458   4.065   2.541  16.092  0.3998  0.2287  0.1591
  570TMC3    H1 8459   3.674   2.701  16.043  0.0736 -0.9216  1.1838
  570TMC3    H2 8460   3.953   2.705  15.723 -0.9236 -3.7028 -1.4142
  570TMC3    C7 8461   3.737   2.827  15.830  0.0785 -0.1705 -0.0910
  570TMC3    C8 8462   4.133   2.710  15.861 -0.2410 -0.8601  0.2077
  570TMC3    O1 8463   3.672   2.890  15.912 -0.0831  0.1662  0.1611
  570TMC3    O2 8464   4.123   2.831  15.876  0.0558  0.5151 -0.6769
  571MPD2     C 8465   1.411   3.566  17.533 -0.3192  1.0041  0.4221
  571MPD2    C1 8466   1.344   3.620  17.641  0.3397  1.1414  0.4608
  571MPD2    C2 8467   1.311   3.755  17.646  0.4007  0.2370  0.2336
  571MPD2    C3 8468   1.356   3.839  17.544  0.4642 -0.2249 -0.0333
  571MPD2    C4 8469   1.429   3.781  17.441  0.3191 -0.2000  0.3292
  571MPD2    C5 8470   1.456   3.647  17.434  1.3394  0.1221  0.2623
  571MPD2     H 8471   1.250   3.803   0.033  0.1350 -1.7484  1.2881
  571MPD2    H1 8472   1.462   3.839  17.355  1.4016 -2.2308 -0.6427
  571MPD2    H2 8473   1.435   3.461  17.526 -0.8489  0.9658 -0.7917
  571MPD2    H3 8474   1.500   3.604  17.345 -1.3497 -0.3343 -0.8307
  571MPD2     N 8475   1.344   3.984  17.543  0.0739 -0.0457  0.9471
  571MPD2    H5 8476   1.390   4.030  17.465  2.2473 -0.7118  1.8433
  571MPD2    N1 8477   1.294   3.531   0.043  0.0814  0.9128 -0.2106
  571MPD2    H7 8478   1.299   3.431   0.024  0.0587 -0.0109  4.5670
  572TMC3    C1 8479   1.197   4.163  17.538 -0.0544  0.2094  0.1093
  572TMC3    C2 8480   1.072   4.159  17.486 -0.1550 -0.1795 -0.1331
  572TMC3    C3 8481   1.030   4.274  17.425  0.3973 -0.3008  0.9730
  572TMC3    C4 8482   1.275   4.281  17.538  0.0913 -0.2828 -0.0406
  572TMC3    C5 8483   1.225   4.380  17.466  0.2561 -0.8019 -0.1537
  572TMC3    C6 8484   1.111   4.384  17.399  0.9979  0.2774  0.1649
  572TMC3     C 8485   1.241   4.046  17.608 -0.2643 -0.5918 -0.2900
  572TMC3     O 8486   1.164   4.009   0.004  0.2096 -0.2932  0.7788
  572TMC3     H 8487   1.019   4.065  17.476  2.8288 -1.6030 -2.4919
  572TMC3    H1 8488   1.347   4.300  17.616 -0.7505 -0.1910  0.7199
  572TMC3    H2 8489   1.066   4.473  17.357  1.6485 -0.9810 -3.2138
  572TMC3    C7 8490   1.294   4.510  17.464 -0.3277  0.3327  0.2246
  572TMC3    C8 8491   0.893   4.275  17.372 -0.0246 -0.1285 -0.1203
  572TMC3    O1 8492   1.279   4.582  17.371  0.1559  0.2031 -0.4206
  572TMC3    O2 8493   0.894   4.290  17.251  1.1847  0.0858  0.1568
  573MPD2     C 8494   3.087   3.925   0.371  0.2069 -0.0957 -0.0260
  573MPD2    C1 8495   3.094   4.057   0.417  0.1377 -0.1577  0.8281
  573MPD2    C2 8496   3.132   4.161   0.332  0.0076 -0.0999 -0.4149
  573MPD2    C3 8497   3.157   4.126   0.195  0.3838  0.0862  0.5010
  573MPD2    C4 8498   3.137   3.999   0.152 -0.3576  0.3441  0.3417
  573MPD2    C5 8499   3.099   3.897   0.240 -0.1009 -0.5399  0.0794
  573MPD2     H 8500   3.154   4.260   0.372 -1.6714 -0.1622  0.6237
  573MPD2    H1 8501   3.163   3.972   0.050  3.0480 -1.1865  1.6151
  573MPD2    H2 8502   3.060   3.841   0.434 -1.1264 -1.7074 -2.7834
  573MPD2    H3 8503   3.094   3.792   0.213  0.6654 -0.7128  0.6094
  573MPD2     N 8504   3.198   4.223   0.105 -0.1775 -0.0151  0.4174
  573MPD2    H5 8505   3.179   4.207   0.007  1.0043  0.1031  0.1758
  573MPD2    N1 8506   3.058   4.077   0.551 -0.0542  0.1491 -0.1440
  573MPD2    H7 8507   3.036   3.992   0.602  0.1124 -0.6925 -1.4739
  574TMC3    C1 8508   3.226   4.455   0.046  0.8609 -0.3958  1.0900
  574TMC3    C2 8509   3.172   4.430  17.609 -0.0530 -0.0547  0.1350
  574TMC3    C3 8510   3.156   4.540  17.536 -0.0858  0.0362 -0.7705
  574TMC3    C4 8511   3.240   4.576   0.106  0.0459 -0.0987 -0.2583
  574TMC3    C5 8512   3.211   4.680   0.024  0.5756 -0.3827  0.8759
  574TMC3    C6 8513   3.172   4.665  17.582  0.1194  0.3981 -0.0526
  574TMC3     C 8514   3.245   4.347   0.142  0.1324  0.4552 -0.6724
  574TMC3     O 8515   3.297   4.381   0.248 -0.9271  0.3657 -0.1236
  574TMC3     H 8516   3.174   4.331  17.565 -3.2066  0.3590 -0.8998
  574TMC3    H1 8517   3.280   4.596   0.205  0.3550 -0.4944 -0.3012
  574TMC3    H2 8518   3.192   0.022  17.510  2.0990 -0.8152 -0.8542
  574TMC3    C7 8519   3.213   0.086   0.087 -0.0677  0.0766  0.2231
  574TMC3    C8 8520   3.144   4.521  17.388 -0.0972  0.1944 -0.7753
  574TMC3    O1 8521   3.230   0.178   0.010 -0.2506 -0.5964 -0.5164
  574TMC3    O2 8522   3.173   4.412  17.340 -0.0015 -0.2174 -0.2715
  575TMC3    C1 8523   0.330   1.168  10.634 -0.5183 -0.0399 -0.8177
  575TMC3    C2 8524   0.251   1.115  10.732 -0.6468 -0.3580  0.1400
  575TMC3    C3 8525   0.143   1.039  10.703  0.5761 -0.2971 -0.3727
  575TMC3    C4 8526   0.288   1.158  10.506  0.2995  0.3136 -0.6549
  575TMC3    C5 8527   0.179   1.085  10.480 -0.6318  0.3129 -0.8047
  575TMC3    C6 8528   0.099   1.029  10.572 -0.1743  0.3759  0.7115
  575TMC3     C 8529   0.456   1.235  10.670 -0.3140 -0.3635 -0.0942
  575TMC3     O 8530   0.482   1.341  10.614 -0.2182 -0.3799 -0.2801
  575TMC3     H 8531   0.284   1.133  10.834  0.0541  1.1775 -0.3556
  575TMC3    H1 8532   0.350   1.200  10.427  0.0132  0.5078 -0.7751
  575TMC3    H2 8533   0.002   0.983  10.559 -0.5274  1.3713 -0.1488
  575TMC3    C7 8534   0.134   1.104  10.345  0.2610  0.0852  0.4159
  575TMC3    C8 8535   0.074   0.967  10.811  0.7682 -0.5205 -0.4215
  575TMC3    O1 8536   0.216   1.154  10.264 -0.4172 -0.1864 -0.3002
  575TMC3    O2 8537   4.706   0.894  10.775 -0.3620  0.0290  0.4651
  576MPD2     C 8538   0.161   2.858  12.521  0.6537  0.3629 -0.6138
  576MPD2    C1 8539   0.179   2.928  12.411  0.2531 -0.4273  0.0747
  576MPD2    C2 8540   0.128   3.056  12.407  0.2703 -0.3394  0.3596
  576MPD2    C3 8541   0.048   3.101  12.510 -0.3915 -0.0163 -0.8343
  576MPD2    C4 8542   0.033   3.021  12.623  0.5898 -0.3285  0.3018
  576MPD2    C5 8543   0.092   2.901  12.630  0.3849  0.2289 -0.1818
  576MPD2     H 8544   0.144   3.123  12.324 -1.2348 -0.2176  0.1730
  576MPD2    H1 8545   4.705   3.065  12.709 -2.4667  0.7441 -1.9982
  576MPD2    H2 8546   0.210   2.762  12.513 -0.4368 -0.1256 -1.4245
  576MPD2    H3 8547   0.070   2.833  12.711  0.5865  0.7211  0.2780
  576MPD2     N 8548   4.689   3.218  12.495  0.1550  0.3927  0.0105
  576MPD2    H5 8549   4.709   3.282  12.418  0.6763 -2.0788 -1.9001
  576MPD2    N1 8550   0.244   2.874  12.295 -0.9696  0.3539  0.0924
  576MPD2    H7 8551   0.252   2.938  12.217  1.1623  2.2774  1.9070
  577TMC3    C1 8552   0.380   2.733  12.152 -0.4704 -0.1316  0.0836
  577TMC3    C2 8553   0.409   2.604  12.122  0.4286 -0.0807 -0.1962
  577TMC3    C3 8554   0.522   2.574  12.044 -0.8351 -0.6306 -0.2297
  577TMC3    C4 8555   0.469   2.831  12.127 -0.0079 -0.5640  0.7231
  577TMC3    C5 8556   0.579   2.798  12.049  1.0974  0.5122 -0.1627
  577TMC3    C6 8557   0.605   2.672  12.007 -0.4897 -0.6451  0.2216
  577TMC3     C 8558   0.293   2.741  12.273 -0.0321  0.4115  0.3794
  577TMC3     O 8559   0.271   2.644  12.340  0.3033 -0.3205  0.4938
  577TMC3     H 8560   0.347   2.525  12.161  0.9657 -0.9742 -1.1478
  577TMC3    H1 8561   0.466   2.924  12.182 -1.6376 -0.6970  0.8760
  577TMC3    H2 8562   0.700   2.642  11.963 -0.0367 -1.4393  1.7079
  577TMC3    C7 8563   0.668   2.894  11.989  0.6508  0.1172 -0.0610
  577TMC3    C8 8564   0.565   2.434  12.041 -0.4919  0.1311  0.2782
  577TMC3    O1 8565   0.783   2.856  11.963 -0.1028 -0.6736 -0.3095
  577TMC3    O2 8566   0.525   2.359  12.131 -0.2598  0.2675  0.1161
  578MPD2     C 8567   3.994   3.086   1.267  0.2822 -0.4612 -0.3806
  578MPD2    C1 8568   4.005   2.951   1.244  0.1679 -0.4408 -0.0133
  578MPD2    C2 8569   3.977   2.861   1.340 -0.0222 -0.2012 -0.2023
  578MPD2    C3 8570   3.931   2.911   1.464  0.4157  0.6368 -0.2952
  578MPD2    C4 8571   3.933   3.049   1.487  0.0925  0.2302 -0.2102
  578MPD2    C5 8572   3.952   3.137   1.385  0.1234 -0.0039  0.0929
  578MPD2     H 8573   3.974   2.758   1.305 -0.2845  0.0871 -1.0143
  578MPD2    H1 8574   3.894   3.090   1.579 -1.3320 -0.0031 -0.7090
  578MPD2    H2 8575   4.019   3.155   1.187 -1.6456 -0.6261 -1.1053
  578MPD2    H3 8576   3.942   3.242   1.409  2.1212 -0.0154  1.0169
  578MPD2     N 8577   3.881   2.818   1.561  0.1035 -0.4676  0.6181
  578MPD2    H5 8578   3.872   2.719   1.540 -1.1478  0.3875 -2.9091
  578MPD2    N1 8579   4.032   2.927   1.105  0.0914 -0.0301  0.0230
  578MPD2    H7 8580   4.043   3.007   1.043  0.5428  0.1956  0.3966
  579TMC3    C1 8581   3.798   2.734   1.758  0.2253  0.0468  0.2439
  579TMC3    C2 8582   3.814   2.726   1.889  0.7994  0.3918 -0.1906
  579TMC3    C3 8583   3.781   2.606   1.948 -0.0651 -0.2981 -0.6247
  579TMC3    C4 8584   3.704   2.650   1.691 -0.9938  0.1212  0.6127
  579TMC3    C5 8585   3.672   2.530   1.756  0.1689  0.2701  0.6873
  579TMC3    C6 8586   3.727   2.497   1.878  0.1018 -0.3417  0.2295
  579TMC3     C 8587   3.853   2.848   1.690 -0.3959 -0.2881 -0.0586
  579TMC3     O 8588   3.908   2.932   1.761  0.3842  0.6112 -0.2621
  579TMC3     H 8589   3.877   2.796   1.943  0.1618  0.7207  0.1174
  579TMC3    H1 8590   3.673   2.675   1.590  0.6301  0.9657  0.3206
  579TMC3    H2 8591   3.707   2.403   1.927  1.2555 -0.4735  0.4507
  579TMC3    C7 8592   3.611   2.424   1.688 -0.3498 -0.4428 -1.0844
  579TMC3    C8 8593   3.846   2.566   2.068  0.3101 -0.3925  0.0053
  579TMC3    O1 8594   3.642   2.315   1.728 -0.0763 -0.1896  0.4728
  579TMC3    O2 8595   3.786   2.503   2.155  0.5928  0.2829  0.2991
  580TMC3    C1 8596   2.409   1.821  12.378  0.3054  0.9676  0.1312
  580TMC3    C2 8597   2.362   1.745  12.271 -0.0568 -0.3399  0.0737
  580TMC3    C3 8598   2.371   1.606  12.278 -0.1223 -1.1718 -0.1197
  580TMC3    C4 8599   2.435   1.756  12.503 -0.1565  0.3157 -0.8994
  580TMC3    C5 8600   2.432   1.618  12.506  0.1601 -0.9235  0.1443
  580TMC3    C6 8601   2.414   1.540  12.394  0.8156 -0.1530  0.4891
  580TMC3     C 8602   2.513   1.918  12.331  0.3628  0.4500  0.3849
  580TMC3     O 8603   2.536   1.908  12.212 -0.2864 -0.2600  0.3130
  580TMC3     H 8604   2.319   1.781  12.178  0.4506 -0.2835 -0.1390
  580TMC3    H1 8605   2.452   1.818  12.590 -0.7494 -0.8028  0.0146
  580TMC3    H2 8606   2.419   1.432  12.400 -3.1917 -0.3284  1.2670
  580TMC3    C7 8607   2.531   1.576  12.603 -0.1851  0.1601 -0.3621
  580TMC3    C8 8608   2.425   1.541  12.158  0.5835  0.0607  1.0179
  580TMC3    O1 8609   2.609   1.658  12.643  0.2427  0.6076 -0.0209
  580TMC3    O2 8610   2.422   1.421  12.152 -0.3170  0.6999 -0.2387
  581MPD2     C 8611   0.988   1.289  15.239  0.4887 -0.3741 -0.6935
  581MPD2    C1 8612   1.057   1.408  15.251  0.2574  0.1554 -0.0672
  581MPD2    C2 8613   0.988   1.524  15.269 -0.0665  0.6352  0.4233
  581MPD2    C3 8614   0.845   1.523  15.266  0.1672  0.4252  1.2817
  581MPD2    C4 8615   0.780   1.403  15.255  0.5016 -0.2328  0.0286
  581MPD2    C5 8616   0.854   1.290  15.239  0.0124 -0.3034  0.1730
  581MPD2     H 8617   1.032   1.621  15.285  0.6688  0.5400 -0.9918
  581MPD2    H1 8618   0.673   1.383  15.256  0.5659 -0.6251 -0.8214
  581MPD2    H2 8619   1.042   1.196  15.229  0.2076 -0.6905  0.7504
  581MPD2    H3 8620   0.808   1.192  15.227 -0.0431 -0.2326 -0.1790
  581MPD2     N 8621   0.767   1.646  15.267  0.0738  0.3947  0.1588
  581MPD2    H5 8622   0.818   1.734  15.268  1.6740 -0.5160 -0.3793
  581MPD2    N1 8623   1.196   1.393  15.276  0.0584  0.5450 -0.2350
  581MPD2    H7 8624   1.230   1.298  15.270  0.1474  0.6852 -1.9058
  582TMC3    C1 8625   1.396   1.415  15.390 -0.0253 -0.4242 -0.4050
  582TMC3    C2 8626   1.426   1.454  15.513  0.1985  0.4961  0.7934
  582TMC3    C3 8627   1.481   1.367  15.604 -0.5010 -0.1598 -0.1041
  582TMC3    C4 8628   1.409   1.285  15.348  0.2962 -0.6484 -0.8579
  582TMC3    C5 8629   1.454   1.200  15.442  0.2603 -0.2301  0.2409
  582TMC3    C6 8630   1.490   1.238  15.569 -0.4257  0.2113  0.0085
  582TMC3     C 8631   1.275   1.481  15.341 -0.6350  0.2085 -0.1487
  582TMC3     O 8632   1.246   1.593  15.382  0.2033  0.3651  0.4604
  582TMC3     H 8633   1.406   1.552  15.554 -0.9065  1.0838 -1.1666
  582TMC3    H1 8634   1.381   1.243  15.252 -0.9717 -0.6218 -0.4953
  582TMC3    H2 8635   1.497   1.155  15.639 -1.3671 -0.0621 -0.2286
  582TMC3    C7 8636   1.372   1.079  15.453  0.3129 -0.2508  0.1247
  582TMC3    C8 8637   1.460   1.387  15.746  1.1450  0.6275 -0.5166
  582TMC3    O1 8638   1.387   0.997  15.365 -0.5935 -0.2384  0.1353
  582TMC3    O2 8639   1.364   1.456  15.782 -0.5311 -0.6756 -0.8266
  583MPD2     C 8640   1.053   2.953  16.727 -0.1274 -0.8738  0.3341
  583MPD2    C1 8641   1.026   3.065  16.651  0.0036  0.1034  0.4971
  583MPD2    C2 8642   0.946   3.164  16.704 -0.0902  0.8954 -0.4371
  583MPD2    C3 8643   0.908   3.169  16.835  0.4711  0.2316 -1.0545
  583MPD2    C4 8644   0.948   3.062  16.915 -0.4180 -0.0803  0.3867
  583MPD2    C5 8645   1.016   2.956  16.857 -0.1814 -0.4305 -0.3358
  583MPD2     H 8646   0.930   3.251  16.641  0.5951  1.2117 -0.1763
  583MPD2    H1 8647   0.928   3.065  17.021 -0.3734 -0.2701  0.4002
  583MPD2    H2 8648   1.110   2.869  16.688 -0.3721 -0.4196 -1.0153
  583MPD2    H3 8649   1.044   2.879  16.928  0.4305  0.0985 -0.0096
  583MPD2     N 8650   0.827   3.278  16.878  0.2889  0.3861  0.3249
  583MPD2    H5 8651   0.792   3.344  16.809  0.2916  0.5392  0.4697
  583MPD2    N1 8652   1.067   3.078  16.518 -0.2950 -0.3809 -0.3019
  583MPD2    H7 8653   1.055   3.167  16.472  0.7181  0.2092  0.5827
  584TMC3    C1 8654   0.754   3.440  17.039  0.2935 -0.4490 -0.5950
  584TMC3    C2 8655   0.660   3.495  16.958  0.7559  0.7954  0.6090
  584TMC3    C3 8656   0.570   3.588  17.017 -0.6576  1.0664 -0.6865
  584TMC3    C4 8657   0.759   3.474  17.174 -0.7755  0.3746 -0.1267
  584TMC3    C5 8658   0.664   3.558  17.228 -0.0723 -0.1652 -0.3674
  584TMC3    C6 8659   0.565   3.618  17.148  0.3905  0.3647 -1.1113
  584TMC3     C 8660   0.812   3.309  17.009 -1.0594 -0.0951  0.6711
  584TMC3     O 8661   0.838   3.246  17.110  0.6278  0.2183 -0.4975
  584TMC3     H 8662   0.646   3.459  16.857  0.4870 -0.5667  1.1286
  584TMC3    H1 8663   0.832   3.425  17.237 -0.8486  1.8235  1.1024
  584TMC3    H2 8664   0.500   3.693  17.192 -2.3879 -2.4005 -0.5221
  584TMC3    C7 8665   0.648   3.555  17.377 -0.6796 -0.0054 -0.7557
  584TMC3    C8 8666   0.551   3.700  16.921  0.0986 -0.3393 -0.8313
  584TMC3    O1 8667   0.707   3.463  17.432 -0.0087 -0.1852 -0.1608
  584TMC3    O2 8668   0.529   3.669  16.802  0.1773  0.3693  0.1861
  585MPD2     C 8669   0.227   2.467   0.882  0.1527  0.2199 -0.0032
  585MPD2    C1 8670   0.151   2.541   0.795  0.6951 -0.1453  0.1464
  585MPD2    C2 8671   0.140   2.490   0.667  0.3173  0.4629  0.7487
  585MPD2    C3 8672   0.211   2.376   0.625  0.1212 -0.3101  0.5176
  585MPD2    C4 8673   0.298   2.317   0.716 -0.0352  0.1384  0.2156
  585MPD2    C5 8674   0.298   2.355   0.847 -0.4399 -0.2100  0.7241
  585MPD2     H 8675   0.082   2.538   0.589  1.5179 -1.8031 -1.5238
  585MPD2    H1 8676   0.365   2.235   0.692 -0.3602 -1.0149  3.2617
  585MPD2    H2 8677   0.240   2.498   0.985  0.0122 -0.7854  0.3196
  585MPD2    H3 8678   0.372   2.312   0.914 -0.0709 -2.2892 -1.0109
  585MPD2     N 8679   0.202   2.313   0.500  0.3962 -0.8142  0.2921
  585MPD2    H5 8680   0.264   2.232   0.501  0.6204 -0.6431  0.1735
  585MPD2    N1 8681   0.085   2.664   0.820  0.3075  0.1996  0.5708
  585MPD2    H7 8682   0.047   2.718   0.743 -1.3107  0.4222  1.5230
  586TMC3    C1 8683   0.158   2.275   0.275 -0.1666  0.1728  0.1281
  586TMC3    C2 8684   0.265   2.195   0.272  0.1482 -0.1135  0.0597
  586TMC3    C3 8685   0.280   2.114   0.166 -0.2769 -0.6559 -0.2189
  586TMC3    C4 8686   0.068   2.284   0.174  0.3048  0.9729 -0.3484
  586TMC3    C5 8687   0.081   2.180   0.083 -0.2262  0.3611 -0.0476
  586TMC3    C6 8688   0.190   2.094   0.071 -0.3279  0.5820  0.0174
  586TMC3     C 8689   0.117   2.346   0.397 -0.2606 -0.1540  0.0304
  586TMC3     O 8690   0.031   2.428   0.394  0.5297  0.6810  0.3823
  586TMC3     H 8691   0.338   2.202   0.352 -0.4415 -0.7013  0.6480
  586TMC3    H1 8692   4.698   2.341   0.180 -0.7564 -0.6967 -0.5498
  586TMC3    H2 8693   0.200   2.027  17.674  0.2315 -0.4496  0.9006
  586TMC3    C7 8694   4.696   2.159  17.674 -0.2176 -0.3211 -0.1968
  586TMC3    C8 8695   0.387   2.019   0.163  0.5473  0.2342 -0.1782
  586TMC3    O1 8696   4.684   2.044  17.634 -0.7302  0.3497  0.7926
  586TMC3    O2 8697   0.420   1.974   0.049  0.0392  0.3525 -0.0430
  587TMC3    C1 8698   2.646   0.572  16.365 -0.5699 -0.6143  0.4140
  587TMC3    C2 8699   2.618   0.676  16.444  0.1035 -0.2784 -0.4966
  587TMC3    C3 8700   2.706   0.699  16.543  0.3452  0.3359 -0.4475
  587TMC3    C4 8701   2.751   0.496  16.375 -0.6644  0.9209  0.0179
  587TMC3    C5 8702   2.840   0.528  16.475 -0.5189 -0.1245  0.1350
  587TMC3    C6 8703   2.822   0.630  16.564  0.3343  0.2907  0.1962
  587TMC3     C 8704   2.541   0.542  16.271 -0.1212 -0.0742  0.0080
  587TMC3     O 8705   2.570   0.521  16.152  0.0656 -0.2512 -0.1430
  587TMC3     H 8706   2.522   0.724  16.434  0.2825  0.3572  0.8160
  587TMC3    H1 8707   2.761   0.426  16.293 -0.3334  0.0901  0.7692
  587TMC3    H2 8708   2.893   0.648  16.644 -1.7456 -1.2293  2.4023
  587TMC3    C7 8709   2.932   0.426  16.523  0.2517 -0.0700 -0.2104
  587TMC3    C8 8710   2.700   0.828  16.611 -0.0864  0.5161  0.1938
  587TMC3    O1 8711   2.976   0.442  16.636  0.3027  0.9623  0.2723
  587TMC3    O2 8712   2.797   0.856  16.675  0.7142 -0.3204  0.1727
  588TMC3    C1 8713   4.642   3.532   9.600 -0.0593  1.0216  0.5368
  588TMC3    C2 8714   4.707   3.418   9.562  0.4553  0.5450  0.2801
  588TMC3    C3 8715   0.099   3.378   9.628 -0.8676  0.3221 -0.2379
  588TMC3    C4 8716   4.666   3.586   9.727 -0.3929 -0.2900 -0.1213
  588TMC3    C5 8717   0.064   3.549   9.792 -0.8063 -0.1601 -0.0937
  588TMC3    C6 8718   0.136   3.434   9.750  0.1332  0.6114 -0.1102
  588TMC3     C 8719   4.517   3.563   9.530  0.1835 -0.3446 -0.6717
  588TMC3     O 8720   4.440   3.475   9.492 -0.0801  0.1312  0.1194
  588TMC3     H 8721   4.673   3.350   9.485 -0.4406 -0.3670  1.4788
  588TMC3    H1 8722   4.601   3.662   9.768 -4.1614 -2.9336 -1.2472
  588TMC3    H2 8723   0.235   3.425   9.792 -0.2144  1.2612  0.8345
  588TMC3    C7 8724   0.118   3.643   9.890  0.2072  0.1712 -0.2555
  588TMC3    C8 8725   0.153   3.240   9.597 -0.3612 -0.5211 -0.4782
  588TMC3    O1 8726   0.201   3.617   9.973 -0.5934  0.5660  0.0051
  588TMC3    O2 8727   0.141   3.200   9.481 -0.0523 -0.1393  0.2718
  589TMC3    C1 8728   3.644   1.383   1.356 -0.3983  0.4271 -0.3835
  589TMC3    C2 8729   3.728   1.377   1.466 -0.5700  0.0149  0.2758
  589TMC3    C3 8730   3.850   1.320   1.450 -1.0131  0.3990 -0.4889
  589TMC3    C4 8731   3.690   1.334   1.232 -0.0571 -0.1960 -0.5271
  589TMC3    C5 8732   3.819   1.281   1.223  0.1887 -0.4781 -0.8722
  589TMC3    C6 8733   3.888   1.262   1.334 -0.1092  0.0225 -0.3282
  589TMC3     C 8734   3.520   1.453   1.360 -0.8205  0.0922  1.0104
  589TMC3     O 8735   3.467   1.461   1.253 -0.1167  0.3087 -0.4250
  589TMC3     H 8736   3.689   1.409   1.562 -1.6244 -0.0787 -0.1179
  589TMC3    H1 8737   3.621   1.329   1.148 -0.3133  0.5052 -0.3555
  589TMC3    H2 8738   3.984   1.212   1.327  0.3364  0.6157  1.5797
  589TMC3    C7 8739   3.856   1.211   1.106  0.2496 -0.5260  0.0200
  589TMC3    C8 8740   3.931   1.308   1.567 -0.4950 -0.1739 -1.1341
  589TMC3    O1 8741   3.776   1.148   1.037 -0.4461  0.1751  0.3114
  589TMC3    O2 8742   3.884   1.342   1.674 -0.0843  0.2813  0.1379
  590MPD2     C 8743   3.162   3.782  16.203 -0.0503 -0.1305  0.2732
  590MPD2    C1 8744   3.128   3.880  16.118  0.3464 -1.0230  0.9780
  590MPD2    C2 8745   3.213   3.984  16.094 -0.5105  0.2782 -0.2107
  590MPD2    C3 8746   3.320   3.994  16.174  0.2022 -0.2627  0.1473
  590MPD2    C4 8747   3.366   3.897  16.261  0.2709  0.2048  0.0795
  590MPD2    C5 8748   3.284   3.788  16.269 -1.1608 -0.4894 -0.4064
  590MPD2     H 8749   3.190   4.064  16.025  0.8261  2.9467  2.4500
  590MPD2    H1 8750   3.464   3.892  16.305  1.4693  2.2142 -2.3391
  590MPD2    H2 8751   3.102   3.694  16.218 -0.6733  0.0137 -1.4552
  590MPD2    H3 8752   3.306   3.707  16.337 -2.0478 -0.5771 -0.2198
  590MPD2     N 8753   3.398   4.108  16.150 -1.0465 -0.5062 -0.8549
  590MPD2    H5 8754   3.356   4.174  16.085  0.2954  1.5785  0.3869
  590MPD2    N1 8755   2.998   3.870  16.066  0.9589 -0.2050  0.4666
  590MPD2    H7 8756   2.932   3.805  16.108  0.8759  0.1125  0.8260
  591TMC3    C1 8757   3.565   4.270  16.157  0.0055  0.1049  0.0747
  591TMC3    C2 8758   3.695   4.284  16.131 -0.6348 -0.2642 -0.0122
  591TMC3    C3 8759   3.737   4.397  16.068 -0.9675  0.1460 -0.5216
  591TMC3    C4 8760   3.468   4.363  16.132 -0.0095  0.1794  0.3595
  591TMC3    C5 8761   3.512   4.479  16.074  0.1204 -0.0773 -0.4903
  591TMC3    C6 8762   3.646   4.505  16.051  0.1698  0.3273 -0.2235
  591TMC3     C 8763   3.525   4.139  16.203  0.3620 -0.0156 -0.4224
  591TMC3     O 8764   3.601   4.076  16.277  0.1595  0.1356 -0.2278
  591TMC3     H 8765   3.770   4.209  16.155 -0.6430  0.1503  1.3071
  591TMC3    H1 8766   3.362   4.353  16.149 -0.3790 -1.1323 -2.7036
  591TMC3    H2 8767   3.671   4.581  15.978  0.1958  2.1105  1.6717
  591TMC3    C7 8768   3.415   4.592  16.066  0.6677  0.3067  0.2232
  591TMC3    C8 8769   3.839   4.366  15.970 -0.3422  0.5921 -0.7514
  591TMC3    O1 8770   3.297   4.571  16.093 -0.1850  0.2022  0.1710
  591TMC3    O2 8771   3.864   4.249  15.950 -0.1047 -0.5913  0.3391
  592MPD2     C 8772   3.295   1.484  11.595  0.1938 -0.4144  0.1100
  592MPD2    C1 8773   3.371   1.458  11.706 -0.8264  0.2113 -0.6442
  592MPD2    C2 8774   3.322   1.363  11.793 -0.3512  0.3943 -0.3215
  592MPD2    C3 8775   3.215   1.282  11.760  0.4177  0.2087 -0.1297
  592MPD2    C4 8776   3.145   1.305  11.645  0.1122  0.0876 -0.2587
  592MPD2    C5 8777   3.196   1.401  11.560  0.2540 -0.7235 -0.0371
  592MPD2     H 8778   3.383   1.342  11.879 -1.0920  2.4741  0.7238
  592MPD2    H1 8779   3.066   1.245  11.602  0.2154  0.8126 -1.4443
  592MPD2    H2 8780   3.323   1.561  11.524  1.9290 -2.9419 -1.9473
  592MPD2    H3 8781   3.138   1.432  11.475  0.2216 -0.7762 -0.0337
  592MPD2     N 8782   3.170   1.183  11.854 -0.3000 -0.3544  0.1386
  592MPD2    H5 8783   3.210   1.169  11.946  3.5816  0.6301 -1.4117
  592MPD2    N1 8784   3.481   1.542  11.727  0.0699 -0.3422  0.2864
  592MPD2    H7 8785   3.515   1.601  11.652 -2.8561  2.4443  1.1400
  593TMC3    C1 8786   3.659   1.644  11.833 -0.2535 -0.2160 -0.0940
  593TMC3    C2 8787   3.711   1.687  11.948  0.0962 -1.1005 -0.3060
  593TMC3    C3 8788   3.844   1.707  11.963  1.2716  0.0170  0.6093
  593TMC3    C4 8789   3.730   1.634  11.717  0.1263 -0.0091  0.2951
  593TMC3    C5 8790   3.861   1.674  11.728 -0.0345  0.2650  0.3504
  593TMC3    C6 8791   3.922   1.704  11.846 -0.0953  0.0364 -0.0877
  593TMC3     C 8792   3.539   1.568  11.849  0.4608  0.6315 -0.1008
  593TMC3     O 8793   3.496   1.527  11.958  0.7846 -0.3811 -0.1488
  593TMC3     H 8794   3.661   1.664  12.041 -0.9329 -1.1772 -0.8766
  593TMC3    H1 8795   3.689   1.588  11.628  0.0095  0.4111  0.1365
  593TMC3    H2 8796   4.025   1.736  11.852 -0.1579  0.0155  1.1301
  593TMC3    C7 8797   3.949   1.659  11.608 -0.4277 -0.1950 -0.0170
  593TMC3    C8 8798   3.877   1.797  12.070  0.1819  0.1462 -0.4623
  593TMC3    O1 8799   4.068   1.646  11.633  0.3530  0.4399  0.8223
  593TMC3    O2 8800   3.780   1.839  12.135  0.0400 -0.8028  0.2794
  594MPD2     C 8801   2.629   0.203  14.637  0.9367 -0.0572 -0.2249
  594MPD2    C1 8802   2.570   0.253  14.521 -0.1312  0.3510 -0.2347
  594MPD2    C2 8803   2.631   0.355  14.451  0.4741 -0.1130  0.4874
  594MPD2    C3 8804   2.757   0.401  14.484  0.2270  0.3116  0.0110
  594MPD2    C4 8805   2.815   0.354  14.604  0.1152  0.0653  0.8078
  594MPD2    C5 8806   2.743   0.269  14.689  0.9782  0.0410 -0.2816
  594MPD2     H 8807   2.584   0.384  14.358 -2.3954 -3.2805  0.9651
  594MPD2    H1 8808   2.907   0.397  14.639  0.3325  0.3623 -0.1116
  594MPD2    H2 8809   2.571   0.145  14.708  3.5197 -1.2692  0.9220
  594MPD2    H3 8810   2.773   0.247  14.790 -1.0348  0.1877  0.3337
  594MPD2     N 8811   2.825   0.485  14.395 -0.0821  0.3584 -0.5218
  594MPD2    H5 8812   2.768   0.525  14.321 -0.6140  0.6767  0.0558
  594MPD2    N1 8813   2.454   0.186  14.489  0.1390 -0.3013 -0.5149
  594MPD2    H7 8814   2.427   0.107  14.547  2.0898 -1.3877 -1.0786
  595TMC3    C1 8815   3.159   0.729  14.194  0.1653 -0.3249  0.3815
  595TMC3    C2 8816   3.128   0.618  14.263 -0.4934 -0.9928  0.1519
  595TMC3    C3 8817   3.001   0.613  14.311 -0.0698  0.1862  0.1344
  595TMC3    C4 8818   3.067   0.827  14.158 -0.3596 -0.3443 -0.9665
  595TMC3    C5 8819   2.954   0.817  14.225  0.3698  0.0017  0.3129
  595TMC3    C6 8820   2.914   0.709  14.291 -0.2971 -0.2487  0.2888
  595TMC3     C 8821   3.284   0.792  14.222  0.2795 -0.8771  0.4908
  595TMC3     O 8822   3.283   0.907  14.271  0.1632  0.2112 -0.3850
  595TMC3     H 8823   3.201   0.539  14.279 -1.0961 -2.2384 -3.3194
  595TMC3    H1 8824   3.090   0.917  14.104  2.3195 -1.9799 -2.5330
  595TMC3    H2 8825   2.821   0.712  14.345 -1.1284  0.4734 -1.1988
  595TMC3    C7 8826   2.883   0.939  14.245 -0.1189 -0.0180 -0.0172
  595TMC3    C8 8827   2.962   0.503  14.393 -0.3738 -0.5882 -0.1207
  595TMC3    O1 8828   2.834   0.968  14.355  0.0460  0.4817  0.0215
  595TMC3    O2 8829   3.044   0.447  14.465  0.0383 -0.6664 -0.4736
  596MPD2     C 8830   1.799   3.109  16.626 -0.2978  0.5483 -0.1842
  596MPD2    C1 8831   1.764   3.211  16.541  0.3761  0.0889 -0.2015
  596MPD2    C2 8832   1.807   3.212  16.406 -0.1649  0.3080  0.1196
  596MPD2    C3 8833   1.860   3.097  16.354  0.3320  0.0576  0.2691
  596MPD2    C4 8834   1.888   2.987  16.437  0.0738 -0.4025 -0.5633
  596MPD2    C5 8835   1.859   3.001  16.569  0.2748 -0.2179  0.3168
  596MPD2     H 8836   1.770   3.301  16.356  0.1734 -0.3436 -1.3072
  596MPD2    H1 8837   1.917   2.890  16.399  1.0526 -1.3316  2.4990
  596MPD2    H2 8838   1.781   3.114  16.733  1.9740  2.2868  0.1071
  596MPD2    H3 8839   1.869   2.911  16.629  0.5205 -0.5195 -0.1815
  596MPD2     N 8840   1.878   3.078  16.215  0.2295  0.0304 -0.3794
  596MPD2    H5 8841   1.921   2.990  16.189 -2.6113 -0.8487 -2.0905
  596MPD2    N1 8842   1.718   3.334  16.597 -0.0664 -1.0883 -0.2662
  596MPD2    H7 8843   1.717   3.414  16.535  1.5130 -0.9375 -0.0981
  597TMC3    C1 8844   1.621   3.489  16.753  0.6022  0.2162 -0.5971
  597TMC3    C2 8845   1.665   3.591  16.673 -0.5750  0.2932 -0.1891
  597TMC3    C3 8846   1.602   3.713  16.687 -0.4123 -0.5302 -0.8767
  597TMC3    C4 8847   1.530   3.503  16.854 -0.6884  0.5371 -0.1373
  597TMC3    C5 8848   1.482   3.628  16.868 -0.3260  0.5828  0.3989
  597TMC3    C6 8849   1.516   3.735  16.786 -0.3278  0.1724  0.3004
  597TMC3     C 8850   1.669   3.350  16.723  0.5949 -0.4845 -0.0172
  597TMC3     O 8851   1.638   3.262  16.803 -0.8050 -0.5444 -0.3197
  597TMC3     H 8852   1.753   3.587  16.609  1.4023 -1.2077  2.6543
  597TMC3    H1 8853   1.485   3.420  16.908  0.6903 -0.0781  0.0598
  597TMC3    H2 8854   1.476   3.835  16.801  0.0784  0.8078 -2.9780
  597TMC3    C7 8855   1.372   3.643  16.963  0.9141 -0.4246 -0.8759
  597TMC3    C8 8856   1.642   3.828  16.606  0.1773 -0.0824  0.5521
  597TMC3    O1 8857   1.357   3.550  17.042  0.5420  0.0425  1.0366
  597TMC3    O2 8858   1.596   3.936  16.635 -0.1706  0.1236 -0.2654
  598TMC3    C1 8859   4.420   0.101  15.202  0.1590 -0.1365 -1.1127
  598TMC3    C2 8860   4.350   0.012  15.135  0.3299 -0.4657 -1.0277
  598TMC3    C3 8861   4.398   4.689  15.009 -0.0178  0.6354  0.1935
  598TMC3    C4 8862   4.536   0.160  15.161 -0.2004  0.1455 -0.4647
  598TMC3    C5 8863   4.577   0.115  15.040  0.6362  0.2667 -0.6935
  598TMC3    C6 8864   4.514   0.022  14.963 -0.5227 -0.3800  0.3374
  598TMC3     C 8865   4.412   0.116  15.344 -0.0875  0.5639 -0.1359
  598TMC3     O 8866   4.438   0.225  15.390 -0.2448  0.9406  0.5096
  598TMC3     H 8867   4.262   4.685  15.176  0.6487 -0.4057 -0.2629
  598TMC3    H1 8868   4.597   0.219  15.227  1.5837  0.0184 -2.0063
  598TMC3    H2 8869   4.554   0.000  14.865  1.1950 -0.7950  1.1227
  598TMC3    C7 8870   4.688   0.187  14.973  0.3696 -0.7372 -0.2681
  598TMC3    C8 8871   4.330   4.589  14.928  0.2285 -0.5593  0.8948
  598TMC3    O1 8872   0.000   0.147  14.865  0.0699 -0.2003  0.5763
  598TMC3    O2 8873   4.409   4.531  14.850 -0.1499  0.0827  0.2301
  599MPD2     C 8874   0.081   2.819  15.976 -0.1333 -0.1243 -0.2444
  599MPD2    C1 8875   0.005   2.708  15.979  0.1735 -0.0844  0.1815
  599MPD2    C2 8876   4.596   2.709  16.021  0.1717  0.2101  0.3757
  599MPD2    C3 8877   4.544   2.831  16.066  0.1022  0.5211  0.5901
  599MPD2    C4 8878   4.634   2.938  16.064 -0.6876  0.2592 -0.2167
  599MPD2    C5 8879   0.043   2.934  16.029 -0.1298  0.1435 -0.0648
  599MPD2     H 8880   4.536   2.619  16.026 -1.4794  1.2399 -0.5851
  599MPD2    H1 8881   4.601   3.032  16.105  2.1623  0.8365  0.7938
  599MPD2    H2 8882   0.185   2.813  15.946 -0.5424  0.2395 -1.7584
  599MPD2    H3 8883   0.100   3.024  16.046 -0.5981  0.5168 -0.4607
  599MPD2     N 8884   4.406   2.847  16.118  0.3934  0.2098 -0.1314
  599MPD2    H5 8885   4.378   2.932  16.165  0.9119  1.4838 -2.1421
  599MPD2    N1 8886   0.073   2.591  15.941  0.1775 -0.2027  0.8373
  599MPD2    H7 8887   0.174   2.593  15.928 -0.0000 -0.5916 -0.5217
  600TMC3    C1 8888   4.230   2.785  16.263  0.2806  0.1648 -0.7221
  600TMC3    C2 8889   4.190   2.690  16.355  0.6482  0.2349  0.1755
  600TMC3    C3 8890   4.106   2.735  16.452  0.3587  0.1392 -0.9365
  600TMC3    C4 8891   4.175   2.908  16.250 -0.0342 -0.1290 -0.7640
  600TMC3    C5 8892   4.084   2.944  16.344 -0.3308  0.1353  0.9091
  600TMC3    C6 8893   4.049   2.860  16.444  0.2088  1.1085  0.3079
  600TMC3     C 8894   4.321   2.742  16.161 -0.8864 -0.2212 -0.4356
  600TMC3     O 8895   4.340   2.624  16.149  0.1699  0.0347 -0.8686
  600TMC3     H 8896   4.241   2.596  16.375  0.1921 -0.1246 -0.3740
  600TMC3    H1 8897   4.205   2.979  16.173  1.0951  0.0436 -0.1488
  600TMC3    H2 8898   3.978   2.888  16.521 -0.8001  1.9560 -0.9256
  600TMC3    C7 8899   3.991   3.052  16.302 -0.0339  0.3103 -0.1366
  600TMC3    C8 8900   4.099   2.661  16.577  0.3685  0.0083  0.8940
  600TMC3    O1 8901   3.983   3.073  16.180  0.0502 -0.0242 -0.2064
  600TMC3    O2 8902   4.066   2.730  16.673  0.4360 -0.0500  0.5072
  601MPD2     C 8903   1.425   0.195   0.067  0.4827  0.5247 -0.2312
  601MPD2    C1 8904   1.403   0.193  17.615  0.2530 -0.3161  0.5320
  601MPD2    C2 8905   1.376   0.070  17.552  0.5941 -0.3677 -0.6554
  601MPD2    C3 8906   1.367   4.676  17.630  0.5107 -0.3076  0.3533
  601MPD2    C4 8907   1.403   4.677   0.079  0.5536  0.4534 -0.3483
  601MPD2    C5 8908   1.429   0.075   0.135 -0.2559 -1.2682 -0.0692
  601MPD2     H 8909   1.346   0.066  17.448 -1.5127 -1.5570 -0.0066
  601MPD2    H1 8910   1.377   4.595   0.146  0.7826  0.9431  0.3435
  601MPD2    H2 8911   1.456   0.278   0.129  3.7424 -1.5325  0.8347
  601MPD2    H3 8912   1.457   0.077   0.239 -2.1863 -0.2169  0.4333
  601MPD2     N 8913   1.352   4.539  17.583 -0.3552 -0.1432 -0.1296
  601MPD2    H5 8914   1.356   4.467  17.654 -0.4125 -1.9967 -2.0044
  601MPD2    N1 8915   1.431   0.302  17.529  0.2957  0.0003 -0.5323
  601MPD2    H7 8916   1.457   0.281  17.433 -0.2559  1.6424 -1.0427
  602TMC3    C1 8917   1.458   0.522  17.469 -0.3959 -0.2109  1.3254
  602TMC3    C2 8918   1.557   0.499  17.378 -0.8424 -0.6570 -0.3276
  602TMC3    C3 8919   1.586   0.599  17.288  0.1147 -0.0876 -0.3416
  602TMC3    C4 8920   1.393   0.643  17.483 -0.4399  0.4944 -0.2260
  602TMC3    C5 8921   1.418   0.735  17.385 -0.1370  0.0935  0.1613
  602TMC3    C6 8922   1.516   0.722  17.290 -0.2930 -0.4826 -0.0337
  602TMC3     C 8923   1.431   0.430  17.574 -0.3962 -0.3964 -0.8501
  602TMC3     O 8924   1.391   0.466  17.685  0.0830  0.6650 -0.5611
  602TMC3     H 8925   1.615   0.408  17.368  0.3575  0.0781 -0.1059
  602TMC3    H1 8926   1.320   0.649  17.563  1.8837  0.1659  1.8925
  602TMC3    H2 8927   1.532   0.807  17.224 -1.2669 -0.3569 -0.1065
  602TMC3    C7 8928   1.301   0.815  17.346 -0.5137  0.3034 -0.3543
  602TMC3    C8 8929   1.681   0.582  17.175  0.0994  0.1732  0.4755
  602TMC3    O1 8930   1.221   0.841  17.433  0.2798  1.0030  0.3979
  602TMC3    O2 8931   1.794   0.543  17.209 -0.4413 -0.4461 -0.1120
  603TMC3    C1 8932   4.394   1.050  11.155  1.4562 -0.3477 -0.8048
  603TMC3    C2 8933   4.424   1.059  11.288  0.4981 -0.2601 -0.0490
  603TMC3    C3 8934   4.532   1.139  11.326  0.4337 -0.2244 -0.0539
  603TMC3    C4 8935   4.459   1.127  11.059  0.1400  0.2230  0.6190
  603TMC3    C5 8936   4.561   1.209  11.099 -0.5734  0.0771  0.3904
  603TMC3    C6 8937   4.595   1.218  11.233 -0.4744  0.1988 -0.3019
  603TMC3     C 8938   4.293   0.953  11.121 -0.2275 -0.0338  0.1227
  603TMC3     O 8939   4.247   0.890  11.214 -0.1125  0.5363 -0.4460
  603TMC3     H 8940   4.374   0.998  11.363  1.8717 -0.0442  1.0339
  603TMC3    H1 8941   4.438   1.108  10.954 -4.3341  1.0910  1.3666
  603TMC3    H2 8942   4.693   1.255  11.263 -0.0471 -0.9919 -0.2532
  603TMC3    C7 8943   4.631   1.294  11.009 -0.1237  0.0314  0.1395
  603TMC3    C8 8944   4.589   1.104  11.454 -0.0438 -0.6706  0.0541
  603TMC3    O1 8945   0.013   1.347  11.053  0.0878 -0.1261  0.0464
  603TMC3    O2 8946   4.556   0.995  11.502 -0.0755  0.2272 -0.4187
  604MPD2     C 8947   0.646   4.492  16.477  0.6852 -0.0357  0.4193
  604MPD2    C1 8948   0.549   4.568  16.409  0.4701 -0.2523 -0.4178
  604MPD2    C2 8949   0.545   4.559  16.274 -0.3109  1.3434  0.4117
  604MPD2    C3 8950   0.629   4.477  16.206  0.0315  0.5261 -0.1113
  604MPD2    C4 8951   0.720   4.397  16.272 -0.0246 -0.1782 -0.1544
  604MPD2    C5 8952   0.723   4.401  16.409 -0.4961 -0.5051 -0.1342
  604MPD2     H 8953   0.474   4.617  16.216 -0.4415 -0.6980 -1.4711
  604MPD2    H1 8954   0.790   4.326  16.232 -1.1672 -1.3628 -0.0512
  604MPD2    H2 8955   0.654   4.498  16.585  1.3595 -1.8509  0.4582
  604MPD2    H3 8956   0.791   4.343  16.471  2.3852  1.6718 -1.2906
  604MPD2     N 8957   0.615   4.467  16.066  0.7511  0.1544  0.4543
  604MPD2    H5 8958   0.547   4.524  16.017  0.5858 -0.6156 -0.2160
  604MPD2    N1 8959   0.479   4.667  16.482  0.2267 -0.1795  0.6179
  604MPD2    H7 8960   0.493   4.667  16.583 -0.3039  1.8950  0.6916
  605TMC3    C1 8961   0.366   0.149  16.518 -0.4105  0.6341 -0.2729
  605TMC3    C2 8962   0.467   0.205  16.596  0.3303 -0.1532 -0.1995
  605TMC3    C3 8963   0.448   0.339  16.630 -0.4553 -0.1554 -0.0054
  605TMC3    C4 8964   0.252   0.217  16.475  0.0184 -0.0641  0.2631
  605TMC3    C5 8965   0.250   0.351  16.499 -0.4108 -0.1833 -0.6694
  605TMC3    C6 8966   0.345   0.408  16.581  0.1827 -0.5227 -0.1207
  605TMC3     C 8967   0.404   0.045  16.432  0.6420  0.2178 -0.0325
  605TMC3     O 8968   0.385   0.070  16.313 -0.5324  0.3715 -0.5968
  605TMC3     H 8969   0.551   0.145  16.628 -0.2208 -1.0402 -0.4269
  605TMC3    H1 8970   0.176   0.159  16.425 -0.4422 -0.3472  1.3021
  605TMC3    H2 8971   0.345   0.516  16.592  1.1244 -0.7543  2.0754
  605TMC3    C7 8972   0.140   0.425  16.444 -0.2480  0.0879 -0.0646
  605TMC3    C8 8973   0.570   0.409  16.649 -0.6196 -0.4135 -0.1868
  605TMC3    O1 8974   0.119   0.533  16.498  0.2054 -0.7311 -0.4848
  605TMC3    O2 8975   0.596   0.493  16.566  0.2536  0.1967  0.0263
  606TMC3    C1 8976   2.858   2.530  17.021 -0.2627  0.4625  0.2405
  606TMC3    C2 8977   2.978   2.552  17.078 -0.1125  0.7144 -0.2523
  606TMC3    C3 8978   3.008   2.491  17.197 -0.3127  0.3938  0.2452
  606TMC3    C4 8979   2.762   2.446  17.064 -0.1295  0.5232  0.1591
  606TMC3    C5 8980   2.801   2.384  17.182 -0.5387  0.7830  0.2279
  606TMC3    C6 8981   2.922   2.394  17.248 -0.4796  0.2449  0.3056
  606TMC3     C 8982   2.815   2.622  16.922 -0.3508 -0.2299 -0.1344
  606TMC3     O 8983   2.887   2.631  16.823  0.1417  0.0206  0.6987
  606TMC3     H 8984   3.053   2.621  17.040  0.8250  0.2414  0.7342
  606TMC3    H1 8985   2.666   2.446  17.015 -0.1716  2.2234  0.2278
  606TMC3    H2 8986   2.930   2.350  17.347  1.5790  0.9446  0.4489
  606TMC3    C7 8987   2.714   2.285  17.250 -0.4794 -0.6451 -0.2426
  606TMC3    C8 8988   3.112   2.547  17.287 -0.4518  0.1336 -0.8095
  606TMC3    O1 8989   2.778   2.188  17.298  0.3516 -0.3841  0.4957
  606TMC3    O2 8990   3.140   2.667  17.281  0.1168 -0.0179 -0.1105
  607MPD2     C 8991   3.772   1.243  11.463 -0.7374 -0.1451  0.0689
  607MPD2    C1 8992   3.861   1.316  11.534  0.7647 -0.0199 -0.4700
  607MPD2    C2 8993   3.850   1.315  11.671 -0.3450  0.1564  0.0328
  607MPD2    C3 8994   3.748   1.247  11.737  0.2945  0.7664  0.7936
  607MPD2    C4 8995   3.656   1.188  11.663 -0.1641 -0.3539 -0.8754
  607MPD2    C5 8996   3.669   1.181  11.528 -0.2825 -0.0379  0.3043
  607MPD2     H 8997   3.919   1.372  11.732 -0.2977 -1.4454  1.4837
  607MPD2    H1 8998   3.573   1.132  11.704  0.0160  0.6591  0.8704
  607MPD2    H2 8999   3.792   1.240  11.356  1.7976 -1.3970  0.5621
  607MPD2    H3 9000   3.596   1.128  11.467  0.0210 -1.1627  0.9230
  607MPD2     N 9001   3.745   1.255  11.877 -0.1194 -0.3458  0.5222
  607MPD2    H5 9002   3.822   1.303  11.923  2.0032 -0.0491 -3.3938
  607MPD2    N1 9003   3.983   1.374  11.488  0.5100 -0.3481  0.4787
  607MPD2    H7 9004   4.035   1.417  11.564 -0.1057  1.1363  0.0504
  608TMC3    C1 9005   4.176   1.414  11.376  0.0193  0.0206  0.2679
  608TMC3    C2 9006   4.224   1.423  11.504 -0.2628 -0.4621  0.2988
  608TMC3    C3 9007   4.349   1.484  11.521 -0.2805  0.2848 -0.1239
  608TMC3    C4 9008   4.244   1.455  11.265  0.4757 -0.3045 -0.1099
  608TMC3    C5 9009   4.365   1.509  11.286 -0.6436  0.4441  0.4296
  608TMC3    C6 9010   4.415   1.539  11.413  0.4052 -0.3577 -0.1959
  608TMC3     C 9011   4.038   1.373  11.364 -0.3238  0.5386  1.4158
  608TMC3     O 9012   3.991   1.328  11.258  0.2553  0.3127  0.0463
  608TMC3     H 9013   4.190   1.364  11.588 -2.3575  0.3305  0.0072
  608TMC3    H1 9014   4.193   1.460  11.169  0.4351 -0.9134 -0.1204
  608TMC3    H2 9015   4.511   1.585  11.433  0.5826 -1.0978  0.7096
  608TMC3    C7 9016   4.443   1.564  11.173  0.8357 -0.5740 -0.0096
  608TMC3    C8 9017   4.398   1.519  11.652  0.0278  0.0793  0.2804
  608TMC3    O1 9018   4.386   1.551  11.063  0.1919 -0.2273 -0.2161
  608TMC3    O2 9019   4.517   1.555  11.665 -0.2080  0.0538  0.1938
  609TMC3    C1 9020   2.849   0.510   8.980  0.2788  0.6160 -0.1373
  609TMC3    C2 9021   2.915   0.626   8.952 -0.2444  0.0958  1.0826
  609TMC3    C3 9022   3.051   0.616   8.926 -0.5525  0.1113 -0.2123
  609TMC3    C4 9023   2.908   0.384   8.972 -0.6081 -0.5565 -0.0210
  609TMC3    C5 9024   3.043   0.380   8.940 -0.5316 -0.1917  0.1142
  609TMC3    C6 9025   3.114   0.491   8.915 -0.3210 -0.1636 -0.4738
  609TMC3     C 9026   2.709   0.501   8.985 -0.2875 -0.6004 -0.0135
  609TMC3     O 9027   2.657   0.391   8.966 -0.2762  0.9696  0.1258
  609TMC3     H 9028   2.868   0.723   8.965 -0.8413 -0.0614  0.0508
  609TMC3    H1 9029   2.866   0.296   9.018  1.2649 -1.7423 -0.5911
  609TMC3    H2 9030   3.219   0.482   8.891 -0.6462  0.9122 -2.3379
  609TMC3    C7 9031   3.111   0.259   8.980  0.5306 -0.2666  0.0439
  609TMC3    C8 9032   3.142   0.727   8.910 -0.1376 -0.2162 -0.4644
  609TMC3    O1 9033   3.219   0.272   9.031  0.0422  0.1547  0.0573
  609TMC3    O2 9034   3.259   0.700   8.910 -0.0539  0.1444  0.0337
  610TMC3    C1 9035   3.984   0.641  12.786  0.7534 -0.0067 -0.0833
  610TMC3    C2 9036   3.976   0.703  12.907  0.1234  0.7395  0.5885
  610TMC3    C3 9037   4.091   0.694  12.987 -0.2249  0.1057  0.1225
  610TMC3    C4 9038   4.096   0.566  12.743  0.0895 -0.2199 -0.1343
  610TMC3    C5 9039   4.187   0.545  12.842  0.6944  0.1959 -0.0356
  610TMC3    C6 9040   4.193   0.612  12.958 -0.0249 -0.2213  0.1249
  610TMC3     C 9041   3.877   0.647  12.690  0.1321  0.4301  0.5414
  610TMC3     O 9042   3.857   0.551  12.618 -0.2757 -0.4048 -0.1759
  610TMC3     H 9043   3.878   0.742  12.933 -0.3994  1.5006 -2.4927
  610TMC3    H1 9044   4.089   0.502  12.657 -0.1133  0.7728 -0.8545
  610TMC3    H2 9045   4.269   0.599  13.035 -1.4443 -2.5736  1.1169
  610TMC3    C7 9046   4.312   0.476  12.798  0.2885 -0.5976 -0.8899
  610TMC3    C8 9047   4.082   0.740  13.126 -0.4738 -0.0154  0.3566
  610TMC3    O1 9048   4.398   0.476  12.885 -0.3389 -0.0026 -0.3117
  610TMC3    O2 9049   4.135   0.696  13.227 -0.0585 -0.2170 -0.2489
  611MPD2     C 9050   3.638   1.369   9.972  0.1132 -0.0185  0.8128
  611MPD2    C1 9051   3.698   1.298  10.079 -0.2579 -0.3352 -0.5764
  611MPD2    C2 9052   3.835   1.282  10.088  0.0094  0.3479 -0.1547
  611MPD2    C3 9053   3.917   1.343   9.993 -0.7663  0.3036  0.4992
  611MPD2    C4 9054   3.854   1.420   9.894 -0.1717 -0.0867  0.6537
  611MPD2    C5 9055   3.719   1.428   9.877 -0.0175 -0.2687 -0.0489
  611MPD2     H 9056   3.876   1.230  10.174 -0.9035 -1.0125 -0.5511
  611MPD2    H1 9057   3.918   1.486   9.836 -3.1670  1.7853 -0.5252
  611MPD2    H2 9058   3.531   1.382   9.957  0.5535  1.6733 -0.7372
  611MPD2    H3 9059   3.684   1.485   9.793  0.4841 -1.0870 -0.8193
  611MPD2     N 9060   4.053   1.357   9.997 -0.3872  0.0187  0.0448
  611MPD2    H5 9061   4.096   1.411   9.922 -1.0464  0.5235  0.0346
  611MPD2    N1 9062   3.609   1.220  10.163  0.2866 -0.5916 -0.2622
  611MPD2    H7 9063   3.508   1.227  10.156  0.4373 -0.1764 -1.9768
  612TMC3    C1 9064   4.274   1.353  10.082 -0.5585  0.6111 -0.3322
  612TMC3    C2 9065   4.360   1.364  10.181  0.1841  0.9704 -0.3148
  612TMC3    C3 9066   4.495   1.389  10.155  0.1388 -0.1448 -0.0296
  612TMC3    C4 9067   4.321   1.368   9.952  0.0986  0.0574  0.0906
  612TMC3    C5 9068   4.450   1.394   9.925  1.1544  0.1661 -0.0520
  612TMC3    C6 9069   4.543   1.401  10.028 -0.7804  0.7969 -0.3481
  612TMC3     C 9070   4.136   1.316  10.106 -0.9486 -0.0300 -0.5983
  612TMC3     O 9071   4.104   1.239  10.193 -0.0080  0.1365  0.3172
  612TMC3     H 9072   4.310   1.360  10.277 -0.2868  0.8097 -0.5650
  612TMC3    H1 9073   4.260   1.330   9.870 -1.4138  1.2000  0.6723
  612TMC3    H2 9074   4.651   1.414  10.019 -0.5499 -1.1462 -0.3906
  612TMC3    C7 9075   4.493   1.423   9.787  0.2254 -0.4355  0.1740
  612TMC3    C8 9076   4.584   1.408  10.269 -0.3039 -0.1497 -0.5592
  612TMC3    O1 9077   4.411   1.396   9.698 -0.0964 -0.1717 -0.2026
  612TMC3    O2 9078   4.676   1.481  10.255 -0.3326 -0.1323 -0.6496
  613MPD2     C 9079   3.059   2.684  16.228 -1.0703  0.3681 -0.1269
  613MPD2    C1 9080   2.962   2.786  16.220  0.5564  0.1908 -0.2105
  613MPD2    C2 9081   2.859   2.777  16.302  0.0032  0.4107  0.2557
  613MPD2    C3 9082   2.838   2.669  16.390  0.0477  0.2444  0.5476
  613MPD2    C4 9083   2.928   2.571  16.394  0.0075 -0.4652 -0.1750
  613MPD2    C5 9084   3.034   2.578  16.315 -0.0219  0.2401 -0.2267
  613MPD2     H 9085   2.779   2.850  16.293 -1.0958 -0.9654 -1.0540
  613MPD2    H1 9086   2.916   2.483  16.456 -0.1371 -1.3090 -1.4048
  613MPD2    H2 9087   3.154   2.686  16.176 -1.5157 -3.1035 -1.0758
  613MPD2    H3 9088   3.107   2.498  16.303  0.5612  0.6358  0.7038
  613MPD2     N 9089   2.727   2.649  16.471 -0.6133 -0.1093 -0.2439
  613MPD2    H5 9090   2.719   2.561  16.520 -1.3730 -0.1579 -0.4617
  613MPD2    N1 9091   2.973   2.883  16.119 -0.2105  0.2399  0.4251
  613MPD2    H7 9092   3.033   2.869  16.039 -1.0559  1.0127 -0.3487
  614TMC3    C1 9093   2.843   2.986  15.959  0.0036  0.0521  0.1580
  614TMC3    C2 9094   2.857   2.872  15.893  0.3400 -0.1167  0.1578
  614TMC3    C3 9095   2.772   2.841  15.791 -0.6775 -0.4755  0.1763
  614TMC3    C4 9096   2.754   3.081  15.914  0.0506 -0.1693  0.6597
  614TMC3    C5 9097   2.673   3.043  15.809 -1.0745  0.3430  0.8968
  614TMC3    C6 9098   2.682   2.926  15.749 -0.0049  0.1540  0.1816
  614TMC3     C 9099   2.872   2.975  16.105 -0.5938  0.1847  0.4922
  614TMC3     O 9100   2.792   3.034  16.178 -0.2716  0.0702  0.4229
  614TMC3     H 9101   2.932   2.798  15.921  0.5797 -0.3925 -1.1679
  614TMC3    H1 9102   2.739   3.178  15.960 -0.1195  0.0391  0.1621
  614TMC3    H2 9103   2.611   2.899  15.671 -1.4463 -1.2461  1.9483
  614TMC3    C7 9104   2.552   3.119  15.781  0.1316 -0.4734 -0.0452
  614TMC3    C8 9105   2.712   2.709  15.793  0.4323 -0.2780 -0.2746
  614TMC3    O1 9106   2.497   3.165  15.879  0.4527 -0.2328 -0.0571
  614TMC3    O2 9107   2.592   2.697  15.776  0.4466 -0.0966  0.2469
  615MPD2     C 9108   1.991   4.528  15.775  0.8400  0.6383 -0.0754
  615MPD2    C1 9109   2.085   4.544  15.673  0.1152 -0.0760  0.3894
  615MPD2    C2 9110   2.057   4.486  15.546 -0.3640  0.2667  0.2135
  615MPD2    C3 9111   1.931   4.438  15.526  0.4838 -0.4175 -1.0011
  615MPD2    C4 9112   1.844   4.422  15.627 -0.7791  0.2550 -0.7931
  615MPD2    C5 9113   1.874   4.466  15.757  0.9581 -0.7481  0.0416
  615MPD2     H 9114   2.133   4.489  15.469  0.1506  3.1985  0.8514
  615MPD2    H1 9115   1.743   4.385  15.612  0.0075 -1.4635 -1.9017
  615MPD2    H2 9116   2.013   4.573  15.872  0.9422 -0.3663  0.3630
  615MPD2    H3 9117   1.812   4.447  15.844  0.2466  0.3026 -0.2379
  615MPD2     N 9118   1.867   4.398  15.405  0.2746 -0.4319  0.3426
  615MPD2    H5 9119   1.771   4.366  15.417  1.2287 -2.7743  1.8946
  615MPD2    N1 9120   2.213   4.598  15.692 -0.2105  0.1315 -0.4221
  615MPD2    H7 9121   2.270   4.598  15.608 -0.6190  0.0257 -0.7058
  616TMC3    C1 9122   2.411   4.664  15.806  0.5588  0.1637  0.7088
  616TMC3    C2 9123   2.436   0.062  15.755 -0.5248  0.1603  0.0366
  616TMC3    C3 9124   2.546   0.129  15.810  0.0478 -0.2555 -0.4996
  616TMC3    C4 9125   2.482   4.602  15.907 -0.0188  0.3392 -0.3042
  616TMC3    C5 9126   2.588   4.670  15.951  0.7940  0.0720 -0.7038
  616TMC3    C6 9127   2.619   0.078  15.907  0.6271 -0.2426  0.6306
  616TMC3     C 9128   2.273   4.620  15.810 -0.3070  0.4804  0.2408
  616TMC3     O 9129   2.235   4.607  15.924 -0.1550  1.3822  0.5437
  616TMC3     H 9130   2.367   0.106  15.684 -2.3195 -0.1166  1.5926
  616TMC3    H1 9131   2.454   4.500  15.933  1.1939  0.4698  1.4815
  616TMC3    H2 9132   2.716   0.121  15.928  0.2960  0.6448  0.3321
  616TMC3    C7 9133   2.651   4.628  16.072 -0.2103 -0.2611 -0.4276
  616TMC3    C8 9134   2.557   0.269  15.775  0.1413  0.3474 -0.3771
  616TMC3    O1 9135   2.754   4.686  16.112 -0.0974  0.3267 -0.4353
  616TMC3    O2 9136   2.481   0.322  15.694  0.2492  0.0523  0.1236
  617MPD2     C 9137   0.451   2.502  13.881 -0.3126  0.6608 -0.2416
  617MPD2    C1 9138   0.494   2.553  14.000  0.1087 -0.9775  1.0977
  617MPD2    C2 9139   0.407   2.572  14.099 -0.2027 -0.1592  0.0436
  617MPD2    C3 9140   0.271   2.537  14.075 -0.3696 -0.3302 -0.0687
  617MPD2    C4 9141   0.231   2.509  13.953  0.3840 -0.2004  0.1140
  617MPD2    C5 9142   0.320   2.495  13.858 -0.7664 -0.0052 -0.1020
  617MPD2     H 9143   0.439   2.596  14.199  0.1858  0.6591 -0.2761
  617MPD2    H1 9144   0.127   2.489  13.931  0.7318  0.4126 -2.0402
  617MPD2    H2 9145   0.528   2.494  13.805  0.7043  0.7687  0.7808
  617MPD2    H3 9146   0.294   2.452  13.762  1.5588  1.6029 -1.4397
  617MPD2     N 9147   0.174   2.547  14.177 -0.4120 -0.1852  0.1479
  617MPD2    H5 9148   0.090   2.493  14.162 -0.5342  0.9693 -3.2257
  617MPD2    N1 9149   0.632   2.588  14.006  0.5256 -0.0381  1.2578
  617MPD2    H7 9150   0.695   2.542  13.941  0.2769 -0.6752  1.4720
  618TMC3    C1 9151   0.826   2.669  14.109  0.2214 -0.2949 -0.0793
  618TMC3    C2 9152   0.885   2.547  14.094 -0.4868  0.4147  0.2140
  618TMC3    C3 9153   1.008   2.539  14.038  0.1832 -0.3530 -0.0852
  618TMC3    C4 9154   0.901   2.782  14.107  0.2040 -0.0864 -0.4569
  618TMC3    C5 9155   1.032   2.770  14.069  0.0498 -0.7361 -0.2909
  618TMC3    C6 9156   1.090   2.650  14.031  0.1901 -0.5873  0.2598
  618TMC3     C 9157   0.680   2.670  14.112 -0.0442  0.3843  0.3656
  618TMC3     O 9158   0.619   2.762  14.169 -0.4008  0.1744  0.3130
  618TMC3     H 9159   0.831   2.454  14.109  0.6883 -0.1892  0.7315
  618TMC3    H1 9160   0.869   2.875  14.153  0.5912  0.0764 -0.5154
  618TMC3    H2 9161   1.198   2.643  14.016  0.4493  2.0614  0.8120
  618TMC3    C7 9162   1.109   2.887  14.083 -0.0018  0.5625 -0.0281
  618TMC3    C8 9163   1.054   2.412  13.995  0.2997  0.4102 -0.3303
  618TMC3    O1 9164   1.069   2.957  14.177 -0.0809 -0.3167 -0.1479
  618TMC3    O2 9165   1.013   2.320  14.063  0.4341  0.2861  0.2603
  619MPD2     C 9166   1.845   4.104  13.536 -0.2240 -0.5893  0.4772
  619MPD2    C1 9167   1.759   4.215  13.515  0.4621 -0.1662 -0.0163
  619MPD2    C2 9168   1.631   4.189  13.477 -0.2433  0.2649 -0.3074
  619MPD2    C3 9169   1.575   4.059  13.477  0.4239 -0.4641 -0.4728
  619MPD2    C4 9170   1.660   3.959  13.519  0.2878 -0.3006  0.2710
  619MPD2    C5 9171   1.792   3.986  13.533 -0.2681  0.5431  0.0762
  619MPD2     H 9172   1.572   4.268  13.433  0.4249  0.1414 -1.4336
  619MPD2    H1 9173   1.631   3.857  13.539 -1.0567  0.3598  1.7639
  619MPD2    H2 9174   1.952   4.105  13.549 -0.0599 -0.6862 -0.8519
  619MPD2    H3 9175   1.864   3.910  13.561 -1.8465 -0.1865  2.1771
  619MPD2     N 9176   1.442   4.035  13.438 -1.1400  0.3517  0.4542
  619MPD2    H5 9177   1.417   3.940  13.412 -1.0722  0.7111 -0.9254
  619MPD2    N1 9178   1.802   4.347  13.512  1.1163  0.2007  0.4656
  619MPD2    H7 9179   1.734   4.418  13.488  1.0402  0.4967  1.5460
  620TMC3    C1 9180   1.929   4.529  13.468  0.2552  0.2745  0.2999
  620TMC3    C2 9181   1.857   4.563  13.356  0.1668 -0.1591 -0.2648
  620TMC3    C3 9182   1.870   4.687  13.303  0.3823 -0.8665 -0.1283
  620TMC3    C4 9183   2.010   4.622  13.532 -0.3107  0.1889  0.1886
  620TMC3    C5 9184   1.995   0.027  13.491  0.6187 -0.2086 -0.3151
  620TMC3    C6 9185   1.943   0.055  13.371 -0.1486 -0.0005  0.1870
  620TMC3     C 9186   1.930   4.394  13.520  0.3813 -0.1174 -0.2448
  620TMC3     O 9187   2.033   4.342  13.571  0.1936 -0.7174  0.1930
  620TMC3     H 9188   1.793   4.488  13.312  0.5199  1.0251 -2.7896
  620TMC3    H1 9189   2.049   4.593  13.629 -0.0517  0.0229  0.0345
  620TMC3    H2 9190   1.954   0.157  13.335 -1.1796  0.1093  0.1830
  620TMC3    C7 9191   1.989   0.134  13.587 -0.6611  0.1485 -0.3333
  620TMC3    C8 9192   1.743   0.026  13.295  0.7101 -0.3882 -0.0802
  620TMC3    O1 9193   2.056   0.136  13.689  0.2685 -0.1295 -0.4265
  620TMC3    O2 9194   1.705   0.098  13.388 -0.3377 -0.3282  0.2227
  621MPD2     C 9195   2.694   3.596   9.525 -0.2036 -0.2955 -0.4226
  621MPD2    C1 9196   2.747   3.613   9.656 -0.1678 -0.1417  0.7080
  621MPD2    C2 9197   2.775   3.742   9.692  0.9241 -1.0109  0.6034
  621MPD2    C3 9198   2.776   3.845   9.597  0.8020  0.4362  0.8300
  621MPD2    C4 9199   2.730   3.827   9.467 -0.1671  0.0234  0.2366
  621MPD2    C5 9200   2.691   3.702   9.435 -0.2244 -0.7513  0.1762
  621MPD2     H 9201   2.789   3.760   9.798 -0.5235 -0.4986  0.7002
  621MPD2    H1 9202   2.726   3.913   9.401 -0.1345 -0.4036 -0.3193
  621MPD2    H2 9203   2.643   3.508   9.488  0.0019 -1.8988  3.1437
  621MPD2    H3 9204   2.671   3.679   9.331 -1.4047  2.6234 -0.3289
  621MPD2     N 9205   2.816   3.973   9.647 -1.0509 -0.1009 -0.3222
  621MPD2    H5 9206   2.834   3.985   9.746  0.9795  2.1945 -0.9699
  621MPD2    N1 9207   2.739   3.511   9.757 -0.1460 -0.1215 -0.4361
  621MPD2    H7 9208   2.768   3.542   9.849  0.6564  1.0303 -1.0896
  622TMC3    C1 9209   2.688   3.303   9.844  0.4412  0.2722  0.1362
  622TMC3    C2 9210   2.616   3.356   9.943 -0.1293  0.2333  0.1451
  622TMC3    C3 9211   2.570   3.277  10.046 -0.0723 -0.6988 -0.0786
  622TMC3    C4 9212   2.671   3.170   9.816  0.4046 -0.0745  0.4569
  622TMC3    C5 9213   2.622   3.090   9.919 -0.9346 -0.5122 -0.3779
  622TMC3    C6 9214   2.571   3.139  10.029  0.6369 -0.1099  0.3771
  622TMC3     C 9215   2.708   3.383   9.728 -0.0249 -0.4932 -0.6351
  622TMC3     O 9216   2.678   3.322   9.625 -0.4817  0.1642 -0.5694
  622TMC3     H 9217   2.620   3.462   9.962 -1.9859  0.4673 -0.7297
  622TMC3    H1 9218   2.714   3.130   9.725  0.9972  1.3758  0.0834
  622TMC3    H2 9219   2.538   3.078  10.112  1.0208 -1.8220 -0.7070
  622TMC3    C7 9220   2.579   2.962   9.878  0.3280 -0.3060  0.0618
  622TMC3    C8 9221   2.473   3.323  10.137  0.2767 -0.0748 -0.7136
  622TMC3    O1 9222   2.538   2.887   9.965  0.5333 -0.2122 -0.3539
  622TMC3    O2 9223   2.451   3.256  10.234 -0.3733  0.2030  0.1821
  623MPD2     C 9224   0.816   0.237  15.720  0.2670 -0.5223 -0.3816
  623MPD2    C1 9225   0.768   0.236  15.852 -0.4686 -0.1375 -0.5334
  623MPD2    C2 9226   0.857   0.230  15.962  0.0111  0.7900 -0.0667
  623MPD2    C3 9227   0.994   0.232  15.940 -1.2839  0.4694  0.1030
  623MPD2    C4 9228   1.039   0.232  15.807  0.6200 -0.0344  0.4682
  623MPD2    C5 9229   0.951   0.232  15.699  0.2947  0.8626  0.3589
  623MPD2     H 9230   0.818   0.228  16.063 -1.1741  0.3766 -0.5309
  623MPD2    H1 9231   1.144   0.248  15.782  0.3260 -3.6139 -2.9270
  623MPD2    H2 9232   0.757   0.246  15.629 -0.4405  4.1221  0.5363
  623MPD2    H3 9233   0.987   0.234  15.596 -0.0168 -0.4010  0.2272
  623MPD2     N 9234   1.080   0.244  16.050 -0.6158  0.1702 -0.3143
  623MPD2    H5 9235   1.041   0.258  16.142 -2.1729  0.9616 -1.0984
  623MPD2    N1 9236   0.629   0.240  15.880 -0.3131  0.0919  0.2246
  623MPD2    H7 9237   0.622   0.237  15.981 -2.4310  0.1463  0.0831
  624TMC3    C1 9238   1.390   0.182  16.335 -0.3388 -0.1530 -0.1029
  624TMC3    C2 9239   1.301   0.230  16.433 -0.2440  0.6182 -0.4587
  624TMC3    C3 9240   1.200   0.316  16.397  0.0488  0.2622  0.6818
  624TMC3    C4 9241   1.377   0.225  16.203  0.2423 -0.1609 -0.0624
  624TMC3    C5 9242   1.263   0.289  16.169  0.3470 -0.1496 -0.2593
  624TMC3    C6 9243   1.177   0.333  16.261 -0.4578 -0.1122 -0.1735
  624TMC3     C 9244   1.502   0.096  16.375  0.2615 -0.0349  0.1451
  624TMC3     O 9245   1.488   0.040  16.479  0.2928  0.2017  0.5261
  624TMC3     H 9246   1.305   0.192  16.534  0.3706 -0.2593 -0.8096
  624TMC3    H1 9247   1.445   0.210  16.119 -2.0312 -0.6369 -1.8088
  624TMC3    H2 9248   1.092   0.395  16.237 -0.5681 -0.4831 -0.7466
  624TMC3    C7 9249   1.210   0.260  16.038  0.3350 -0.3208  0.1769
  624TMC3    C8 9250   1.081   0.334  16.474 -0.6159  0.6789  0.1393
  624TMC3    O1 9251   1.285   0.202  15.964  0.4885  0.8084 -0.2861
  624TMC3    O2 9252   0.973   0.327  16.412 -0.2434 -0.3672 -0.5316
  625MPD2     C 9253   1.023   0.958   0.374 -0.1931  0.4074  0.0725
  625MPD2    C1 9254   1.111   1.001   0.467  0.1923 -0.2256  0.3842
  625MPD2    C2 9255   1.132   0.924   0.575 -0.0851 -0.3864  0.2528
  625MPD2    C3 9256   1.053   0.813   0.604 -0.6218 -0.1904 -0.4129
  625MPD2    C4 9257   0.951   0.782   0.515 -0.1758 -0.2746 -0.0157
  625MPD2    C5 9258   0.945   0.853   0.400 -0.0009 -0.3413  0.3422
  625MPD2     H 9259   1.212   0.949   0.644 -0.1010  1.3188 -0.3281
  625MPD2    H1 9260   0.895   0.689   0.518  0.1276 -0.5348 -2.4197
  625MPD2    H2 9261   1.005   1.008   0.279  0.8104 -0.9281 -0.8116
  625MPD2    H3 9262   0.871   0.831   0.324  0.8466 -2.2373  0.0611
  625MPD2     N 9263   1.084   0.750   0.726  0.3599 -0.8628 -0.2791
  625MPD2    H5 9264   1.156   0.785   0.788  0.1548 -1.5611  0.3444
  625MPD2    N1 9265   1.191   1.114   0.447  0.3617  0.3354  0.1220
  625MPD2    H7 9266   1.247   1.142   0.527  0.2314  0.4461  0.1751
  626TMC3    C1 9267   1.269   1.315   0.355 -0.2485 -0.2136  0.1440
  626TMC3    C2 9268   1.214   1.434   0.303 -0.1532  1.2443  0.2217
  626TMC3    C3 9269   1.241   1.551   0.359 -0.5621 -0.1600 -0.2104
  626TMC3    C4 9270   1.339   1.327   0.471 -0.1467  0.6537 -0.7401
  626TMC3    C5 9271   1.359   1.453   0.528 -0.0498 -0.2185  0.7320
  626TMC3    C6 9272   1.306   1.572   0.478 -0.2461 -0.3366 -0.5347
  626TMC3     C 9273   1.185   1.193   0.337 -0.5563 -0.1238  0.2086
  626TMC3     O 9274   1.133   1.177   0.228 -0.1546  0.2353  0.2748
  626TMC3     H 9275   1.154   1.431   0.212  1.0648  2.8208 -0.6338
  626TMC3    H1 9276   1.389   1.235   0.496 -1.0215  0.8070  1.5993
  626TMC3    H2 9277   1.328   1.668   0.523  0.0253 -0.3274 -0.6897
  626TMC3    C7 9278   1.385   1.451   0.673  0.0616 -0.2922 -0.1717
  626TMC3    C8 9279   1.193   1.670   0.295 -0.1708  0.0942 -0.3309
  626TMC3    O1 9280   1.447   1.355   0.716  0.3898 -0.3464 -0.2797
  626TMC3    O2 9281   1.188   1.766   0.368 -0.0602 -0.8782 -0.5676
  627MPD2     C 9282   0.176   1.887  14.743 -0.0294 -0.6214  0.6568
  627MPD2    C1 9283   0.232   1.772  14.789 -0.6450 -0.9880 -0.1302
  627MPD2    C2 9284   0.168   1.656  14.764 -0.1204  0.6405  0.4087
  627MPD2    C3 9285   0.047   1.654  14.692 -0.3206  0.1809 -0.5957
  627MPD2    C4 9286   0.001   1.769  14.641 -0.0415 -0.7266  0.1568
  627MPD2    C5 9287   0.063   1.887  14.671 -0.0384 -0.6990 -0.4221
  627MPD2     H 9288   0.205   1.560  14.798 -1.6839 -0.6888 -1.6051
  627MPD2    H1 9289   4.638   1.774  14.573  1.2054 -0.1999 -1.3502
  627MPD2    H2 9290   0.229   1.981  14.753  1.0609 -1.0591 -1.0235
  627MPD2    H3 9291   0.016   1.975  14.629 -0.6174 -1.2403 -0.8922
  627MPD2     N 9292   4.721   1.525  14.667 -0.3383 -0.4268 -0.0042
  627MPD2    H5 9293   0.059   1.444  14.680  1.4997  0.6478 -1.6908
  627MPD2    N1 9294   0.351   1.758  14.863  0.5765  0.3529  0.3460
  627MPD2    H7 9295   0.372   1.665  14.899  0.9406  0.3320  0.0732
  628TMC3    C1 9296   0.552   1.838  14.967  0.5322 -0.3901  0.1247
  628TMC3    C2 9297   0.514   1.774  15.087  0.1806  0.1177 -0.1526
  628TMC3    C3 9298   0.599   1.796  15.196 -0.2798 -0.1320  0.4448
  628TMC3    C4 9299   0.646   1.938  14.968 -0.7871 -0.0610  0.4525
  628TMC3    C5 9300   0.696   1.979  15.088 -0.1761  0.5334 -0.6673
  628TMC3    C6 9301   0.690   1.897  15.201 -0.6887  0.3444 -0.0260
  628TMC3     C 9302   0.441   1.863  14.875  0.2835 -0.3728 -0.1488
  628TMC3     O 9303   0.450   1.970  14.814 -0.4646 -0.1013  0.6013
  628TMC3     H 9304   0.431   1.706  15.103  2.2125 -2.2541  0.3478
  628TMC3    H1 9305   0.666   2.000  14.882 -1.0359 -1.4862 -0.6441
  628TMC3    H2 9306   0.732   1.929  15.295  0.2127 -2.4453  0.5260
  628TMC3    C7 9307   0.647   2.117  15.121  0.6195 -0.6124  0.5983
  628TMC3    C8 9308   0.630   1.663  15.242 -0.0283 -0.1238 -0.2109
  628TMC3    O1 9309   0.663   2.158  15.236  0.1764  0.3822  0.8376
  628TMC3    O2 9310   0.561   1.571  15.203 -0.2282  0.1863  0.1590
  629MPD2     C 9311   2.842   0.695  15.829  0.1484  0.0815 -0.5119
  629MPD2    C1 9312   2.881   0.602  15.921  0.5536  0.4117 -0.4881
  629MPD2    C2 9313   2.802   0.493  15.934 -0.5669 -0.2036  0.5171
  629MPD2    C3 9314   2.703   0.455  15.851 -0.0315  0.2090 -0.0591
  629MPD2    C4 9315   2.659   0.547  15.760  0.3551  0.8903 -0.4732
  629MPD2    C5 9316   2.736   0.659  15.743 -0.2915  0.2865  0.3405
  629MPD2     H 9317   2.820   0.422  16.015  0.6255 -0.0844  0.3543
  629MPD2    H1 9318   2.577   0.534  15.691  0.7764 -1.3784 -0.5359
  629MPD2    H2 9319   2.904   0.782  15.806 -0.2003  1.0094  2.0534
  629MPD2    H3 9320   2.710   0.723  15.659 -0.0756  1.2580  1.0110
  629MPD2     N 9321   2.642   0.327  15.860  0.3273  0.0341  0.5244
  629MPD2    H5 9322   2.682   0.273  15.937  0.4122  0.0704  0.5054
  629MPD2    N1 9323   2.994   0.625  16.002  0.5400  0.4630 -0.5920
  629MPD2    H7 9324   3.050   0.707  15.982  0.2761  0.4802 -1.2631
  630TMC3    C1 9325   3.140   0.617  16.186 -0.2083 -0.4692 -0.8902
  630TMC3    C2 9326   3.159   0.758  16.174 -0.4079  0.0734 -0.4523
  630TMC3    C3 9327   3.183   0.824  16.287  0.1454  0.3835  0.5617
  630TMC3    C4 9328   3.174   0.549  16.300 -0.2122 -0.3318  0.4379
  630TMC3    C5 9329   3.210   0.626  16.408 -0.5332  0.0975 -0.0706
  630TMC3    C6 9330   3.203   0.757  16.404 -0.0342  0.0247  0.2822
  630TMC3     C 9331   3.034   0.548  16.108 -0.1431 -0.1935  0.7741
  630TMC3     O 9332   2.994   0.443  16.161  0.1517  0.0859  0.3596
  630TMC3     H 9333   3.138   0.807  16.080 -0.7317 -2.2116 -1.5649
  630TMC3    H1 9334   3.153   0.444  16.312 -1.7001 -0.0412  0.5061
  630TMC3    H2 9335   3.237   0.818  16.487 -1.4893  3.1040 -1.3545
  630TMC3    C7 9336   3.265   0.570  16.534 -0.3445  0.5731 -1.0243
  630TMC3    C8 9337   3.274   0.930  16.287  0.4045  0.0714  0.5420
  630TMC3    O1 9338   3.280   0.639  16.630  0.4220 -0.5693  0.8041
  630TMC3    O2 9339   3.378   0.895  16.340  0.3040  0.2310  0.5207
  631MPD2     C 9340   1.273   4.637  15.432  0.4797  0.7076  0.0427
  631MPD2    C1 9341   1.325   4.691  15.317 -0.6774 -0.2253  0.0252
  631MPD2    C2 9342   1.363   4.606  15.221 -0.0492  0.1517 -0.4648
  631MPD2    C3 9343   1.374   4.472  15.250  0.6579  0.7151  0.6093
  631MPD2    C4 9344   1.318   4.415  15.363 -0.6667 -0.4863 -0.1928
  631MPD2    C5 9345   1.257   4.502  15.452  0.5559 -0.8020 -0.4084
  631MPD2     H 9346   1.420   4.640  15.136  0.7865  0.5018  0.2314
  631MPD2    H1 9347   1.317   4.311  15.392  1.3828 -0.5008 -0.1527
  631MPD2    H2 9348   1.258   4.703  15.516  0.3381 -0.4867  0.9697
  631MPD2    H3 9349   1.216   4.469  15.547 -0.1683 -1.3220 -0.8962
  631MPD2     N 9350   1.464   4.395  15.169 -0.1262  0.7306 -0.2103
  631MPD2    H5 9351   1.507   4.445  15.092 -0.7974  0.8112 -0.5358
  631MPD2    N1 9352   1.335   0.113  15.314  0.3188  0.3813 -0.4780
  631MPD2    H7 9353   1.332   0.162  15.403  0.9140 -2.9520  1.3737
  632TMC3    C1 9354   1.399   0.329  15.240 -0.0869  0.2872 -0.0027
  632TMC3    C2 9355   1.355   0.383  15.359 -0.8032 -0.6925  0.2202
  632TMC3    C3 9356   1.395   0.513  15.383 -0.1042 -0.3649  0.1999
  632TMC3    C4 9357   1.474   0.394  15.142 -0.1608  0.0317  0.1008
  632TMC3    C5 9358   1.524   0.515  15.177 -0.4523  0.4725  0.5902
  632TMC3    C6 9359   1.488   0.579  15.298 -0.2011 -0.0423  0.5024
  632TMC3     C 9360   1.364   0.192  15.206  0.1935  0.1592  0.1875
  632TMC3     O 9361   1.348   0.160  15.091  0.5392 -0.0116 -0.1124
  632TMC3     H 9362   1.279   0.331  15.414 -1.3543 -1.3311 -1.1448
  632TMC3    H1 9363   1.500   0.341  15.051  2.0135  1.9743 -0.4068
  632TMC3    H2 9364   1.517   0.682  15.316  0.1626  0.0746 -0.7455
  632TMC3    C7 9365   1.606   0.584  15.078 -0.3548  0.3411  0.1262
  632TMC3    C8 9366   1.335   0.579  15.506  0.2706 -0.3118  0.2595
  632TMC3    O1 9367   1.584   0.551  14.963 -0.1535 -0.2733 -0.2999
  632TMC3    O2 9368   1.234   0.525  15.554 -0.1382  0.1709  0.0197
  633MPD2     C 9369   1.331   2.865  17.348 -0.4842  0.2524  0.5459
  633MPD2    C1 9370   1.438   2.862  17.261 -0.8197 -0.2530 -0.4601
  633MPD2    C2 9371   1.542   2.772  17.284  0.1129  0.3417  0.2501
  633MPD2    C3 9372   1.532   2.673  17.381  0.0245 -0.3929 -0.0857
  633MPD2    C4 9373   1.430   2.685  17.477 -0.9190  0.5722 -0.0113
  633MPD2    C5 9374   1.331   2.783  17.461 -0.6475  0.6013  0.0735
  633MPD2     H 9375   1.625   2.773  17.214  1.4513  2.4423  1.8741
  633MPD2    H1 9376   1.422   2.624  17.566  2.1462 -1.2526 -0.9964
  633MPD2    H2 9377   1.247   2.932  17.336 -0.1895  0.2727 -1.4004
  633MPD2    H3 9378   1.247   2.778  17.530  0.7934  2.3866  1.9660
  633MPD2     N 9379   1.610   2.557  17.379  0.3687  0.4345  0.2798
  633MPD2    H5 9380   1.574   2.486  17.442  0.7004  0.5204  0.5640
  633MPD2    N1 9381   1.445   2.936  17.143 -0.2438 -0.1808 -0.3121
  633MPD2    H7 9382   1.525   2.921  17.081  1.2951  1.1375  1.3655
  634TMC3    C1 9383   1.402   3.089  16.966  0.3936 -0.4412  0.0438
  634TMC3    C2 9384   1.456   2.993  16.878  0.0853 -0.5326  0.2822
  634TMC3    C3 9385   1.444   3.023  16.744 -0.2832  0.2268 -1.0194
  634TMC3    C4 9386   1.339   3.200  16.922 -0.1406  0.4783  0.1169
  634TMC3    C5 9387   1.327   3.225  16.785 -0.2876  1.4366 -0.2448
  634TMC3    C6 9388   1.386   3.138  16.694 -0.2633  0.5455  1.2157
  634TMC3     C 9389   1.364   3.042  17.096  1.2368 -0.3519 -0.0362
  634TMC3     O 9390   1.275   3.101  17.153  0.2430  0.2832  0.1636
  634TMC3     H 9391   1.518   2.910  16.911  2.2821  1.2071  0.5871
  634TMC3    H1 9392   1.302   3.270  16.996  0.0445  0.6589  0.0372
  634TMC3    H2 9393   1.385   3.158  16.588 -0.4951  0.4822  1.2063
  634TMC3    C7 9394   1.241   3.334  16.736  0.6845 -0.2919 -0.0336
  634TMC3    C8 9395   1.465   2.911  16.650  0.0067 -0.2221  0.0294
  634TMC3    O1 9396   1.261   3.348  16.615  0.4215 -0.3424 -0.1189
  634TMC3    O2 9397   1.441   2.804  16.705  0.4184  0.1766 -0.6185
  635TMC3    C1 9398   1.225   3.446   0.260 -0.8591 -0.0716  0.9590
  635TMC3    C2 9399   1.282   3.325   0.240 -0.5010  0.7582  0.6436
  635TMC3    C3 9400   1.244   3.215   0.313 -0.2292  0.2096 -0.0158
  635TMC3    C4 9401   1.129   3.464   0.350  0.5181  0.0449 -0.1794
  635TMC3    C5 9402   1.101   3.361   0.434 -0.3893  0.1131 -0.6625
  635TMC3    C6 9403   1.157   3.238   0.420  0.3947 -0.2703  0.6484
  635TMC3     C 9404   1.251   3.560   0.174  1.1063 -0.4072  0.0241
  635TMC3     O 9405   1.242   3.668   0.228  0.0507  0.4640 -0.5133
  635TMC3     H 9406   1.368   3.319   0.174 -0.9872 -1.1200  0.2019
  635TMC3    H1 9407   1.081   3.559   0.367 -0.1437 -0.4207  0.5407
  635TMC3    H2 9408   1.127   3.154   0.481 -2.3710  0.8620  0.8579
  635TMC3    C7 9409   0.998   3.385   0.541  0.0985  1.1949  0.5310
  635TMC3    C8 9410   1.299   3.086   0.294 -0.1323  0.2485  0.1500
  635TMC3    O1 9411   0.925   3.482   0.520 -0.6006  0.1459 -0.0952
  635TMC3    O2 9412   1.281   3.017   0.391 -0.4254  0.0650 -0.0347
  636MPD2     C 9413   2.143   3.385  16.489 -0.0605 -0.2702 -0.3296
  636MPD2    C1 9414   2.202   3.329  16.379  0.3689  0.0255 -0.1082
  636MPD2    C2 9415   2.241   3.200  16.383  0.1153 -0.2463 -0.7346
  636MPD2    C3 9416   2.228   3.123  16.497 -0.1366 -0.4898 -0.3686
  636MPD2    C4 9417   2.180   3.185  16.610 -0.2558 -0.0268  0.3207
  636MPD2    C5 9418   2.134   3.313  16.607  0.1346  0.1324 -0.1633
  636MPD2     H 9419   2.291   3.165  16.294 -1.3599 -0.7636 -1.3519
  636MPD2    H1 9420   2.173   3.138  16.708  1.2858 -1.0208 -0.0457
  636MPD2    H2 9421   2.104   3.486  16.493  3.2527  0.9519  1.0377
  636MPD2    H3 9422   2.105   3.365  16.697 -0.4716  2.6101 -1.8115
  636MPD2     N 9423   2.249   2.986  16.506 -0.0517  0.5922  0.2826
  636MPD2    H5 9424   2.239   2.938  16.595 -2.7113  2.4382  0.9708
  636MPD2    N1 9425   2.227   3.401  16.263 -0.0811  0.2907  0.5648
  636MPD2    H7 9426   2.293   3.366  16.194 -0.7382 -0.4372  0.3095
  637TMC3    C1 9427   2.322   2.774  16.435 -0.1163 -0.3421 -0.3069
  637TMC3    C2 9428   2.417   2.776  16.530  0.3149 -0.1168 -0.0853
  637TMC3    C3 9429   2.508   2.678  16.530  0.8491  0.1518 -0.8277
  637TMC3    C4 9430   2.319   2.681  16.334  0.5556 -0.1336  0.5015
  637TMC3    C5 9431   2.406   2.573  16.344 -0.3748 -0.5912  0.1337
  637TMC3    C6 9432   2.498   2.569  16.446  0.1440 -0.6136 -0.2369
  637TMC3     C 9433   2.279   2.907  16.403  0.0334 -0.1898 -0.0966
  637TMC3     O 9434   2.252   2.922  16.284 -0.6181 -0.4807  0.0850
  637TMC3     H 9435   2.429   2.855  16.603 -1.0948 -0.1281  0.1690
  637TMC3    H1 9436   2.238   2.677  16.262 -0.2037  0.4688  1.3234
  637TMC3    H2 9437   2.561   2.483  16.462  0.3212 -0.3013  0.7800
  637TMC3    C7 9438   2.458   2.539  16.210  0.0931 -0.1907  0.1786
  637TMC3    C8 9439   2.633   2.743  16.501  0.7390  0.0139  0.7119
  637TMC3    O1 9440   2.407   2.593  16.113 -0.0040  0.2309  0.0119
  637TMC3    O2 9441   2.613   2.849  16.445 -0.2921  0.4258  0.1084
  638MPD2     C 9442   2.431   2.581  15.035 -0.7015  0.2755  0.4752
  638MPD2    C1 9443   2.516   2.487  14.974  0.0336  0.2521  0.4710
  638MPD2    C2 9444   2.492   2.351  14.993 -1.0118  0.6135  0.6101
  638MPD2    C3 9445   2.392   2.301  15.070  0.7309  0.0779 -0.4797
  638MPD2    C4 9446   2.316   2.394  15.136 -0.1674  0.6150 -0.9639
  638MPD2    C5 9447   2.340   2.531  15.122  0.3811  0.3461  0.2542
  638MPD2     H 9448   2.553   2.281  14.937 -1.4394 -1.3917  2.6496
  638MPD2    H1 9449   2.232   2.372  15.201  0.9642 -0.0401  0.2544
  638MPD2    H2 9450   2.446   2.686  15.013 -1.5237  0.3120  0.0798
  638MPD2    H3 9451   2.289   2.611  15.175  0.5283 -1.4922  3.1724
  638MPD2     N 9452   2.371   2.162  15.081 -0.3476 -0.0877  0.6149
  638MPD2    H5 9453   2.420   2.111  15.008 -0.2772 -0.6061  1.0266
  638MPD2    N1 9454   2.616   2.539  14.891  0.1336 -0.8631 -0.2186
  638MPD2    H7 9455   2.590   2.632  14.861 -3.1546 -1.6282  0.3204
  639TMC3    C1 9456   2.255   1.962  15.101 -0.0342 -0.9373 -0.0679
  639TMC3    C2 9457   2.125   1.918  15.080 -0.2086  0.8099 -0.5506
  639TMC3    C3 9458   2.108   1.803  15.010  0.0029  0.6261  0.5123
  639TMC3    C4 9459   2.356   1.908  15.039  0.3083 -0.4900 -0.1189
  639TMC3    C5 9460   2.335   1.791  14.960 -0.4131 -0.1387 -0.3103
  639TMC3    C6 9461   2.211   1.739  14.946  0.1632 -0.7267  0.7787
  639TMC3     C 9462   2.269   2.102  15.148 -0.2528 -0.3538  0.3341
  639TMC3     O 9463   2.184   2.152  15.224  0.4667  1.2512 -0.6244
  639TMC3     H 9464   2.043   1.968  15.131 -0.0432  1.0102 -0.4793
  639TMC3    H1 9465   2.457   1.946  15.050 -0.1832  0.8808 -0.3231
  639TMC3    H2 9466   2.205   1.631  14.937 -0.3279 -0.5608 -0.9404
  639TMC3    C7 9467   2.444   1.707  14.924  0.0007 -0.7929 -0.1461
  639TMC3    C8 9468   1.976   1.758  14.986  0.3905  0.1189  0.3889
  639TMC3    O1 9469   2.414   1.595  14.889  0.0720  0.2043 -0.0037
  639TMC3    O2 9470   1.888   1.790  15.058 -0.1359  0.1898  0.2889
  640MPD2     C 9471   2.999   0.370  10.094 -0.3453  0.0625  0.7515
  640MPD2    C1 9472   3.003   0.482  10.012 -0.1719 -0.3898  0.0710
  640MPD2    C2 9473   2.886   0.553   9.977 -0.1124  0.2214 -0.1846
  640MPD2    C3 9474   2.769   0.511  10.035  0.0959  0.4322 -0.0106
  640MPD2    C4 9475   2.764   0.401  10.112  0.4409 -0.1433 -0.4164
  640MPD2    C5 9476   2.882   0.341  10.149 -0.7192  0.1374  0.2600
  640MPD2     H 9477   2.890   0.639   9.910 -0.9184 -1.9099 -2.9318
  640MPD2    H1 9478   2.675   0.366  10.163 -0.7658  0.7698 -1.9206
  640MPD2    H2 9479   3.086   0.311  10.118 -0.2998 -0.1436  0.0829
  640MPD2    H3 9480   2.867   0.255  10.213 -0.3352 -0.5638 -0.5880
  640MPD2     N 9481   2.653   0.587  10.028 -0.7021  0.0337 -0.6401
  640MPD2    H5 9482   2.575   0.549  10.081  0.5563 -0.1259  1.0923
  640MPD2    N1 9483   3.130   0.514   9.956  0.3116  0.0859 -0.3883
  640MPD2    H7 9484   3.205   0.449   9.977  0.6790  0.2129 -1.3072
  641TMC3    C1 9485   3.301   0.604   9.833  0.8129 -0.0615 -0.4593
  641TMC3    C2 9486   3.370   0.489   9.850  0.8009 -0.7481 -0.0483
  641TMC3    C3 9487   3.496   0.481   9.803 -0.3623  0.3027  0.4160
  641TMC3    C4 9488   3.350   0.705   9.761 -0.2319 -0.8483  0.0644
  641TMC3    C5 9489   3.460   0.679   9.681 -0.6696 -0.6366  0.0706
  641TMC3    C6 9490   3.546   0.575   9.718  0.4467 -0.1719 -0.6529
  641TMC3     C 9491   3.162   0.614   9.864  0.4128 -0.7430  0.3445
  641TMC3     O 9492   3.092   0.705   9.817  0.3299 -0.0014  0.0067
  641TMC3     H 9493   3.321   0.401   9.891  0.5202 -1.6044 -2.2017
  641TMC3    H1 9494   3.289   0.793   9.747 -0.2648 -1.0601 -1.1130
  641TMC3    H2 9495   3.647   0.579   9.680 -0.6998 -0.8430 -3.7518
  641TMC3    C7 9496   3.519   0.768   9.590 -0.0464  0.2799 -0.4083
  641TMC3    C8 9497   3.546   0.343   9.794 -0.3046  0.0314  0.5122
  641TMC3    O1 9498   3.639   0.776   9.581 -0.4209  1.0050 -0.2234
  641TMC3    O2 9499   3.632   0.321   9.710 -0.1100  0.0354 -0.3098
  642TMC3    C1 9500   3.658   1.795  12.409 -0.6816 -0.1706  0.3985
  642TMC3    C2 9501   3.787   1.767  12.428 -0.3066 -0.4239 -0.0260
  642TMC3    C3 9502   3.830   1.640  12.433  0.4097 -0.5219 -0.7907
  642TMC3    C4 9503   3.559   1.695  12.418 -0.1691  0.5435 -0.0549
  642TMC3    C5 9504   3.608   1.569  12.443 -0.0163 -0.2449 -0.6412
  642TMC3    C6 9505   3.741   1.536  12.436 -0.1992  0.0525 -0.6368
  642TMC3     C 9506   3.608   1.934  12.414 -0.3413 -0.6851 -0.1354
  642TMC3     O 9507   3.519   1.963  12.494  0.1930 -0.1227 -0.5663
  642TMC3     H 9508   3.860   1.847  12.416 -1.3714  0.5254 -0.2112
  642TMC3    H1 9509   3.453   1.719  12.419 -0.1601  0.6044 -0.3247
  642TMC3    H2 9510   3.777   1.434  12.436 -1.3726 -0.3576 -0.1684
  642TMC3    C7 9511   3.513   1.453  12.435  0.1958 -0.1142 -0.2007
  642TMC3    C8 9512   3.974   1.610  12.462 -0.1565 -0.6344 -0.6044
  642TMC3    O1 9513   3.556   1.346  12.394  0.6527 -0.4178 -0.1138
  642TMC3    O2 9514   4.026   1.497  12.449  0.1617 -0.6541 -0.3553
  643TMC3    C1 9515   3.391   1.771   0.704  0.3105 -0.0536  1.1463
  643TMC3    C2 9516   3.302   1.819   0.620  0.0969 -0.1446  0.9325
  643TMC3    C3 9517   3.231   1.723   0.547 -0.2948 -0.2598  0.1686
  643TMC3    C4 9518   3.431   1.645   0.695 -0.3124  0.1790 -0.0452
  643TMC3    C5 9519   3.371   1.550   0.618 -0.0874 -0.5685  0.6426
  643TMC3    C6 9520   3.259   1.589   0.554 -0.3222  0.2757 -0.3706
  643TMC3     C 9521   3.491   1.869   0.740 -0.6570 -0.0395 -0.6473
  643TMC3     O 9522   3.482   1.975   0.682  0.1102  0.3871 -0.6367
  643TMC3     H 9523   3.268   1.922   0.616  1.5878  0.2776 -0.8555
  643TMC3    H1 9524   3.518   1.608   0.749  0.7088  1.2115 -0.9871
  643TMC3    H2 9525   3.209   1.517   0.490  0.7692 -1.7560  1.0771
  643TMC3    C7 9526   3.467   1.514   0.510  0.4617  0.1222  0.1071
  643TMC3    C8 9527   3.184   1.762   0.416 -0.4575  0.5586  0.1831
  643TMC3    O1 9528   3.568   1.584   0.502 -0.6881  0.1056 -0.0820
  643TMC3    O2 9529   3.123   1.676   0.352  0.5340  0.8711  0.2680
  644MPD2     C 9530   3.398   1.514   9.444  0.2926 -0.0798  0.0089
  644MPD2    C1 9531   3.373   1.399   9.504  0.7999  0.0372  0.8550
  644MPD2    C2 9532   3.250   1.335   9.482 -0.5784  0.0715 -0.2708
  644MPD2    C3 9533   3.163   1.388   9.387 -0.2472  0.5580 -0.4210
  644MPD2    C4 9534   3.183   1.518   9.338 -0.9391  0.3212 -0.0853
  644MPD2    C5 9535   3.302   1.576   9.368  0.5006 -0.8608 -0.0323
  644MPD2     H 9536   3.235   1.235   9.520 -1.2293  0.2949  0.0632
  644MPD2    H1 9537   3.119   1.573   9.270  0.2472  0.5029 -1.0592
  644MPD2    H2 9538   3.492   1.568   9.448 -0.7433  1.5576  2.0746
  644MPD2    H3 9539   3.327   1.668   9.316  0.6041  0.8478  3.0271
  644MPD2     N 9540   3.055   1.302   9.362  0.4101  0.1618  0.3852
  644MPD2    H5 9541   3.048   1.211   9.408 -0.6547  1.3482  2.5750
  644MPD2    N1 9542   3.468   1.338   9.587  0.0391 -0.8020 -0.3794
  644MPD2    H7 9543   3.559   1.382   9.592 -0.2159 -0.4104  0.9589
  645TMC3    C1 9544   2.862   1.216   9.246 -0.2115 -0.5309 -0.2394
  645TMC3    C2 9545   2.728   1.229   9.237  0.1140  0.1304 -0.0758
  645TMC3    C3 9546   2.656   1.115   9.249 -0.5000 -0.6649  0.0091
  645TMC3    C4 9547   2.931   1.097   9.257 -0.0517 -0.1181 -0.2129
  645TMC3    C5 9548   2.850   0.985   9.253  0.4721 -0.4439 -0.3059
  645TMC3    C6 9549   2.716   0.989   9.250 -0.4255 -0.0173  0.1568
  645TMC3     C 9550   2.948   1.336   9.275  0.7097  0.9984 -0.1137
  645TMC3     O 9551   2.913   1.446   9.225  0.1047  0.4013 -0.1589
  645TMC3     H 9552   2.682   1.328   9.229 -0.8344 -0.1990  1.1229
  645TMC3    H1 9553   3.039   1.088   9.257 -0.0197  0.2098  2.3243
  645TMC3    H2 9554   2.657   0.900   9.227  1.5228 -1.0482 -0.8644
  645TMC3    C7 9555   2.915   0.857   9.258  0.5334 -0.3570  0.1318
  645TMC3    C8 9556   2.510   1.132   9.220  0.1262 -0.6812  0.1165
  645TMC3    O1 9557   3.033   0.852   9.249  0.4311 -0.3003 -0.3066
  645TMC3    O2 9558   2.481   1.232   9.153 -0.3049 -0.1121  0.1928
  646MPD2     C 9559   2.407   0.920  14.187  0.5254  0.5397  0.0872
  646MPD2    C1 9560   2.339   0.922  14.303 -0.4374  0.1434 -0.3458
  646MPD2    C2 9561   2.224   0.996  14.309 -0.4285 -0.1393 -0.3707
  646MPD2    C3 9562   2.183   1.069  14.195  0.0350  0.0583 -0.5391
  646MPD2    C4 9563   2.253   1.064  14.073 -0.8303  0.2268  0.3323
  646MPD2    C5 9564   2.368   0.986  14.072 -0.1930 -0.2891 -0.0815
  646MPD2     H 9565   2.172   0.998  14.404 -1.9058  0.5172 -1.1997
  646MPD2    H1 9566   2.240   1.119  13.980  2.0150 -2.1483 -1.4746
  646MPD2    H2 9567   2.502   0.867  14.186  1.3693  2.0166  2.5190
  646MPD2    H3 9568   2.424   1.000  13.980  0.0891  1.0467  0.2934
  646MPD2     N 9569   2.064   1.147  14.217  0.1467  0.4904 -0.3004
  646MPD2    H5 9570   2.033   1.161  14.313  0.4841 -4.1909  0.5089
  646MPD2    N1 9571   2.390   0.861  14.427  0.5733 -0.5917  0.1230
  646MPD2    H7 9572   2.342   0.878  14.514  0.9943  2.7437 -0.2611
  647TMC3    C1 9573   2.543   0.762  14.576  0.1934 -0.2633  0.4903
  647TMC3    C2 9574   2.444   0.694  14.650 -0.6431 -0.0092  0.0005
  647TMC3    C3 9575   2.484   0.637  14.769 -0.5342  0.4023  0.7311
  647TMC3    C4 9576   2.679   0.755  14.597  0.0825 -0.0093 -0.2825
  647TMC3    C5 9577   2.709   0.687  14.716  0.6458 -0.2575  0.0287
  647TMC3    C6 9578   2.617   0.640  14.808  0.5608 -0.0656  0.1994
  647TMC3     C 9579   2.517   0.805  14.443 -0.3017  0.2563  0.9647
  647TMC3     O 9580   2.606   0.786  14.363  0.1860 -0.6052 -0.2517
  647TMC3     H 9581   2.338   0.702  14.628 -0.3122  0.2700 -1.4699
  647TMC3    H1 9582   2.755   0.792  14.529  1.1794  0.0837  0.9877
  647TMC3    H2 9583   2.648   0.583  14.895  1.6139  1.4751  0.8078
  647TMC3    C7 9584   2.853   0.650  14.748  0.4747  0.1583 -0.4698
  647TMC3    C8 9585   2.395   0.534  14.832  0.6225  0.2871  0.5773
  647TMC3    O1 9586   2.873   0.568  14.835  1.0029  0.6132 -0.1981
  647TMC3    O2 9587   2.423   0.501  14.946  0.6399  0.9608  0.1094
  648TMC3    C1 9588   1.828   3.134  16.001 -0.2797  0.1539 -0.2337
  648TMC3    C2 9589   1.881   3.020  15.946  0.8481  0.2505  0.0224
  648TMC3    C3 9590   1.812   2.964  15.844  0.4171 -1.1113  0.4081
  648TMC3    C4 9591   1.716   3.191  15.949  0.3966 -0.1322 -0.8807
  648TMC3    C5 9592   1.652   3.132  15.847  0.3288 -0.1106  0.1245
  648TMC3    C6 9593   1.697   3.019  15.794 -0.0099  0.9251  0.2820
  648TMC3     C 9594   1.869   3.178  16.130 -0.1533  0.0227  0.2250
  648TMC3     O 9595   1.859   3.301  16.147 -0.3004  0.6637  0.1421
  648TMC3     H 9596   1.966   2.970  15.992  0.7649  0.6673  0.6298
  648TMC3    H1 9597   1.689   3.290  15.982  2.1063  0.8409 -2.3750
  648TMC3    H2 9598   1.640   2.975  15.713  0.0952 -0.5893  1.0426
  648TMC3    C7 9599   1.554   3.209  15.775 -0.7680  0.2764  0.7856
  648TMC3    C8 9600   1.841   2.829  15.807  0.5871  0.4091 -0.1348
  648TMC3    O1 9601   1.521   3.171  15.663 -0.0685 -0.4943 -0.0618
  648TMC3    O2 9602   1.749   2.753  15.778  0.1826  0.0609  0.3120
  649TMC3    C1 9603   0.280   4.314  12.626 -0.0729 -0.2449 -0.6767
  649TMC3    C2 9604   0.414   4.327  12.610  0.3791 -0.1471 -0.5787
  649TMC3    C3 9605   0.483   4.270  12.715 -0.5150  0.1823  0.8497
  649TMC3    C4 9606   0.215   4.263  12.727  0.2334  0.1699 -0.4703
  649TMC3    C5 9607   0.282   4.190  12.815 -0.4417  0.6210  0.0056
  649TMC3    C6 9608   0.420   4.192  12.811 -0.5594  0.5806  0.0993
  649TMC3     C 9609   0.196   4.370  12.522 -0.0838 -0.2423 -0.7039
  649TMC3     O 9610   0.086   4.413  12.550  0.4679 -0.5231 -0.0969
  649TMC3     H 9611   0.461   4.382  12.529  3.1681 -1.9563 -0.2211
  649TMC3    H1 9612   0.107   4.271  12.737  0.3653  1.7746 -0.3895
  649TMC3    H2 9613   0.469   4.146  12.896  0.4323  1.9527  0.2709
  649TMC3    C7 9614   0.205   4.134  12.928  0.1006  0.3262  0.0777
  649TMC3    C8 9615   0.625   4.270  12.717  0.5446  0.0677 -0.1472
  649TMC3    O1 9616   0.104   4.193  12.963 -0.4882 -0.1993 -0.1019
  649TMC3    O2 9617   0.670   4.164  12.761  0.2853  0.0052  0.6135
  650TMC3    C1 9618   3.343   1.339  12.930 -0.8257 -0.2632 -1.1420
  650TMC3    C2 9619   3.356   1.468  12.971  0.2345  0.2888  0.3474
  650TMC3    C3 9620   3.233   1.524  13.008  0.1022  0.1118 -0.3765
  650TMC3    C4 9621   3.222   1.273  12.927  0.6950  0.0297  0.1580
  650TMC3    C5 9622   3.111   1.338  12.974 -0.3341  0.0901  0.7035
  650TMC3    C6 9623   3.113   1.464  13.021 -0.1879 -0.2660  0.4366
  650TMC3     C 9624   3.452   1.263  12.974 -0.1544  0.0333  0.4138
  650TMC3     O 9625   3.533   1.308  13.055  0.3819 -0.1693  0.2064
  650TMC3     H 9626   3.454   1.513  12.977  0.2618  0.6246 -2.5449
  650TMC3    H1 9627   3.204   1.168  12.909  0.2622  0.1632 -0.1765
  650TMC3    H2 9628   3.022   1.512  13.056 -0.6847 -0.1914 -0.9410
  650TMC3    C7 9629   2.985   1.270  12.959  0.4322  0.1738  0.3948
  650TMC3    C8 9630   3.232   1.668  13.002 -0.4391 -0.0447  0.2258
  650TMC3    O1 9631   2.988   1.145  12.952 -0.2148 -0.0561 -0.4259
  650TMC3    O2 9632   3.324   1.717  12.932  0.7169 -0.5904 -0.5484
  651MPD2     C 9633   2.202   2.415  10.607  0.1635  0.0909  0.2039
  651MPD2    C1 9634   2.174   2.550  10.589 -0.1900  0.1960  0.8421
  651MPD2    C2 9635   2.278   2.639  10.597 -0.8752  0.9486 -0.0279
  651MPD2    C3 9636   2.408   2.596  10.599 -0.2498  0.1314  0.8982
  651MPD2    C4 9637   2.438   2.460  10.612  0.4709 -0.0372  0.2387
  651MPD2    C5 9638   2.334   2.377  10.625  0.4053 -0.0721  0.2624
  651MPD2     H 9639   2.267   2.745  10.577  0.3514  0.9076 -0.9308
  651MPD2    H1 9640   2.539   2.421  10.624 -0.6382 -2.8327  0.5161
  651MPD2    H2 9641   2.123   2.342  10.616  1.1906 -0.9449  0.9023
  651MPD2    H3 9642   2.362   2.273  10.632 -0.8136 -0.4557 -0.5905
  651MPD2     N 9643   2.504   2.697  10.583 -0.1369 -0.4276 -0.2241
  651MPD2    H5 9644   2.469   2.791  10.595  0.7069 -0.2848  1.1347
  651MPD2    N1 9645   2.047   2.608  10.574  0.1091  0.6361 -0.3314
  651MPD2    H7 9646   2.043   2.709  10.580 -3.5418  0.4968 -0.4976
  652TMC3    C1 9647   2.905   2.924  10.484  0.0577 -0.6291  0.4733
  652TMC3    C2 9648   2.845   2.811  10.537 -0.6190  0.3799  0.2675
  652TMC3    C3 9649   2.713   2.810  10.554 -0.1984 -0.9858  0.1100
  652TMC3    C4 9650   2.833   3.042  10.470  0.3608 -0.1531 -0.2018
  652TMC3    C5 9651   2.702   3.043  10.503  0.0505  0.2903 -0.2179
  652TMC3    C6 9652   2.645   2.925  10.549  0.1476 -0.1163 -0.1631
  652TMC3     C 9653   3.048   2.931  10.492 -0.1897  0.4068 -0.7577
  652TMC3     O 9654   3.093   2.928  10.606  0.0266  0.1298  0.1655
  652TMC3     H 9655   2.896   2.716  10.548  0.8576  0.8127 -2.7683
  652TMC3    H1 9656   2.881   3.136  10.444  0.1084  1.0014  3.4941
  652TMC3    H2 9657   2.539   2.923  10.573  0.6465 -2.1583  1.9409
  652TMC3    C7 9658   2.642   3.168  10.554 -0.0418  0.5721  0.4317
  652TMC3    C8 9659   2.640   2.681  10.570 -0.6899  0.4889  0.0653
  652TMC3    O1 9660   2.542   3.158  10.625 -0.0462  0.4054 -0.2601
  652TMC3    O2 9661   2.706   2.581  10.573 -0.0267  0.2067  0.2368
  653MPD2     C 9662   0.986   3.114  17.617  0.4781  1.2971  0.1317
  653MPD2    C1 9663   0.905   3.196  17.538  0.2694 -0.6349 -0.2613
  653MPD2    C2 9664   0.840   3.148  17.428  0.0158  0.3488  0.3246
  653MPD2    C3 9665   0.859   3.024  17.374 -0.0263 -0.0298 -0.0724
  653MPD2    C4 9666   0.946   2.944  17.448  0.5204  0.1612 -0.3857
  653MPD2    C5 9667   1.013   2.990  17.556  0.1123 -0.2561  1.2518
  653MPD2     H 9668   0.777   3.218  17.373 -2.4275 -2.5368 -0.5527
  653MPD2    H1 9669   0.962   2.843  17.412  0.7307 -0.5156  1.5835
  653MPD2    H2 9670   1.030   3.144   0.024 -2.6022  0.9322  1.6892
  653MPD2    H3 9671   1.077   2.926  17.615 -0.8816 -1.2731  1.2256
  653MPD2     N 9672   0.775   2.993  17.265 -0.4145  0.9623  0.1878
  653MPD2    H5 9673   0.708   3.059  17.225 -2.7822 -0.9627  0.9246
  653MPD2    N1 9674   0.901   3.332  17.570  0.6068  0.3878  0.5199
  653MPD2    H7 9675   0.864   3.392  17.497 -0.3521 -0.0405  0.6457
  654TMC3    C1 9676   0.668   2.868  17.096  0.3858  0.3773 -0.2176
  654TMC3    C2 9677   0.625   2.985  17.041  0.3416 -0.1826 -0.0034
  654TMC3    C3 9678   0.560   2.976  16.916  0.3241 -0.1743 -0.1172
  654TMC3    C4 9679   0.654   2.749  17.032  0.7461  0.1036 -0.3817
  654TMC3    C5 9680   0.585   2.738  16.914 -0.4846  0.0648 -0.2258
  654TMC3    C6 9681   0.529   2.854  16.854  0.3596  0.3077 -0.1808
  654TMC3     C 9682   0.766   2.866  17.203  0.8690 -0.3576  0.1809
  654TMC3     O 9683   0.834   2.765  17.224 -0.0536 -0.2379  0.0247
  654TMC3     H 9684   0.654   3.079  17.086 -0.1420  1.3334 -2.9016
  654TMC3    H1 9685   0.669   2.657  17.088  0.4538 -0.4991 -1.2900
  654TMC3    H2 9686   0.462   2.836  16.771  0.0785  0.9617 -0.0912
  654TMC3    C7 9687   0.557   2.604  16.865 -0.4909 -0.7880  0.4845
  654TMC3    C8 9688   0.508   3.096  16.852 -0.2797 -0.0427  0.4554
  654TMC3    O1 9689   0.445   2.598  16.823  0.2818 -0.0655 -0.2974
  654TMC3    O2 9690   0.506   3.194  16.927  0.6587  0.6714 -0.0842
  655MPD2     C 9691   1.888   3.358  15.732 -0.2733  0.4650  0.4814
  655MPD2    C1 9692   1.795   3.407  15.637  0.3323  0.3893  0.0667
  655MPD2    C2 9693   1.775   3.330  15.523  0.0533 -0.5919 -0.5428
  655MPD2    C3 9694   1.837   3.207  15.496  0.1192  0.3922 -0.5136
  655MPD2    C4 9695   1.925   3.156  15.592  0.3372 -0.1696  0.3510
  655MPD2    C5 9696   1.945   3.235  15.708 -0.1734 -0.3667 -1.1052
  655MPD2     H 9697   1.718   3.383  15.447  0.1404 -0.2293 -0.3541
  655MPD2    H1 9698   1.978   3.062  15.581  1.5648  0.6478 -0.7129
  655MPD2    H2 9699   1.909   3.410  15.825  0.8692 -0.4240  0.7354
  655MPD2    H3 9700   2.019   3.200  15.779 -1.9379 -0.0907  0.8714
  655MPD2     N 9701   1.825   3.130  15.380  0.8123 -0.2420 -0.1246
  655MPD2    H5 9702   1.872   3.040  15.370 -0.0145 -0.7059  0.1784
  655MPD2    N1 9703   1.728   3.528  15.641  0.3185 -0.2285  0.1607
  655MPD2    H7 9704   1.671   3.547  15.560  1.9277 -1.2633 -1.2300
  656TMC3    C1 9705   1.643   3.724  15.760  0.3484  0.1953  0.3271
  656TMC3    C2 9706   1.639   3.790  15.879 -0.1727  0.1824  0.0342
  656TMC3    C3 9707   1.552   3.892  15.883 -0.2036 -0.0830  0.1618
  656TMC3    C4 9708   1.565   3.764  15.651 -0.5298 -0.4178  0.4563
  656TMC3    C5 9709   1.482   3.874  15.662  0.0828  0.1458 -0.4928
  656TMC3    C6 9710   1.462   3.931  15.784  0.1309 -1.1651  0.4536
  656TMC3     C 9711   1.742   3.617  15.748 -0.4308  0.5079  0.1353
  656TMC3     O 9712   1.813   3.603  15.846  0.0257  0.2173  0.0158
  656TMC3     H 9713   1.714   3.771  15.956  0.8498 -1.1122 -1.2897
  656TMC3    H1 9714   1.546   3.691  15.573 -0.2254  1.9575 -1.8345
  656TMC3    H2 9715   1.396   4.014  15.804 -0.6063 -2.0651  1.7537
  656TMC3    C7 9716   1.392   3.900  15.547 -0.2905 -0.0145  0.6742
  656TMC3    C8 9717   1.487   3.898  16.016 -0.4908  0.1989 -0.4371
  656TMC3    O1 9718   1.431   3.867  15.441  1.0426 -0.6089  0.0425
  656TMC3    O2 9719   1.419   3.992  16.053 -1.3800  0.1834  0.0611
  657TMC3    C1 9720   0.808   2.382  14.917  1.1006 -0.1088 -0.4471
  657TMC3    C2 9721   0.827   2.423  15.046  0.3427 -0.0336  0.7887
  657TMC3    C3 9722   0.768   2.538  15.085  0.0578 -0.1550  0.3171
  657TMC3    C4 9723   0.735   2.455  14.827 -0.2130  0.5042 -0.0708
  657TMC3    C5 9724   0.666   2.559  14.878  0.0735 -0.0167 -0.2250
  657TMC3    C6 9725   0.692   2.613  15.005  0.4573 -0.4018 -0.6807
  657TMC3     C 9726   0.886   2.272  14.867 -0.7689 -0.2774  0.3641
  657TMC3     O 9727   0.834   2.195  14.784 -0.0916 -0.1628  0.1698
  657TMC3     H 9728   0.876   2.361  15.120  1.2914  0.7396  0.8034
  657TMC3    H1 9729   0.738   2.417  14.726  0.1512  1.8051 -0.5375
  657TMC3    H2 9730   0.648   2.702  15.049  0.8419 -0.6635  0.2393
  657TMC3    C7 9731   0.576   2.626  14.790 -0.0700  0.4491 -0.7386
  657TMC3    C8 9732   0.806   2.611  15.206 -0.0401 -0.4402  0.5382
  657TMC3    O1 9733   0.540   2.581  14.684  0.6250  0.2446  0.3992
  657TMC3    O2 9734   0.772   2.726  15.229 -0.0653 -0.2161 -0.0087
  658MPD2     C 9735   2.304   2.968  15.056  0.2430 -0.1467  0.0796
  658MPD2    C1 9736   2.197   2.965  14.968 -0.3109  0.2042 -0.7858
  658MPD2    C2 9737   2.215   3.015  14.838  0.3014 -0.2096 -0.0488
  658MPD2    C3 9738   2.339   3.059  14.797 -0.2062  0.2425  0.4850
  658MPD2    C4 9739   2.439   3.066  14.893  0.2074  0.9153  0.0779
  658MPD2    C5 9740   2.420   3.027  15.021  0.4885 -0.5843 -0.3831
  658MPD2     H 9741   2.132   3.022  14.768  0.7915  0.9049 -0.5276
  658MPD2    H1 9742   2.536   3.107  14.868 -0.5030  1.8936 -1.0646
  658MPD2    H2 9743   2.295   2.926  15.155 -2.3043 -1.3983 -0.6789
  658MPD2    H3 9744   2.497   3.024  15.097  0.6638  0.5638 -0.5212
  658MPD2     N 9745   2.342   3.107  14.662 -0.3807 -0.1464 -0.3242
  658MPD2    H5 9746   2.251   3.098  14.617 -0.2755 -2.8232 -0.0131
  658MPD2    N1 9747   2.072   2.914  15.015 -0.0152  0.7056  0.4212
  658MPD2    H7 9748   2.060   2.888  15.113 -2.8632  0.6273  0.0635
  659TMC3    C1 9749   1.837   2.931  15.018  0.1637  0.1687 -0.0108
  659TMC3    C2 9750   1.840   2.988  15.146 -0.4061 -0.4394  0.4754
  659TMC3    C3 9751   1.722   3.029  15.195  0.1043  0.5931  0.0723
  659TMC3    C4 9752   1.720   2.907  14.957 -0.3578  0.6391  0.8243
  659TMC3    C5 9753   1.607   2.944  15.020  0.2151 -0.5027  0.1142
  659TMC3    C6 9754   1.606   3.017  15.138  0.3161  0.3540 -0.5042
  659TMC3     C 9755   1.957   2.907  14.941 -0.3196 -0.8082  0.5735
  659TMC3     O 9756   1.960   2.880  14.817  0.7220 -0.3814 -0.0505
  659TMC3     H 9757   1.935   3.005  15.197  1.1749 -4.5486 -1.0638
  659TMC3    H1 9758   1.721   2.854  14.863  0.5459  3.3472 -0.7089
  659TMC3    H2 9759   1.517   3.059  15.183  0.9144 -0.2704  1.2978
  659TMC3    C7 9760   1.476   2.929  14.956 -0.3515 -0.6960  0.8685
  659TMC3    C8 9761   1.727   3.145  15.286 -0.3815 -0.7552 -0.9835
  659TMC3    O1 9762   1.402   3.021  14.991 -0.4023  0.2801  0.3009
  659TMC3    O2 9763   1.648   3.239  15.265 -0.5038  0.2235  0.0590
  660MPD2     C 9764   0.403   1.842  12.744  0.1440  0.1912  0.6678
  660MPD2    C1 9765   0.289   1.800  12.680  0.7286  0.4903 -0.9542
  660MPD2    C2 9766   0.217   1.701  12.738 -0.3828  0.2253  0.2385
  660MPD2    C3 9767   0.262   1.637  12.852  0.1812 -0.0511  0.2485
  660MPD2    C4 9768   0.380   1.677  12.914 -0.4940 -0.2755  0.1624
  660MPD2    C5 9769   0.447   1.785  12.864  0.1139 -0.2284  0.6391
  660MPD2     H 9770   0.125   1.663  12.695 -0.9120 -0.9076  2.3293
  660MPD2    H1 9771   0.410   1.625  13.004  3.1344 -1.9236 -2.0080
  660MPD2    H2 9772   0.455   1.930  12.707  0.6261 -0.5116 -0.3446
  660MPD2    H3 9773   0.531   1.828  12.919  0.5792 -0.3397  0.0240
  660MPD2     N 9774   0.189   1.529  12.912  0.5152  0.0087  0.0744
  660MPD2    H5 9775   0.228   1.473  12.988  1.6714  0.2790 -0.3137
  660MPD2    N1 9776   0.247   1.882  12.571 -0.0952  0.4245  0.0578
  660MPD2    H7 9777   0.304   1.961  12.542 -1.5752  1.3514 -0.3272
  661TMC3    C1 9778   0.082   1.964  12.420  0.1468 -0.1776 -0.4733
  661TMC3    C2 9779   0.171   2.011  12.330 -0.6806 -0.2720 -0.6242
  661TMC3    C3 9780   0.133   2.098  12.232 -0.0625 -0.0902  0.0675
  661TMC3    C4 9781   4.668   1.998  12.398 -0.4075  0.6707 -0.2413
  661TMC3    C5 9782   4.632   2.083  12.299 -0.4074 -0.2052  0.4285
  661TMC3    C6 9783   0.002   2.136  12.211 -0.9163  0.1946  0.1963
  661TMC3     C 9784   0.121   1.867  12.514 -0.7115 -0.1670  0.0683
  661TMC3     O 9785   0.039   1.778  12.534  0.1814 -0.2132 -0.5091
  661TMC3     H 9786   0.267   1.963  12.319 -1.2581 -1.0164 -2.3637
  661TMC3    H1 9787   4.591   1.972  12.471 -1.3389  0.9469 -1.1218
  661TMC3    H2 9788   4.698   2.194  12.124  0.4866  0.8212  0.2134
  661TMC3    C7 9789   4.495   2.110  12.259 -0.1876 -0.6224 -0.1853
  661TMC3    C8 9790   0.234   2.150  12.135  0.1753 -0.0592 -0.3182
  661TMC3    O1 9791   4.469   2.222  12.217 -0.1703 -0.4536 -0.1290
  661TMC3    O2 9792   0.324   2.079  12.100  0.6330 -0.1953 -0.0270
  662MPD2     C 9793   0.721   1.694   0.380 -0.2318 -0.0365 -0.5543
  662MPD2    C1 9794   0.702   1.731   0.248  0.1585  0.0068 -0.5741
  662MPD2    C2 9795   0.606   1.828   0.217  0.2989  0.1670 -0.3205
  662MPD2    C3 9796   0.522   1.878   0.317 -0.3054 -0.3663  0.7466
  662MPD2    C4 9797   0.535   1.820   0.442  0.7080  0.4508 -0.2910
  662MPD2    C5 9798   0.636   1.736   0.475 -0.0843 -0.0353  0.0821
  662MPD2     H 9799   0.602   1.852   0.112 -0.2579  0.0486 -0.3239
  662MPD2    H1 9800   0.471   1.866   0.517  0.7550 -0.7293  0.4860
  662MPD2    H2 9801   0.793   1.624   0.421  1.0521  1.5102 -0.1539
  662MPD2    H3 9802   0.638   1.698   0.576 -3.5010 -1.0419 -0.2138
  662MPD2     N 9803   0.433   1.984   0.293  0.1572  0.6343 -0.3908
  662MPD2    H5 9804   0.389   2.012   0.380  1.4931  0.3043  0.3825
  662MPD2    N1 9805   0.762   1.666   0.137 -0.3163 -0.8920  0.5615
  662MPD2    H7 9806   0.722   1.686   0.046  1.1435 -3.6675 -0.6900
  663TMC3    C1 9807   0.870   1.477   0.016 -0.6608  0.7770 -0.7772
  663TMC3    C2 9808   0.780   1.521  17.610 -0.7418 -0.0582  0.5396
  663TMC3    C3 9809   0.678   1.444  17.572 -0.5312 -0.7413  0.1920
  663TMC3    C4 9810   0.870   1.350   0.070  0.0067 -0.1103 -0.3653
  663TMC3    C5 9811   0.760   1.274   0.032 -0.2755  0.0343  1.0229
  663TMC3    C6 9812   0.664   1.318  17.631  0.2834  0.4319 -0.0799
  663TMC3     C 9813   0.848   1.562   0.134  0.2522 -0.1556 -0.0476
  663TMC3     O 9814   0.915   1.527   0.233  0.0207 -0.4961 -0.4783
  663TMC3     H 9815   0.763   1.620  17.570 -0.3335  0.3652  1.3977
  663TMC3    H1 9816   0.946   1.314   0.139 -0.4325  0.6177  0.5091
  663TMC3    H2 9817   0.569   1.271  17.609 -0.3729  2.2754 -1.1753
  663TMC3    C7 9818   0.726   1.172   0.123  0.1607 -0.4135 -0.2622
  663TMC3    C8 9819   0.565   1.520  17.569  0.1083  0.9165 -0.0855
  663TMC3    O1 9820   0.801   1.152   0.218 -0.4919  0.7423  0.4629
  663TMC3    O2 9821   0.548   1.591  17.472  0.4221 -0.1869 -0.0863
  664MPD2     C 9822   3.531   4.627  17.586  0.1346  0.2058 -0.4335
  664MPD2    C1 9823   3.537   0.045  17.597 -0.0167 -0.0469  0.5437
  664MPD2    C2 9824   3.559   0.094   0.033 -0.4262 -0.3623 -0.3778
  664MPD2    C3 9825   3.573   0.007   0.136 -0.2605  0.4725  0.3114
  664MPD2    C4 9826   3.587   4.591   0.118 -0.4718  0.2307 -0.7111
  664MPD2    C5 9827   3.570   4.536  17.684  1.0313 -0.7190 -0.0635
  664MPD2     H 9828   3.542   0.200   0.048  0.3502 -0.4395  1.0650
  664MPD2    H1 9829   3.611   4.527   0.202  0.9409  1.6584 -0.0230
  664MPD2    H2 9830   3.494   4.585  17.493 -0.4114 -0.5584  0.1317
  664MPD2    H3 9831   3.580   4.430  17.665 -0.9969 -0.8253 -0.5797
  664MPD2     N 9832   3.573   0.062   0.272  0.1200 -0.3772  0.5355
  664MPD2    H5 9833   3.566   0.163   0.272 -0.8378 -0.4434 -0.0994
  664MPD2    N1 9834   3.473   0.127  17.493  0.5348 -0.0241  0.1212
  664MPD2    H7 9835   3.447   0.218  17.529 -0.5215  1.0192 -3.2706
  665TMC3    C1 9836   3.580   0.078   0.497  0.2501 -0.0194 -0.7246
  665TMC3    C2 9837   3.530   0.028   0.617 -0.2277 -0.1789 -0.1904
  665TMC3    C3 9838   3.528   0.105   0.731 -0.0894 -0.9232 -0.1049
  665TMC3    C4 9839   3.609   0.209   0.485 -0.2382 -0.5983  0.1563
  665TMC3    C5 9840   3.615   0.280   0.603 -0.6695  0.3708  0.2611
  665TMC3    C6 9841   3.576   0.236   0.724 -0.2131 -0.5563  0.0802
  665TMC3     C 9842   3.568   4.711   0.384  0.6986 -0.4658 -0.2599
  665TMC3     O 9843   3.557   4.594   0.412 -0.1399  0.4310 -0.3431
  665TMC3     H 9844   3.513   4.642   0.625 -1.0325  0.0855  1.6401
  665TMC3    H1 9845   3.644   0.248   0.391  1.5351 -1.6871  0.3819
  665TMC3    H2 9846   3.601   0.287   0.817  3.1776  2.4512 -2.4843
  665TMC3    C7 9847   3.658   0.418   0.587  0.5990 -0.4717  0.2692
  665TMC3    C8 9848   3.523   0.040   0.861  0.0876 -0.2260  0.1825
  665TMC3    O1 9849   3.693   0.448   0.475  0.1867 -0.2968 -0.2373
  665TMC3    O2 9850   3.566   0.100   0.959  0.2300  0.2461  0.1246
  666TMC3    C1 9851   2.874   4.192   9.682 -0.3535  0.1092 -0.3306
  666TMC3    C2 9852   2.989   4.166   9.749 -0.2556 -0.6903 -0.0603
  666TMC3    C3 9853   3.026   4.256   9.846  0.0452 -0.3731  0.1502
  666TMC3    C4 9854   2.795   4.300   9.695  0.5392  0.1082  0.1870
  666TMC3    C5 9855   2.840   4.388   9.788 -0.2867  0.0091  0.3210
  666TMC3    C6 9856   2.954   4.373   9.862 -0.6510  0.0960  0.7500
  666TMC3     C 9857   2.830   4.093   9.583 -0.1194 -0.1178 -0.5189
  666TMC3     O 9858   2.804   4.130   9.471  0.1524  0.4024  0.0648
  666TMC3     H 9859   3.051   4.079   9.732 -0.3840 -0.8607  0.3342
  666TMC3    H1 9860   2.709   4.319   9.631  1.0536 -2.8878 -1.3965
  666TMC3    H2 9861   2.987   4.454   9.927  0.5699 -1.0642  1.5946
  666TMC3    C7 9862   2.756   4.496   9.843 -0.7602 -0.5073 -0.4802
  666TMC3    C8 9863   3.119   4.219   9.949  0.3643  0.5881 -0.0024
  666TMC3    O1 9864   2.775   4.514   9.963  0.1501  1.1688  0.3532
  666TMC3    O2 9865   3.142   4.095   9.956  0.4007 -0.1475  0.4688
  667MPD2     C 9866   4.230   0.162  14.724 -0.0192 -0.4307 -0.5473
  667MPD2    C1 9867   4.114   0.209  14.787  0.9545 -0.2981  0.3776
  667MPD2    C2 9868   3.991   0.167  14.745 -0.3896  0.0182  0.1435
  667MPD2    C3 9869   3.985   0.077  14.639 -0.4287  0.2802 -0.4347
  667MPD2    C4 9870   4.097   0.046  14.564  0.2992 -0.1584  0.0233
  667MPD2    C5 9871   4.219   0.085  14.609  0.4152  0.6536 -0.4178
  667MPD2     H 9872   3.899   0.190  14.798  0.1922  1.4160  0.5522
  667MPD2    H1 9873   4.082   4.693  14.487 -1.5044 -2.4540  2.5781
  667MPD2    H2 9874   4.325   0.183  14.772  0.6098  0.9490 -2.3972
  667MPD2    H3 9875   4.304   0.038  14.562  1.8715  2.5411  0.3264
  667MPD2     N 9876   3.859   0.028  14.594 -0.5711  0.2443  0.3619
  667MPD2    H5 9877   3.870   4.706  14.503 -0.6587  2.2694 -0.6174
  667MPD2    N1 9878   4.106   0.290  14.904 -1.0410 -0.3458 -0.4737
  667MPD2    H7 9879   4.016   0.321  14.939 -1.1426 -0.2819 -0.7865
  668TMC3    C1 9880   4.170   0.437  15.070  0.5562 -0.3142 -0.3442
  668TMC3    C2 9881   4.261   0.530  15.102  0.2946  0.1136  0.1506
  668TMC3    C3 9882   4.270   0.566  15.235  0.3285  0.8807  0.6051
  668TMC3    C4 9883   4.093   0.376  15.162  0.2983 -0.2529 -0.1938
  668TMC3    C5 9884   4.103   0.419  15.292  0.3915  0.0558  0.3459
  668TMC3    C6 9885   4.192   0.515  15.329  0.7221 -0.0625  0.0810
  668TMC3     C 9886   4.208   0.339  14.976 -0.3249 -0.4605  0.4432
  668TMC3     O 9887   4.329   0.335  14.954 -0.4265 -0.1021 -0.0159
  668TMC3     H 9888   4.313   0.580  15.020  0.1446 -0.3972 -0.2605
  668TMC3    H1 9889   4.020   0.299  15.139  0.1315 -0.6057  1.5360
  668TMC3    H2 9890   4.194   0.556  15.430 -2.4372 -1.4658  0.7210
  668TMC3    C7 9891   4.029   0.358  15.402 -0.3454 -0.2173  0.0936
  668TMC3    C8 9892   4.361   0.683  15.267  0.6165  0.4653 -0.0772
  668TMC3    O1 9893   4.042   0.410  15.513 -0.3108  0.3781 -0.4056
  668TMC3    O2 9894   4.349   0.720  15.382  0.0849 -0.7532 -0.1788
  669TMC3    C1 9895   2.159   4.650  14.366 -0.5139 -0.3554  0.7671
  669TMC3    C2 9896   2.050   4.693  14.300 -0.2129 -0.4790 -0.4097
  669TMC3    C3 9897   2.047   0.101  14.270 -0.3246  0.1359  0.0429
  669TMC3    C4 9898   2.274   0.003  14.403  0.2466 -0.4024 -0.0173
  669TMC3    C5 9899   2.256   0.136  14.369  0.0237  0.3073  0.4050
  669TMC3    C6 9900   2.151   0.189  14.305  0.5264  0.0661  0.0991
  669TMC3     C 9901   2.143   4.514  14.424 -0.6464 -0.6290 -0.0512
  669TMC3     O 9902   2.060   4.439  14.379  0.2083 -0.0399  0.1754
  669TMC3     H 9903   1.968   4.627  14.277 -2.3181  1.7653  0.7032
  669TMC3    H1 9904   2.366   4.685  14.444 -0.3009 -0.0939  1.5072
  669TMC3    H2 9905   2.154   0.293  14.275  2.2796  0.2485  0.9463
  669TMC3    C7 9906   2.371   0.224  14.383 -0.0333 -0.2527 -0.1770
  669TMC3    C8 9907   1.931   0.133  14.180 -0.2873  0.0979 -0.2863
  669TMC3    O1 9908   2.382   0.310  14.293 -0.3365 -0.3553  0.0942
  669TMC3    O2 9909   1.883   0.047  14.110  0.2276  0.1614  0.0091
  670MPD2     C 9910   0.433   2.273  13.335  0.0717  0.6285 -0.3649
  670MPD2    C1 9911   0.519   2.284  13.440 -0.3118 -0.0945 -0.0709
  670MPD2    C2 9912   0.466   2.254  13.564 -0.9929  0.6801  0.0953
  670MPD2    C3 9913   0.341   2.187  13.576 -0.2081 -0.1939 -0.2172
  670MPD2    C4 9914   0.266   2.161  13.468  0.5822 -0.4930  0.0234
  670MPD2    C5 9915   0.320   2.204  13.347 -0.4760  0.1093 -0.1916
  670MPD2     H 9916   0.520   2.289  13.651  2.3528  0.1334 -1.7409
  670MPD2    H1 9917   0.174   2.104  13.478  0.7511 -0.7182  0.2959
  670MPD2    H2 9918   0.465   2.296  13.234 -0.8324  2.7067 -0.1808
  670MPD2    H3 9919   0.262   2.193  13.256 -1.5531  3.2555  0.1058
  670MPD2     N 9920   0.311   2.148  13.705 -0.4751 -0.7136  0.0637
  670MPD2    H5 9921   0.387   2.151  13.773 -0.8700  3.0212  0.3474
  670MPD2    N1 9922   0.643   2.350  13.433 -0.2271 -0.2601  0.2356
  670MPD2    H7 9923   0.679   2.386  13.521 -1.2233  1.1010  0.0935
  671TMC3    C1 9924   0.178   2.071  13.883  0.6413  0.1963 -0.1715
  671TMC3    C2 9925   0.288   2.031  13.950 -0.5425 -0.1411 -0.2201
  671TMC3    C3 9926   0.273   1.999  14.086 -0.5157  0.3956 -0.6572
  671TMC3    C4 9927   0.059   2.098  13.954  0.5712 -0.1160 -0.8536
  671TMC3    C5 9928   0.047   2.058  14.087  0.6560  1.0043 -0.0511
  671TMC3    C6 9929   0.159   2.015  14.156 -0.6400  0.0651  0.2416
  671TMC3     C 9930   0.184   2.104  13.740 -0.7835 -0.4104  0.6897
  671TMC3     O 9931   0.075   2.111  13.683 -0.2055 -0.5475 -1.0288
  671TMC3     H 9932   0.376   2.007  13.892 -1.8421 -1.5695 -1.5998
  671TMC3    H1 9933   4.687   2.120  13.902  0.6779  1.6334 -0.2831
  671TMC3    H2 9934   0.146   1.973  14.254 -0.5091  0.5154  0.4539
  671TMC3    C7 9935   4.659   1.966  14.100 -0.1856  0.1729  0.0146
  671TMC3    C8 9936   0.369   1.895  14.121 -0.0974  0.7099 -0.0391
  671TMC3    O1 9937   4.609   1.919  13.998  0.4388  0.1671  0.0201
  671TMC3    O2 9938   0.455   1.863  14.042  0.0137  0.1772  0.2739
  672MPD2     C 9939   0.787   2.518   1.178 -0.6201  0.5522  0.3701
  672MPD2    C1 9940   0.890   2.572   1.101  0.2290  0.5287 -0.7613
  672MPD2    C2 9941   0.970   2.681   1.141 -0.3476 -0.6951 -0.0402
  672MPD2    C3 9942   0.943   2.731   1.267 -0.7366 -1.2032  0.0812
  672MPD2    C4 9943   0.833   2.682   1.344 -0.4705 -0.1137  0.8411
  672MPD2    C5 9944   0.755   2.574   1.300  0.8386 -0.1841 -0.6431
  672MPD2     H 9945   1.053   2.716   1.082 -0.8763  3.1062  1.4854
  672MPD2    H1 9946   0.807   2.722   1.441 -1.5378 -0.9597  0.9061
  672MPD2    H2 9947   0.723   2.440   1.136 -0.4034  1.7851 -2.2391
  672MPD2    H3 9948   0.666   2.554   1.358  1.0955  2.1134  0.5459
  672MPD2     N 9949   1.020   2.833   1.326  0.2370 -0.4309 -0.5824
  672MPD2    H5 9950   1.023   2.830   1.428  1.2010  1.1369 -0.5638
  672MPD2    N1 9951   0.920   2.515   0.972  0.1913 -0.0976  0.0769
  672MPD2    H7 9952   0.970   2.566   0.900 -0.5786 -2.5953 -2.2171
  673TMC3    C1 9953   0.950   2.334   0.816 -0.1809  0.3939 -0.3096
  673TMC3    C2 9954   1.015   2.216   0.821 -0.5488  0.1540  0.1963
  673TMC3    C3 9955   1.075   2.176   0.707 -0.4809  0.8776  0.3390
  673TMC3    C4 9956   0.947   2.420   0.711 -0.3798  0.0860  0.1314
  673TMC3    C5 9957   1.015   2.374   0.604 -0.2665  0.5928  0.5945
  673TMC3    C6 9958   1.069   2.247   0.596 -0.4213  0.4796 -0.4955
  673TMC3     C 9959   0.913   2.381   0.948 -0.0545 -0.3232  0.3632
  673TMC3     O 9960   0.874   2.295   1.028  0.9473  0.1884  0.0679
  673TMC3     H 9961   1.049   2.182   0.919  0.8652  0.7955 -0.0643
  673TMC3    H1 9962   0.901   2.518   0.700 -0.7151 -0.2066 -1.0778
  673TMC3    H2 9963   1.125   2.217   0.508  0.2189  1.8765 -0.5758
  673TMC3    C7 9964   1.024   2.457   0.482 -0.6478  0.7019 -0.5980
  673TMC3    C8 9965   1.174   2.068   0.725 -0.9764  0.2100  0.0062
  673TMC3    O1 9966   1.060   2.402   0.379 -0.6844 -0.7512  0.0890
  673TMC3    O2 9967   1.208   2.002   0.625 -1.0709  0.2215  0.7641
  674MPD2     C 9968   0.369   3.084   0.269 -0.3476  0.1722 -0.4084
  674MPD2    C1 9969   0.424   2.993   0.356  0.1914  0.3766  0.5033
  674MPD2    C2 9970   0.390   2.991   0.486 -0.5530 -0.6401 -0.9283
  674MPD2    C3 9971   0.310   3.090   0.538  0.2365 -0.2093  0.0569
  674MPD2    C4 9972   0.258   3.189   0.450  0.3373 -0.0406 -0.1017
  674MPD2    C5 9973   0.282   3.185   0.315 -0.6342  0.7606 -0.0472
  674MPD2     H 9974   0.419   2.908   0.549 -1.7443 -0.5331 -0.2416
  674MPD2    H1 9975   0.190   3.267   0.482  1.5623  2.3852 -3.4060
  674MPD2    H2 9976   0.401   3.080   0.165  0.4308 -1.2687 -0.1181
  674MPD2    H3 9977   0.236   3.260   0.252 -1.8293 -0.3452 -0.4988
  674MPD2     N 9978   0.264   3.064   0.672 -0.2849 -0.0691  0.6997
  674MPD2    H5 9979   0.285   2.973   0.711  1.5881 -0.1505 -0.4806
  674MPD2    N1 9980   0.515   2.897   0.293 -0.3484  0.1605  0.1931
  674MPD2    H7 9981   0.548   2.913   0.198  0.7130 -0.3159  0.4851
  675TMC3    C1 9982   0.614   2.680   0.270 -0.2049  0.2226 -0.0390
  675TMC3    C2 9983   0.634   2.558   0.327 -0.7013  0.1856 -0.2796
  675TMC3    C3 9984   0.630   2.444   0.256  0.9282  0.1745  0.2803
  675TMC3    C4 9985   0.617   2.694   0.135  0.1099  0.3505  0.1440
  675TMC3    C5 9986   0.610   2.576   0.064 -0.0282 -0.1779 -0.1014
  675TMC3    C6 9987   0.619   2.450   0.121 -0.3376 -0.1492 -0.5813
  675TMC3     C 9988   0.563   2.783   0.355  0.2812  0.1456  0.2072
  675TMC3     O 9989   0.540   2.752   0.472 -0.5553 -0.1883  0.5876
  675TMC3     H 9990   0.654   2.547   0.433 -1.7276  2.6775  0.1742
  675TMC3    H1 9991   0.608   2.790   0.087 -1.1331  0.0533 -0.2305
  675TMC3    H2 9992   0.617   2.366   0.052 -0.8202 -1.7713  1.4393
  675TMC3    C7 9993   0.705   2.591  17.648  0.4502 -0.2582  0.8591
  675TMC3    C8 9994   0.698   2.327   0.294 -0.4905 -0.0198  0.0832
  675TMC3    O1 9995   0.692   2.669  17.554  0.1247 -0.4116  0.0045
  675TMC3    O2 9996   0.750   2.264   0.201 -0.6870  0.1943  0.1791
  676MPD2     C 9997   2.757   1.008  11.179 -0.0522  0.0961 -0.0337
  676MPD2    C1 9998   2.730   0.901  11.265 -0.1752  0.4435  0.7092
  676MPD2    C2 9999   2.752   0.773  11.224 -0.6325  0.2006 -0.2344
  676MPD2    C310000   2.791   0.751  11.094  0.0699  0.9151 -0.5259
  676MPD2    C410001   2.825   0.856  11.007 -0.3536 -0.1416 -0.2358
  676MPD2    C510002   2.810   0.987  11.048  0.0062  0.4413 -0.5757
  676MPD2     H10003   2.726   0.690  11.289 -2.5777  0.2863 -0.9146
  676MPD2    H110004   2.860   0.832  10.908  1.8882 -1.6665  0.9202
  676MPD2    H210005   2.740   1.109  11.215  1.0700  1.1107 -2.3416
  676MPD2    H310006   2.832   1.075  10.989 -1.4608  1.2708  0.1320
  676MPD2     N10007   2.813   0.619  11.043 -0.1315 -0.3585  0.3666
  676MPD2    H510008   2.841   0.620  10.946 -2.1777 -3.3697 -0.2499
  676MPD2    N110009   2.666   0.928  11.389  0.4000 -0.1224  0.6330
  676MPD2    H710010   2.619   0.846  11.425 -0.2314 -0.0544 -0.0449
  677TMC3    C110011   2.607   1.039  11.589  0.8486 -0.0531  0.6019
  677TMC3    C210012   2.484   0.990  11.590  0.3333 -0.2370  0.4699
  677TMC3    C310013   2.433   0.987  11.713 -0.0443  0.5195  0.1089
  677TMC3    C410014   2.668   1.100  11.700 -0.4314  0.0239  0.4419
  677TMC3    C510015   2.598   1.119  11.810 -0.0918 -0.3931  0.0664
  677TMC3    C610016   2.482   1.054  11.824  0.2797  0.2020 -0.2189
  677TMC3     C10017   2.685   1.037  11.470  0.0740  0.3517 -0.0051
  677TMC3     O10018   2.770   1.127  11.460  0.1131  0.1529  0.0070
  677TMC3     H10019   2.435   0.950  11.502 -0.4614  2.5839 -0.3738
  677TMC3    H110020   2.771   1.134  11.694 -0.1601 -0.9773 -0.5345
  677TMC3    H210021   2.430   1.050  11.919  2.5441 -4.1694  0.8428
  677TMC3    C710022   2.660   1.178  11.931 -0.4866 -0.0289  0.5184
  677TMC3    C810023   2.300   0.916  11.718 -0.3335  0.2856  0.0910
  677TMC3    O110024   2.611   1.144  12.038  0.3873  0.2020  0.3485
  677TMC3    O210025   2.244   0.910  11.610  0.3545  0.4008 -0.6854
  678MPD2     C10026   4.305   1.077   1.811  0.9424  0.1933 -0.2793
  678MPD2    C110027   4.356   1.112   1.687  0.2951 -0.2492  0.4566
  678MPD2    C210028   4.276   1.189   1.605 -0.1922 -0.3930  0.0750
  678MPD2    C310029   4.146   1.220   1.644 -0.0359  0.0389 -0.2116
  678MPD2    C410030   4.097   1.180   1.769  0.5902 -0.6048 -0.0054
  678MPD2    C510031   4.177   1.109   1.849  0.5200  0.6887  0.1767
  678MPD2     H10032   4.312   1.198   1.503 -1.7010  0.9021 -0.3598
  678MPD2    H110033   3.999   1.199   1.810 -0.6970 -1.7926 -2.5710
  678MPD2    H210034   4.372   1.021   1.875  1.0277  0.5906 -0.0208
  678MPD2    H310035   4.155   1.081   1.951 -0.0242  1.8845  0.3871
  678MPD2     N10036   4.062   1.269   1.546 -0.5349 -0.1720 -0.2782
  678MPD2    H510037   4.098   1.281   1.452 -0.5046  1.2699 -0.0791
  678MPD2    N110038   4.482   1.072   1.642  0.2344  0.1334 -0.3461
  678MPD2    H710039   4.506   1.124   1.558 -1.3282  1.9602  0.3382
  679TMC3    C110040   0.064   0.744   1.521  0.2895 -1.2085  0.8906
  679TMC3    C210041   4.699   0.797   1.611  0.1709  0.2637  0.0329
  679TMC3    C310042   4.658   0.927   1.601 -0.2696  0.4753  0.2442
  679TMC3    C410043   0.125   0.819   1.424  0.2401  0.6137 -0.7517
  679TMC3    C510044   0.088   0.952   1.413  0.1159 -0.3662 -0.0226
  679TMC3    C610045   4.711   1.003   1.495 -0.4657  0.5148 -0.8644
  679TMC3     C10046   0.104   0.605   1.523 -0.1711  0.5107 -0.0687
  679TMC3     O10047   0.216   0.585   1.475  0.1132  0.1480 -0.6982
  679TMC3     H10048   4.672   0.739   1.699 -1.1922  0.9042  0.0401
  679TMC3    H110049   0.198   0.774   1.358  1.6654  1.2289  0.4054
  679TMC3    H210050   4.686   1.108   1.487 -2.8002 -0.1469 -2.0443
  679TMC3    C710051   0.111   1.017   1.284  0.5837  0.0487 -0.3723
  679TMC3    C810052   4.549   0.962   1.686 -0.1357 -0.3407 -0.0081
  679TMC3    O110053   0.042   1.117   1.263  0.2518 -0.0555 -0.5564
  679TMC3    O210054   4.531   0.880   1.777  0.4286  0.4317  0.1898
  680MPD2     C10055   4.514   4.635  13.550  0.2253 -0.2447 -0.2617
  680MPD2    C110056   4.585   4.590  13.661 -0.0200 -0.5388  0.2941
  680MPD2    C210057   4.653   4.679  13.744  0.1509  0.1981  0.1515
  680MPD2    C310058   4.664   0.090  13.708  0.4562 -0.2772 -0.2032
  680MPD2    C410059   4.599   0.135  13.594  0.0588  0.4718  0.3019
  680MPD2    C510060   4.517   0.050  13.519  0.7729  0.0831 -0.3170
  680MPD2     H10061   4.709   4.634  13.825 -2.6687 -3.5612  0.0671
  680MPD2    H110062   4.615   0.236  13.560 -1.1550  0.8933  0.9956
  680MPD2    H210063   4.443   4.573  13.497 -0.4679 -1.5710  2.2201
  680MPD2    H310064   4.466   0.094  13.434 -0.2267 -1.1153 -0.3383
  680MPD2     N10065   0.037   0.178  13.761  0.2342  0.4695 -0.3938
  680MPD2    H510066   0.048   0.273  13.725 -1.5397  1.4343  1.5572
  680MPD2    N110067   4.594   4.459  13.713 -0.2399 -0.6454 -0.0955
  680MPD2    H710068   4.649   4.445  13.796  0.1247 -0.8065 -0.3626
  681TMC3    C110069   4.590   4.232  13.701  0.4138  0.2881  0.4342
  681TMC3    C210070   4.631   4.241  13.829  0.7619 -0.1446 -0.0365
  681TMC3    C310071   0.024   4.172  13.868  0.3943 -0.1445 -0.5298
  681TMC3    C410072   4.656   4.145  13.614 -0.3807 -0.2143  0.2499
  681TMC3    C510073   0.048   4.079  13.656 -0.1341 -0.1454 -0.5296
  681TMC3    C610074   0.101   4.102  13.782  1.1148 -0.2608 -0.2621
  681TMC3     C10075   4.539   4.354  13.648 -0.3309 -0.1702  0.0470
  681TMC3     O10076   4.501   4.347  13.530  0.1849  0.4289  0.0680
  681TMC3     H10077   4.574   4.292  13.906  1.1610  1.5727 -0.8905
  681TMC3    H110078   4.619   4.127  13.514 -0.5305 -0.1163  0.2877
  681TMC3    H210079   0.182   4.041  13.820  1.4888 -0.8226 -1.9702
  681TMC3    C710080   0.140   4.015  13.563  0.3523 -0.4570  0.6551
  681TMC3    C810081   0.055   4.180  14.011  0.1567 -0.6720 -0.4145
  681TMC3    O110082   0.238   3.967  13.618  0.4017 -0.0438 -0.4363
  681TMC3    O210083   4.688   4.216  14.087 -0.1191  0.1096 -0.3024
  682MPD2     C10084   2.158   0.727  10.644 -0.0409 -0.2098 -0.0078
  682MPD2    C110085   2.111   0.597  10.672  0.2959  0.8518  0.2871
  682MPD2    C210086   2.029   0.577  10.781  0.1736  0.4747 -0.0169
  682MPD2    C310087   1.990   0.689  10.863 -0.0822 -0.1363 -0.4828
  682MPD2    C410088   2.041   0.820  10.829 -0.0888  0.5638 -0.3465
  682MPD2    C510089   2.116   0.830  10.720  0.1240 -0.3013  0.2156
  682MPD2     H10090   1.995   0.476  10.797  1.2034 -0.1935 -2.1147
  682MPD2    H110091   2.011   0.900  10.896 -3.0289 -0.7619 -0.1004
  682MPD2    H210092   2.234   0.750  10.571 -1.2415  2.6505 -0.3474
  682MPD2    H310093   2.150   0.929  10.693 -0.4325  0.1135  1.0311
  682MPD2     N10094   1.893   0.682  10.962  0.2794  0.5042 -0.6535
  682MPD2    H510095   1.885   0.767  11.016  1.7140 -0.0307  0.3945
  682MPD2    N110096   2.144   0.488  10.586  0.2449 -0.1792  0.2344
  682MPD2    H710097   2.079   0.411  10.595  0.2584 -0.0959  0.9865
  683TMC3    C110098   1.659   0.704  11.301  0.0657  0.3240  0.7177
  683TMC3    C210099   1.549   0.623  11.322  0.2246  0.9573 -0.5407
  683TMC3    C310100   1.539   0.526  11.229  0.0742  0.1226 -0.0017
  683TMC3    C410101   1.736   0.714  11.193  0.5814  0.0214  1.0445
  683TMC3    C510102   1.725   0.604  11.107  0.0617 -0.1036 -0.3216
  683TMC3    C610103   1.622   0.510  11.122  0.3550  0.4827 -0.3093
  683TMC3     C10104   1.683   0.801  11.407 -0.0860  0.5474 -0.3935
  683TMC3     O10105   1.801   0.811  11.443 -0.4973  0.1313 -0.1750
  683TMC3     H10106   1.487   0.632  11.410  0.0611 -0.5818 -0.4976
  683TMC3    H110107   1.807   0.795  11.188 -1.6588  1.9667  0.6534
  683TMC3    H210108   1.606   0.430  11.050 -0.8847  0.9405 -0.5374
  683TMC3    C710109   1.807   0.581  10.987  0.6547  0.2036  0.3860
  683TMC3    C810110   1.427   0.438  11.225  0.0847  0.4926 -0.4520
  683TMC3    O110111   1.789   0.476  10.930 -0.2254  0.0028 -0.0919
  683TMC3    O210112   1.381   0.412  11.115 -0.3045  0.3261  0.2488
  684MPD2     C10113   0.403   0.694  16.395  0.0850  0.0622  0.4561
  684MPD2    C110114   0.341   0.731  16.273 -0.0512  0.8755 -0.4844
  684MPD2    C210115   0.320   0.865  16.260 -0.7907 -0.5194  0.8499
  684MPD2    C310116   0.327   0.952  16.365 -0.2896 -0.2508 -0.7567
  684MPD2    C410117   0.373   0.906  16.485  0.1287  0.6894  0.2265
  684MPD2    C510118   0.417   0.778  16.497  0.3135  0.3111 -0.3875
  684MPD2     H10119   0.271   0.906  16.172 -0.7480 -0.7607  0.7133
  684MPD2    H110120   0.378   0.974  16.569  0.5239  1.3617 -0.3312
  684MPD2    H210121   0.441   0.593  16.403  0.2126 -0.0096 -0.9534
  684MPD2    H310122   0.466   0.747  16.589  0.0172 -1.0332 -0.6730
  684MPD2     N10123   0.304   1.091  16.359 -0.3891  0.1576  0.1888
  684MPD2    H510124   0.331   1.141  16.444  1.7294  1.2226 -1.1024
  684MPD2    N110125   0.306   0.646  16.168  0.0712 -0.1459 -0.1467
  684MPD2    H710126   0.276   0.683  16.078  1.7450  1.4858 -0.0365
  685TMC3    C110127   0.322   0.453  16.026 -0.2088 -0.3686 -0.2269
  685TMC3    C210128   0.200   0.462  15.957 -0.8709 -0.1101  0.0423
  685TMC3    C310129   0.187   0.382  15.846  0.5520  0.9232 -0.1775
  685TMC3    C410130   0.425   0.385  15.975  0.3351 -0.4242  0.7643
  685TMC3    C510131   0.411   0.309  15.862 -0.0756 -0.1401 -0.5123
  685TMC3    C610132   0.293   0.310  15.795  0.4872 -0.4747  0.6194
  685TMC3     C10133   0.335   0.514  16.163  0.3163  0.0859  0.4168
  685TMC3     O10134   0.410   0.448  16.235  0.1446  0.2272 -0.0592
  685TMC3     H10135   0.120   0.510  16.012 -1.0903 -2.3939  1.7815
  685TMC3    H110136   0.516   0.398  16.031  1.0078  0.0028 -0.4299
  685TMC3    H210137   0.290   0.260  15.699 -2.7279  2.4495 -0.8271
  685TMC3    C710138   0.524   0.262  15.796  0.2639  0.2209  0.0833
  685TMC3    C810139   0.063   0.372  15.777  0.0178 -0.1132  0.3026
  685TMC3    O110140   0.526   0.269  15.678 -0.0288 -0.1937 -0.0706
  685TMC3    O210141   0.046   0.289  15.689 -0.0372  0.2442  0.2951
  686MPD2     C10142   1.803   0.223  15.247  0.1541  0.2482 -0.6589
  686MPD2    C110143   1.737   0.104  15.268  0.1526 -0.3386 -0.8129
  686MPD2    C210144   1.717   0.003  15.175 -0.0160 -0.9553 -0.3914
  686MPD2    C310145   1.792   0.008  15.062 -0.1957  0.1227  0.1649
  686MPD2    C410146   1.878   0.113  15.044 -0.8227 -0.2851 -0.3042
  686MPD2    C510147   1.884   0.223  15.132  0.2325 -0.3607 -0.1636
  686MPD2     H10148   1.668   4.630  15.199 -1.5317  0.4479  2.0732
  686MPD2    H110149   1.942   0.122  14.957  0.4604 -1.2744  0.5345
  686MPD2    H210150   1.809   0.301  15.322  0.3116 -1.9546  1.6466
  686MPD2    H310151   1.956   0.301  15.110 -0.2982 -0.4192 -2.1478
  686MPD2     N10152   1.805   4.628  14.972 -0.2638 -0.3380 -0.3618
  686MPD2    H510153   1.896   4.619  14.928 -0.7332  1.4662 -1.6929
  686MPD2    N110154   1.684   0.101  15.396 -0.3590  0.7660 -0.0627
  686MPD2    H710155   1.675   0.186  15.451 -2.2601  0.6009 -0.1119
  687TMC3    C110156   1.758   4.405  14.980  0.6203 -0.3825  0.0967
  687TMC3    C210157   1.651   4.333  15.019 -0.4234  0.1431 -0.2868
  687TMC3    C310158   1.642   4.266  15.136  0.7073  0.5515  0.0951
  687TMC3    C410159   1.869   4.397  15.059 -0.2893  0.3226 -0.1458
  687TMC3    C510160   1.860   4.343  15.183  0.6806 -1.0244  0.2208
  687TMC3    C610161   1.746   4.273  15.219 -0.5994 -0.3073 -0.7561
  687TMC3     C10162   1.713   4.537  14.953 -0.5194 -0.6712 -0.7711
  687TMC3     O10163   1.591   4.566  14.973  0.4408 -0.2535  0.0240
  687TMC3     H10164   1.573   4.330  14.943 -0.7371 -0.2729  0.0500
  687TMC3    H110165   1.960   4.445  15.025  0.1647 -0.2681  0.2260
  687TMC3    H210166   1.751   4.202  15.301 -0.2546  2.4289  1.5907
  687TMC3    C710167   1.931   4.409  15.283 -0.3122 -0.4019 -0.4849
  687TMC3    C810168   1.522   4.285  15.210  0.6901  0.2333 -0.4840
  687TMC3    O110169   2.032   4.475  15.262  0.3211 -0.0385  0.2334
  687TMC3    O210170   1.515   4.219  15.315  0.6037 -0.0020  0.0233
  688MPD2     C10171   0.990   3.931  17.180  0.2263 -0.6081 -0.0262
  688MPD2    C110172   1.055   3.822  17.231  0.9206 -0.9078 -0.0869
  688MPD2    C210173   1.155   3.765  17.151 -0.1917 -0.3550  0.0101
  688MPD2    C310174   1.207   3.831  17.035  0.0931  0.4504 -0.3243
  688MPD2    C410175   1.151   3.955  17.001 -0.6687  0.2269 -0.2157
  688MPD2    C510176   1.042   3.995  17.070 -2.0636 -0.2392 -0.0193
  688MPD2     H10177   1.189   3.667  17.181  1.2559  0.0297 -0.3437
  688MPD2    H110178   1.181   4.017  16.917  1.4078 -1.3063 -0.6260
  688MPD2    H210179   0.912   3.979  17.237 -0.5557  1.2244 -2.6531
  688MPD2    H310180   0.995   4.089  17.044 -1.0006  0.8286  1.9682
  688MPD2     N10181   1.310   3.771  16.957  0.5762  0.1365  0.5708
  688MPD2    H510182   1.349   3.833  16.887 -0.2637 -0.1961 -0.2033
  688MPD2    N110183   1.019   3.762  17.357 -0.1818  0.1407 -0.5028
  688MPD2    H710184   1.088   3.694  17.388  1.1869  1.1158 -1.4361
  689TMC3    C110185   0.939   3.743  17.579 -0.1960  0.0173  0.4012
  689TMC3    C210186   0.904   3.811   0.006  0.2437 -0.0223  0.1372
  689TMC3    C310187   0.893   3.732   0.114 -0.0983 -0.7254 -0.4615
  689TMC3    C410188   0.941   3.609  17.581  0.5655 -0.2447  0.5538
  689TMC3    C510189   0.910   3.540  17.688  0.2136  0.1573  0.3242
  689TMC3    C610190   0.893   3.596   0.120 -0.5571 -0.5433 -0.6746
  689TMC3     C10191   0.923   3.807  17.448  0.5999  0.0307  0.2720
  689TMC3     O10192   0.838   3.891  17.440 -0.2073 -0.4435 -0.0589
  689TMC3     H10193   0.902   3.920   0.009 -0.0061 -0.0140 -0.2547
  689TMC3    H110194   0.952   3.554  17.488  0.5579  0.7252 -0.0224
  689TMC3    H210195   0.891   3.538   0.211  0.0439  2.1431  1.0577
  689TMC3    C710196   0.932   3.396  17.687  0.3814 -0.2372  0.4956
  689TMC3    C810197   0.894   3.798   0.247  0.3984  0.6921  0.4516
  689TMC3    O110198   0.947   3.347   0.113 -0.1579  0.4141 -0.0003
  689TMC3    O210199   0.834   3.751   0.344 -0.3480 -0.5262  0.5836
  690MPD2     C10200   3.398   0.917  15.871  0.1182  0.0428  0.0090
  690MPD2    C110201   3.364   0.942  15.741  0.4533  0.3444 -0.1334
  690MPD2    C210202   3.422   1.048  15.673  0.3305 -0.0225 -0.3317
  690MPD2    C310203   3.513   1.134  15.726 -0.2737 -0.1310 -0.0434
  690MPD2    C410204   3.550   1.103  15.857 -0.1316 -0.2725 -0.2176
  690MPD2    C510205   3.499   1.000  15.926 -0.1224  0.3442  0.2173
  690MPD2     H10206   3.387   1.070  15.572  2.1622  1.2314 -0.6904
  690MPD2    H110207   3.618   1.169  15.910 -1.0936 -0.0194  0.7002
  690MPD2    H210208   3.349   0.849  15.941 -3.1169  0.3356 -1.9610
  690MPD2    H310209   3.529   0.989  16.029 -1.1952 -2.5367  0.2129
  690MPD2     N10210   3.563   1.247  15.648  0.4423  0.3478  0.2788
  690MPD2    H510211   3.546   1.255  15.548 -2.5012 -2.5430  0.5368
  690MPD2    N110212   3.260   0.866  15.672  0.1805  0.2883  0.1961
  690MPD2    H710213   3.217   0.902  15.587  2.8488  1.7302 -0.5414
  691TMC3    C110214   3.113   0.688  15.610 -0.2611 -0.7264  0.1240
  691TMC3    C210215   3.089   0.742  15.490 -0.2321  0.2339  0.1089
  691TMC3    C310216   3.009   0.672  15.402  0.3329  0.6170 -0.5413
  691TMC3    C410217   3.066   0.559  15.641 -0.4842 -0.5920 -0.8531
  691TMC3    C510218   2.996   0.497  15.542  0.0350 -0.4831 -0.3088
  691TMC3    C610219   2.965   0.549  15.419 -0.2063  0.2523 -0.1811
  691TMC3     C10220   3.201   0.751  15.710  0.2368  0.0070 -0.6427
  691TMC3     O10221   3.229   0.672  15.798  0.7212  0.0905 -0.2464
  691TMC3     H10222   3.129   0.840  15.467  1.0835  0.0390  1.5643
  691TMC3    H110223   3.094   0.506  15.731 -2.1349  1.2356  0.7692
  691TMC3    H210224   2.925   0.487  15.340 -0.9252  0.0082  0.3798
  691TMC3    C710225   2.965   0.360  15.578  0.8259 -0.3414  0.7068
  691TMC3    C810226   2.984   0.727  15.273  0.6391 -0.6211  0.8879
  691TMC3    O110227   3.044   0.297  15.650 -0.4952 -0.1458  0.1072
  691TMC3    O210228   2.938   0.654  15.185 -0.3406  0.5743 -0.0071
  692TMC3    C110229   0.114   2.373  15.862 -0.2050 -0.3960 -0.4918
  692TMC3    C210230   0.243   2.382  15.918  0.3780 -0.2242 -0.2098
  692TMC3    C310231   0.347   2.307  15.858 -0.4197  0.1848 -0.0381
  692TMC3    C410232   0.087   2.297  15.756  0.3051 -0.2863 -0.3615
  692TMC3    C510233   0.191   2.216  15.707  0.0339  0.4743 -0.4239
  692TMC3    C610234   0.315   2.210  15.767  0.6133  0.6069  0.5038
  692TMC3     C10235   0.018   2.477  15.904 -0.1200  0.6815 -0.1432
  692TMC3     O10236   4.621   2.453  15.879 -0.0890  0.0949  0.3389
  692TMC3     H10237   0.243   2.414  16.021  1.7702 -2.2436  0.4164
  692TMC3    H110238   4.713   2.313  15.707 -0.4170 -1.0682  0.8094
  692TMC3    H210239   0.397   2.163  15.714 -1.4219 -0.8870 -1.3032
  692TMC3    C710240   0.148   2.079  15.676 -0.4815 -0.0008  0.0940
  692TMC3    C810241   0.449   2.257  15.952 -0.7297 -0.5208  0.0054
  692TMC3    O110242   0.054   2.076  15.597  0.1286 -0.4701  0.1625
  692TMC3    O210243   0.485   2.141  15.924 -0.8072 -0.2074 -1.1786
  693MPD2     C10244   4.174   0.177  10.832 -0.7102  0.3917 -0.1251
  693MPD2    C110245   4.151   0.049  10.777  0.4340 -0.1339 -0.2296
  693MPD2    C210246   4.247   4.676  10.767  0.3774 -0.0362  0.1634
  693MPD2    C310247   4.369   4.703  10.832  0.1562 -0.6881 -0.5014
  693MPD2    C410248   4.390   0.110  10.885  0.0565 -0.4749  0.8905
  693MPD2    C510249   4.292   0.206  10.888  0.0174  0.9228  0.0374
  693MPD2     H10250   4.225   4.582  10.717  1.5055 -0.3498  0.2539
  693MPD2    H110251   4.487   0.145  10.919  0.3413  0.2280 -0.6142
  693MPD2    H210252   4.092   0.245  10.853 -0.3193  1.1033 -0.9141
  693MPD2    H310253   4.299   0.298  10.944 -2.4915  0.4492  1.0862
  693MPD2     N10254   4.477   4.611  10.839  0.0142  0.2166 -0.1563
  693MPD2    H510255   4.566   4.647  10.870  0.2306  0.6877 -1.3176
  693MPD2    N110256   4.015   0.015  10.763 -0.0433  0.2199 -0.1958
  693MPD2    H710257   3.945   0.075  10.805 -0.2880  0.7248 -1.3274
  694TMC3    C110258   3.838   4.584  10.690  0.0728  0.9118  0.4142
  694TMC3    C210259   3.797   4.498  10.592  0.5459 -0.1183  0.5475
  694TMC3    C310260   3.710   4.405  10.631 -0.0670  0.1121 -0.3318
  694TMC3    C410261   3.783   4.592  10.818  0.1395  0.2162  0.3613
  694TMC3    C510262   3.700   4.489  10.848 -0.1776 -0.3346  0.1517
  694TMC3    C610263   3.659   4.391  10.754  0.1719 -0.0140 -0.2660
  694TMC3     C10264   3.976   4.626  10.680  0.1776 -0.6204 -0.9884
  694TMC3     O10265   4.040   4.557  10.604 -0.1241 -0.2642 -0.0263
  694TMC3     H10266   3.838   4.509  10.492  0.3518 -0.0025  0.4807
  694TMC3    H110267   3.813   4.668  10.889  0.5894  0.3299  0.0456
  694TMC3    H210268   3.583   4.315  10.770  0.6751 -0.2328  1.0950
  694TMC3    C710269   3.672   4.472  10.987  0.2065  0.0717  0.2832
  694TMC3    C810270   3.679   4.301  10.536  0.2110 -0.0082 -0.0244
  694TMC3    O110271   3.651   4.573  11.052  0.3902  0.3396 -0.5457
  694TMC3    O210272   3.615   4.201  10.576  0.2008 -0.2229 -0.4003
  695MPD2     C10273   0.327   1.796  13.560  0.3039  0.1026  0.4144
  695MPD2    C110274   0.304   1.731  13.677  0.4318  0.0527  0.1586
  695MPD2    C210275   0.171   1.723  13.726  0.4406  0.8308 -0.4493
  695MPD2    C310276   0.063   1.772  13.652  0.1023 -0.6744 -0.3620
  695MPD2    C410277   0.096   1.843  13.540 -0.6324 -0.2216 -0.6117
  695MPD2    C510278   0.220   1.855  13.493  0.1424  0.1970 -0.0164
  695MPD2     H10279   0.144   1.669  13.816 -2.0463  0.0440 -1.6635
  695MPD2    H110280   0.015   1.875  13.475 -1.1034  1.6596  0.9172
  695MPD2    H210281   0.427   1.804  13.519 -0.5994 -0.2019 -1.8782
  695MPD2    H310282   0.239   1.915  13.405  0.7966  0.5079  0.3389
  695MPD2     N10283   4.652   1.752  13.701 -0.3203  0.1472  0.5879
  695MPD2    H510284   4.648   1.715  13.796  2.6973  0.4009  0.8037
  695MPD2    N110285   0.403   1.670  13.757  0.0059 -0.4081 -0.1916
  695MPD2    H710286   0.371   1.606  13.829 -4.4918  1.4412 -0.5830
  696TMC3    C110287   4.425   1.768  13.732  0.0808  0.5900 -0.3277
  696TMC3    C210288   4.439   1.669  13.827 -0.0284 -0.1091  0.0937
  696TMC3    C310289   4.375   1.677  13.947  0.7954  0.0836 -0.4611
  696TMC3    C410290   4.349   1.877  13.758  0.5032 -0.0024 -0.3409
  696TMC3    C510291   4.276   1.878  13.873  0.9310 -0.0786  0.3383
  696TMC3    C610292   4.292   1.789  13.975 -0.2297 -0.0074  0.2333
  696TMC3     C10293   4.534   1.795  13.644 -0.1656 -0.6437  0.5382
  696TMC3     O10294   4.509   1.857  13.541  0.3547 -0.5268  0.0155
  696TMC3     H10295   4.491   1.576  13.806  3.4201  1.9317 -0.4292
  696TMC3    H110296   4.341   1.958  13.687 -2.2459  0.0142 -0.0054
  696TMC3    H210297   4.235   1.790  14.067  0.3557  4.6051  0.5345
  696TMC3    C710298   4.225   2.005  13.911  0.2808  0.2393 -0.3972
  696TMC3    C810299   4.350   1.557  14.019 -0.1479  0.5169 -0.5923
  696TMC3    O110300   4.138   2.051  13.839 -0.0710  0.5542  0.1124
  696TMC3    O210301   4.331   1.455  13.949  0.3223 -0.6973  0.1647
  697MPD2     C10302   4.303   3.855  15.604  1.1301 -0.4148  0.8541
  697MPD2    C110303   4.392   3.793  15.523  0.8819 -0.2140  0.3900
  697MPD2    C210304   4.486   3.870  15.459 -0.5610 -0.0330 -0.3554
  697MPD2    C310305   4.508   4.000  15.492  0.0272  0.0183  0.3308
  697MPD2    C410306   4.420   4.057  15.580 -0.4594 -0.8188  0.0751
  697MPD2    C510307   4.323   3.985  15.644  0.5516  0.5985 -0.1644
  697MPD2     H10308   4.546   3.832  15.376 -0.5253  1.7750 -1.1507
  697MPD2    H110309   4.424   4.164  15.599 -0.0208 -0.7195 -0.5610
  697MPD2    H210310   4.214   3.806  15.640 -0.3060  1.0946 -0.6675
  697MPD2    H310311   4.253   4.045  15.702  0.8308 -0.6244  1.4197
  697MPD2     N10312   4.607   4.074  15.419  0.3212  0.4509  0.3576
  697MPD2    H510313   4.647   4.025  15.339  1.3440  1.2751  0.3696
  697MPD2    N110314   4.382   3.657  15.490  0.4809 -0.0641  0.1497
  697MPD2    H710315   4.447   3.627  15.418 -0.4596 -0.9298 -0.3243
  698TMC3    C110316   0.032   4.228  15.362  0.3149  0.2725  0.5776
  698TMC3    C210317   0.122   4.320  15.405  0.0677  0.4503 -0.4336
  698TMC3    C310318   0.242   4.334  15.339 -0.1932  0.3268 -0.4817
  698TMC3    C410319   0.053   4.164  15.250 -0.3112 -0.2405  0.0792
  698TMC3    C510320   0.168   4.172  15.186 -0.4200 -0.0611 -0.4660
  698TMC3    C610321   0.272   4.249  15.232  0.4244 -0.0492 -0.2359
  698TMC3     C10322   4.644   4.201  15.445 -0.2337 -0.0305  0.6695
  698TMC3     O10323   4.631   4.270  15.546 -0.5521 -0.1563 -0.3849
  698TMC3     H10324   0.099   4.360  15.503  0.3899 -1.4573  0.4161
  698TMC3    H110325   4.704   4.098  15.201 -1.7020  1.6940 -0.5493
  698TMC3    H210326   0.362   4.250  15.173 -0.3588  0.1062 -1.4309
  698TMC3    C710327   0.186   4.088  15.067 -0.2571  0.3801  0.8343
  698TMC3    C810328   0.334   4.447  15.372 -0.6952 -0.6384  0.4036
  698TMC3    O110329   0.086   4.041  15.016 -0.2232 -0.0704  0.7045
  698TMC3    O210330   0.315   4.497  15.481 -0.4380 -0.0663  0.2279
  699TMC3    C110331   4.720   1.406  12.992 -0.3391  0.5515 -0.2759
  699TMC3    C210332   0.068   1.355  13.092 -0.1391 -0.0969 -0.1968
  699TMC3    C310333   0.006   1.268  13.180 -0.8937  0.0572  0.1750
  699TMC3    C410334   4.583   1.403  12.992  0.8039  0.7922  0.5431
  699TMC3    C510335   4.531   1.316  13.079 -0.0167 -0.0193 -0.2175
  699TMC3    C610336   4.599   1.236  13.161 -0.7333  0.6880 -0.4602
  699TMC3     C10337   0.053   1.516  12.905  0.3736  0.1210 -0.1463
  699TMC3     O10338   4.698   1.562  12.822 -0.0526  0.3414  0.1948
  699TMC3     H10339   0.175   1.365  13.104 -0.1163 -1.3485  0.6841
  699TMC3    H110340   4.533   1.472  12.925 -0.3550 -0.4472  0.1209
  699TMC3    H210341   4.554   1.168  13.232 -1.6709  0.0539 -1.6628
  699TMC3    C710342   4.394   1.347  13.123  0.0859  0.1344  0.7383
  699TMC3    C810343   0.074   1.210  13.297  0.1749 -0.0310  0.1921
  699TMC3    O110344   4.362   1.322  13.239 -0.2622  0.1509  0.0122
  699TMC3    O210345   0.036   1.098  13.340  0.0274  0.2760 -0.4385
  700TMC3    C110346   3.849   4.173  17.044 -1.0828  0.1921 -0.3561
  700TMC3    C210347   3.915   4.052  17.018  0.4699  0.9906  0.1361
  700TMC3    C310348   3.971   3.985  17.121  0.1545 -0.3982  0.0800
  700TMC3    C410349   3.834   4.215  17.171  0.2298  0.0730  0.1671
  700TMC3    C510350   3.888   4.144  17.273 -0.1984  0.1045  0.6549
  700TMC3    C610351   3.963   4.032  17.249 -0.9771 -0.8587  0.2023
  700TMC3     C10352   3.867   4.283  16.947 -0.0892 -0.3789  0.3744
  700TMC3     O10353   3.872   4.398  16.992  0.0834  0.1301 -0.2072
  700TMC3     H10354   3.950   4.027  16.918  1.2688  0.1456  0.6301
  700TMC3    H110355   3.778   4.307  17.182  0.6274  0.6168 -2.3375
  700TMC3    H210356   4.017   3.972  17.322 -0.4085  0.1564  0.6296
  700TMC3    C710357   3.912   4.215  17.397  0.1898 -0.2404  0.5431
  700TMC3    C810358   4.076   3.886  17.102  0.6329 -0.1133 -0.6431
  700TMC3    O110359   3.950   4.157  17.495 -0.4531 -0.3758  0.1921
  700TMC3    O210360   4.169   3.879  17.181 -0.1566  0.2566  0.2047
  701TMC3    C110361   4.028   2.841  15.094 -0.6617 -0.2442  0.3844
  701TMC3    C210362   4.090   2.815  14.975 -0.1973 -0.1540 -0.0289
  701TMC3    C310363   4.186   2.912  14.934  0.6520  0.3851 -0.3568
  701TMC3    C410364   4.052   2.952  15.168  0.4390  0.2682 -0.3722
  701TMC3    C510365   4.148   3.039  15.126 -0.3309  0.9803 -0.0228
  701TMC3    C610366   4.216   3.020  15.012 -0.5177  0.7741 -0.6286
  701TMC3     C10367   3.947   2.740  15.157  0.3162 -0.5427  0.1395
  701TMC3     O10368   3.877   2.782  15.246  0.1698  0.9536  0.0343
  701TMC3     H10369   4.067   2.729  14.912  1.5102  0.1737 -1.1086
  701TMC3    H110370   4.006   2.965  15.265 -0.4406 -2.6064 -0.3801
  701TMC3    H210371   4.285   3.097  14.980 -0.2324  1.4081  1.5231
  701TMC3    C710372   4.144   3.170  15.171  0.3989  1.1400  0.1151
  701TMC3    C810373   4.242   2.911  14.801 -0.7519  0.4621  0.1849
  701TMC3    O110374   4.193   3.262  15.110 -0.0039 -0.5521 -0.1580
  701TMC3    O210375   4.335   2.987  14.787  0.0384  0.0785  0.0528
  702MPD2     C10376   3.303   0.321  10.647  0.5751 -0.1422 -0.0962
  702MPD2    C110377   3.206   0.415  10.657 -1.3555 -0.2995  0.0440
  702MPD2    C210378   3.244   0.542  10.621 -0.5062  0.2694  0.0930
  702MPD2    C310379   3.373   0.575  10.585  0.4132  0.0501  0.1595
  702MPD2    C410380   3.471   0.479  10.584  0.5078  0.1671  0.1528
  702MPD2    C510381   3.430   0.348  10.608 -0.0801  0.1108  0.2174
  702MPD2     H10382   3.165   0.616  10.624  0.9322  1.7408  1.3813
  702MPD2    H110383   3.574   0.502  10.558  1.2476 -2.1460  0.9986
  702MPD2    H210384   3.287   0.219  10.681 -1.7032  0.2689  0.0803
  702MPD2    H310385   3.501   0.267  10.616  0.4159  0.4953 -0.2781
  702MPD2     N10386   3.397   0.709  10.555  0.3693 -0.6079  0.4795
  702MPD2    H510387   3.324   0.780  10.555  1.6540  0.7298 -0.2109
  702MPD2    N110388   3.073   0.395  10.710  0.6834 -0.1910  0.5791
  702MPD2    H710389   3.018   0.479  10.722  0.7062 -0.1969  0.7248
  703TMC3    C110390   3.493   0.905  10.485  0.4216  0.0085  0.4825
  703TMC3    C210391   3.371   0.960  10.511  0.1097  0.6647  0.2762
  703TMC3    C310392   3.345   1.081  10.453  0.2607 -0.5451 -0.0147
  703TMC3    C410393   3.589   0.963  10.406  1.4186 -0.0992 -0.4122
  703TMC3    C510394   3.548   1.076  10.342 -0.1850  0.0053  0.5572
  703TMC3    C610395   3.428   1.135  10.358 -0.1241 -0.3763 -0.3907
  703TMC3     C10396   3.517   0.769  10.527 -0.1737 -0.4783 -0.5685
  703TMC3     O10397   3.622   0.716  10.498  0.1352  0.0971  0.5165
  703TMC3     H10398   3.307   0.926  10.592  1.3036 -0.2099  0.8572
  703TMC3    H110399   3.682   0.916  10.376  0.5222 -2.2411  0.1486
  703TMC3    H210400   3.412   1.239  10.333  1.4036 -0.1566 -0.5040
  703TMC3    C710401   3.648   1.135  10.260 -0.2458  0.6563 -0.5180
  703TMC3    C810402   3.214   1.144  10.474 -0.0450 -0.4461 -0.1296
  703TMC3    O110403   3.756   1.094  10.293  0.0171 -0.0311  0.2253
  703TMC3    O210404   3.204   1.263  10.461 -0.2380 -0.1097 -0.1710
  704TMC3    C110405   0.838   3.450  12.285  0.0981 -0.8248  0.1215
  704TMC3    C210406   0.958   3.498  12.329  0.7192  0.1906  0.6163
  704TMC3    C310407   1.046   3.411  12.397  0.4490 -0.2112 -0.6293
  704TMC3    C410408   0.794   3.325  12.323  0.8480  0.0072 -0.0011
  704TMC3    C510409   0.883   3.246  12.398  1.0618  0.4108 -0.1861
  704TMC3    C610410   1.004   3.287  12.436  0.0459 -0.3066 -0.1225
  704TMC3     C10411   0.777   3.514  12.174  0.0497  0.4070 -0.6867
  704TMC3     O10412   0.654   3.521  12.166 -0.0549 -0.1706  0.0336
  704TMC3     H10413   0.995   3.592  12.289 -0.4054  0.2000 -0.4003
  704TMC3    H110414   0.717   3.273  12.268 -0.2661  1.3374  0.2962
  704TMC3    H210415   1.072   3.210  12.471  0.1932 -0.5886 -1.0196
  704TMC3    C710416   0.890   3.104  12.363  0.3172  0.2166  0.9130
  704TMC3    C810417   1.175   3.419  12.333 -0.0749  0.1444 -0.3497
  704TMC3    O110418   1.002   3.057  12.343 -0.7564  0.3532 -0.3796
  704TMC3    O210419   1.184   3.474  12.222 -0.0308  0.7931 -0.7603
  705MPD2     C10420   0.658   1.467  16.809  0.0632  0.1877 -0.3046
  705MPD2    C110421   0.679   1.570  16.719  0.5484 -0.0256  0.6858
  705MPD2    C210422   0.569   1.657  16.683  0.0433  0.6476  0.0868
  705MPD2    C310423   0.442   1.638  16.740 -0.0931 -0.4038 -0.1649
  705MPD2    C410424   0.425   1.534  16.824 -0.5249 -0.1190 -0.5840
  705MPD2    C510425   0.524   1.442  16.852  0.1216  0.3210 -0.3574
  705MPD2     H10426   0.599   1.728  16.607 -0.0968 -0.2164 -0.7820
  705MPD2    H110427   0.324   1.521  16.861  0.1580 -1.0075  0.9432
  705MPD2    H210428   0.729   1.393  16.844 -1.6063 -1.3569 -0.1752
  705MPD2    H310429   0.518   1.374  16.936 -1.6683 -1.3196 -1.8053
  705MPD2     N10430   0.333   1.726  16.716  0.0821 -0.2969 -0.5723
  705MPD2    H510431   0.246   1.689  16.753 -0.1147  0.4085 -0.3323
  705MPD2    N110432   0.807   1.599  16.669 -0.3855 -0.0204 -0.2661
  705MPD2    H710433   0.800   1.673  16.600 -0.4636 -0.7316 -1.0187
  706TMC3    C110434   1.196   1.500  16.437  0.3909  0.4336 -0.3605
  706TMC3    C210435   1.190   1.622  16.373 -0.4437  0.0135  0.8672
  706TMC3    C310436   1.102   1.715  16.424 -0.3315 -0.3200  0.2408
  706TMC3    C410437   1.109   1.462  16.539  0.1006 -0.8515 -0.0576
  706TMC3    C510438   1.025   1.558  16.587  0.3378  0.5069 -0.1364
  706TMC3    C610439   1.013   1.687  16.526 -0.0300  0.2966  0.3837
  706TMC3     C10440   1.286   1.397  16.386  0.2000 -0.2739  0.3220
  706TMC3     O10441   1.329   1.312  16.463  0.5966  0.0158 -0.2106
  706TMC3     H10442   1.264   1.645  16.298 -0.0202  0.8229  1.5335
  706TMC3    H110443   1.127   1.366  16.586  1.6953 -0.1320  0.7896
  706TMC3    H210444   0.935   1.755  16.557  2.1009  2.5009  0.9023
  706TMC3    C710445   0.919   1.517  16.673 -0.3247 -1.1550  0.5745
  706TMC3    C810446   1.111   1.846  16.361 -0.2110  1.1386 -0.0060
  706TMC3    O110447   0.931   1.411  16.733  0.1880  0.0133 -0.4674
  706TMC3    O210448   1.164   1.855  16.254 -0.4508  0.3266  0.7871
  707TMC3    C110449   3.094   3.637   1.636 -0.4003  1.0131 -0.0762
  707TMC3    C210450   3.184   3.701   1.715 -0.4050  0.1670 -0.2600
  707TMC3    C310451   3.191   3.670   1.847 -0.2128 -0.5468  0.8501
  707TMC3    C410452   3.008   3.542   1.681 -0.6754 -0.4965  0.6219
  707TMC3    C510453   3.010   3.520   1.822  0.5134 -0.2205  0.1514
  707TMC3    C610454   3.106   3.576   1.901  0.1884  0.9428  0.3784
  707TMC3     C10455   3.097   3.682   1.503  0.3649  0.1766 -0.3999
  707TMC3     O10456   3.109   3.802   1.481 -0.0988 -0.5034 -0.6114
  707TMC3     H10457   3.255   3.764   1.662 -1.1261  0.0952 -1.3001
  707TMC3    H110458   2.944   3.487   1.613  0.2587  0.7404 -1.2501
  707TMC3    H210459   3.116   3.550   2.005 -3.0957 -1.4362  0.1275
  707TMC3    C710460   2.920   3.419   1.877  0.1998 -0.2422  0.0328
  707TMC3    C810461   3.305   3.711   1.934  0.4256 -0.1098  0.0469
  707TMC3    O110462   2.934   3.381   1.988 -0.0874 -0.1568 -0.4293
  707TMC3    O210463   3.329   3.646   2.035  0.1586 -0.5108  0.3058
  708MPD2     C10464   3.930   0.757  13.898 -0.1023  0.3063 -0.4180
  708MPD2    C110465   3.876   0.634  13.865 -0.7975  0.2976 -0.2030
  708MPD2    C210466   3.958   0.525  13.900  0.4008  0.2771  1.0798
  708MPD2    C310467   4.084   0.548  13.962  0.5379 -0.1854 -0.0340
  708MPD2    C410468   4.128   0.675  13.984  0.3816 -0.7106  0.0872
  708MPD2    C510469   4.044   0.780  13.961  0.1898  0.4053 -0.7838
  708MPD2     H10470   3.918   0.425  13.909 -0.9683  0.7240 -0.0241
  708MPD2    H110471   4.226   0.692  14.028 -0.2061  0.7654  0.8490
  708MPD2    H210472   3.871   0.848  13.900 -2.2340 -1.0707 -0.3408
  708MPD2    H310473   4.075   0.876  14.000 -0.2658  0.0726  0.4057
  708MPD2     N10474   4.153   0.454  14.040 -0.4458  0.7303  0.4969
  708MPD2    H510475   4.216   0.495  14.108  3.8774 -0.4650 -2.7564
  708MPD2    N110476   3.745   0.629  13.808 -0.3381  0.1865 -0.3235
  708MPD2    H710477   3.692   0.714  13.789  0.3073  0.2720 -1.7464
  709TMC3    C110478   3.545   0.528  13.728 -0.2639 -0.5151  0.1955
  709TMC3    C210479   3.517   0.433  13.634  0.1041 -0.3085  1.0394
  709TMC3    C310480   3.392   0.361  13.644 -0.1242 -0.3822  0.8349
  709TMC3    C410481   3.450   0.543  13.824  0.5309  0.0343  0.1398
  709TMC3    C510482   3.332   0.473  13.837 -0.0853 -1.0287 -0.7457
  709TMC3    C610483   3.298   0.371  13.742  0.3822  0.2544  0.3925
  709TMC3     C10484   3.684   0.510  13.777  0.5188 -0.6829  0.7000
  709TMC3     O10485   3.706   0.396  13.816 -0.2017 -0.3488  0.1178
  709TMC3     H10486   3.594   0.398  13.565  1.3178 -0.4510  2.4608
  709TMC3    H110487   3.481   0.593  13.915 -3.8867  1.7426  0.7206
  709TMC3    H210488   3.208   0.311  13.747  1.3351 -1.2441 -0.4790
  709TMC3    C710489   3.325   0.412  13.968  0.2026 -0.1369 -0.0397
  709TMC3    C810490   3.368   0.250  13.551  1.0742  0.2984  0.2739
  709TMC3    O110491   3.356   0.478  14.067  0.1546 -0.3654  0.3362
  709TMC3    O210492   3.297   0.159  13.583 -0.8598 -0.1835  1.1419
  710TMC3    C110493   0.027   1.670   0.724 -0.2871 -0.5965  0.4236
  710TMC3    C210494   0.079   1.667   0.596 -0.4700 -0.7370 -0.3998
  710TMC3    C310495   0.144   1.553   0.562 -0.3959  0.8074 -0.0159
  710TMC3    C410496   0.048   1.565   0.809 -0.1792 -0.2514  0.6027
  710TMC3    C510497   0.125   1.460   0.772  0.4453 -0.3023  0.2481
  710TMC3    C610498   0.181   1.451   0.653 -0.0172 -0.1467 -0.5567
  710TMC3     C10499   4.655   1.781   0.740  0.3179  0.9730 -0.5574
  710TMC3     O10500   4.629   1.861   0.645 -0.1587 -0.2958  0.4535
  710TMC3     H10501   0.076   1.753   0.530  0.5800 -0.5478 -0.1982
  710TMC3    H110502   4.711   1.574   0.900  0.7644  1.5165  1.0344
  710TMC3    H210503   0.238   1.367   0.616  0.6339  0.3746 -0.7386
  710TMC3    C710504   0.137   1.352   0.863  0.4504  0.1890 -0.3143
  710TMC3    C810505   0.232   1.555   0.445 -0.0424  0.0559 -0.1507
  710TMC3    O110506   0.069   1.362   0.966 -0.1301  0.0938  0.1500
  710TMC3    O210507   0.340   1.497   0.452  0.0851  0.0299  0.3020
  711TMC3    C110508   0.024   2.280  15.000 -0.3246  0.4011  0.0978
  711TMC3    C210509   0.031   2.383  15.090 -0.2797  0.2680  0.6372
  711TMC3    C310510   0.080   2.348  15.215  0.0716  0.0881 -0.2156
  711TMC3    C410511   0.082   2.157  15.030  0.2631  0.3502 -0.0430
  711TMC3    C510512   0.141   2.139  15.148 -0.6843  0.4864  0.7123
  711TMC3    C610513   0.144   2.235  15.243 -0.2725 -0.5209  0.2314
  711TMC3     C10514   4.642   2.277  14.901  0.1220 -0.1049  0.0007
  711TMC3     O10515   4.614   2.169  14.846  0.0797 -0.1527  0.1487
  711TMC3     H10516   4.697   2.476  15.085  1.3082  1.1883  0.1937
  711TMC3    H110517   0.070   2.078  14.957  3.8918  0.4842 -0.7828
  711TMC3    H210518   0.176   2.198  15.340  0.1515  0.1100  0.3260
  711TMC3    C710519   0.189   2.006  15.191 -0.2357  0.0489  0.3220
  711TMC3    C810520   0.102   2.462  15.307  0.7390  0.1868  0.1946
  711TMC3    O110521   0.272   2.012  15.277  0.0053 -0.3642 -0.0346
  711TMC3    O210522   0.032   2.562  15.301  0.0106  0.1630 -0.6383
  712MPD2     C10523   1.020   3.306  13.315  0.7954  0.5040 -0.2511
  712MPD2    C110524   0.970   3.378  13.209 -0.3593 -0.4776 -0.0004
  712MPD2    C210525   0.969   3.518  13.221  0.9499  0.3785  0.3718
  712MPD2    C310526   1.026   3.582  13.334  0.0974  0.0477 -0.0280
  712MPD2    C410527   1.086   3.512  13.434 -0.2469 -0.5780 -0.2939
  712MPD2    C510528   1.085   3.373  13.416  0.1549  0.5437  0.1517
  712MPD2     H10529   0.921   3.576  13.143  0.5585 -0.5374 -0.0716
  712MPD2    H110530   1.130   3.556  13.522  0.2894 -2.4911  0.3950
  712MPD2    H210531   1.036   3.199  13.309 -0.0815  0.4850 -2.1010
  712MPD2    H310532   1.146   3.314  13.484  0.7758  1.6379  0.5393
  712MPD2     N10533   1.047   3.726  13.341 -0.2550  0.0274  0.4689
  712MPD2    H510534   1.092   3.756  13.427 -0.5756  0.3308  0.5285
  712MPD2    N110535   0.913   3.314  13.093 -0.9394  0.5644  0.5451
  712MPD2    H710536   0.881   3.383  13.026 -0.6053  1.0073  0.8441
  713TMC3    C110537   1.056   3.942  13.278  0.3907 -0.4354 -0.5264
  713TMC3    C210538   1.183   3.960  13.332  0.0412 -0.0646 -0.5888
  713TMC3    C310539   1.230   4.092  13.331  0.2748  0.3865  0.6183
  713TMC3    C410540   0.980   4.047  13.230 -0.2851  0.2768 -0.1365
  713TMC3    C510541   1.036   4.174  13.231 -0.1936 -0.1748 -0.9691
  713TMC3    C610542   1.163   4.191  13.279 -0.4856  0.7610 -0.0574
  713TMC3     C10543   1.014   3.811  13.240  0.3701  0.3040 -0.2677
  713TMC3     O10544   0.940   3.790  13.146  0.2667 -0.4932 -0.1011
  713TMC3     H10545   1.246   3.877  13.359  0.2507  0.6907  1.2282
  713TMC3    H110546   0.879   4.027  13.195  0.8449 -0.5671 -2.9274
  713TMC3    H210547   1.210   4.288  13.276  1.9233 -0.3811  0.8681
  713TMC3    C710548   0.952   4.286  13.185 -0.0049  0.2939  0.1620
  713TMC3    C810549   1.350   4.139  13.413 -0.4395  0.3564  0.0059
  713TMC3    O110550   1.009   4.393  13.181 -0.0024 -0.1736  0.5114
  713TMC3    O210551   1.346   4.255  13.448  0.5469  0.1369  0.7202
  714MPD2     C10552   3.410   2.786   1.958 -0.5371  0.3086  0.7590
  714MPD2    C110553   3.378   2.663   1.905 -0.2543  0.4632  0.0684
  714MPD2    C210554   3.345   2.646   1.775  0.3735  0.1981  0.9886
  714MPD2    C310555   3.358   2.750   1.689  0.1196 -0.0851 -0.3398
  714MPD2    C410556   3.386   2.874   1.740 -0.1411  0.3901  0.7229
  714MPD2    C510557   3.419   2.891   1.873 -0.2311  0.0674 -0.5721
  714MPD2     H10558   3.333   2.548   1.730 -2.5303  0.1146  2.0119
  714MPD2    H110559   3.371   2.961   1.677  0.7223  0.6162  0.8311
  714MPD2    H210560   3.431   2.806   2.062 -1.9850 -0.9671  1.2988
  714MPD2    H310561   3.461   2.987   1.900 -0.0824  0.3499 -1.8199
  714MPD2     N10562   3.324   2.733   1.553 -0.2318 -0.1513 -0.1167
  714MPD2    H510563   3.272   2.649   1.532  1.2607 -1.2224  0.5020
  714MPD2    N110564   3.393   2.556   1.999 -0.4512 -0.9049 -0.3464
  714MPD2    H710565   3.412   2.578   2.096 -1.9566  2.1096 -0.7432
  715TMC3    C110566   3.441   2.338   2.056  0.4227 -0.0492  0.8565
  715TMC3    C210567   3.506   2.229   2.002 -0.4538  0.3009  0.7788
  715TMC3    C310568   3.596   2.152   2.082  0.4129  0.5885  0.1369
  715TMC3    C410569   3.464   2.370   2.185 -0.5895 -1.0174  0.6584
  715TMC3    C510570   3.547   2.290   2.262  0.6178  0.4931  0.2782
  715TMC3    C610571   3.616   2.183   2.216  0.3412 -0.1214  0.1204
  715TMC3     C10572   3.372   2.425   1.961  0.0369 -0.4615  0.5383
  715TMC3     O10573   3.324   2.367   1.861 -0.0508 -0.5500 -0.1892
  715TMC3     H10574   3.499   2.200   1.898  3.2276 -0.4205  0.7219
  715TMC3    H110575   3.409   2.450   2.233 -2.2650 -1.0974 -1.1095
  715TMC3    H210576   3.674   2.119   2.281  1.5278 -1.3174 -2.1099
  715TMC3    C710577   3.611   2.361   2.370  0.2236  0.7025 -0.3138
  715TMC3    C810578   3.667   2.037   2.014  0.6301  0.2625  0.2227
  715TMC3    O110579   3.560   2.469   2.398 -0.6509  0.0253  0.1040
  715TMC3    O210580   3.606   1.985   1.918  0.7532  0.5308 -0.1686
  716MPD2     C10581   3.527   0.036  10.001 -0.3030 -0.2605 -0.0449
  716MPD2    C110582   3.524   0.112   9.887  0.6377  0.0937 -0.0504
  716MPD2    C210583   3.532   0.044   9.765  0.4022 -0.1073  0.0159
  716MPD2    C310584   3.553   4.631   9.754 -0.6701  0.8247 -0.0317
  716MPD2    C410585   3.566   4.560   9.869  0.3839  0.0382 -0.2668
  716MPD2    C510586   3.558   4.628   9.987  0.4045  0.2965  0.1658
  716MPD2     H10587   3.514   0.094   9.670 -1.3757  0.1940  0.5091
  716MPD2    H110588   3.572   4.452   9.870 -1.7066 -0.0726  1.4793
  716MPD2    H210589   3.521   0.074  10.103  1.9538  1.1609 -0.4329
  716MPD2    H310590   3.577   4.568  10.075  2.2750 -0.9111 -1.0581
  716MPD2     N10591   3.564   4.574   9.622  0.4090 -0.1323  0.3781
  716MPD2    H510592   3.568   4.635   9.540 -1.5296  0.7991  0.9874
  716MPD2    N110593   3.502   0.252   9.893  0.2577  0.3867  0.6448
  716MPD2    H710594   3.453   0.295   9.970 -0.7914 -0.8990  0.7008
  717TMC3    C110595   3.593   4.421   9.456 -0.3376 -0.5673 -0.1731
  717TMC3    C210596   3.527   4.513   9.373  0.2059  0.2451 -0.2690
  717TMC3    C310597   3.456   4.466   9.267 -0.6418 -0.1847  0.1392
  717TMC3    C410598   3.614   4.296   9.426 -1.0261 -0.3047 -0.6724
  717TMC3    C510599   3.546   4.251   9.305 -0.8038 -0.5199 -0.4578
  717TMC3    C610600   3.468   4.336   9.227 -0.2724 -0.4484  0.0505
  717TMC3     C10601   3.588   4.438   9.601 -0.4162  0.3176 -0.0330
  717TMC3     O10602   3.613   4.348   9.682  0.4765  0.3858 -0.0283
  717TMC3     H10603   3.514   4.618   9.394  1.5356 -0.0463  2.0768
  717TMC3    H110604   3.676   4.236   9.491 -1.0713  0.4585  0.0905
  717TMC3    H210605   3.409   4.294   9.146 -1.6315  0.4898  0.5606
  717TMC3    C710606   3.571   4.120   9.249  0.1503  0.1883  0.0652
  717TMC3    C810607   3.381   4.559   9.195 -0.5166  0.4441 -0.5857
  717TMC3    O110608   3.523   4.088   9.145  0.4705 -0.0662 -0.2106
  717TMC3    O210609   3.337   4.658   9.253 -0.1210 -0.2275 -0.4038
  718MPD2     C10610   1.769   4.508  12.604 -0.3037  0.2585 -0.2837
  718MPD2    C110611   1.894   4.461  12.585  0.6292  0.7861 -0.5562
  718MPD2    C210612   1.945   4.372  12.676 -0.7153 -0.0055  0.2905
  718MPD2    C310613   1.870   4.335  12.783  0.5873 -0.4480  0.9106
  718MPD2    C410614   1.744   4.382  12.795 -0.1475  0.2083  0.6841
  718MPD2    C510615   1.690   4.466  12.708  0.5999  0.4319 -0.3376
  718MPD2     H10616   2.047   4.336  12.672 -0.9673 -0.5844 -0.8243
  718MPD2    H110617   1.673   4.356  12.873 -0.7344  2.1541  0.8064
  718MPD2    H210618   1.730   4.582  12.534 -0.9823 -0.4930 -0.7081
  718MPD2    H310619   1.594   4.514  12.722  0.7150  0.1994  1.1853
  718MPD2     N10620   1.933   4.248  12.869  0.3190 -0.2311  0.2083
  718MPD2    H510621   2.025   4.215  12.842 -0.1274 -2.5521  1.5895
  718MPD2    N110622   1.961   4.487  12.464 -0.0535  0.6176 -0.2875
  718MPD2    H710623   1.907   4.529  12.389 -0.2679  0.3163 -0.3043
  719TMC3    C110624   2.129   4.455  12.295 -0.4212  0.0399  0.1239
  719TMC3    C210625   2.067   4.338  12.249  0.2385 -0.4384 -0.3560
  719TMC3    C310626   2.150   4.235  12.212 -0.6939 -0.7831 -0.0691
  719TMC3    C410627   2.263   4.480  12.271  0.5406  0.0284 -0.0408
  719TMC3    C510628   2.332   4.381  12.214 -0.1928  0.1375 -0.2903
  719TMC3    C610629   2.287   4.258  12.197 -0.3731  0.1225  0.3492
  719TMC3     C10630   2.094   4.456  12.436  0.6911 -0.5671 -0.1579
  719TMC3     O10631   2.174   4.414  12.517 -0.1952 -0.2251 -0.0726
  719TMC3     H10632   1.961   4.322  12.269 -0.3827  1.0762 -2.4578
  719TMC3    H110633   2.313   4.570  12.306  4.1966 -1.2997 -1.8110
  719TMC3    H210634   2.350   4.184  12.149 -2.4431  0.3685 -2.7355
  719TMC3    C710635   2.470   4.410  12.181  0.5667  0.3410  0.3283
  719TMC3    C810636   2.128   4.121  12.295  0.0447  0.3401 -0.0058
  719TMC3    O110637   2.566   4.334  12.193  0.2574  0.0799 -0.7484
  719TMC3    O210638   2.223   4.071  12.351 -0.6011  0.0859  0.1913
  720MPD2     C10639   0.919   0.919  14.157  0.6268  0.4666 -0.1168
  720MPD2    C110640   1.011   0.902  14.054  0.4322  0.4722 -0.3431
  720MPD2    C210641   1.146   0.905  14.086 -1.0181  0.1647 -0.5676
  720MPD2    C310642   1.186   0.916  14.218  0.4401 -0.1560  0.5628
  720MPD2    C410643   1.084   0.927  14.318 -0.2286 -0.1438  0.5348
  720MPD2    C510644   0.952   0.932  14.286 -0.2501  0.0678  0.3953
  720MPD2     H10645   1.226   0.899  14.013 -0.7083  1.5340 -0.3526
  720MPD2    H110646   1.111   0.912  14.422  2.4315  4.7703  0.5701
  720MPD2    H210647   0.812   0.910  14.149  0.7527 -1.8635  0.8139
  720MPD2    H310648   0.870   0.919  14.355  0.3639 -0.2790  1.0574
  720MPD2     N10649   1.324   0.911  14.250 -0.1042 -0.2599  0.4520
  720MPD2    H510650   1.383   0.889  14.170 -0.4682 -0.3564  0.2092
  720MPD2    N110651   0.965   0.884  13.922  0.1363  0.6558  0.2057
  720MPD2    H710652   1.021   0.911  13.842  0.5824 -0.8919  0.0063
  721TMC3    C110653   1.524   0.951  14.368  0.8433  0.5120  0.1214
  721TMC3    C210654   1.584   0.975  14.495  0.0050  1.0773  0.8561
  721TMC3    C310655   1.718   0.992  14.498 -1.1247  0.1048 -0.1468
  721TMC3    C410656   1.596   0.961  14.252  0.0359 -0.0708  0.5491
  721TMC3    C510657   1.731   0.966  14.257 -0.4368  0.4220  0.2447
  721TMC3    C610658   1.796   0.972  14.378 -0.0248  0.0170 -1.0834
  721TMC3     C10659   1.381   0.933  14.374 -0.8099  0.3216  0.1355
  721TMC3     O10660   1.325   0.947  14.482 -0.9729 -0.1788  0.1550
  721TMC3     H10661   1.517   0.981  14.580 -0.0759  1.0776  0.7927
  721TMC3    H110662   1.555   0.958  14.152  1.6634 -1.7072 -0.0575
  721TMC3    H210663   1.903   0.962  14.384 -0.1340 -1.6121 -1.8021
  721TMC3    C710664   1.808   0.879  14.160 -0.6265 -0.3208  0.3364
  721TMC3    C810665   1.783   0.998  14.623 -0.7684  0.6819  0.4013
  721TMC3    O110666   1.809   0.909  14.041 -0.0404  0.0572 -0.0856
  721TMC3    O210667   1.905   1.026  14.616 -0.3906 -0.2965  0.3296
  722MPD2     C10668   4.408   4.129  13.233  0.3702  0.0450 -0.3820
  722MPD2    C110669   4.403   4.254  13.172  0.0226  0.2835  0.2424
  722MPD2    C210670   4.286   4.280  13.095  0.2753  0.2551 -0.5531
  722MPD2    C310671   4.181   4.184  13.082  0.2482  0.4941  0.5251
  722MPD2    C410672   4.187   4.072  13.161 -0.6388  0.2860 -0.4130
  722MPD2    C510673   4.309   4.036  13.223 -0.3102  0.0866  0.4734
  722MPD2     H10674   4.264   4.371  13.041 -2.4749  1.1250  2.0502
  722MPD2    H110675   4.107   4.000  13.149 -0.0570 -0.7243  1.8868
  722MPD2    H210676   4.495   4.108  13.295  0.0814  0.9336  0.3247
  722MPD2    H310677   4.307   3.939  13.270  0.2856 -0.7090 -1.1576
  722MPD2     N10678   4.075   4.220  13.001 -0.0944  0.0214 -0.7906
  722MPD2    H510679   4.064   4.317  12.974 -3.0948 -0.0072  0.3488
  722MPD2    N110680   4.507   4.351  13.192  0.2998  0.4953 -0.0752
  722MPD2    H710681   4.491   4.447  13.163 -1.5961 -0.0018 -0.6416
  723TMC3    C110682   3.929   4.190  12.834 -0.9132 -0.1381  0.0022
  723TMC3    C210683   3.891   4.113  12.731 -0.3633  0.1436  0.6743
  723TMC3    C310684   3.852   4.163  12.610  0.0584  0.3952 -0.3087
  723TMC3    C410685   3.909   4.327  12.824  1.0067  0.3373  0.5081
  723TMC3    C510686   3.871   4.373  12.700  0.1529 -0.2101 -0.1257
  723TMC3    C610687   3.828   4.297  12.589 -0.5470 -0.2472  0.0836
  723TMC3     C10688   3.993   4.125  12.943 -0.4255  0.4487  0.3647
  723TMC3     O10689   3.998   4.003  12.942 -0.3128  0.1544  0.0707
  723TMC3     H10690   3.919   4.008  12.742 -3.1934 -0.6556  0.3287
  723TMC3    H110691   3.936   4.395  12.904  1.9569  0.9584 -0.3329
  723TMC3    H210692   3.802   4.339  12.492 -1.0742 -1.0122 -0.1056
  723TMC3    C710693   3.837   4.511  12.685  0.2078  0.5598 -0.1702
  723TMC3    C810694   3.780   4.076  12.524 -0.2750 -0.4763 -0.1333
  723TMC3    O110695   3.755   4.535  12.596 -0.1053  0.1020 -0.0622
  723TMC3    O210696   3.694   4.125  12.456 -0.7452 -0.6042  0.0271
  724TMC3    C110697   0.708   1.769   9.934 -0.0007  0.7649  0.4352
  724TMC3    C210698   0.575   1.790   9.910 -0.7948 -0.1332 -0.4056
  724TMC3    C310699   0.529   1.922   9.919 -0.1101  0.4751  0.3368
  724TMC3    C410700   0.783   1.870   9.997  0.0111  0.1347  0.7736
  724TMC3    C510701   0.729   1.999  10.009  0.4390  0.0119 -0.9892
  724TMC3    C610702   0.598   2.022   9.987  0.7377 -0.8123 -0.6688
  724TMC3     C10703   0.749   1.633   9.964 -0.5811  0.4537  0.0466
  724TMC3     O10704   0.869   1.618   9.993 -0.0601  0.2383 -0.1529
  724TMC3     H10705   0.522   1.734   9.834  2.0971 -0.7611 -1.9497
  724TMC3    H110706   0.891   1.859  10.000 -0.0138 -0.2573  0.2227
  724TMC3    H210707   0.546   2.113  10.016 -0.1470 -1.7630  0.6688
  724TMC3    C710708   0.805   2.119  10.038 -0.5887  0.1286  0.7677
  724TMC3    C810709   0.429   1.969   9.829  0.0842 -0.2144 -0.5677
  724TMC3    O110710   0.766   2.223   9.990 -0.4038 -0.1807  0.2168
  724TMC3    O210711   0.352   1.887   9.783 -0.0028 -0.2997 -0.1385
  725TMC3    C110712   1.640   1.412  13.167  0.3677  0.3863  0.5917
  725TMC3    C210713   1.543   1.405  13.078  1.0009  0.2126 -0.1529
  725TMC3    C310714   1.443   1.313  13.089  0.4196  0.5842  0.4659
  725TMC3    C410715   1.651   1.322  13.263  0.0610  0.9786 -0.8767
  725TMC3    C510716   1.550   1.231  13.282  0.4566  0.4851 -0.1734
  725TMC3    C610717   1.443   1.236  13.198  0.4010 -0.3110 -1.0962
  725TMC3     C10718   1.753   1.476  13.112  0.6249 -0.2925  0.5698
  725TMC3     O10719   1.736   1.581  13.052 -0.0804  0.0285  0.0937
  725TMC3     H10720   1.531   1.480  13.001  1.0431 -0.1779 -0.5401
  725TMC3    H110721   1.735   1.324  13.331  0.4458 -0.0327 -1.3265
  725TMC3    H210722   1.361   1.168  13.220  1.0616 -0.1116  2.0205
  725TMC3    C710723   1.603   1.103  13.270  0.6538  0.1215 -0.0027
  725TMC3    C810724   1.390   1.252  12.970 -0.0543  0.2363  0.0501
  725TMC3    O110725   1.550   1.032  13.182 -0.4802  0.2587 -0.1141
  725TMC3    O210726   1.320   1.153  12.985 -0.9366  0.6784 -0.1842
  726MPD2     C10727   4.313   1.957  10.622  0.2909  0.2421  0.1738
  726MPD2    C110728   4.361   2.066  10.687 -0.2699  0.0603  0.0637
  726MPD2    C210729   4.290   2.113  10.795 -0.3178  0.1031  0.0491
  726MPD2    C310730   4.179   2.046  10.847 -0.2037 -0.1420 -0.8457
  726MPD2    C410731   4.142   1.930  10.786  0.0987  0.6322  0.0378
  726MPD2    C510732   4.206   1.889  10.668  0.4524  1.1118 -0.3881
  726MPD2     H10733   4.311   2.212  10.834  2.0642  0.1913 -1.5001
  726MPD2    H110734   4.063   1.870  10.829  0.2381  0.1855 -0.3232
  726MPD2    H210735   4.359   1.913  10.534 -1.4118 -2.3755  0.5942
  726MPD2    H310736   4.164   1.800  10.622 -2.3293  2.0684  0.2952
  726MPD2     N10737   4.098   2.089  10.949  0.5843 -0.2113  0.3471
  726MPD2    H510738   4.016   2.032  10.970  0.3559  0.5563  1.5038
  726MPD2    N110739   4.477   2.134  10.643  0.0971 -0.1025  0.3539
  726MPD2    H710740   4.521   2.195  10.711 -1.7184  0.9119  0.6154
  727TMC3    C110741   4.674   2.180  10.525  0.6044 -0.0291 -0.8625
  727TMC3    C210742   0.048   2.185  10.626  0.0300  0.0591  0.0569
  727TMC3    C310743   0.156   2.270  10.592  0.2221 -0.0190 -0.7350
  727TMC3    C410744   4.684   2.259  10.406  0.3166  0.6120 -0.3471
  727TMC3    C510745   0.062   2.347  10.391 -0.0155  0.4289 -0.8196
  727TMC3    C610746   0.169   2.352  10.482  1.2006  0.2819  0.0826
  727TMC3     C10747   4.542   2.107  10.524  0.4342  0.4314 -0.2416
  727TMC3     O10748   4.492   2.073  10.415 -0.0521  0.0816 -0.2991
  727TMC3     H10749   0.048   2.114  10.708 -1.3066  2.4286  2.1147
  727TMC3    H110750   4.601   2.253  10.338  0.0440  1.6957 -0.1087
  727TMC3    H210751   0.261   2.410  10.477  1.5547 -0.4549 -1.7850
  727TMC3    C710752   0.042   2.455  10.300  0.5282  1.1047  0.5199
  727TMC3    C810753   0.256   2.292  10.693  0.0935 -0.2823 -0.0633
  727TMC3    O110754   4.677   2.446  10.221 -0.4670  0.1690  0.5563
  727TMC3    O210755   0.335   2.388  10.690 -0.2407 -0.4725  0.1469
  728TMC3    C110756   3.704   1.442  15.593 -0.5842 -0.4818 -0.6887
  728TMC3    C210757   3.834   1.485  15.612  0.1305 -0.5054  0.7387
  728TMC3    C310758   3.894   1.541  15.504  0.0210 -0.3020 -0.0643
  728TMC3    C410759   3.640   1.446  15.469  0.1513 -0.0278  0.0363
  728TMC3    C510760   3.716   1.490  15.362 -0.0201 -0.7946  0.6527
  728TMC3    C610761   3.841   1.527  15.379 -0.0421  0.1711 -0.2311
  728TMC3     C10762   3.659   1.342  15.690 -0.3644  0.5318  0.1599
  728TMC3     O10763   3.700   1.351  15.801  0.1917 -0.8164  0.3323
  728TMC3     H10764   3.886   1.472  15.707  0.7975  0.3742  0.4968
  728TMC3    H110765   3.536   1.418  15.459  0.5495 -0.5235 -2.8530
  728TMC3    H210766   3.905   1.553  15.296 -0.1373 -1.8647 -0.9481
  728TMC3    C710767   3.658   1.489  15.223 -0.6940  0.4571 -0.5473
  728TMC3    C810768   4.040   1.548  15.513  0.5059 -0.3137  0.1378
  728TMC3    O110769   3.567   1.409  15.208  0.6966  0.4756  0.0157
  728TMC3    O210770   4.101   1.479  15.597 -0.2053 -0.4812  0.0264
  729MPD2     C10771   1.159   2.279  16.816  0.1770 -0.3171 -0.9888
  729MPD2    C110772   1.273   2.214  16.779 -0.8186 -0.2795 -0.1900
  729MPD2    C210773   1.362   2.178  16.882  0.3706  0.4640  0.1250
  729MPD2    C310774   1.333   2.209  17.011 -0.2115  0.4279 -0.3254
  729MPD2    C410775   1.227   2.275  17.043  0.0689  0.1767 -0.2983
  729MPD2    C510776   1.140   2.314  16.946 -0.5618  0.7327  0.2860
  729MPD2     H10777   1.456   2.136  16.851 -0.0108 -1.1315  1.1281
  729MPD2    H110778   1.212   2.321  17.140 -2.9183 -1.1402 -0.1562
  729MPD2    H210779   1.096   2.321  16.738  0.9481  2.0241 -0.3591
  729MPD2    H310780   1.050   2.371  16.965 -0.4436  1.4742 -1.3397
  729MPD2     N10781   1.425   2.189  17.115  0.3354  0.0030 -0.0855
  729MPD2    H510782   1.395   2.215  17.209 -0.4042  0.2168 -0.3848
  729MPD2    N110783   1.307   2.203  16.644  0.1223  0.1968  0.4549
  729MPD2    H710784   1.246   2.249  16.577 -0.3503 -0.7174  0.2610
  730TMC3    C110785   1.640   2.185  17.203 -0.3629 -0.2529 -0.5059
  730TMC3    C210786   1.764   2.129  17.204 -0.0338  0.3240 -0.2763
  730TMC3    C310787   1.869   2.211  17.241 -0.1329 -0.6924 -0.0003
  730TMC3    C410788   1.620   2.313  17.236  0.0368 -0.0697 -0.7601
  730TMC3    C510789   1.726   2.386  17.280 -0.5989 -0.1275  0.4763
  730TMC3    C610790   1.851   2.342  17.266 -0.6448 -0.1492  0.3638
  730TMC3     C10791   1.549   2.141  17.100  0.2401  0.0844  0.7411
  730TMC3     O10792   1.599   2.074  17.011  0.5471 -0.5663  0.1759
  730TMC3     H10793   1.775   2.024  17.179  3.6094  0.6083  0.1650
  730TMC3    H110794   1.521   2.357  17.245  0.6749  1.5240 -1.4939
  730TMC3    H210795   1.933   2.410  17.289 -0.1425 -0.1098 -1.5453
  730TMC3    C710796   1.704   2.527  17.289  0.3371 -0.0047 -0.3682
  730TMC3    C810797   1.985   2.143  17.287  0.0330 -0.1803 -0.4208
  730TMC3    O110798   1.778   2.600  17.223  0.4348 -0.3428 -0.5436
  730TMC3    O210799   1.966   2.039  17.352 -0.0561 -0.5064 -0.1081
  731MPD2     C10800   0.849   0.299  12.097 -0.4214 -0.0668 -0.0111
  731MPD2    C110801   0.947   0.376  12.144 -0.5707 -0.3184 -0.3182
  731MPD2    C210802   0.964   0.391  12.283 -0.4982 -0.6124  0.0133
  731MPD2    C310803   0.895   0.316  12.370  0.2954  0.6651 -0.0362
  731MPD2    C410804   0.795   0.238  12.315 -0.5889  0.4975 -0.0804
  731MPD2    C510805   0.778   0.230  12.183  0.6328 -0.1573  0.3062
  731MPD2     H10806   1.051   0.442  12.322 -1.5645  0.6999  0.6438
  731MPD2    H110807   0.735   0.177  12.381  0.2921  0.6668  0.8729
  731MPD2    H210808   0.853   0.272  11.992 -3.6180 -0.5613 -0.0082
  731MPD2    H310809   0.699   0.176  12.132  2.3713  1.3270 -3.9514
  731MPD2     N10810   0.938   0.308  12.502 -0.1811  0.3084 -0.1581
  731MPD2    H510811   1.025   0.355  12.525 -1.5378  1.4232  2.5896
  731MPD2    N110812   1.039   0.432  12.051 -1.0648  0.3151  1.2232
  731MPD2    H710813   1.032   0.403  11.954  0.2673  1.6971  0.6993
  732TMC3    C110814   1.223   0.548  11.959 -0.0266 -0.6417  0.2006
  732TMC3    C210815   1.158   0.583  11.842 -0.3163  0.3580  0.2944
  732TMC3    C310816   1.228   0.639  11.733  0.4662  0.0284  0.2846
  732TMC3    C410817   1.352   0.582  11.981  0.4621 -0.4244 -0.5282
  732TMC3    C510818   1.421   0.634  11.873 -0.3308  0.3563 -0.1775
  732TMC3    C610819   1.364   0.648  11.743 -0.8064  0.2233  0.7320
  732TMC3     C10820   1.159   0.497  12.077 -0.3745 -0.8439  0.5343
  732TMC3     O10821   1.212   0.521  12.186  0.7586  0.1065  0.3228
  732TMC3     H10822   1.054   0.553  11.829  0.2458 -1.1185 -0.8741
  732TMC3    H110823   1.398   0.540  12.069 -0.2752  0.0615  0.0909
  732TMC3    H210824   1.428   0.680  11.661 -2.0054 -1.6281 -0.9364
  732TMC3    C710825   1.561   0.647  11.889  0.0424 -0.4354  0.9867
  732TMC3    C810826   1.168   0.663  11.600  0.2439  0.4642  0.8499
  732TMC3    O110827   1.628   0.625  11.789 -0.4699 -0.1300 -0.1445
  732TMC3    O210828   1.241   0.655  11.502 -0.3650  0.2232  0.0928
  733TMC3    C110829   1.832   3.930  13.160 -0.2207 -0.0687  0.6984
  733TMC3    C210830   1.872   4.060  13.157 -0.2551 -0.1484 -0.7895
  733TMC3    C310831   1.952   4.108  13.060  0.4881 -0.1017 -0.2938
  733TMC3    C410832   1.891   3.842  13.072 -0.8692  0.5006 -0.5485
  733TMC3    C510833   1.963   3.894  12.972  0.8585  0.2576 -0.0628
  733TMC3    C610834   2.012   4.025  12.973  0.4836  0.3929  0.5505
  733TMC3     C10835   1.692   3.922  13.163 -0.4451 -0.7285  0.1503
  733TMC3     O10836   1.620   4.021  13.139  0.6705 -0.3505 -0.1226
  733TMC3     H10837   1.823   4.128  13.226  1.1301  0.3988 -0.3482
  733TMC3    H110838   1.845   3.747  13.048  0.3564  0.2320 -1.8423
  733TMC3    H210839   2.069   4.072  12.894 -0.0040  4.1682  2.4355
  733TMC3    C710840   1.895   3.859  12.849  0.7358 -0.6464 -0.5542
  733TMC3    C810841   1.889   4.223  12.995 -0.3729 -0.1484 -0.9468
  733TMC3    O110842   1.776   3.843  12.854 -0.2885  0.0766 -0.4552
  733TMC3    O210843   1.797   4.272  13.055 -0.7986  0.1473  0.2446
  734MPD2     C10844   4.314   1.537  12.158 -0.7691 -0.6370  0.3490
  734MPD2    C110845   4.203   1.484  12.092 -0.5950  0.0596  0.0194
  734MPD2    C210846   4.199   1.482  11.957  0.0198  0.5585 -0.5122
  734MPD2    C310847   4.309   1.527  11.878 -0.0996 -0.6318 -0.0655
  734MPD2    C410848   4.423   1.575  11.946  0.1994  1.0940  0.5986
  734MPD2    C510849   4.428   1.578  12.083  0.4149  0.4403  0.2782
  734MPD2     H10850   4.127   1.419  11.907 -1.1108  0.3164  1.4281
  734MPD2    H110851   4.516   1.600  11.896  0.0302  3.7652  1.6338
  734MPD2    H210852   4.305   1.534  12.266 -1.2442 -1.4399  0.2849
  734MPD2    H310853   4.522   1.613  12.125  0.5643  0.4393 -0.0605
  734MPD2     N10854   4.297   1.513  11.739  0.5749 -0.5806 -0.1532
  734MPD2    H510855   4.204   1.489  11.704 -0.0634  1.1643  0.3297
  734MPD2    N110856   4.089   1.444  12.167  0.4383 -0.4889  0.1009
  734MPD2    H710857   4.086   1.449  12.268 -1.7454 -2.6185  0.1394
  735TMC3    C110858   3.882   1.340  12.196 -0.0181 -0.0614 -0.2545
  735TMC3    C210859   3.761   1.323  12.131 -1.3171 -0.3273 -0.2787
  735TMC3    C310860   3.697   1.207  12.098 -0.4915  0.1311 -0.0167
  735TMC3    C410861   3.940   1.223  12.238  0.1706 -0.0537 -0.2412
  735TMC3    C510862   3.869   1.108  12.220  0.3220 -0.4858  0.5462
  735TMC3    C610863   3.753   1.094  12.147 -0.3297  0.5318  0.0672
  735TMC3     C10864   3.965   1.414  12.111  0.2476  0.1812  0.1689
  735TMC3     O10865   3.917   1.433  11.999 -0.0879  0.0116 -0.6949
  735TMC3     H10866   3.708   1.407  12.089  1.2785  2.0876  1.2486
  735TMC3    H110867   4.023   1.227  12.308  1.6272  0.5306 -2.0097
  735TMC3    H210868   3.713   0.997  12.122  3.7214 -0.4771 -2.5397
  735TMC3    C710869   3.946   1.000  12.259 -0.5600  0.3180 -0.1890
  735TMC3    C810870   3.655   1.194  11.961 -0.5873 -0.0818  0.0550
  735TMC3    O110871   3.984   0.924  12.174 -0.2429  0.0466  0.2259
  735TMC3    O210872   3.557   1.120  11.947 -0.3062  0.3147 -0.3087
  736MPD2     C10873   4.100   0.969  12.588 -1.0717  0.0316  0.5906
  736MPD2    C110874   4.080   0.940  12.455 -0.7135 -0.8546 -0.0871
  736MPD2    C210875   4.170   0.858  12.392  0.7205 -0.0018  0.2578
  736MPD2    C310876   4.285   0.813  12.453  0.2556 -0.3429  0.3360
  736MPD2    C410877   4.297   0.841  12.585  0.4096  0.4499  0.0525
  736MPD2    C510878   4.208   0.909  12.658 -0.0481  1.0504  0.1622
  736MPD2     H10879   4.169   0.836  12.286  2.5779 -0.8888  0.4226
  736MPD2    H110880   4.391   0.815  12.633  1.6349 -0.6108 -2.9367
  736MPD2    H210881   4.034   1.041  12.635 -0.4113  0.5642  0.6989
  736MPD2    H310882   4.230   0.927  12.763 -0.3105  1.7212  0.1058
  736MPD2     N10883   4.389   0.741  12.389 -0.0759  0.1328 -0.1080
  736MPD2    H510884   4.480   0.752  12.433 -1.2125  3.4655  1.3229
  736MPD2    N110885   3.972   1.011  12.389  0.0231  0.0729 -0.0622
  736MPD2    H710886   3.929   1.091  12.435  0.7572  0.9778 -0.9350
  737TMC3    C110887   4.524   0.689  12.203  0.1606 -0.2359 -0.6666
  737TMC3    C210888   4.606   0.801  12.211  0.5329  0.0351  0.5847
  737TMC3    C310889   4.678   0.824  12.094 -0.4503 -0.4200  0.4929
  737TMC3    C410890   4.529   0.594  12.100  0.6996  0.2985 -0.8590
  737TMC3    C510891   4.615   0.615  11.994  0.6206 -0.0323  0.1236
  737TMC3    C610892   4.694   0.725  12.002  0.0502 -0.5107 -0.2110
  737TMC3     C10893   4.389   0.690  12.267 -0.3353  0.3512  0.1099
  737TMC3     O10894   4.298   0.627  12.215  0.7076  0.1283 -0.2400
  737TMC3     H10895   4.590   0.879  12.285  1.7538 -1.2539  2.1904
  737TMC3    H110896   4.469   0.504  12.097  1.5107 -0.2211 -1.1618
  737TMC3    H210897   0.053   0.731  11.929 -1.0906  1.1042 -1.3504
  737TMC3    C710898   4.640   0.509  11.899  0.0594  0.7713 -0.3076
  737TMC3    C810899   0.006   0.956  12.060 -0.1089  0.0043 -0.5061
  737TMC3    O110900   4.611   0.395  11.941 -0.4592 -0.5480 -0.0543
  737TMC3    O210901   0.002   1.041  12.153 -0.4369 -0.3175 -0.2548
  738MPD2     C10902   0.544   4.670  15.404  0.1643 -0.5581  0.4919
  738MPD2    C110903   0.521   4.592  15.288  0.6856 -0.3648  0.0042
  738MPD2    C210904   0.604   4.618  15.181 -0.0261 -0.3975 -0.4276
  738MPD2    C310905   0.705   4.713  15.183 -0.5871 -0.7298 -1.2907
  738MPD2    C410906   0.721   0.068  15.293  0.0260  0.3922  0.4980
  738MPD2    C510907   0.644   0.044  15.406  0.0085 -0.5139  0.5739
  738MPD2     H10908   0.584   4.552  15.098  0.5090 -0.8148 -0.2257
  738MPD2    H110909   0.789   0.152  15.289 -0.5974  0.9105  0.7309
  738MPD2    H210910   0.484   4.664  15.494 -1.0624  1.1131 -0.2242
  738MPD2    H310911   0.638   0.111  15.491 -1.0951 -0.8971  0.8019
  738MPD2     N10912   0.801   0.009  15.080  0.1168  0.2121 -0.6387
  738MPD2    H510913   0.884   0.066  15.097 -0.5657  1.3079 -0.9261
  738MPD2    N110914   0.436   4.477  15.284 -0.2956  0.3155 -0.3724
  738MPD2    H710915   0.434   4.431  15.193  0.6605 -1.0064  0.2803
  739TMC3    C110916   0.901   0.016  14.858 -0.6760 -0.2547 -0.0874
  739TMC3    C210917   0.872   4.716  14.730 -0.9329  0.3917  0.1411
  739TMC3    C310918   0.927   0.067  14.627 -0.4433  0.0349  0.1955
  739TMC3    C410919   0.977   0.125  14.899  0.3232 -0.1857 -0.2234
  739TMC3    C510920   0.994   0.214  14.793  0.1592 -0.2621 -0.5152
  739TMC3    C610921   0.977   0.187  14.663  0.7766 -0.3255  1.1560
  739TMC3     C10922   0.796   4.687  14.949 -0.0485 -0.1387  0.9108
  739TMC3     O10923   0.697   4.638  14.896  0.4581 -0.2785 -0.2339
  739TMC3     H10924   0.828   4.622  14.697  2.6724 -1.0650 -0.5723
  739TMC3    H110925   1.027   0.142  14.994 -1.1025  1.9450  0.1483
  739TMC3    H210926   1.001   0.261  14.587 -0.4349 -1.2238 -0.1051
  739TMC3    C710927   1.029   0.352  14.828  0.3106 -0.2777 -0.4124
  739TMC3    C810928   0.862   0.069  14.500 -0.7183  0.2300  0.0738
  739TMC3    O110929   1.052   0.425  14.733  0.2557 -0.1116 -0.5351
  739TMC3    O210930   0.855   0.184  14.456 -0.0051  0.4316 -0.0490
  740TMC3    C110931   0.960   1.351  14.403  0.0815 -0.3397 -0.5367
  740TMC3    C210932   1.031   1.369  14.521 -0.3613  0.4950  0.0857
  740TMC3    C310933   1.157   1.329  14.527  0.5303  0.1638  0.2920
  740TMC3    C410934   1.023   1.302  14.292  0.1254  0.3961  0.0059
  740TMC3    C510935   1.160   1.284  14.297 -0.3262  0.2823 -0.3903
  740TMC3    C610936   1.229   1.282  14.416  0.2899  1.1166  0.4029
  740TMC3     C10937   0.830   1.294  14.420  0.0778 -0.2523  0.0287
  740TMC3     O10938   0.770   1.247  14.324 -0.1358  0.2506  0.4949
  740TMC3     H10939   0.991   1.427  14.604  0.9693 -2.0573  2.4960
  740TMC3    H110940   0.968   1.297  14.198  0.3338 -0.9927 -0.0440
  740TMC3    H210941   1.332   1.253  14.430  0.6459  1.2883 -1.9543
  740TMC3    C710942   1.230   1.241  14.174  0.1700  0.6163 -0.2188
  740TMC3    C810943   1.192   1.278  14.657  0.3490  0.6950  0.0257
  740TMC3    O110944   1.352   1.225  14.192 -0.4468 -0.7440  0.3430
  740TMC3    O210945   1.098   1.283  14.736 -0.8589  0.6365  1.0529
  741TMC3    C110946   0.621   0.449  15.022 -0.3154  0.1157 -0.3947
  741TMC3    C210947   0.653   0.379  14.906  0.6613 -1.3360 -0.6166
  741TMC3    C310948   0.606   0.253  14.901 -0.9796 -0.2019  0.7701
  741TMC3    C410949   0.539   0.401  15.119  0.9229  0.0231 -0.3002
  741TMC3    C510950   0.476   0.277  15.101 -0.6362 -0.7896  0.4917
  741TMC3    C610951   0.518   0.200  14.993  0.1440  0.4127  0.6442
  741TMC3     C10952   0.701   0.566  15.059 -0.4354 -0.7340 -0.2083
  741TMC3     O10953   0.709   0.591  15.179 -0.3563 -0.5879  0.0158
  741TMC3     H10954   0.716   0.427  14.831  0.4340 -3.4604 -2.1809
  741TMC3    H110955   0.505   0.459  15.204  1.5234  0.4213 -0.3298
  741TMC3    H210956   0.482   0.099  14.978  1.6438  0.2791 -2.0145
  741TMC3    C710957   0.375   0.237  15.200  0.1843 -1.0252 -0.0125
  741TMC3    C810958   0.578   0.220  14.758  0.4844 -0.0773 -0.0102
  741TMC3    O110959   0.363   0.299  15.302 -0.5763  0.0881  0.1916
  741TMC3    O210960   0.571   0.314  14.681  0.0017 -0.2868  1.1979
  742TMC3    C110961   0.178   3.666  15.335  0.2786 -0.2627 -0.0233
  742TMC3    C210962   0.126   3.654  15.210  0.6675 -0.3965  0.9003
  742TMC3    C310963   0.213   3.659  15.106 -0.2517  0.0233 -0.0493
  742TMC3    C410964   0.314   3.676  15.354 -0.3021 -0.3891  0.0202
  742TMC3    C510965   0.397   3.669  15.247 -0.6065  0.3035  0.3434
  742TMC3    C610966   0.351   3.666  15.118 -0.1907  0.2062  0.1341
  742TMC3     C10967   0.092   3.642  15.451 -0.2340 -0.4269 -0.0013
  742TMC3     O10968   4.714   3.573  15.434 -0.3690 -0.3632  0.3611
  742TMC3     H10969   0.019   3.664  15.195  0.8929 -0.3378 -0.6531
  742TMC3    H110970   0.346   3.674  15.458 -0.6391 -2.5857  0.0813
  742TMC3    H210971   0.413   3.661  15.029  0.6507 -1.1624  0.7935
  742TMC3    C710972   0.518   3.590  15.261 -0.3881 -0.1668  0.2194
  742TMC3    C810973   0.169   3.634  14.975  0.2788  0.2813 -0.5352
  742TMC3    O110974   0.564   3.528  15.165  0.0532 -0.0147  0.3943
  742TMC3    O210975   0.239   3.576  14.894  0.0898 -0.0489 -0.4624
  743MPD2     C10976   4.291   4.280   1.796 -0.1829  0.1671 -0.9051
  743MPD2    C110977   4.267   4.312   1.662 -0.7714 -0.0187  0.1884
  743MPD2    C210978   4.369   4.341   1.573  0.3484 -0.3789  0.3834
  743MPD2    C310979   4.501   4.356   1.623  0.2885  0.3077 -0.0244
  743MPD2    C410980   4.521   4.313   1.754 -0.4494  0.2530  0.3268
  743MPD2    C510981   4.419   4.276   1.838 -0.0466  0.2660 -0.5593
  743MPD2     H10982   4.349   4.359   1.468 -2.2337  3.4904  1.5470
  743MPD2    H110983   4.618   4.310   1.802 -0.5205  0.4884  0.4830
  743MPD2    H210984   4.219   4.237   1.865  1.8136 -1.5455  0.0959
  743MPD2    H310985   4.443   4.249   1.941 -0.4545  0.8279 -0.3174
  743MPD2     N10986   4.593   4.409   1.530 -0.7639  0.3051 -0.2238
  743MPD2    H510987   4.564   4.421   1.433  0.6151 -0.8689 -0.7773
  743MPD2    N110988   4.136   4.323   1.627  0.0750 -0.8110 -0.0893
  743MPD2    H710989   4.071   4.307   1.703 -1.2904 -1.2472 -1.3422
  744TMC3    C110990   3.943   4.381   1.518  0.1385  0.6002  0.1249
  744TMC3    C210991   3.879   4.297   1.606  0.2079  0.1348 -0.4333
  744TMC3    C310992   3.746   4.294   1.603  0.4725 -0.9367  0.2218
  744TMC3    C410993   3.886   4.463   1.428 -0.0579  0.0886  0.2393
  744TMC3    C510994   3.752   4.468   1.433 -0.1516  0.0932 -0.3549
  744TMC3    C610995   3.677   4.383   1.516 -0.0763  0.8098 -0.1627
  744TMC3     C10996   4.084   4.377   1.511 -0.1861  0.1739 -0.3098
  744TMC3     O10997   4.141   4.442   1.422  0.6455 -0.6199  0.2115
  744TMC3     H10998   3.930   4.219   1.661 -2.2521 -0.9424  0.3343
  744TMC3    H110999   3.937   4.514   1.347 -1.2408 -0.7543 -1.0190
  744TMC3    H211000   3.570   4.392   1.530 -0.2028  1.6893 -1.6432
  744TMC3    C711001   3.688   4.528   1.318  0.2418  0.8259  0.1247
  744TMC3    C811002   3.673   4.192   1.671 -0.1051 -0.0444 -0.0793
  744TMC3    O111003   3.736   4.620   1.255 -0.3793  0.3065  0.1331
  744TMC3    O211004   3.568   4.169   1.620  0.5449  0.5040  0.5094
  745TMC3    C111005   0.882   3.145  12.930  0.4335 -0.4117  0.6285
  745TMC3    C211006   0.906   3.014  12.895 -0.1909 -0.4622  0.7572
  745TMC3    C311007   0.810   2.946  12.825  0.5132 -0.4426  0.1214
  745TMC3    C411008   0.769   3.215  12.891 -0.0342 -0.1612 -0.5208
  745TMC3    C511009   0.700   3.150  12.786 -0.4791  1.0845 -0.4330
  745TMC3    C611010   0.718   3.021  12.759 -0.4999  0.0982 -0.7917
  745TMC3     C11011   0.915   3.177  13.062 -0.8060  0.5561  0.2631
  745TMC3     O11012   0.963   3.083  13.128  0.3645 -0.4996  0.0281
  745TMC3     H11013   1.000   2.969  12.926 -2.0020 -4.4605  0.4322
  745TMC3    H111014   0.738   3.309  12.935 -1.6210 -0.9922  0.1114
  745TMC3    H211015   0.647   2.975  12.692 -0.9590 -0.8618  0.3555
  745TMC3    C711016   0.603   3.229  12.698 -0.1092 -0.5858 -0.3828
  745TMC3    C811017   0.735   2.858  12.909 -0.3535 -0.1469 -0.3903
  745TMC3    O111018   0.542   3.173  12.608  0.4558 -0.5400 -0.3925
  745TMC3    O211019   0.656   2.781  12.858 -0.0316 -0.5746  0.4266
  746TMC3    C111020   2.822   0.391  11.025 -0.5301 -0.0621  0.3058
  746TMC3    C211021   2.909   0.395  10.918 -0.2506 -0.0008 -0.1837
  746TMC3    C311022   2.904   0.297  10.832  0.2109  0.4081  0.1623
  746TMC3    C411023   2.758   0.276  11.056 -0.5137  0.5443  0.2315
  746TMC3    C511024   2.744   0.184  10.956 -0.6063  0.2970 -0.6057
  746TMC3    C611025   2.816   0.189  10.842  0.5120 -0.1145 -0.0601
  746TMC3     C11026   2.815   0.502  11.118  0.0599 -0.3214  0.0797
  746TMC3     O11027   2.784   0.480  11.234  0.1628 -0.2778  0.8074
  746TMC3     H11028   2.987   0.469  10.905  0.0774 -0.3210 -0.0702
  746TMC3    H111029   2.704   0.269  11.149  0.3332 -1.4820  0.5888
  746TMC3    H211030   2.822   0.099  10.782 -0.1780 -0.2700  0.1011
  746TMC3    C711031   2.674   0.063  10.986  0.5407 -0.1229  0.2387
  746TMC3    C811032   3.026   0.274  10.751  0.1633  0.0743  0.0235
  746TMC3    O111033   2.626   4.716  10.900  0.2546  0.1609 -0.5166
  746TMC3    O211034   3.061   0.156  10.728  0.0600 -0.3364 -0.0694
  747TMC3    C111035   0.435   0.744  10.998  0.8352  0.0684  0.7593
  747TMC3    C211036   0.352   0.652  11.053  0.6159  0.1466  0.6273
  747TMC3    C311037   0.348   0.650  11.192 -0.4192 -0.5546 -0.0666
  747TMC3    C411038   0.523   0.813  11.072 -0.0556 -0.6179 -0.1872
  747TMC3    C511039   0.523   0.794  11.203  0.2963 -0.4469 -0.7422
  747TMC3    C611040   0.437   0.709  11.269  0.1096  0.2275  0.6640
  747TMC3     C11041   0.415   0.798  10.867  0.2289  0.8409  0.0500
  747TMC3     O11042   0.430   0.916  10.849 -0.3989 -0.5599 -0.5888
  747TMC3     H11043   0.279   0.591  11.001  0.7298 -0.0840  0.7389
  747TMC3    H111044   0.587   0.889  11.028 -0.9043 -0.0932 -0.5097
  747TMC3    H211045   0.444   0.682  11.374  0.2316  0.7034  0.7792
  747TMC3    C711046   0.634   0.847  11.277  0.1937 -0.3447  0.0458
  747TMC3    C811047   0.276   0.542  11.243 -0.0735 -0.4670 -0.3806
  747TMC3    O111048   0.613   0.859  11.397  0.5230  0.1175 -0.1956
  747TMC3    O211049   0.246   0.445  11.167  0.2839  0.2474 -0.1639
  748MPD2     C11050   1.991   1.642   1.396  0.3365  0.2993  0.6457
  748MPD2    C111051   2.056   1.524   1.416  0.5563 -0.6767 -0.7257
  748MPD2    C211052   2.201   1.530   1.433 -0.3173 -0.5259  0.0940
  748MPD2    C311053   2.265   1.643   1.397  0.3005 -1.1049  0.0857
  748MPD2    C411054   2.196   1.756   1.367 -0.4531  0.1117 -0.0762
  748MPD2    C511055   2.059   1.758   1.368 -0.2436  0.1303  0.1443
  748MPD2     H11056   2.248   1.452   1.493 -0.2109  1.3190  2.4247
  748MPD2    H111057   2.250   1.847   1.344 -1.7354  0.8662 -0.1332
  748MPD2    H211058   1.883   1.647   1.403  0.2050  0.1529 -1.1448
  748MPD2    H311059   2.004   1.851   1.355  1.0608  0.7364 -1.0110
  748MPD2     N11060   2.406   1.633   1.380  0.1270  0.8574 -0.8486
  748MPD2    H511061   2.449   1.548   1.414  1.3053  1.9949  0.4596
  748MPD2    N111062   1.972   1.406   1.450 -0.2712 -0.7475 -0.2315
  748MPD2    H711063   1.873   1.410   1.472  0.1770 -0.5793  1.8086
  749TMC3    C111064   2.604   1.669   1.268  0.0752  0.0571  0.0475
  749TMC3    C211065   2.679   1.635   1.379 -0.0174 -0.5931  0.2687
  749TMC3    C311066   2.815   1.613   1.369  0.1972  0.4018 -0.7220
  749TMC3    C411067   2.672   1.674   1.146 -0.4120 -0.1013 -0.3970
  749TMC3    C511068   2.806   1.651   1.139  0.3209 -0.1326 -0.4834
  749TMC3    C611069   2.882   1.613   1.243 -0.2485 -1.0648 -0.8450
  749TMC3     C11070   2.469   1.697   1.276 -0.5812 -0.5531 -0.2365
  749TMC3     O11071   2.423   1.774   1.196 -0.3538 -0.7080  0.2025
  749TMC3     H11072   2.627   1.658   1.472 -0.4684 -0.1471 -0.0884
  749TMC3    H111073   2.612   1.717   1.067  2.0545  0.0186 -2.1935
  749TMC3    H211074   2.989   1.598   1.236 -0.2164 -0.6595 -1.2286
  749TMC3    C711075   2.885   1.746   1.048  0.6868  0.1531 -0.0709
  749TMC3    C811076   2.888   1.559   1.492  0.1361 -0.3881  0.1346
  749TMC3    O111077   2.993   1.786   1.089  0.0888 -0.2430 -0.1002
  749TMC3    O211078   2.836   1.577   1.605 -0.2790  0.0426 -0.1355
  750MPD2     C11079   2.673   2.106  11.687  0.8516  0.7336  0.7731
  750MPD2    C111080   2.795   2.125  11.631  0.5939  0.1636 -0.3095
  750MPD2    C211081   2.826   2.053  11.524  0.6299  0.1493 -0.4844
  750MPD2    C311082   2.728   1.965  11.464 -0.0860  0.1429  0.0185
  750MPD2    C411083   2.599   1.961  11.508 -0.2146 -0.4749 -0.4420
  750MPD2    C511084   2.573   2.034  11.624  0.6730  0.5757 -0.6198
  750MPD2     H11085   2.930   2.051  11.492  1.5655  1.3175  2.5291
  750MPD2    H111086   2.530   1.883  11.477 -0.6384 -0.5056  0.5624
  750MPD2    H211087   2.642   2.161  11.776 -0.0395  0.6189  0.5368
  750MPD2    H311088   2.474   2.020  11.664  1.2775  0.3574  0.7920
  750MPD2     N11089   2.754   1.871  11.358 -0.4928  0.0822 -0.0440
  750MPD2    H511090   2.682   1.801  11.345 -1.7017  1.6433 -1.7472
  750MPD2    N111091   2.881   2.209  11.710  0.8419 -0.1485 -0.3867
  750MPD2    H711092   2.851   2.248  11.799  0.3728 -0.5194 -0.3794
  751TMC3    C111093   2.868   1.745  11.188  0.2046  0.5580 -0.5164
  751TMC3    C211094   2.764   1.662  11.184 -0.1136  0.6540 -0.6553
  751TMC3    C311095   2.784   1.532  11.136 -0.3488 -0.2036  0.1820
  751TMC3    C411096   2.988   1.715  11.124  0.7415  0.2386  0.9746
  751TMC3    C511097   3.005   1.589  11.072 -0.0980  0.1003 -0.1540
  751TMC3    C611098   2.901   1.497  11.067  0.0065  0.0940  0.0037
  751TMC3     C11099   2.870   1.853  11.285 -0.0887  0.4593 -0.9220
  751TMC3     O11100   2.982   1.899  11.311  0.0869 -0.3375 -0.1435
  751TMC3     H11101   2.670   1.672  11.237  1.4742 -1.3076  2.5480
  751TMC3    H111102   3.065   1.790  11.111 -0.0170  0.7277 -0.7162
  751TMC3    H211103   2.898   1.398  11.022  0.6686 -0.7576  1.8475
  751TMC3    C711104   3.129   1.560  11.003 -0.3427  0.2578 -0.0224
  751TMC3    C811105   2.677   1.437  11.121  0.1477  0.1511 -0.4496
  751TMC3    O111106   3.208   1.650  10.989 -0.1680 -0.5206 -0.3740
  751TMC3    O211107   2.672   1.383  11.009  0.1930  0.3355 -0.3768
  752TMC3    C111108   1.730   1.559  17.113  0.0515 -0.1545  1.0205
  752TMC3    C211109   1.735   1.433  17.174  0.0289  0.0797 -0.0303
  752TMC3    C311110   1.644   1.407  17.278  0.0745  0.3752 -0.1322
  752TMC3    C411111   1.644   1.656  17.160 -0.0260 -0.6770 -0.3201
  752TMC3    C511112   1.569   1.625  17.267  0.2152  0.9751  0.0903
  752TMC3    C611113   1.560   1.501  17.328  1.1609 -0.4810  0.8277
  752TMC3     C11114   1.813   1.583  16.992  0.2790  0.7343 -0.1719
  752TMC3     O11115   1.905   1.502  16.984 -0.5325 -0.4124 -0.1291
  752TMC3     H11116   1.806   1.365  17.130 -0.6817 -0.2166 -0.7144
  752TMC3    H111117   1.650   1.753  17.114 -1.3077 -1.5133 -2.2556
  752TMC3    H211118   1.498   1.488  17.416 -0.7377 -0.0938 -0.4664
  752TMC3    C711119   1.503   1.730  17.343  0.4671  1.3900 -0.5666
  752TMC3    C811120   1.654   1.291  17.361 -1.1733  0.1746 -0.3160
  752TMC3    O111121   1.389   1.711  17.392  0.2032 -0.0733 -0.1766
  752TMC3    O211122   1.606   1.285  17.475  0.0816 -0.3068 -0.3128
  753TMC3    C111123   4.298   3.666  13.400  0.4020  0.0072 -0.7402
  753TMC3    C211124   4.429   3.696  13.430  1.0870  0.2102  0.2712
  753TMC3    C311125   4.530   3.632  13.360 -0.4530 -0.0330 -1.0717
  753TMC3    C411126   4.271   3.590  13.290  0.4168  0.1094 -0.7127
  753TMC3    C511127   4.376   3.524  13.227 -0.9260  0.3835 -0.0890
  753TMC3    C611128   4.505   3.543  13.259 -0.1877  1.2819  0.3281
  753TMC3     C11129   4.201   3.765  13.443  0.6514  0.3973  0.3056
  753TMC3     O11130   4.092   3.779  13.381 -0.2467 -0.4806 -0.0770
  753TMC3     H11131   4.452   3.780  13.495  0.9865 -0.5505  1.2928
  753TMC3    H111132   4.166   3.573  13.268  0.6800 -0.3764 -1.6190
  753TMC3    H211133   4.584   3.518  13.189  0.4526 -1.0872  1.8763
  753TMC3    C711134   4.348   3.428  13.122 -0.9877  0.2401 -0.8338
  753TMC3    C811135   4.666   3.639  13.412 -0.4099  0.2847  0.5248
  753TMC3    O111136   4.444   3.383  13.055 -0.4080  0.2133  0.0361
  753TMC3    O211137   0.042   3.602  13.340 -0.1247  0.1511  0.2764
  754MPD2     C11138   2.818   2.287  12.987 -0.1357  0.4726  0.3962
  754MPD2    C111139   2.776   2.164  12.960  0.6638 -0.3501 -0.2113
  754MPD2    C211140   2.666   2.150  12.876 -0.3611 -0.7476 -0.1290
  754MPD2    C311141   2.609   2.263  12.819  0.4503  0.2434  0.3263
  754MPD2    C411142   2.660   2.385  12.845 -0.3328  0.4129 -0.3118
  754MPD2    C511143   2.761   2.401  12.932  0.0479 -1.0363  0.0143
  754MPD2     H11144   2.613   2.055  12.875  1.5757 -1.8532  1.4950
  754MPD2    H111145   2.616   2.477  12.810  1.1723  1.7887  1.3347
  754MPD2    H211146   2.906   2.291  13.050  0.2665 -2.2834 -0.0122
  754MPD2    H311147   2.800   2.499  12.958 -1.4798 -1.0413  2.4060
  754MPD2     N11148   2.483   2.257  12.755  0.3187  0.1343 -0.1560
  754MPD2    H511149   2.436   2.347  12.749  0.3844  0.1135 -1.0067
  754MPD2    N111150   2.840   2.048  13.022 -0.0906 -0.4730  0.1768
  754MPD2    H711151   2.912   2.058  13.093  1.8144 -0.1177 -1.7932
  755MPD2     C11152   1.709   2.613  12.839  0.1097 -0.1277 -0.7382
  755MPD2    C111153   1.703   2.519  12.939  0.3776  0.0892 -0.4348
  755MPD2    C211154   1.815   2.452  12.974  1.2806  0.2041  0.1902
  755MPD2    C311155   1.932   2.469  12.902 -0.2128 -0.3478 -0.1529
  755MPD2    C411156   1.940   2.573  12.813  0.4503  0.2486 -0.3084
  755MPD2    C511157   1.828   2.647  12.787  0.7258  0.1451  0.0933
  755MPD2     H11158   1.807   2.374  13.048 -0.8264 -1.4700 -1.8079
  755MPD2    H111159   2.030   2.600  12.759 -0.2832  1.7489 -0.8071
  755MPD2    H211160   1.622   2.667  12.802 -0.3247 -1.3242 -1.4801
  755MPD2    H311161   1.832   2.734  12.722  0.2264  1.2730  1.5794
  755MPD2     N11162   2.049   2.389  12.916  0.7952  0.2516 -0.0409
  755MPD2    H511163   2.115   2.391  12.839  0.5197 -1.1920 -0.3064
  755MPD2    N111164   1.586   2.477  13.012 -0.4875  0.5189 -0.0089
  755MPD2    H711165   1.603   2.412  13.087  1.5985 -1.1020 -1.9088
  756MPD2     C11166   3.631   3.137   9.361  1.5368  0.5189 -0.5076
  756MPD2    C111167   3.651   3.023   9.426 -1.0942 -0.0324 -0.7678
  756MPD2    C211168   3.617   2.906   9.371  0.2668 -0.7558 -0.8069
  756MPD2    C311169   3.556   2.901   9.238  0.3402  0.7204 -0.3231
  756MPD2    C411170   3.520   3.024   9.181 -0.1569 -0.1733  0.8668
  756MPD2    C511171   3.564   3.137   9.242  0.3994  0.5523  0.5701
  756MPD2     H11172   3.621   2.817   9.433  0.1810  0.3552  0.7846
  756MPD2    H111173   3.460   3.036   9.092  1.1874  0.3670  0.0384
  756MPD2    H211174   3.648   3.237   9.398  0.8800 -0.9230  3.6484
  756MPD2    H311175   3.534   3.229   9.192  1.7648  0.8115  0.2348
  756MPD2     N11176   3.520   2.774   9.185  0.1943  0.4586  0.5891
  756MPD2    H511177   3.530   2.695   9.248  3.0043  0.7990  0.5851
  756MPD2    N111178   3.712   3.016   9.553  0.4501  0.2179 -0.0810
  756MPD2    H711179   3.721   2.930   9.606  0.3619  0.0407 -0.3556
  757MPD2     C11180   2.713   2.124   9.146  0.1345 -0.2464  0.6026
  757MPD2    C111181   2.808   2.091   9.241 -0.2056 -0.4143 -0.5182
  757MPD2    C211182   2.943   2.142   9.224  0.1274 -0.1271  0.0032
  757MPD2    C311183   2.967   2.230   9.121  0.0399 -0.2707  0.0132
  757MPD2    C411184   2.878   2.254   9.020  0.7139 -0.3567  0.5398
  757MPD2    C511185   2.753   2.206   9.045  0.4241  0.2274 -0.1768
  757MPD2     H11186   3.018   2.130   9.301  0.0052 -0.1753  0.1151
  757MPD2    H111187   2.895   2.319   8.934  2.2737  0.5923  1.5721
  757MPD2    H211188   2.613   2.084   9.154 -0.7342  1.6766 -0.8190
  757MPD2    H311189   2.685   2.232   8.965 -0.3991  1.5887  0.9813
  757MPD2     N11190   3.093   2.304   9.130  0.2330  0.7863 -0.3840
  757MPD2    H511191   3.147   2.275   9.211 -2.1937 -0.3782  0.8451
  757MPD2    N111192   2.758   2.008   9.341 -0.4616 -0.3349 -0.3270
  757MPD2    H711193   2.658   1.988   9.336 -0.7292  0.6504  1.0395
  758MPD2     C11194   3.134   2.100  16.192  0.2191 -0.8682  0.3135
  758MPD2    C111195   3.035   2.015  16.236 -0.0120  0.8820  0.7241
  758MPD2    C211196   2.971   2.045  16.357  0.2869 -0.0568 -0.3056
  758MPD2    C311197   3.015   2.156  16.429 -0.1669  0.4950 -0.4090
  758MPD2    C411198   3.125   2.219  16.389 -0.8175 -0.6065 -0.1471
  758MPD2    C511199   3.193   2.185  16.279 -0.5416 -0.0341  0.1639
  758MPD2     H11200   2.888   1.979  16.378  0.5192 -0.0519  0.6237
  758MPD2    H111201   3.159   2.303  16.448  0.7073  0.3315 -2.3651
  758MPD2    H211202   3.182   2.088  16.095  0.5559  1.0776  0.2493
  758MPD2    H311203   3.269   2.249  16.236 -1.4816 -0.1949 -1.7285
  758MPD2     N11204   2.964   2.172  16.557 -0.3880  0.2598 -0.2136
  758MPD2    H511205   3.027   2.223  16.618 -1.2770 -1.6515  2.2918
  758MPD2    N111206   3.019   1.899  16.162  0.5530 -0.7873  1.1976
  758MPD2    H711207   3.072   1.873  16.079  1.2962  0.2119  1.3558
  759MPD2     C11208   2.273   4.340   9.617  0.5683  0.1456 -0.1422
  759MPD2    C111209   2.150   4.321   9.560 -0.1928  0.0265 -0.1446
  759MPD2    C211210   2.116   4.411   9.464 -0.5539  0.4327 -0.3988
  759MPD2    C311211   2.186   4.521   9.434  0.5719 -0.8427  0.1333
  759MPD2    C411212   2.299   4.549   9.507  0.0907 -0.2247 -0.0449
  759MPD2    C511213   2.343   4.454   9.602 -0.0490 -0.1771 -0.8524
  759MPD2     H11214   2.024   4.390   9.410 -0.3125  0.4042 -0.7986
  759MPD2    H111215   2.358   4.639   9.496  0.5554 -0.4987  0.2075
  759MPD2    H211216   2.324   4.271   9.683 -0.3933 -0.5703 -0.1566
  759MPD2    H311217   2.437   4.475   9.652  0.3292  0.1909 -1.7115
  759MPD2     N11218   2.129   4.610   9.338  0.3237 -0.4452  0.1116
  759MPD2    H511219   2.042   4.585   9.293 -0.1720  1.5048 -0.0203
  759MPD2    N111220   2.068   4.209   9.587  0.4310 -0.5595  0.6125
  759MPD2    H711221   1.975   4.214   9.547  0.2338 -3.7883  0.6980
  760MPD2     C11222   1.313   2.131  11.854 -0.0066  0.1041  0.2676
  760MPD2    C111223   1.456   2.146  11.860  0.3377 -0.3799 -0.2138
  760MPD2    C211224   1.523   2.040  11.918 -0.1285 -0.6715  0.0382
  760MPD2    C311225   1.455   1.930  11.971 -0.5852 -0.4138 -0.2083
  760MPD2    C411226   1.321   1.917  11.956 -0.5771  0.1846 -0.0114
  760MPD2    C511227   1.249   2.016  11.888  0.3169 -0.5985 -0.1488
  760MPD2     H11228   1.631   2.049  11.927 -0.2870 -0.8174  2.0838
  760MPD2    H111229   1.271   1.829  11.994 -1.4105  1.6893  2.3586
  760MPD2    H211230   1.243   2.209  11.824  0.5965  0.9705  1.1528
  760MPD2    H311231   1.144   2.015  11.863  0.0394  0.4031  0.9789
  760MPD2     N11232   1.522   1.824  12.033  0.3679  0.1093 -0.1356
  760MPD2    H511233   1.464   1.742  12.050 -0.1915  0.6494  0.5341
  760MPD2    N111234   1.520   2.263  11.815 -0.1296  1.0333  0.9847
  760MPD2    H711235   1.619   2.282  11.820  0.2891 -1.2162  1.3675
  761MPD2     C11236   2.288   1.145  11.274  0.4492 -0.4052 -0.2009
  761MPD2    C111237   2.378   1.129  11.168 -0.1751  0.3667  0.3679
  761MPD2    C211238   2.475   1.222  11.152 -0.1814  0.6667 -0.6155
  761MPD2    C311239   2.494   1.329  11.239  0.8801  0.1879  0.5313
  761MPD2    C411240   2.400   1.346  11.344  0.2239 -0.8232  0.0565
  761MPD2    C511241   2.301   1.255  11.359 -0.6769  0.3467 -0.4891
  761MPD2     H11242   2.554   1.203  11.081 -1.1970 -0.8461 -1.3277
  761MPD2    H111243   2.396   1.435  11.406  0.3844  0.4953 -1.8411
  761MPD2    H211244   2.216   1.071  11.307 -0.0678 -0.5666 -1.6828
  761MPD2    H311245   2.227   1.254  11.439 -0.2117  0.0141 -0.0618
  761MPD2     N11246   2.594   1.428  11.231  0.3923  0.1935 -0.3261
  761MPD2    H511247   2.611   1.498  11.303  0.4373  0.1897 -0.3331
  761MPD2    N111248   2.361   1.016  11.086  0.1776  0.0411 -0.2267
  761MPD2    H711249   2.294   0.943  11.109 -0.5797  0.4423 -1.1258
  762MPD2     C11250   2.788   1.184  10.752 -0.0287 -0.7722 -0.9518
  762MPD2    C111251   2.788   1.065  10.683 -0.5308  0.3752 -0.4004
  762MPD2    C211252   2.906   1.026  10.625  0.2686  0.0949 -0.4981
  762MPD2    C311253   3.006   1.119  10.604 -0.3466 -0.3860 -0.4338
  762MPD2    C411254   3.003   1.236  10.670  0.3351 -0.5802 -0.3144
  762MPD2    C511255   2.892   1.271  10.745 -0.2261 -0.2427  0.3517
  762MPD2     H11256   2.916   0.928  10.581  0.2251  0.9495 -2.4221
  762MPD2    H111257   3.079   1.313  10.660 -2.3452  2.1443  0.2561
  762MPD2    H211258   2.702   1.223  10.806  1.1552  0.5975 -0.0464
  762MPD2    H311259   2.876   1.369  10.787 -2.3956  0.0087 -1.0914
  762MPD2     N11260   3.113   1.066  10.531 -0.1977  0.2703  0.5021
  762MPD2    H511261   3.118   0.969  10.503  1.2808  0.3342  0.5270
  762MPD2    N111262   2.675   0.976  10.702 -0.3210 -0.2852 -0.3297
  762MPD2    H711263   2.603   0.997  10.770 -0.2403 -1.0030 -0.0234
  763MPD2     C11264   0.257   1.822  16.242  0.0895 -0.7549 -0.5912
  763MPD2    C111265   0.155   1.901  16.195 -0.5962 -0.6755 -1.3823
  763MPD2    C211266   0.164   2.037  16.217  0.1163 -0.0532 -0.5274
  763MPD2    C311267   0.270   2.091  16.283  0.0799 -0.4712  0.6904
  763MPD2    C411268   0.372   2.008  16.334  0.5913 -0.2667 -0.2339
  763MPD2    C511269   0.361   1.873  16.315  0.0276 -1.0243 -0.1554
  763MPD2     H11270   0.081   2.092  16.176 -1.2317 -1.0047  0.9217
  763MPD2    H111271   0.448   2.043  16.402 -0.0869 -1.6935  1.2737
  763MPD2    H211272   0.263   1.715  16.227 -2.0244 -0.5236 -3.2698
  763MPD2    H311273   0.431   1.806  16.364  1.9695  0.1165 -1.3605
  763MPD2     N11274   0.281   2.229  16.311  0.7655  0.1961 -0.2774
  763MPD2    H511275   0.369   2.266  16.345  0.9400 -0.0959 -0.4160
  763MPD2    N111276   0.044   1.853  16.117  0.8490  0.1753 -0.6631
  763MPD2    H711277   4.688   1.918  16.105  0.2058 -0.5773 -0.6107
  764MPD2     C11278   3.219   3.729  17.576  0.4321  0.4024  0.0247
  764MPD2    C111279   3.181   3.615  17.511 -0.0811 -0.5708 -0.3031
  764MPD2    C211280   3.234   3.492  17.552  0.6621 -0.2676 -0.0347
  764MPD2    C311281   3.328   3.480  17.654 -0.1616  0.5998  0.4878
  764MPD2    C411282   3.371   3.596   0.025  0.1762 -1.2254  0.0408
  764MPD2    C511283   3.315   3.720  17.676  0.0888  0.8009  0.2571
  764MPD2     H11284   3.212   3.400  17.499 -1.7245 -0.5982  1.5710
  764MPD2    H111285   3.439   3.589   0.110 -1.1465 -1.9809  1.0361
  764MPD2    H211286   3.173   3.823  17.549 -1.2698 -0.3763  0.1674
  764MPD2    H311287   3.337   3.809   0.046  0.6215  0.2864  0.8454
  764MPD2     N11288   3.378   3.357   0.002  0.0674  0.3091 -0.7489
  764MPD2    H511289   3.325   3.284  17.643 -0.1378  0.7694 -1.2293
  764MPD2    N111290   3.105   3.621  17.393 -0.4830  0.2235 -0.0662
  764MPD2    H711291   3.100   3.534  17.342  0.9164  0.8256 -1.2134
  765MPD2     C11292   2.872   1.090  14.940 -0.5462  0.4605  0.1769
  765MPD2    C111293   2.869   1.141  15.067  0.0276  0.7968  0.2113
  765MPD2    C211294   2.918   1.063  15.169 -0.1149 -0.2774  0.4623
  765MPD2    C311295   2.964   0.940  15.155  0.1786  0.4773  0.3846
  765MPD2    C411296   2.984   0.894  15.025 -0.5730  0.2127  0.2462
  765MPD2    C511297   2.944   0.973  14.919  0.0945 -0.1783 -0.2718
  765MPD2     H11298   2.903   1.096  15.271 -0.8948 -0.5078  0.4172
  765MPD2    H111299   3.027   0.798  15.001 -0.7761  0.1675  0.0628
  765MPD2    H211300   2.841   1.148  14.854 -0.1129  2.0362  1.0799
  765MPD2    H311301   2.952   0.919  14.826  0.6777 -0.0089 -0.3144
  765MPD2     N11302   2.990   0.862  15.269 -0.2139  0.1290  0.1948
  765MPD2    H511303   3.000   0.924  15.349  1.6696 -0.5411  0.4828
  765MPD2    N111304   2.787   1.257  15.085 -0.1831 -0.7655  0.6007
  765MPD2    H711305   2.707   1.276  15.026 -0.0494  3.7075  1.8859
  766MPD2     C11306   2.086   1.353  15.125  0.3258  0.4970 -0.7277
  766MPD2    C111307   2.198   1.351  15.044  0.2205 -0.1119 -0.1560
  766MPD2    C211308   2.192   1.311  14.910 -0.5588 -0.2885 -0.4044
  766MPD2    C311309   2.069   1.276  14.852 -0.3004 -0.7530 -0.2522
  766MPD2    C411310   1.959   1.272  14.931 -0.0983  0.6063  0.0674
  766MPD2    C511311   1.969   1.303  15.065  0.3452  0.2067  0.2525
  766MPD2     H11312   2.288   1.308  14.859 -0.0373  1.9363  0.4461
  766MPD2    H111313   1.860   1.239  14.900  1.0126 -1.9305 -0.7456
  766MPD2    H211314   2.082   1.381  15.230 -0.6144 -1.5379 -0.2376
  766MPD2    H311315   1.877   1.315  15.121  1.4775  1.2145  1.8977
  766MPD2     N11316   2.048   1.236  14.717  0.3094 -0.2916 -0.6230
  766MPD2    H511317   1.962   1.188  14.691 -1.1711  1.3858  1.1419
  766MPD2    N111318   2.323   1.406  15.084  0.0370 -0.3161  0.3404
  766MPD2    H711319   2.403   1.381  15.028  0.0122 -1.6705  0.9083
  767MPD2     C11320   1.736   1.605  14.892  0.6630  0.5168 -0.0846
  767MPD2    C111321   1.853   1.626  14.816 -0.5472  0.4154  0.2442
  767MPD2    C211322   1.857   1.563  14.690  0.5255  0.1292 -0.1776
  767MPD2    C311323   1.755   1.482  14.642 -0.8888  0.3529 -0.0168
  767MPD2    C411324   1.637   1.467  14.720  0.2021  0.0206  1.2580
  767MPD2    C511325   1.633   1.527  14.841 -0.4587  0.0565 -0.1907
  767MPD2     H11326   1.944   1.575  14.627  1.0174 -0.8252  0.3371
  767MPD2    H111327   1.544   1.418  14.693 -0.2449 -0.5526  3.8031
  767MPD2    H211328   1.720   1.646  14.991  0.9514 -0.0220  0.1803
  767MPD2    H311329   1.540   1.502  14.892  0.0150 -1.7942 -0.2548
  767MPD2     N11330   1.774   1.424  14.512 -0.5700  0.1076 -0.0141
  767MPD2    H511331   1.863   1.437  14.464  0.1497  1.8258  1.7910
  767MPD2    N111332   1.963   1.701  14.866 -0.0124  0.3664 -0.4184
  767MPD2    H711333   2.033   1.715  14.794  2.0670  0.1955  1.5703
  768MPD2     C11334   2.810   4.122  10.650  0.1392  0.1755 -0.3006
  768MPD2    C111335   2.784   4.084  10.775  0.3728  0.2430 -0.4377
  768MPD2    C211336   2.880   4.076  10.874  0.9506  0.0368 -0.4390
  768MPD2    C311337   3.003   4.129  10.843 -0.3414 -0.0582  0.3740
  768MPD2    C411338   3.026   4.173  10.715  0.0822 -0.5293  0.1855
  768MPD2    C511339   2.932   4.170  10.621  0.3520 -0.3064 -0.4639
  768MPD2     H11340   2.838   4.038  10.967 -0.9309 -3.2969 -2.6248
  768MPD2    H111341   3.124   4.211  10.688 -0.5529 -0.7130 -2.3417
  768MPD2    H211342   2.730   4.117  10.577 -1.0615 -0.3366  1.0639
  768MPD2    H311343   2.951   4.211  10.523  0.5837  2.8710  0.9001
  768MPD2     N11344   3.105   4.129  10.945  0.0316  0.1791 -0.1848
  768MPD2    H511345   3.187   4.187  10.931  0.5237 -0.3369  0.5602
  768MPD2    N111346   2.649   4.058  10.818  0.1337 -0.0344  0.5209
  768MPD2    H711347   2.630   4.048  10.917  1.1418 -2.1333  0.4819
  769MPD2     C11348   4.184   2.854  14.287 -0.1101  0.8999 -0.6356
  769MPD2    C111349   4.114   2.759  14.354 -0.6866 -0.5644  0.1663
  769MPD2    C211350   4.117   2.758  14.491  0.6802 -1.0442  0.0221
  769MPD2    C311351   4.187   2.846  14.568 -0.4349  0.3695 -0.2655
  769MPD2    C411352   4.270   2.928  14.495 -0.4283  0.5231  0.1438
  769MPD2    C511353   4.266   2.937  14.363  0.3437 -0.2247  0.9546
  769MPD2     H11354   4.040   2.703  14.545  0.2703 -1.0091 -0.5278
  769MPD2    H111355   4.345   2.992  14.542 -0.9728  0.9902  0.3764
  769MPD2    H211356   4.171   2.860  14.179 -0.3595  2.5234 -0.5147
  769MPD2    H311357   4.336   3.001  14.311  0.8548 -2.3316 -0.9801
  769MPD2     N11358   4.166   2.838  14.710  0.0405 -0.4394  0.3920
  769MPD2    H511359   4.088   2.787  14.748 -1.6078  2.4770  0.8961
  769MPD2    N111360   4.024   2.660  14.304  0.4865 -0.1035  0.6426
  769MPD2    H711361   3.985   2.595  14.371  1.3264 -1.0103  0.2524
  770MPD2     C11362   3.630   2.341  14.933  0.8457  0.0636  0.5454
  770MPD2    C111363   3.576   2.240  14.854 -0.1214  0.1739 -0.0876
  770MPD2    C211364   3.592   2.257  14.717  0.5830  0.7958 -1.1038
  770MPD2    C311365   3.658   2.369  14.666  0.3954  0.6564  0.3900
  770MPD2    C411366   3.712   2.467  14.752 -0.9830  1.3055 -0.2058
  770MPD2    C511367   3.686   2.458  14.885 -0.8065 -0.1107  0.1460
  770MPD2     H11368   3.541   2.187  14.652 -0.2480 -0.9687  1.4377
  770MPD2    H111369   3.757   2.562  14.726  1.4299  0.4775  1.0278
  770MPD2    H211370   3.621   2.320  15.039  0.3017  1.1070  0.7082
  770MPD2    H311371   3.734   2.524  14.957 -0.9013  0.8613 -0.6829
  770MPD2     N11372   3.681   2.370  14.530 -0.4274 -0.0663 -0.0590
  770MPD2    H511373   3.645   2.295  14.473 -0.1407 -0.2623  0.0155
  770MPD2    N111374   3.517   2.135  14.925  0.4269 -0.3768  0.1261
  770MPD2    H711375   3.536   2.131  15.025  1.8967 -0.6381 -0.1728
  771MPD2     C11376   4.481   0.425  13.844  0.2914 -0.0507  0.3232
  771MPD2    C111377   4.433   0.548  13.805  0.3827 -0.3310  0.0952
  771MPD2    C211378   4.321   0.559  13.729  0.8289 -0.6227 -0.6707
  771MPD2    C311379   4.260   0.446  13.673 -0.7369  0.2415 -0.2626
  771MPD2    C411380   4.317   0.324  13.698  0.6788 -0.4603  0.1069
  771MPD2    C511381   4.423   0.313  13.786  0.2211  0.6666  0.5099
  771MPD2     H11382   4.284   0.660  13.710  0.2499 -0.8107 -0.5458
  771MPD2    H111383   4.271   0.232  13.664 -0.5264 -0.2329  1.0992
  771MPD2    H211384   4.563   0.415  13.915 -1.2391  2.0476  2.3714
  771MPD2    H311385   4.458   0.214  13.813 -4.1846 -0.7492  1.0679
  771MPD2     N11386   4.148   0.465  13.589  0.2090  0.2017  0.1762
  771MPD2    H511387   4.118   0.561  13.589 -0.9960 -0.1883  0.8402
  771MPD2    N111388   4.493   0.668  13.858 -0.1312 -0.2415  0.3819
  771MPD2    H711389   4.455   0.755  13.821 -0.1706 -0.0894  0.7739
  772MPD2     C11390   4.307   1.250  14.304 -0.2219  0.8406  0.1439
  772MPD2    C111391   4.279   1.182  14.191 -0.0885  0.0620  0.6114
  772MPD2    C211392   4.157   1.175  14.148  0.0481  0.4941  0.0663
  772MPD2    C311393   4.056   1.249  14.209  0.3429  0.4980 -0.4921
  772MPD2    C411394   4.080   1.320  14.322  0.5816  0.4787  0.0637
  772MPD2    C511395   4.213   1.316  14.368  0.2539  1.0268 -0.3935
  772MPD2     H11396   4.136   1.110  14.063 -0.7356 -1.0131  1.4185
  772MPD2    H111397   4.007   1.379  14.377 -0.9104 -0.8581 -0.4728
  772MPD2    H211398   4.406   1.268  14.344 -0.0036  1.2164 -0.5588
  772MPD2    H311399   4.241   1.365  14.461 -4.5571  2.7014  0.1977
  772MPD2     N11400   3.920   1.247  14.162  0.1118 -0.3782 -0.1686
  772MPD2    H511401   3.856   1.303  14.218  1.8411  2.5161 -1.0533
  772MPD2    N111402   4.372   1.109  14.114  0.6133 -0.3067  0.2499
  772MPD2    H711403   4.333   1.069  14.029 -1.1344 -0.9696  1.3807
  773MPD2     C11404   4.004   2.305   0.534 -0.3540  0.5794 -0.6369
  773MPD2    C111405   3.928   2.221   0.449 -0.1888 -0.8757 -0.5233
  773MPD2    C211406   3.936   2.091   0.476  0.0340  0.4261  0.7435
  773MPD2    C311407   3.995   2.032   0.582 -0.4829  0.0860 -0.3633
  773MPD2    C411408   4.061   2.112   0.670 -0.0178  0.2768 -0.0471
  773MPD2    C511409   4.064   2.250   0.645  0.5713 -0.7839 -0.3277
  773MPD2     H11410   3.881   2.023   0.412 -0.8958  0.8039  1.1426
  773MPD2    H111411   4.099   2.077   0.765  0.7115 -1.2200 -0.8722
  773MPD2    H211412   3.998   2.413   0.524 -0.6454  0.5825 -0.4223
  773MPD2    H311413   4.115   2.313   0.718  1.7115 -4.0289  1.6617
  773MPD2     N11414   3.982   1.889   0.595  0.3524 -0.5416 -0.3089
  773MPD2    H511415   3.914   1.842   0.536  0.2448 -1.2731  0.3953
  773MPD2    N111416   3.860   2.256   0.332  0.1756  0.3398 -0.2549
  773MPD2    H711417   3.816   2.176   0.287 -1.8040  1.0268  0.4258
  774MPD2     C11418   2.366   1.106  13.323  0.3205 -0.1717 -0.5917
  774MPD2    C111419   2.479   1.123  13.412 -0.8142  0.4194  0.3611
  774MPD2    C211420   2.560   1.230  13.391  0.0167  0.3850 -0.1578
  774MPD2    C311421   2.536   1.321  13.288 -0.6598  0.3361 -0.1729
  774MPD2    C411422   2.425   1.300  13.205 -0.3710 -0.5969  0.7046
  774MPD2    C511423   2.342   1.200  13.220 -0.1268 -0.8493  0.3989
  774MPD2     H11424   2.644   1.248  13.457  0.4029 -0.4833 -0.4136
  774MPD2    H111425   2.402   1.371  13.127 -1.4959 -2.2603 -0.4790
  774MPD2    H211426   2.295   1.024  13.330 -1.2464  1.2891  0.4229
  774MPD2    H311427   2.258   1.190  13.151  0.3681 -0.5429 -0.2435
  774MPD2     N11428   2.628   1.429  13.265 -0.3134  0.2241  0.7057
  774MPD2    H511429   2.704   1.434  13.332  1.4584  0.6109 -1.3448
  774MPD2    N111430   2.519   1.031  13.509  0.4322 -0.1041 -0.4024
  774MPD2    H711431   2.612   1.048  13.545 -0.0838 -0.8070  1.2650
  775MPD2     C11432   4.414   2.596  15.648  0.0338  0.1981 -0.1530
  775MPD2    C111433   4.337   2.684  15.720 -0.2601  0.2113  0.1109
  775MPD2    C211434   4.373   2.816  15.709  0.1524  0.3664 -0.1561
  775MPD2    C311435   4.487   2.868  15.632  0.6787 -0.1300 -0.2565
  775MPD2    C411436   4.566   2.769  15.570  0.0503  0.3336  0.0722
  775MPD2    C511437   4.524   2.641  15.570  0.0438 -0.0105 -0.0802
  775MPD2     H11438   4.311   2.889  15.761 -2.1455 -1.2811 -0.5924
  775MPD2    H111439   4.655   2.811  15.524 -1.1204  2.0528 -0.6645
  775MPD2    H211440   4.383   2.493  15.640  4.2200 -0.8707 -2.5144
  775MPD2    H311441   4.583   2.565  15.519  0.4807  0.6565 -0.5770
  775MPD2     N11442   4.502   3.003  15.600  0.2289  0.0477  1.0473
  775MPD2    H511443   4.592   3.025  15.556 -0.2929 -0.3023 -0.1951
  775MPD2    N111444   4.218   2.629  15.784 -0.2445 -0.4868 -0.1859
  775MPD2    H711445   4.205   2.528  15.781  1.1337 -0.6994  0.8908
  776MPD2     C11446   3.665   2.456  11.812  0.0623 -0.4344  0.0766
  776MPD2    C111447   3.538   2.480  11.775 -0.9444 -0.3136 -0.2235
  776MPD2    C211448   3.501   2.585  11.691  0.1508 -0.6700  0.0817
  776MPD2    C311449   3.602   2.682  11.659 -0.1947  1.0466  0.1527
  776MPD2    C411450   3.729   2.665  11.705 -0.4601  0.0889  0.3237
  776MPD2    C511451   3.760   2.548  11.776  0.4371 -0.0403  0.3203
  776MPD2     H11452   3.404   2.599  11.645 -0.2154  1.1475  1.4072
  776MPD2    H111453   3.809   2.733  11.681  0.4733 -0.7012  1.1620
  776MPD2    H211454   3.698   2.360  11.849  0.4086 -0.1242  0.5601
  776MPD2    H311455   3.863   2.525  11.800  0.1896 -2.3175 -0.8418
  776MPD2     N11456   3.586   2.799  11.580  0.3991  0.1591 -0.6483
  776MPD2    H511457   3.669   2.855  11.562 -0.1096  1.7398  1.8842
  776MPD2    N111458   3.437   2.387  11.800 -0.1429  0.2072 -0.1779
  776MPD2    H711459   3.350   2.409  11.752 -0.1271  0.8114  0.0784
  777MPD2     C11460   3.742   0.895   0.756  0.2368 -0.3276  0.5169
  777MPD2    C111461   3.661   0.832   0.847 -0.0067  0.0841  0.3552
  777MPD2    C211462   3.627   0.697   0.816  0.6944 -0.2727  0.6967
  777MPD2    C311463   3.657   0.636   0.697  0.2784 -0.5007 -1.1092
  777MPD2    C411464   3.742   0.705   0.609 -0.3592 -0.0391 -0.4927
  777MPD2    C511465   3.783   0.831   0.643  0.2940 -0.4803 -0.6159
  777MPD2     H11466   3.569   0.635   0.884  0.7054 -1.9971 -0.8516
  777MPD2    H111467   3.790   0.660   0.522  0.5599  2.2605 -1.1634
  777MPD2    H211468   3.776   0.997   0.771  0.5156 -0.3369 -0.0475
  777MPD2    H311469   3.841   0.895   0.578  1.0793 -1.7610 -1.1887
  777MPD2     N11470   3.621   0.500   0.687  0.3070  0.4098 -0.2073
  777MPD2    H511471   3.560   0.459   0.757 -0.6735 -1.2344 -2.0098
  777MPD2    N111472   3.624   0.893   0.967 -0.1524  0.3184  0.1975
  777MPD2    H711473   3.668   0.981   0.991  0.3515 -0.0297  0.5544
  778MPD2     C11474   4.501   0.937  15.244  0.0731 -0.1746  0.1412
  778MPD2    C111475   4.526   0.837  15.158  0.4359 -0.4175  0.5133
  778MPD2    C211476   4.626   0.846  15.058 -0.1427  0.2789  0.1803
  778MPD2    C311477   4.702   0.963  15.048 -0.5176 -0.0966 -0.5118
  778MPD2    C411478   4.674   1.063  15.139  0.2014 -0.5650 -0.8374
  778MPD2    C511479   4.579   1.052  15.233 -0.2251 -0.3020  0.0670
  778MPD2     H11480   4.630   0.762  14.991  0.3318  2.6140 -2.7231
  778MPD2    H111481   0.007   1.156  15.150 -3.4539  1.4739 -0.2022
  778MPD2    H211482   4.423   0.940  15.319 -0.7872  2.8403 -0.8724
  778MPD2    H311483   4.564   1.136  15.301  0.1224 -0.6680  0.5972
  778MPD2     N11484   0.071   0.969  14.944  0.3773  0.0520 -0.0176
  778MPD2    H511485   0.077   0.889  14.882 -0.0031  0.1999 -0.2446
  778MPD2    N111486   4.454   0.714  15.169 -0.1414  0.0701  0.0756
  778MPD2    H711487   4.476   0.652  15.091 -0.7867 -1.4918  1.1331
  779MPD2     C11488   4.349   4.259  14.406 -1.2796  0.0007  0.7008
  779MPD2    C111489   4.467   4.263  14.337 -0.1539  0.5498 -0.1846
  779MPD2    C211490   4.509   4.379  14.275  0.2821  0.2524 -0.2945
  779MPD2    C311491   4.451   4.507  14.303  0.0026  0.3170  0.5267
  779MPD2    C411492   4.343   4.505  14.389  0.8043  0.3159  0.3232
  779MPD2    C511493   4.298   4.380  14.437 -0.0464 -0.1025  0.6330
  779MPD2     H11494   4.599   4.374  14.215  1.1388  2.1206  0.8507
  779MPD2    H111495   4.292   4.594  14.425 -2.3796 -0.4222 -2.2955
  779MPD2    H211496   4.308   4.168  14.450 -1.8031  0.1822  0.5910
  779MPD2    H311497   4.208   4.390  14.497 -1.0087  2.3136 -1.2075
  779MPD2     N11498   4.505   4.631  14.257 -0.3844 -0.5631 -1.0025
  779MPD2    H511499   4.587   4.622  14.197  0.5497 -2.3480  0.5444
  779MPD2    N111500   4.541   4.143  14.318  0.4762 -0.3861 -0.5193
  779MPD2    H711501   4.603   4.140  14.238  1.3046 -0.9577  0.1358
  780MPD2     C11502   3.704   4.057   1.219  0.0782 -0.5061  0.5354
  780MPD2    C111503   3.616   4.047   1.116  0.5886  0.2220 -0.5446
  780MPD2    C211504   3.617   4.140   1.014 -0.4315  0.8200 -0.0234
  780MPD2    C311505   3.714   4.233   1.007  0.2507  0.3791  0.2047
  780MPD2    C411506   3.811   4.238   1.107  1.0410 -0.3532 -0.2482
  780MPD2    C511507   3.798   4.155   1.214  0.5786  0.3304  0.0438
  780MPD2     H11508   3.550   4.140   0.929  2.0145  2.8533 -1.9511
  780MPD2    H111509   3.900   4.299   1.104  0.7035 -0.0103 -3.0038
  780MPD2    H211510   3.694   3.991   1.304  1.1678 -0.0241  1.0358
  780MPD2    H311511   3.860   4.174   1.300  0.9990  0.7542 -0.3575
  780MPD2     N11512   3.721   4.315   0.897 -0.3244  0.6018  0.3723
  780MPD2    H511513   3.651   4.304   0.824 -0.8265 -0.2339  0.9808
  780MPD2    N111514   3.533   3.939   1.116 -1.0227  0.6457  0.0934
  780MPD2    H711515   3.562   3.870   1.184  0.1316 -1.3774 -2.4328
  781MPD2     C11516   0.410   1.372  11.924  0.6959 -0.3223 -0.1128
  781MPD2    C111517   0.502   1.341  12.020  0.1646  0.5285  0.1203
  781MPD2    C211518   0.634   1.334  11.977 -0.2417 -0.6498 -0.1325
  781MPD2    C311519   0.671   1.370  11.847 -0.2455 -0.3680 -0.5026
  781MPD2    C411520   0.574   1.401  11.756 -0.0331 -0.4899 -0.0132
  781MPD2    C511521   0.442   1.395  11.793 -0.1484 -0.6390 -0.0661
  781MPD2     H11522   0.715   1.325  12.049 -0.5262  3.1574  0.6636
  781MPD2    H111523   0.609   1.393  11.654 -1.1417  0.5693 -0.4669
  781MPD2    H211524   0.307   1.381  11.958  1.3347  1.2980  1.3616
  781MPD2    H311525   0.361   1.421  11.726 -0.8703 -1.1853  0.6103
  781MPD2     N11526   0.798   1.365  11.798 -0.2215  0.8997 -0.1816
  781MPD2    H511527   0.812   1.359  11.697 -2.3918  0.8817 -0.4887
  781MPD2    N111528   0.477   1.330  12.158 -0.3077  0.3145 -0.1916
  781MPD2    H711529   0.564   1.332  12.212 -1.3158  1.3056  1.4129
  782MPD2     C11530   3.529   2.167  10.469 -0.4846 -0.3041 -0.0834
  782MPD2    C111531   3.554   2.059  10.544 -0.4101 -0.4536 -0.0967
  782MPD2    C211532   3.577   2.073  10.676 -0.5571 -0.5697 -0.4197
  782MPD2    C311533   3.578   2.200  10.736  0.3113 -0.3952  0.0956
  782MPD2    C411534   3.549   2.312  10.657  0.3907  0.5070  0.3564
  782MPD2    C511535   3.529   2.295  10.525  0.2351  0.5392  0.3640
  782MPD2     H11536   3.590   1.985  10.738 -0.5761 -1.6387 -1.9218
  782MPD2    H111537   3.543   2.416  10.685  0.0683  0.7648 -0.6770
  782MPD2    H211538   3.506   2.169  10.363 -1.1803 -0.0430  0.0712
  782MPD2    H311539   3.519   2.381  10.458 -1.4848  1.6363  2.0307
  782MPD2     N11540   3.613   2.203  10.871  0.3986  0.2029 -0.4240
  782MPD2    H511541   3.628   2.111  10.912  0.4378  0.7753  0.8540
  782MPD2    N111542   3.562   1.928  10.488 -0.4227 -0.5791  0.0083
  782MPD2    H711543   3.585   1.851  10.551  0.8133 -0.0032  0.2557
  783MPD2     C11544   3.285   1.246  10.876 -0.0125 -0.2466  0.2469
  783MPD2    C111545   3.252   1.382  10.876 -0.0891  0.3068 -0.4221
  783MPD2    C211546   3.324   1.467  10.790 -0.3376 -0.8966 -0.0247
  783MPD2    C311547   3.417   1.407  10.699  0.1719 -0.0390 -0.0102
  783MPD2    C411548   3.436   1.267  10.699 -0.2164  0.6071 -0.2265
  783MPD2    C511549   3.376   1.193  10.794 -0.2104  0.0884  0.0134
  783MPD2     H11550   3.305   1.574  10.791  0.0610 -0.8391  1.2281
  783MPD2    H111551   3.518   1.226  10.641  0.4995  3.4203 -1.2110
  783MPD2    H211552   3.233   1.170  10.933  0.9014  0.0182  1.4439
  783MPD2    H311553   3.408   1.091  10.811  1.9530  0.3325 -2.5264
  783MPD2     N11554   3.486   1.485  10.602  0.1161  0.3669 -0.7886
  783MPD2    H511555   3.469   1.585  10.605  1.2385  0.5121  0.9689
  783MPD2    N111556   3.150   1.429  10.963  0.3241 -0.0455 -0.6118
  783MPD2    H711557   3.081   1.360  10.991  0.7350 -0.7869 -1.4260
  784MPD2     C11558   1.518   1.803   1.002  0.1615  0.2711  0.3355
  784MPD2    C111559   1.459   1.892   1.087 -0.2637  0.1191 -0.3776
  784MPD2    C211560   1.376   1.985   1.025 -0.6456  0.1034  0.5016
  784MPD2    C311561   1.339   1.971   0.892 -0.1860  0.0233  0.8153
  784MPD2    C411562   1.405   1.880   0.807 -0.5074  0.8856 -0.2209
  784MPD2    C511563   1.500   1.802   0.864  0.4654 -0.1258 -0.0435
  784MPD2     H11564   1.353   2.078   1.077 -0.4105  1.3782 -1.6511
  784MPD2    H111565   1.384   1.874   0.701  3.9917 -0.4976 -1.0301
  784MPD2    H211566   1.603   1.744   1.034 -0.9480 -2.3173 -1.4390
  784MPD2    H311567   1.571   1.744   0.806 -0.5079 -0.2515 -1.1105
  784MPD2     N11568   1.243   2.061   0.849 -0.1533  0.2508  0.2853
  784MPD2    H511569   1.222   2.135   0.915  0.6304 -0.4982  1.3796
  784MPD2    N111570   1.494   1.914   1.221  0.4004  0.0811  0.0739
  784MPD2    H711571   1.467   1.998   1.270 -0.3367 -0.9830  1.5080
  785MPD2     C11572   1.706   0.040  10.272  0.8177  0.3083  1.1501
  785MPD2    C111573   1.607   0.056  10.174 -0.2581  0.6828 -0.9464
  785MPD2    C211574   1.645   0.036  10.043  0.9824  0.2736 -0.6787
  785MPD2    C311575   1.772   4.709  10.004  0.3089 -0.0023 -0.4363
  785MPD2    C411576   1.860   4.680  10.107 -0.1552  0.2067 -0.1483
  785MPD2    C511577   1.826   4.702  10.235  0.7751 -0.1464  0.1301
  785MPD2     H11578   1.574   0.068   9.968 -0.4192  0.5450  0.7506
  785MPD2    H111579   1.964   4.650  10.100  0.0389  0.3064  2.4512
  785MPD2    H211580   1.684   0.051  10.377 -0.2810  1.8158  0.7785
  785MPD2    H311581   1.893   4.681  10.317 -0.1984 -2.4990  0.3133
  785MPD2     N11582   1.801   4.697   9.870 -0.7012  0.4865  0.0116
  785MPD2    H511583   1.734   0.005   9.800  0.6511  3.5540  0.0125
  785MPD2    N111584   1.472   0.111  10.198  0.0996 -0.5854  0.4882
  785MPD2    H711585   1.414   0.123  10.115  0.0146 -0.5196  0.5571
  786MPD2     C11586   4.543   3.681  14.593 -0.3847  0.0759 -0.1210
  786MPD2    C111587   4.671   3.621  14.598  0.1361  0.3745  0.9258
  786MPD2    C211588   0.021   3.619  14.715  0.5265 -0.5663 -0.1593
  786MPD2    C311589   4.693   3.669  14.828  0.4047  0.0708  0.1637
  786MPD2    C411590   4.572   3.734  14.823 -0.9306 -0.0955  0.1651
  786MPD2    C511591   4.500   3.734  14.708  0.1510  1.0436  1.0784
  786MPD2     H11592   0.116   3.567  14.707  0.0564 -1.4442  0.0244
  786MPD2    H111593   4.529   3.769  14.916  1.6590  2.5928  0.3546
  786MPD2    H211594   4.483   3.692  14.504 -0.3100  0.1459 -0.1632
  786MPD2    H311595   4.403   3.781  14.715  0.3971  1.2469  3.1442
  786MPD2     N11596   0.038   3.679  14.955  0.6295 -0.1507 -0.4558
  786MPD2    H511597   4.711   3.720  15.034  0.4001  0.0465 -0.6991
  786MPD2    N111598   0.007   3.559  14.486  0.4883 -0.2215  0.5865
  786MPD2    H711599   0.099   3.523  14.508  0.2837 -0.9541  0.2372
  787MPD2     C11600   0.444   3.193  14.612  0.0489 -0.1576  0.3168
  787MPD2    C111601   0.428   3.155  14.484  0.8733 -0.4960  0.8530
  787MPD2    C211602   0.503   3.051  14.430  0.5156  0.1244 -0.0259
  787MPD2    C311603   0.593   2.992  14.516 -0.4293  0.3253 -0.0689
  787MPD2    C411604   0.597   3.034  14.646 -0.5528  0.3867 -0.3884
  787MPD2    C511605   0.526   3.135  14.693 -0.0948 -0.1178 -0.2083
  787MPD2     H11606   0.496   3.014  14.328  1.9665  0.2144 -0.1483
  787MPD2    H111607   0.660   2.983  14.718 -0.3297  0.2463 -0.6836
  787MPD2    H211608   0.381   3.264  14.664 -2.6291 -0.9284 -1.9075
  787MPD2    H311609   0.533   3.162  14.798 -0.1018  1.1463 -0.5280
  787MPD2     N11610   0.662   2.882  14.468 -0.3984 -0.1957  0.4571
  787MPD2    H511611   0.631   2.845  14.379  1.2582 -0.9669  0.2082
  787MPD2    N111612   0.324   3.217  14.418 -0.6546  0.4674 -0.5041
  787MPD2    H711613   0.292   3.304  14.459  1.8516  0.9695  0.3818
  788MPD2     C11614   1.359   0.994   1.349 -0.0167  0.0155 -0.2614
  788MPD2    C111615   1.414   0.954   1.231  0.4610  0.0961  0.3328
  788MPD2    C211616   1.506   1.033   1.172 -0.1103  0.1732  1.0552
  788MPD2    C311617   1.540   1.161   1.229 -0.4557 -0.4213  0.2938
  788MPD2    C411618   1.498   1.194   1.354 -0.0438  0.8505  0.3187
  788MPD2    C511619   1.409   1.103   1.413 -0.5340 -0.1726 -0.1165
  788MPD2     H11620   1.542   1.004   1.074  1.4729 -0.3036  1.7811
  788MPD2    H111621   1.533   1.282   1.406 -1.1035  2.1516 -1.1932
  788MPD2    H211622   1.278   0.937   1.394  0.7814 -0.7935  0.1333
  788MPD2    H311623   1.378   1.108   1.517 -2.7603  0.1810 -0.7880
  788MPD2     N11624   1.610   1.270   1.167 -0.1091  0.2992 -0.3189
  788MPD2    H511625   1.633   1.347   1.229 -1.0907 -1.2723  2.0290
  788MPD2    N111626   1.373   0.842   1.154 -0.2240 -0.3364 -0.2128
  788MPD2    H711627   1.440   0.807   1.087  0.9197  1.3023  0.0858
  789MPD2     C11628   2.636   1.091  16.710  0.0571  0.4081  0.4935
  789MPD2    C111629   2.536   1.002  16.672 -0.1867 -0.3082 -0.0823
  789MPD2    C211630   2.412   1.052  16.672 -0.0011  0.3272 -0.3219
  789MPD2    C311631   2.382   1.177  16.717  0.0166  0.1254 -0.0520
  789MPD2    C411632   2.487   1.266  16.748  0.6341  0.3380 -0.1470
  789MPD2    C511633   2.609   1.219  16.742  0.2160  0.0485  0.3359
  789MPD2     H11634   2.329   0.991  16.639 -0.7289 -0.4852  2.9304
  789MPD2    H111635   2.473   1.358  16.803  0.5803  0.8587 -1.0301
  789MPD2    H211636   2.740   1.061  16.712  0.2361  0.9974  0.0731
  789MPD2    H311637   2.695   1.276  16.776  1.0897 -0.1075 -1.5876
  789MPD2     N11638   2.252   1.227  16.727  0.0785  0.0406  0.4367
  789MPD2    H511639   2.238   1.327  16.725  0.0825  0.0081 -1.0685
  789MPD2    N111640   2.569   0.874  16.619 -0.3709 -0.0483 -0.1431
  789MPD2    H711641   2.491   0.814  16.596 -0.8204  1.4721 -2.6275
  790MPD2     C11642   3.157   3.818  13.272 -0.8472 -0.8815 -0.1788
  790MPD2    C111643   3.202   3.697  13.308 -0.4009 -0.3136  0.2002
  790MPD2    C211644   3.186   3.585  13.222  0.3460  0.8443  0.7329
  790MPD2    C311645   3.120   3.598  13.099  0.3469  0.0976 -0.5419
  790MPD2    C411646   3.074   3.728  13.060  0.0168  0.4847 -0.0979
  790MPD2    C511647   3.098   3.834  13.145  0.4702  0.1298 -0.3426
  790MPD2     H11648   3.243   3.496  13.244  1.2918  1.9410  2.6735
  790MPD2    H111649   3.037   3.753  12.961 -0.8873 -1.2287 -0.2034
  790MPD2    H211650   3.163   3.903  13.338 -1.6628 -1.7389  1.0148
  790MPD2    H311651   3.055   3.931  13.125 -0.0353  0.2826  1.4509
  790MPD2     N11652   3.116   3.491  13.021  0.4028 -0.1652  0.0754
  790MPD2    H511653   3.164   3.412  13.063 -1.5265 -0.9891  0.7020
  790MPD2    N111654   3.266   3.699  13.435  0.1307  0.1260  0.2055
  790MPD2    H711655   3.259   3.786  13.487  1.2405 -0.0128  0.5865
  791MPD2     C11656   2.570   3.301  12.489 -0.1540 -0.8156  0.0568
  791MPD2    C111657   2.609   3.207  12.576 -0.0283  0.4990  0.4334
  791MPD2    C211658   2.531   3.097  12.589  1.0908 -0.8407  0.0427
  791MPD2    C311659   2.416   3.081  12.514 -0.5373  0.5819  0.8682
  791MPD2    C411660   2.372   3.180  12.434  0.9357 -0.2519 -0.0537
  791MPD2    C511661   2.452   3.286  12.424 -0.8951  0.0968  0.3901
  791MPD2     H11662   2.552   3.020  12.662  3.7069 -0.3174 -0.1859
  791MPD2    H111663   2.283   3.173  12.373  1.2044  0.4517 -0.5237
  791MPD2    H211664   2.622   3.393  12.466 -0.6727 -0.6422 -0.3869
  791MPD2    H311665   2.411   3.362  12.358  0.0529 -0.3845 -0.7552
  791MPD2     N11666   2.355   2.957  12.516 -0.2704 -0.3751 -0.2278
  791MPD2    H511667   2.397   2.894  12.583 -4.1394 -1.0051  1.5988
  791MPD2    N111668   2.734   3.217  12.637  0.0137 -0.3459  0.5026
  791MPD2    H711669   2.798   3.288  12.602 -0.9122  0.3310  0.1767
  792MPD2     C11670   3.669   2.775  11.244  0.2912  0.4076 -0.7789
  792MPD2    C111671   3.598   2.852  11.148  0.0710 -0.5960 -0.0438
  792MPD2    C211672   3.518   2.778  11.058 -1.0226 -0.0764  0.1095
  792MPD2    C311673   3.502   2.643  11.065 -0.0599  0.5976  0.1209
  792MPD2    C411674   3.567   2.576  11.164  0.0015  0.6981 -0.1255
  792MPD2    C511675   3.640   2.640  11.260  0.3223 -0.4714  0.4780
  792MPD2     H11676   3.495   2.831  10.967  1.1472  0.0010 -0.4053
  792MPD2    H111677   3.549   2.469  11.166  1.1201  0.5348  0.9305
  792MPD2    H211678   3.714   2.823  11.331 -1.1889 -1.6520  1.1248
  792MPD2    H311679   3.675   2.587  11.347  0.9447 -2.5053 -1.0206
  792MPD2     N11680   3.420   2.565  10.981 -0.0202 -0.4456 -0.7354
  792MPD2    H511681   3.416   2.466  11.002 -3.3359 -0.4761 -1.5473
  792MPD2    N111682   3.609   2.998  11.134  0.1899  0.6765 -1.0820
  792MPD2    H711683   3.700   3.040  11.151  0.3182  0.4208 -1.1372
  793MPD2     C11684   3.166   2.859  10.059 -0.3136  0.1711  0.7740
  793MPD2    C111685   3.287   2.847  10.124 -0.2496 -0.2958  0.2257
  793MPD2    C211686   3.286   2.768  10.240  0.5053  0.2668  0.1026
  793MPD2    C311687   3.186   2.691  10.287 -0.1995 -0.0126 -0.2887
  793MPD2    C411688   3.067   2.705  10.218 -0.1271 -0.6860 -0.1735
  793MPD2    C511689   3.062   2.785  10.102 -0.1692  0.2048  0.4892
  793MPD2     H11690   3.380   2.769  10.293  0.8940  1.8647 -0.6141
  793MPD2    H111691   2.978   2.646  10.237  0.5229 -1.7147 -0.3123
  793MPD2    H211692   3.149   2.919   9.971  1.9941 -0.4842 -0.1075
  793MPD2    H311693   2.985   2.775  10.026 -2.3562 -0.9542  2.8349
  793MPD2     N11694   3.207   2.616  10.401 -0.5930 -0.6275 -0.1624
  793MPD2    H511695   3.297   2.633  10.446 -0.6042  0.7192 -0.6443
  793MPD2    N111696   3.409   2.903  10.082  0.3398  0.1474 -0.5133
  793MPD2    H711697   3.497   2.885  10.131  0.7093  0.2420 -1.1372
  794MPD2     C11698   3.702   2.845  17.357  0.2981  0.3711 -0.1633
  794MPD2    C111699   3.650   2.711  17.337  0.1600 -0.1366 -0.1337
  794MPD2    C211700   3.566   2.691  17.231  0.3467 -0.1282  0.1483
  794MPD2    C311701   3.541   2.801  17.144  0.2532 -1.1836  0.4306
  794MPD2    C411702   3.587   2.929  17.166  0.2678 -0.0665  0.0681
  794MPD2    C511703   3.667   2.949  17.275 -0.7167  0.2204  0.0252
  794MPD2     H11704   3.518   2.596  17.215 -2.3267  0.9802  1.5970
  794MPD2    H111705   3.570   3.000  17.087 -0.8081 -1.0800 -0.6161
  794MPD2    H211706   3.773   2.872  17.435  0.7089 -2.1863  0.3398
  794MPD2    H311707   3.715   3.045  17.289 -0.1370  0.0262 -0.6213
  794MPD2     N11708   3.460   2.778  17.035 -0.2119  0.2849 -0.1030
  794MPD2    H511709   3.424   2.859  16.985 -0.3042  0.2629 -0.0737
  794MPD2    N111710   3.680   2.607  17.432  0.2213  0.4419 -0.5187
  794MPD2    H711711   3.645   2.514  17.413  2.6393 -0.6902  0.6645
  795MPD2     C11712   0.553   4.531  12.971 -0.2804  0.1038 -0.0354
  795MPD2    C111713   0.506   4.430  13.046  0.1158  0.3192 -0.3156
  795MPD2    C211714   0.598   4.343  13.108  0.5108 -0.3251  0.5273
  795MPD2    C311715   0.731   4.356  13.093  0.8539 -0.1282  0.1743
  795MPD2    C411716   0.779   4.462  13.018  0.2144  0.3249  0.1245
  795MPD2    C511717   0.689   4.546  12.959 -0.0799 -0.4265 -0.2052
  795MPD2     H11718   0.560   4.268  13.176  2.6679 -0.5786  1.4536
  795MPD2    H111719   0.883   4.489  13.004  0.5526 -2.4660 -2.7408
  795MPD2    H211720   0.490   4.604  12.920 -0.7590 -1.0770 -1.1259
  795MPD2    H311721   0.728   4.621  12.891 -0.6724  0.3057  0.2576
  795MPD2     N11722   0.818   4.258  13.154  0.5919 -0.7167  0.2090
  795MPD2    H511723   0.773   4.170  13.178 -1.1550 -0.9775 -3.9790
  795MPD2    N111724   0.369   4.438  13.087  0.1388 -0.1822  0.3900
  795MPD2    H711725   0.354   4.387  13.174 -0.6785 -0.0603  0.3156
  796MPD2     C11726   0.158   1.571  15.736  0.0405 -0.0886  0.8235
  796MPD2    C111727   0.243   1.638  15.826  0.2499  0.0465 -0.2974
  796MPD2    C211728   0.280   1.768  15.810 -0.4050  0.5339 -0.4703
  796MPD2    C311729   0.209   1.846  15.720  0.2730 -0.1451  0.4159
  796MPD2    C411730   0.131   1.783  15.627 -0.2975  0.2383  0.0572
  796MPD2    C511731   0.104   1.648  15.633 -0.2000 -0.4056  0.0287
  796MPD2     H11732   0.349   1.817  15.878 -0.8366  1.0743 -0.4218
  796MPD2    H111733   0.080   1.845  15.554  2.1978  1.3503 -0.7303
  796MPD2    H211734   0.131   1.466  15.748  4.3981 -1.6219 -2.9871
  796MPD2    H311735   0.040   1.591  15.567 -0.2646 -1.8419  1.3240
  796MPD2     N11736   0.228   1.984  15.732  0.1185 -0.4129  0.4419
  796MPD2    H511737   0.299   2.014  15.798  1.2771 -1.7267 -0.2018
  796MPD2    N111738   0.286   1.554  15.930  0.6684  0.4182 -0.1499
  796MPD2    H711739   0.246   1.461  15.937  2.2519 -0.1387  1.5326
  797MPD2     C11740   1.087   0.951  17.191  0.6600 -0.6762  0.5483
  797MPD2    C111741   1.208   0.929  17.151 -0.0416 -0.5278  0.0865
  797MPD2    C211742   1.235   0.942  17.020  0.1360  0.5307 -0.0396
  797MPD2    C311743   1.150   1.004  16.927  0.1605  0.0146 -0.2617
  797MPD2    C411744   1.023   1.023  16.970 -0.2042  0.6283 -0.0198
  797MPD2    C511745   0.995   1.001  17.099  0.4037  0.4452 -0.0291
  797MPD2     H11746   1.334   0.904  16.995 -0.5350 -0.2845 -1.4525
  797MPD2    H111747   0.943   1.075  16.919 -0.0237 -0.4911 -1.4417
  797MPD2    H211748   1.064   0.928  17.294  1.0597 -0.9461  0.5731
  797MPD2    H311749   0.894   1.025  17.129  1.1471  2.9638  0.5252
  797MPD2     N11750   1.193   1.029  16.794 -0.4315  0.2548  0.2183
  797MPD2    H511751   1.127   1.077  16.733 -0.7689  0.0035  0.3828
  797MPD2    N111752   1.302   0.854  17.221 -0.1119 -0.2094  0.1924
  797MPD2    H711753   1.377   0.820  17.162 -0.0009 -2.3495  1.5852
  798MPD2     C11754   1.816   0.727  16.702  0.6910  0.3510  0.3147
  798MPD2    C111755   1.691   0.769  16.725 -0.5771  0.2910  1.0170
  798MPD2    C211756   1.633   0.745  16.851 -0.2118 -0.2831 -0.2822
  798MPD2    C311757   1.703   0.668  16.944 -0.3357  0.5639 -0.8793
  798MPD2    C411758   1.825   0.627  16.917  0.5306 -0.6500  0.3085
  798MPD2    C511759   1.884   0.658  16.794 -0.5735 -0.3553 -0.6479
  798MPD2     H11760   1.537   0.782  16.884 -1.4838 -1.5820 -2.5442
  798MPD2    H111761   1.880   0.576  16.996 -0.3150 -1.3846  0.4177
  798MPD2    H211762   1.867   0.747  16.609 -2.9646  1.1177 -1.5326
  798MPD2    H311763   1.983   0.616  16.786 -0.4313 -0.1798  0.1846
  798MPD2     N11764   1.635   0.637  17.060 -0.0321  0.2587  0.2501
  798MPD2    H511765   1.535   0.656  17.063 -0.4456 -1.7002 -1.3021
  798MPD2    N111766   1.616   0.859  16.644  0.5516  0.8480  0.3687
  798MPD2    H711767   1.539   0.901  16.694 -0.2686  0.8939 -0.9349
  799MPD2     C11768   0.463   2.364  15.124 -0.8068 -0.3708  0.6683
  799MPD2    C111769   0.466   2.270  15.028  0.3899  0.1421 -0.0008
  799MPD2    C211770   0.388   2.292  14.915  0.4167 -0.6416  0.2842
  799MPD2    C311771   0.327   2.413  14.895 -0.2140 -0.3310  0.1575
  799MPD2    C411772   0.332   2.510  14.999  0.0268  0.7771  0.2366
  799MPD2    C511773   0.398   2.483  15.114  0.8157 -0.8196  0.3010
  799MPD2     H11774   0.385   2.227  14.828 -0.0918  2.5492 -2.0820
  799MPD2    H111775   0.282   2.606  14.988 -0.4847  0.6061  1.0736
  799MPD2    H211776   0.522   2.353  15.215 -0.0687 -0.6366  0.1552
  799MPD2    H311777   0.418   2.554  15.194 -1.8901 -0.1661  0.3963
  799MPD2     N11778   0.253   2.454  14.782  0.5342 -0.2007  0.2152
  799MPD2    H511779   0.222   2.551  14.779  0.1935 -0.3876 -1.8847
  799MPD2    N111780   0.546   2.150  15.034 -0.0672 -0.2190 -0.4041
  799MPD2    H711781   0.548   2.089  14.952 -1.9194 -0.6338 -0.1397
  800MPD2     C11782   0.568   2.699  13.380 -0.0033  0.4905  0.9262
  800MPD2    C111783   0.665   2.796  13.395  0.1251 -0.1459 -0.5165
  800MPD2    C211784   0.715   2.858  13.281  0.4115 -0.5288  0.4064
  800MPD2    C311785   0.688   2.810  13.150  0.4001  0.4674 -1.0491
  800MPD2    C411786   0.604   2.697  13.142  0.9507  0.5976 -0.3479
  800MPD2    C511787   0.527   2.659  13.253 -0.3979 -0.0959 -0.2896
  800MPD2     H11788   0.784   2.941  13.293  0.9634 -1.3552  2.9142
  800MPD2    H111789   0.571   2.658  13.047  0.7669 -0.0399 -0.0189
  800MPD2    H211790   0.529   2.636  13.458 -0.5243  0.6625  0.8063
  800MPD2    H311791   0.460   2.575  13.236 -0.3202 -0.5014  1.3309
  800MPD2     N11792   0.750   2.886  13.049 -0.1665  0.1388 -1.0925
  800MPD2    H511793   0.801   2.968  13.082 -0.7350 -0.3019  0.8726
  800MPD2    N111794   0.706   2.840  13.519 -0.2903  0.4931 -0.7315
  800MPD2    H711795   0.772   2.918  13.521  0.0847  0.1229  1.6925
  801MPD2     C11796   0.404   3.323  14.047 -0.4325  0.2290  0.6094
  801MPD2    C111797   0.520   3.286  14.101 -0.0827  0.4067 -0.4239
  801MPD2    C211798   0.569   3.355  14.212 -0.3819 -0.0259  0.1431
  801MPD2    C311799   0.501   3.468  14.258 -0.5974 -0.0221  0.0384
  801MPD2    C411800   0.383   3.503  14.203  0.4597  0.1890 -0.0435
  801MPD2    C511801   0.341   3.433  14.092 -0.1661 -0.4272 -0.0899
  801MPD2     H11802   0.669   3.326  14.242  0.4713  0.7967 -1.9044
  801MPD2    H111803   0.334   3.599  14.221 -1.4610 -1.0475  1.2863
  801MPD2    H211804   0.361   3.275  13.960 -1.9824 -0.3828  1.7181
  801MPD2    H311805   0.252   3.470  14.042 -0.6889  0.4793  1.5009
  801MPD2     N11806   0.553   3.559  14.345  0.7695 -0.2495  0.6689
  801MPD2    H511807   0.497   3.642  14.365 -0.5788 -1.0533  0.2451
  801MPD2    N111808   0.593   3.171  14.070  0.4777  0.1030 -0.2437
  801MPD2    H711809   0.685   3.168  14.112  0.2260 -0.7716  0.2560
  802MPD2     C11810   4.376   0.010  17.103 -0.1363 -0.0641  0.5442
  802MPD2    C111811   4.438   0.105  17.179 -0.7229 -0.5947 -0.4855
  802MPD2    C211812   4.573   0.120  17.183 -0.1721 -0.0487 -1.0201
  802MPD2    C311813   4.657   0.022  17.134 -0.1888 -0.0495 -0.3709
  802MPD2    C411814   4.593   4.648  17.063 -0.0733  0.8514 -0.9431
  802MPD2    C511815   4.458   4.650  17.036  0.0106  0.1616  0.4537
  802MPD2     H11816   4.614   0.204  17.238  0.3331  0.2986 -1.9195
  802MPD2    H111817   4.651   4.571  17.012 -1.5702 -1.3022  0.6566
  802MPD2    H211818   4.269   0.014  17.088 -0.0167  0.9839 -0.0680
  802MPD2    H311819   4.416   4.581  16.963  1.0142  1.9633 -1.8055
  802MPD2     N11820   0.073   0.016  17.163  0.0879 -0.4824 -1.0327
  802MPD2    H511821   0.135   4.686  17.101  0.2115 -0.1560 -1.1803
  802MPD2    N111822   4.373   0.206  17.249  0.3118 -0.1504  0.0774
  802MPD2    H711823   4.432   0.281  17.284 -2.8544  3.4316 -2.3273
  803MPD2     C11824   1.283   3.060  11.517 -0.0260  0.0746  0.0201
  803MPD2    C111825   1.363   3.031  11.627  0.4574  0.2194 -0.3995
  803MPD2    C211826   1.323   2.932  11.712  0.1058  0.8227 -0.3829
  803MPD2    C311827   1.209   2.857  11.682 -0.2449 -0.1782  0.3083
  803MPD2    C411828   1.134   2.885  11.571  0.1340 -0.1827  0.8699
  803MPD2    C511829   1.171   2.991  11.500 -0.9375 -0.8433  0.5280
  803MPD2     H11830   1.383   2.926  11.803  1.3144 -0.2792 -1.2472
  803MPD2    H111831   1.056   2.820  11.535  1.7871 -1.7801  0.1628
  803MPD2    H211832   1.308   3.146  11.455  0.7634  0.1851  0.4910
  803MPD2    H311833   1.130   3.009  11.401  1.5786  1.6809 -0.0605
  803MPD2     N11834   1.164   2.739  11.754 -0.2690 -0.3399  0.2165
  803MPD2    H511835   1.089   2.686  11.712  1.0235 -1.9422 -0.1062
  803MPD2    N111836   1.474   3.112  11.665 -0.1238 -0.6601 -0.1085
  803MPD2    H711837   1.510   3.088  11.757 -0.0228 -2.5885 -0.6405
  804MPD2     C11838   0.570   3.954  16.786 -0.0927  0.7952 -0.7650
  804MPD2    C111839   0.624   3.934  16.905  0.8289 -0.4533  1.1912
  804MPD2    C211840   0.685   4.041  16.971 -0.4514 -0.7316  0.4225
  804MPD2    C311841   0.692   4.159  16.909  0.2273  0.1176  0.4441
  804MPD2    C411842   0.635   4.176  16.787  0.1259  0.8456  0.2002
  804MPD2    C511843   0.573   4.071  16.721 -0.5713 -0.4959  0.4205
  804MPD2     H11844   0.738   4.020  17.064  0.9560 -1.0043 -0.4467
  804MPD2    H111845   0.639   4.268  16.729  0.9464  0.6775 -0.0045
  804MPD2    H211846   0.516   3.879  16.729 -0.0724 -1.1203  1.7438
  804MPD2    H311847   0.520   4.089  16.628  1.4975  0.7364 -0.5195
  804MPD2     N11848   0.781   4.264  16.964  0.0413  0.2367  0.3013
  804MPD2    H511849   0.832   4.240  17.049 -1.3798 -0.5640  0.9412
  804MPD2    N111850   0.602   3.817  16.977  0.3339 -0.6086 -0.6211
  804MPD2    H711851   0.638   3.803  17.070 -0.8611 -0.8478 -0.1919
  805MPD2     C11852   0.217   2.651  15.524  0.0908 -0.6132  0.1602
  805MPD2    C111853   0.270   2.533  15.477 -0.2269  0.3478  0.3447
  805MPD2    C211854   0.402   2.500  15.518 -0.1014 -0.3037 -0.4577
  805MPD2    C311855   0.464   2.569  15.619 -0.8376  0.4187  0.4961
  805MPD2    C411856   0.409   2.692  15.658 -0.2915  0.3942 -0.2359
  805MPD2    C511857   0.290   2.730  15.607  0.1596  0.0306  0.6490
  805MPD2     H11858   0.443   2.412  15.470  1.3449 -0.4427  1.0401
  805MPD2    H111859   0.456   2.755  15.733 -0.2536 -2.3086  1.9937
  805MPD2    H211860   0.119   2.676  15.486  0.9343  2.3428 -0.0045
  805MPD2    H311861   0.253   2.825  15.644 -4.1632 -0.8687 -1.2972
  805MPD2     N11862   0.583   2.516  15.674  0.1738  0.3228 -0.1528
  805MPD2    H511863   0.613   2.433  15.623 -0.5716  0.8110 -1.4008
  805MPD2    N111864   0.214   2.443  15.383  0.4514 -0.3307 -0.4630
  805MPD2    H711865   0.283   2.373  15.358  2.7276  2.1163 -1.0347
  806MPD2     C11866   0.839   1.951   0.611 -0.2673  0.5695 -0.3317
  806MPD2    C111867   0.761   2.037   0.686 -0.5978  0.6607  0.1357
  806MPD2    C211868   0.709   2.146   0.617 -0.4798  0.2080 -0.1406
  806MPD2    C311869   0.735   2.174   0.483  0.0496 -0.1857  0.0487
  806MPD2    C411870   0.810   2.086   0.413 -0.4361  0.4453 -0.2673
  806MPD2    C511871   0.866   1.971   0.479  0.6332  0.0435  0.5897
  806MPD2     H11872   0.645   2.211   0.677  0.2287 -1.9609  2.9600
  806MPD2    H111873   0.840   2.098   0.310 -1.8842 -0.7148 -0.8260
  806MPD2    H211874   0.893   1.863   0.644  1.0469  0.6470 -2.2455
  806MPD2    H311875   0.922   1.897   0.423  1.9531  0.6793  1.0570
  806MPD2     N11876   0.681   2.295   0.425 -0.8042  0.4417  0.1965
  806MPD2    H511877   0.632   2.357   0.489  0.9187 -0.0033  1.9240
  806MPD2    N111878   0.734   2.030   0.823  0.1552 -0.2092 -0.0185
  806MPD2    H711879   0.688   2.109   0.867  1.1308  0.9873 -1.1486
  807MPD2     C11880   0.350   1.627   1.358 -0.0451  0.2457  0.1638
  807MPD2    C111881   0.490   1.593   1.353 -0.3248  1.2061  0.8469
  807MPD2    C211882   0.520   1.459   1.366  0.6057 -0.4326  0.2062
  807MPD2    C311883   0.424   1.373   1.417  0.0379  0.3764  0.2518
  807MPD2    C411884   0.287   1.409   1.414  0.1245 -0.6280 -0.0562
  807MPD2    C511885   0.255   1.540   1.384  0.2035 -0.3095 -0.6864
  807MPD2     H11886   0.624   1.426   1.363  1.8482  3.4849  0.4788
  807MPD2    H111887   0.204   1.342   1.437 -1.9822  1.4728 -1.5982
  807MPD2    H211888   0.317   1.730   1.351 -1.4902 -0.1124  1.6883
  807MPD2    H311889   0.153   1.572   1.405  0.3512  0.2747 -0.8508
  807MPD2     N11890   0.470   1.254   1.472 -0.0982  0.5616  0.0090
  807MPD2    H511891   0.569   1.241   1.454 -0.3134 -0.0186 -0.7829
  807MPD2    N111892   0.594   1.692   1.319 -0.3507 -0.6854  0.1663
  807MPD2    H711893   0.691   1.660   1.319 -1.0674 -2.8609 -0.0575
  808MPD2     C11894   0.449   3.249   9.291 -0.5672 -0.0821 -0.3662
  808MPD2    C111895   0.570   3.219   9.356 -0.4152 -0.1744 -0.2151
  808MPD2    C211896   0.678   3.298   9.333 -0.2298 -0.4230  0.2789
  808MPD2    C311897   0.668   3.411   9.256 -0.7571 -0.0670  0.3051
  808MPD2    C411898   0.547   3.441   9.193  0.0008 -0.0257  0.2176
  808MPD2    C511899   0.447   3.349   9.200 -0.2669 -0.4009 -0.2822
  808MPD2     H11900   0.775   3.269   9.372  0.1712  0.2576 -0.1953
  808MPD2    H111901   0.534   3.524   9.125 -1.6712 -1.7258 -1.5482
  808MPD2    H211902   0.355   3.197   9.306 -0.8220  0.1544 -1.1474
  808MPD2    H311903   0.353   3.369   9.150 -1.3717 -1.3181  1.4550
  808MPD2     N11904   0.783   3.492   9.231  0.0759  0.5029  0.4115
  808MPD2    H511905   0.779   3.586   9.194 -0.1321  1.2613  2.3374
  808MPD2    N111906   0.583   3.115   9.451  0.8236  0.2472  0.2141
  808MPD2    H711907   0.666   3.111   9.509 -0.0565 -0.6526  1.4166
  809MPD2     C11908   1.897   3.505   9.085  0.6536 -1.0703 -0.1225
  809MPD2    C111909   1.815   3.396   9.117 -0.7072  1.1877 -0.0008
  809MPD2    C211910   1.679   3.413   9.134 -0.1394 -0.1326  0.9563
  809MPD2    C311911   1.629   3.540   9.122 -0.3544  0.0677 -0.1662
  809MPD2    C411912   1.711   3.649   9.098 -0.0891 -0.1583  0.3028
  809MPD2    C511913   1.848   3.632   9.088  0.3119 -0.2526 -0.4068
  809MPD2     H11914   1.622   3.324   9.157 -0.9256  0.4027  1.0945
  809MPD2    H111915   1.661   3.745   9.103  2.5161  1.3352 -2.1827
  809MPD2    H211916   2.005   3.499   9.074  0.8430  2.9583 -0.7829
  809MPD2    H311917   1.916   3.710   9.059  0.7824 -1.0939 -1.5482
  809MPD2     N11918   1.488   3.577   9.135 -0.0505  0.2530  0.2776
  809MPD2    H511919   1.455   3.669   9.109  0.6812 -0.5973 -3.6040
  809MPD2    N111920   1.863   3.261   9.124  0.0905 -0.6330  0.4635
  809MPD2    H711921   1.794   3.189   9.139  1.1098 -2.2325 -2.5008
  810MPD2     C11922   0.628   3.094  10.595  0.3639  1.2501 -0.1054
  810MPD2    C111923   0.623   2.953  10.602  0.0772 -0.2524  0.5263
  810MPD2    C211924   0.633   2.889  10.725 -0.4135  0.3578  0.7298
  810MPD2    C311925   0.646   2.963  10.841 -0.1040 -0.0546 -0.5864
  810MPD2    C411926   0.653   3.103  10.828 -0.7390  0.0530 -0.6334
  810MPD2    C511927   0.646   3.165  10.709  0.1441 -0.4874 -0.9420
  810MPD2     H11928   0.606   2.784  10.728  0.1058  0.2240  0.6610
  810MPD2    H111929   0.672   3.165  10.915 -2.2019 -0.6112  0.1538
  810MPD2    H211930   0.609   3.143  10.500  1.0110 -0.2487 -1.0180
  810MPD2    H311931   0.663   3.272  10.705  2.6741 -1.0375 -4.9877
  810MPD2     N11932   0.637   2.917  10.973  0.0521  0.6694  0.3283
  810MPD2    H511933   0.603   2.984  11.041  1.0903 -0.4188  1.8954
  810MPD2    N111934   0.601   2.886  10.479  0.0659 -0.2813 -0.0941
  810MPD2    H711935   0.615   2.947  10.399 -2.9905  1.9046  1.0166
  811MPD2     C11936   0.160   2.748   9.742 -0.2279  0.4276  0.4732
  811MPD2    C111937   0.215   2.824   9.842 -0.7801  0.3439 -0.4815
  811MPD2    C211938   0.218   2.959   9.832  0.4738  0.1421 -0.5191
  811MPD2    C311939   0.168   3.025   9.718 -1.1746  0.0906 -0.1720
  811MPD2    C411940   0.114   2.948   9.614 -0.4685 -0.1712 -0.2899
  811MPD2    C511941   0.109   2.812   9.630 -0.3118 -0.4173  0.4450
  811MPD2     H11942   0.244   3.029   9.909 -1.4512  0.9352 -0.5730
  811MPD2    H111943   0.069   2.986   9.523 -1.6990 -1.3352 -0.1578
  811MPD2    H211944   0.161   2.640   9.748 -0.6333  0.6045  3.6439
  811MPD2    H311945   0.058   2.758   9.551 -0.8265 -0.4959  0.8364
  811MPD2     N11946   0.172   3.166   9.711 -0.0301 -0.1518 -0.2804
  811MPD2    H511947   0.172   3.216   9.799 -0.8995 -0.1809 -0.2596
  811MPD2    N111948   0.277   2.758   9.951 -0.3668  0.1050  0.5274
  811MPD2    H711949   0.271   2.656   9.955  1.5784 -0.0500 -0.7134
  812MPD2     C11950   4.279   2.719  12.203 -0.2222 -0.2479 -0.5152
  812MPD2    C111951   4.172   2.773  12.257  0.1432 -0.1093 -0.9800
  812MPD2    C211952   4.110   2.697  12.351 -0.3156 -0.3153  0.5487
  812MPD2    C311953   4.154   2.573  12.387 -0.2777  0.4418 -1.1039
  812MPD2    C411954   4.284   2.534  12.345 -0.0572  0.2220  0.2809
  812MPD2    C511955   4.335   2.602  12.243 -0.3109  0.1901  0.6555
  812MPD2     H11956   4.008   2.728  12.370 -0.2434  0.1787  0.1264
  812MPD2    H111957   4.322   2.436  12.371 -0.2712  0.0307 -0.1414
  812MPD2    H211958   4.324   2.766  12.116 -0.6190  0.0181 -0.5774
  812MPD2    H311959   4.414   2.552  12.188  1.6146  3.8688  0.0519
  812MPD2     N11960   4.076   2.495  12.479 -0.3266 -0.0780  0.1980
  812MPD2    H511961   3.988   2.540  12.504  0.0193  0.9277 -0.3909
  812MPD2    N111962   4.131   2.896  12.193 -0.0654  0.2502 -0.3411
  812MPD2    H711963   4.189   2.933  12.118 -0.4918  0.8430 -0.3783
  813MPD2     C11964   2.889   0.171  12.661  0.3255 -0.9450 -0.0964
  813MPD2    C111965   3.004   0.148  12.736 -0.1767  0.0206 -0.2321
  813MPD2    C211966   2.983   0.070  12.851 -0.5707 -0.3541  0.1979
  813MPD2    C311967   2.863   0.006  12.882  0.1692  0.2054 -0.0744
  813MPD2    C411968   2.751   0.035  12.803  0.0662  0.5363  0.5182
  813MPD2    C511969   2.766   0.118  12.697 -0.6909 -0.2973 -0.4169
  813MPD2     H11970   3.071   0.064  12.914 -0.8822  0.4488  0.7008
  813MPD2    H111971   2.650   4.717  12.813  0.7266 -1.2961 -0.1157
  813MPD2    H211972   2.893   0.246  12.583 -1.0012  1.1551  1.8617
  813MPD2    H311973   2.682   0.143  12.633 -0.2740  1.7230 -0.1924
  813MPD2     N11974   2.856   4.649  13.001  0.3451  0.0905 -0.3922
  813MPD2    H511975   2.935   4.655  13.064  0.6361  0.2115 -0.7659
  813MPD2    N111976   3.133   0.203  12.727  0.0235 -0.1867 -0.5666
  813MPD2    H711977   3.200   0.156  12.786 -0.7965 -2.0764 -1.1402
  814MPD2     C11978   3.037   1.269  12.513 -1.2269 -0.0533 -0.4430
  814MPD2    C111979   3.134   1.241  12.419  0.2365 -0.7257  0.0754
  814MPD2    C211980   3.255   1.301  12.423  0.0153 -0.2446 -0.4600
  814MPD2    C311981   3.276   1.410  12.510  0.2223  0.3986 -0.2977
  814MPD2    C411982   3.176   1.438  12.605 -0.4431  0.2019 -0.3094
  814MPD2    C511983   3.058   1.367  12.608  0.0892 -1.3123  0.0700
  814MPD2     H11984   3.337   1.265  12.362 -1.4304 -2.3275 -1.1934
  814MPD2    H111985   3.190   1.526  12.665 -0.0532  0.8646 -1.3700
  814MPD2    H211986   2.932   1.241  12.505 -1.2389  0.0143 -0.5247
  814MPD2    H311987   2.967   1.401  12.657  1.2492  0.2330  1.1712
  814MPD2     N11988   3.399   1.485  12.506  0.0486  0.4408  0.0727
  814MPD2    H511989   3.406   1.572  12.558  0.9544  0.3121  0.1632
  814MPD2    N111990   3.110   1.147  12.316 -0.1964 -0.1687 -0.5054
  814MPD2    H711991   3.168   1.146  12.233  1.0054 -0.8816  0.3422
  815MPD2     C11992   4.039   4.664  11.905  0.2779  0.0695 -0.2205
  815MPD2    C111993   3.970   4.599  11.803  0.3257 -0.0735 -0.4479
  815MPD2    C211994   3.834   4.590  11.817  0.6721 -0.1594  0.1946
  815MPD2    C311995   3.765   4.646  11.919 -0.4414 -0.0402  0.1176
  815MPD2    C411996   3.834   4.717  12.016 -0.4722  0.0823 -0.1854
  815MPD2    C511997   3.973   0.000  12.009  0.0843 -0.4299  0.3663
  815MPD2     H11998   3.789   4.534  11.737 -0.1421  1.4440 -0.4698
  815MPD2    H111999   3.791   0.035  12.107 -0.2673  0.0972 -0.0950
  815MPD2    H212000   4.147   4.654  11.902  0.1750 -1.1014 -0.1733
  815MPD2    H312001   4.032   0.035  12.093  2.0360 -0.4593 -0.9946
  815MPD2     N12002   3.626   4.611  11.928 -0.0473  0.1866 -0.1029
  815MPD2    H512003   3.591   4.541  11.864 -2.0288  0.6436  0.4618
  815MPD2    N112004   4.044   4.551  11.694  0.8291  0.4559 -0.4656
  815MPD2    H712005   4.145   4.548  11.702  0.6334 -1.0142  1.6179
  816MPD2     C12006   4.096   3.665  16.813  0.0981  0.1663  0.4285
  816MPD2    C112007   4.146   3.740  16.919 -0.3200 -0.4455 -0.9961
  816MPD2    C212008   4.279   3.739  16.943  0.2489  0.4279 -0.2328
  816MPD2    C312009   4.365   3.678  16.857  0.1125 -0.3952  0.1705
  816MPD2    C412010   4.318   3.590  16.763  0.5778 -1.3549 -0.7130
  816MPD2    C512011   4.181   3.581  16.743  0.9112 -0.0694 -0.4020
  816MPD2     H12012   4.326   3.807  17.014 -1.1939  0.5217  0.6395
  816MPD2    H112013   4.382   3.528  16.701  5.4878  2.5636  0.4281
  816MPD2    H212014   3.994   3.658  16.778  0.2830  0.9669 -0.2667
  816MPD2    H312015   4.129   3.520  16.670 -1.1318 -0.0687  1.0528
  816MPD2     N12016   4.499   3.719  16.855  1.0268  0.4214 -0.0262
  816MPD2    H512017   4.520   3.801  16.911  0.0907 -0.3763  1.4828
  816MPD2    N112018   4.054   3.811  16.991  0.0125  0.2618 -0.3211
  816MPD2    H712019   3.959   3.814  16.954 -0.7757  0.4856  1.7109
  817MPD2     C12020   3.679   0.432  10.147 -0.5639 -0.0331  0.5575
  817MPD2    C112021   3.758   0.442  10.038  0.0616 -0.0725 -0.7193
  817MPD2    C212022   3.780   0.569   9.991 -0.8164 -0.3304  0.1069
  817MPD2    C312023   3.706   0.678  10.019 -0.4401  0.1058 -0.3360
  817MPD2    C412024   3.615   0.661  10.113  0.8125  0.2020 -0.5072
  817MPD2    C512025   3.613   0.549  10.187  0.2481 -0.2808 -0.1654
  817MPD2     H12026   3.854   0.575   9.912 -1.0220  1.8771  0.0953
  817MPD2    H112027   3.557   0.741  10.156 -2.9422 -3.0613  0.5357
  817MPD2    H212028   3.657   0.335  10.191 -1.4715 -0.5536 -1.0446
  817MPD2    H312029   3.551   0.534  10.275 -0.4044 -3.3932 -1.1315
  817MPD2     N12030   3.715   0.796   9.943  0.3566 -0.1940  0.4475
  817MPD2    H512031   3.788   0.788   9.873 -1.8467 -2.0560 -1.6462
  817MPD2    N112032   3.830   0.336   9.969 -0.7126 -0.2965  0.4143
  817MPD2    H712033   3.872   0.354   9.879 -0.1934 -1.2362  0.4675
  818MPD2     C12034   2.470   0.195   9.813  0.4548  0.1610 -0.0233
  818MPD2    C112035   2.495   0.113   9.921  0.1472 -0.7064 -0.2927
  818MPD2    C212036   2.572   0.001   9.902  0.3389 -0.9100 -0.6279
  818MPD2    C312037   2.620   4.695   9.775 -0.3618 -0.0473  0.6135
  818MPD2    C412038   2.592   0.061   9.670 -0.4850  0.0137 -0.6273
  818MPD2    C512039   2.525   0.178   9.691 -0.2173 -0.0709  0.3291
  818MPD2     H12040   2.596   4.659   9.986  1.4785  2.6042  1.6766
  818MPD2    H112041   2.645   0.046   9.576 -0.4118 -1.7060 -0.3167
  818MPD2    H212042   2.415   0.288   9.824  1.1307  0.5851 -0.1895
  818MPD2    H312043   2.508   0.248   9.610 -2.7130  0.3397  1.2152
  818MPD2     N12044   2.698   4.581   9.746 -0.1078 -0.6819  0.1528
  818MPD2    H512045   2.716   4.560   9.648  0.3720 -2.3166  0.5860
  818MPD2    N112046   2.438   0.139  10.049 -0.5639  0.0559 -0.2288
  818MPD2    H712047   2.446   0.061  10.113  1.3574  0.8816  0.5077
  819MPD2     C12048   0.714   1.936  15.876 -0.3543  0.3849  0.0501
  819MPD2    C112049   0.775   1.814  15.862  0.5406  0.4191 -0.3022
  819MPD2    C212050   0.909   1.800  15.898  0.0275 -0.2821 -0.1810
  819MPD2    C312051   0.983   1.913  15.930  0.3444  0.6256 -0.2612
  819MPD2    C412052   0.917   2.028  15.960 -0.4268 -0.1995  0.2854
  819MPD2    C512053   0.785   2.043  15.930 -0.2764 -0.5680 -0.1943
  819MPD2     H12054   0.971   1.712  15.880  2.0905  1.1029  0.1175
  819MPD2    H112055   0.964   2.110  16.013 -1.7412  0.7653 -0.0265
  819MPD2    H212056   0.611   1.942  15.843 -0.4492  0.7847  0.4206
  819MPD2    H312057   0.743   2.142  15.943 -1.4005 -1.1084  0.3260
  819MPD2     N12058   1.123   1.902  15.945 -0.1245 -0.5301 -0.0371
  819MPD2    H512059   1.166   1.811  15.934  1.8412 -0.0546  3.5571
  819MPD2    N112060   0.693   1.712  15.812  0.1242 -0.0766  0.5763
  819MPD2    H712061   0.597   1.744  15.798 -0.1101 -0.7769  0.6125
  820MPD2     C12062   0.039   1.679  15.106  0.4657 -0.4698  0.1272
  820MPD2    C112063   0.119   1.765  15.173  0.0417  0.2149 -0.1399
  820MPD2    C212064   0.202   1.719  15.272 -0.6358  0.0683 -0.5073
  820MPD2    C312065   0.198   1.582  15.301  0.5645  0.9175 -0.1247
  820MPD2    C412066   0.122   1.500  15.226  0.6160 -0.1918 -0.5468
  820MPD2    C512067   0.037   1.553  15.133 -0.5263  0.1192  0.3116
  820MPD2     H12068   0.253   1.788  15.338  0.3425 -0.9312 -0.2043
  820MPD2    H112069   0.129   1.392  15.234  1.2842 -0.1008  0.0899
  820MPD2    H212070   4.694   1.712  15.027  0.6570  1.2215  0.6761
  820MPD2    H312071   4.689   1.489  15.081 -1.0128  1.3007 -0.5055
  820MPD2     N12072   0.294   1.522  15.393 -0.3329  0.5860 -0.8747
  820MPD2    H512073   0.292   1.420  15.393  3.1603  0.5406 -0.6927
  820MPD2    N112074   0.121   1.904  15.135 -0.2998  0.6980  0.0349
  820MPD2    H712075   0.047   1.930  15.070  0.5738  2.1771 -0.3564
  821MPD2     C12076   0.524   3.444  12.509 -0.4281  0.6719 -0.0742
  821MPD2    C112077   0.599   3.465  12.625  0.5300  0.1194  0.2327
  821MPD2    C212078   0.648   3.586  12.663  0.5463  0.2111 -0.5520
  821MPD2    C312079   0.642   3.697  12.582 -0.1863 -0.2324 -0.3406
  821MPD2    C412080   0.558   3.682  12.474 -0.1549  0.1393  0.2669
  821MPD2    C512081   0.505   3.560  12.437 -0.2440 -0.3797  0.1848
  821MPD2     H12082   0.721   3.576  12.742 -1.3126 -3.2418  0.7212
  821MPD2    H112083   0.541   3.773  12.418 -3.1425 -0.5639  0.0123
  821MPD2    H212084   0.476   3.353  12.475 -1.6963  1.0336  0.7234
  821MPD2    H312085   0.430   3.552  12.359 -0.9538 -1.2226  0.9520
  821MPD2     N12086   0.702   3.822  12.617 -0.3553 -0.5010  0.1901
  821MPD2    H512087   0.696   3.903  12.556  1.8629 -0.5912 -0.1247
  821MPD2    N112088   0.638   3.359  12.712 -0.1909 -0.0744  0.0708
  821MPD2    H712089   0.687   3.392  12.795 -0.0761 -0.0973  0.0125
  822MPD2     C12090   1.397   3.441  15.677 -0.2108  0.3723  1.0581
  822MPD2    C112091   1.410   3.409  15.809 -0.7482  1.0135 -0.4549
  822MPD2    C212092   1.330   3.477  15.896  0.0787 -0.3205  1.3532
  822MPD2    C312093   1.250   3.577  15.861  0.4170  0.2059 -0.0697
  822MPD2    C412094   1.245   3.616  15.730  0.6861  0.2422 -0.3567
  822MPD2    C512095   1.312   3.540  15.637 -0.7269 -0.8532 -0.8379
  822MPD2     H12096   1.336   3.447  16.000  1.8716 -1.6360  0.8632
  822MPD2    H112097   1.170   3.684  15.690  0.6960  0.0466 -0.7106
  822MPD2    H212098   1.458   3.389  15.604 -1.8953 -0.0158 -0.0803
  822MPD2    H312099   1.302   3.555  15.530  0.2052  0.8199 -0.6932
  822MPD2     N12100   1.193   3.654  15.963  0.1720 -0.3031  0.3657
  822MPD2    H512101   1.210   3.627  16.059 -0.2448 -1.1300  0.2150
  822MPD2    N112102   1.497   3.308  15.856  0.0542 -0.5908  0.2723
  822MPD2    H712103   1.516   3.302  15.955  0.4852 -0.1352  0.2154
  823MPD2     C12104   0.932   3.732  16.746 -0.2131 -1.1595  0.1335
  823MPD2    C112105   0.982   3.667  16.639  0.1235 -0.0219  0.2064
  823MPD2    C212106   1.055   3.546  16.657 -0.5458  0.4436  0.3422
  823MPD2    C312107   1.087   3.506  16.788  0.3156 -1.0664 -0.1604
  823MPD2    C412108   1.035   3.578  16.891  0.3560  0.2816 -0.2996
  823MPD2    C512109   0.968   3.693  16.871  0.5133  0.2307  0.0798
  823MPD2     H12110   1.082   3.491  16.568 -2.1858  1.2932 -0.6834
  823MPD2    H112111   1.053   3.556  16.996  0.6537  0.2205 -0.3630
  823MPD2    H212112   0.874   3.824  16.742  0.2295 -0.8369  1.1878
  823MPD2    H312113   0.935   3.744  16.960  1.6098  1.2824 -0.1214
  823MPD2     N12114   1.176   3.404  16.831  0.4486 -0.1407 -0.4762
  823MPD2    H512115   1.196   3.385  16.928 -0.6163 -0.3521 -0.2946
  823MPD2    N112116   0.954   3.728  16.522  0.1922 -0.1630 -0.4327
  823MPD2    H712117   0.915   3.822  16.526 -0.1186 -0.3447  0.6497
  824MPD2     C12118   1.973   2.586  15.705 -0.1113 -0.0137 -0.6826
  824MPD2    C112119   2.035   2.705  15.716  0.1834 -0.1961  0.4494
  824MPD2    C212120   2.158   2.716  15.654 -0.2535 -0.0121  0.1290
  824MPD2    C312121   2.221   2.610  15.595 -0.2129  0.0666 -0.6728
  824MPD2    C412122   2.156   2.488  15.578 -0.1528  0.2251  0.4513
  824MPD2    C512123   2.032   2.480  15.638 -0.4680  0.0013 -0.1358
  824MPD2     H12124   2.210   2.811  15.664 -1.3944  0.5549  0.6733
  824MPD2    H112125   2.202   2.399  15.538 -1.7725  0.0729 -1.0645
  824MPD2    H212126   1.877   2.570  15.752  0.0035  1.1279 -0.0531
  824MPD2    H312127   1.979   2.387  15.623 -0.3123  0.1129 -1.3871
  824MPD2     N12128   2.353   2.625  15.544 -0.1272  0.6709  0.7255
  824MPD2    H512129   2.405   2.712  15.552  2.6557 -0.8653 -0.7465
  824MPD2    N112130   1.973   2.817  15.773 -0.1922  0.4903  0.5550
  824MPD2    H712131   2.034   2.896  15.789 -2.4014  2.2440  0.3137
  825MPD2     C12132   3.023   2.916  15.083  0.2801 -0.4351  0.5901
  825MPD2    C112133   2.900   2.927  15.140  0.7482 -0.1354 -0.7173
  825MPD2    C212134   2.829   3.043  15.112 -0.1733  0.6768 -0.2486
  825MPD2    C312135   2.880   3.136  15.019  0.3468 -0.0567  0.6432
  825MPD2    C412136   2.995   3.108  14.950 -0.0939  0.0165  1.3990
  825MPD2    C512137   3.072   3.003  14.990  0.2142  0.4504  0.2332
  825MPD2     H12138   2.746   3.072  15.175 -0.6621 -1.7501  0.2345
  825MPD2    H112139   3.033   3.175  14.873 -2.3147 -0.0422  0.2306
  825MPD2    H212140   3.089   2.830  15.091  0.2932 -0.5146 -0.3536
  825MPD2    H312141   3.164   2.983  14.936  0.8339 -0.1072  1.4809
  825MPD2     N12142   2.823   3.261  14.989 -0.2945  0.5170  0.3806
  825MPD2    H512143   2.868   3.316  14.917 -1.8644  4.2931  2.2570
  825MPD2    N112144   2.848   2.822  15.212 -0.1946 -0.1261  0.1559
  825MPD2    H712145   2.912   2.745  15.229  0.3728  0.5380  1.0345
  826MPD2     C12146   1.744   2.670  13.286  0.2724  0.2810 -0.8014
  826MPD2    C112147   1.829   2.769  13.239  0.2041 -0.0775  1.0318
  826MPD2    C212148   1.804   2.903  13.274 -0.7943 -0.0251 -0.2320
  826MPD2    C312149   1.705   2.931  13.367 -0.3189  0.0366  0.5031
  826MPD2    C412150   1.624   2.832  13.408  0.5954  0.4574 -0.3824
  826MPD2    C512151   1.637   2.702  13.363  0.0960 -0.4096  0.0401
  826MPD2     H12152   1.874   2.977  13.237  0.9396 -1.7405 -0.3788
  826MPD2    H112153   1.547   2.857  13.480  0.0426 -1.7855 -0.1851
  826MPD2    H212154   1.757   2.563  13.274 -1.2428  0.2139 -1.9984
  826MPD2    H312155   1.567   2.623  13.387  0.4607 -0.9407 -0.6413
  826MPD2     N12156   1.682   3.059  13.420  0.1046  0.2725  0.6907
  826MPD2    H512157   1.616   3.066  13.496 -0.7449  1.7225 -0.1876
  826MPD2    N112158   1.948   2.718  13.177 -0.6640  0.1585  0.0755
  826MPD2    H712159   1.949   2.620  13.151 -1.4764  0.6403 -1.7261
  827MPD2     C12160   3.146   3.805   9.728  0.2997 -0.2609  0.1846
  827MPD2    C112161   3.178   3.683   9.772  0.6433  0.2442  0.7853
  827MPD2    C212162   3.132   3.577   9.694 -0.5246  0.0682  0.3502
  827MPD2    C312163   3.078   3.593   9.566  0.1882  0.1794 -0.0432
  827MPD2    C412164   3.075   3.717   9.516  0.9616  0.3155  0.0051
  827MPD2    C512165   3.104   3.822   9.597  0.4837 -0.6395  0.3872
  827MPD2     H12166   3.154   3.477   9.729  0.2984  0.0346 -0.2755
  827MPD2    H112167   3.054   3.751   9.415 -1.3453 -1.3854 -0.1019
  827MPD2    H212168   3.162   3.890   9.794 -1.7286  1.0691 -1.0432
  827MPD2    H312169   3.089   3.917   9.546 -0.3125 -0.9464  0.0464
  827MPD2     N12170   3.050   3.484   9.487 -0.0636  0.7866  0.5269
  827MPD2    H512171   3.071   3.397   9.537 -1.5915  0.3283  0.3597
  827MPD2    N112172   3.240   3.668   9.902 -0.5873 -0.2802 -0.5692
  827MPD2    H712173   3.259   3.757   9.949 -1.0187  0.3379 -1.5778
  828MPD2     C12174   1.369   3.728  12.589 -0.5651 -0.0957 -0.0415
  828MPD2    C112175   1.361   3.714  12.452  0.7150  0.1177  0.2474
  828MPD2    C212176   1.474   3.663  12.391  0.7799  0.0959 -0.2279
  828MPD2    C312177   1.581   3.612  12.462  1.1168  0.7001  0.1109
  828MPD2    C412178   1.570   3.613  12.597 -0.5520 -0.3061  0.2632
  828MPD2    C512179   1.465   3.670  12.661 -0.6404 -0.9930 -0.0566
  828MPD2     H12180   1.469   3.640  12.285 -0.2786 -0.3648 -0.0828
  828MPD2    H112181   1.648   3.571  12.660  0.3215  2.3131  0.9335
  828MPD2    H212182   1.289   3.790  12.630 -1.8482 -2.7130  1.3852
  828MPD2    H312183   1.460   3.668  12.769  0.3617  1.2389  0.0205
  828MPD2     N12184   1.700   3.570  12.407 -0.2271 -0.2852  0.0986
  828MPD2    H512185   1.771   3.527  12.466 -4.0107 -2.0396  3.3318
  828MPD2    N112186   1.267   3.769  12.370  0.8020  0.1188 -0.3343
  828MPD2    H712187   1.291   3.770  12.271 -0.0399 -1.7886 -0.5599
  829MPD2     C12188   1.437   4.055  11.592 -0.1033 -0.6767  0.3221
  829MPD2    C112189   1.303   4.086  11.589 -0.0517  0.1069  0.5064
  829MPD2    C212190   1.221   4.053  11.702 -0.2438  0.2255 -0.0537
  829MPD2    C312191   1.280   4.000  11.820  0.3410 -0.2157 -0.3715
  829MPD2    C412192   1.411   3.973  11.817  0.0337 -0.1218 -0.1517
  829MPD2    C512193   1.496   3.994  11.705  1.1182 -0.4901  0.9405
  829MPD2     H12194   1.114   4.066  11.697  0.1232  2.6727 -1.8103
  829MPD2    H112195   1.468   3.938  11.902  0.7735 -0.0426 -0.6125
  829MPD2    H212196   1.504   4.073  11.509  0.8575  0.5893  1.3629
  829MPD2    H312197   1.596   3.954  11.716  1.5317  0.8762  2.1842
  829MPD2     N12198   1.217   3.956  11.935  0.2609 -0.1990  0.3947
  829MPD2    H512199   1.276   3.919  12.008 -0.9781  0.2777  1.6294
  829MPD2    N112200   1.259   4.142  11.465  0.2683  0.2231 -0.4256
  829MPD2    H712201   1.334   4.155  11.397  1.9033 -0.5783  1.1973
  830MPD2     C12202   2.010   2.076  15.759 -0.2517  0.1223  0.0799
  830MPD2    C112203   1.879   2.056  15.720 -0.6525 -0.1272 -0.0892
  830MPD2    C212204   1.851   2.047  15.585  0.0911 -0.5995  0.6168
  830MPD2    C312205   1.957   2.062  15.493  0.7122  0.4389  0.5763
  830MPD2    C412206   2.081   2.090  15.536 -0.1657 -0.1326 -0.5143
  830MPD2    C512207   2.108   2.096  15.665 -0.6839  0.2136  0.2391
  830MPD2     H12208   1.747   2.042  15.554  0.7459 -0.8442 -1.5664
  830MPD2    H112209   2.162   2.117  15.469  0.6756 -0.6436  0.3032
  830MPD2    H212210   2.037   2.088  15.863  1.7275  0.2373 -0.4451
  830MPD2    H312211   2.207   2.134  15.689 -0.9183  1.0073 -0.0620
  830MPD2     N12212   1.937   2.077  15.357  0.1004  0.5718  0.5240
  830MPD2    H512213   2.014   2.120  15.308  0.8310 -3.8207 -2.1895
  830MPD2    N112214   1.783   2.048  15.819 -0.4961 -0.0883  0.0531
  830MPD2    H712215   1.827   2.009  15.902 -1.6848  1.0500  1.2109
  831MPD2     C12216   1.386   3.810  16.293 -0.5478  0.1066 -0.0734
  831MPD2    C112217   1.434   3.734  16.190  0.5476 -0.3620 -0.4851
  831MPD2    C212218   1.441   3.596  16.208 -0.0900  0.5332  0.2144
  831MPD2    C312219   1.394   3.540  16.327 -0.1114 -0.3350  0.4243
  831MPD2    C412220   1.334   3.621  16.422  0.0951 -0.3291 -0.2862
  831MPD2    C512221   1.335   3.753  16.410 -0.6376 -0.1313  0.1604
  831MPD2     H12222   1.473   3.541  16.121 -2.0090 -0.6296  0.2344
  831MPD2    H112223   1.283   3.576  16.506  1.8998  1.6450  1.8433
  831MPD2    H212224   1.385   3.918  16.286  1.4696  0.1809  0.7586
  831MPD2    H312225   1.300   3.822  16.485 -1.8483  1.0975 -1.5435
  831MPD2     N12226   1.384   3.402  16.346  0.7797  0.2119  0.3640
  831MPD2    H512227   1.332   3.367  16.425  1.5168 -3.6971 -0.8938
  831MPD2    N112228   1.490   3.773  16.068 -0.5896 -0.1588  0.0240
  831MPD2    H712229   1.544   3.700  16.023  0.4351  1.2116 -1.0020
  832MPD2     C12230   0.162   0.410  17.044 -0.1331 -0.3148  0.1312
  832MPD2    C112231   0.047   0.431  17.113  0.3069 -0.3315  0.6266
  832MPD2    C212232   4.648   0.398  17.046  0.1294 -0.6264 -0.0881
  832MPD2    C312233   4.642   0.334  16.927  0.2670  0.0569  0.5699
  832MPD2    C412234   0.036   0.324  16.858  0.1656  0.3544 -0.2913
  832MPD2    C512235   0.155   0.363  16.913 -0.1914 -0.3571 -0.3128
  832MPD2     H12236   4.555   0.415  17.101 -0.7904 -0.1678 -1.7858
  832MPD2    H112237   0.043   0.276  16.761 -0.5471  2.3297 -1.3183
  832MPD2    H212238   0.259   0.438  17.084 -0.3505  0.3418  0.2108
  832MPD2    H312239   0.246   0.347  16.856  0.9552  0.2054  1.3565
  832MPD2     N12240   4.513   0.289  16.877  0.2993 -0.0052  0.0809
  832MPD2    H512241   4.518   0.220  16.802  3.6098 -0.1904  0.4481
  832MPD2    N112242   0.050   0.490  17.242 -0.0171 -0.3008 -0.0835
  832MPD2    H712243   0.141   0.514  17.281 -1.5698  1.4383  2.4538
  833MPD2     C12244   1.742   1.240  12.820 -0.7984 -0.2509 -0.2481
  833MPD2    C112245   1.815   1.312  12.726 -0.1521  0.5292  0.4822
  833MPD2    C212246   1.852   1.257  12.605 -0.0034 -0.2069 -0.8248
  833MPD2    C312247   1.832   1.116  12.588  0.3215 -0.1313  0.0376
  833MPD2    C412248   1.753   1.049  12.682 -0.0235 -0.2031 -0.7453
  833MPD2    C512249   1.708   1.108  12.801 -0.2270 -0.5755  0.1564
  833MPD2     H12250   1.910   1.312  12.531  2.3759 -1.5498  0.0416
  833MPD2    H112251   1.733   0.944  12.663 -1.3408 -0.0746 -0.0330
  833MPD2    H212252   1.704   1.273  12.915  1.7969  0.9350  0.3540
  833MPD2    H312253   1.659   1.051  12.879  0.2480 -2.0895 -0.6287
  833MPD2     N12254   1.880   1.046  12.474  0.3829  0.1566  0.1252
  833MPD2    H512255   1.843   0.954  12.453  1.8964 -0.1976 -0.9320
  833MPD2    N112256   1.842   1.448  12.762 -0.0164  0.4286  0.1785
  833MPD2    H712257   1.793   1.483  12.844  1.7462  3.4559 -0.0622
  834MPD2     C12258   1.428   0.967  11.623  0.0200 -0.1131 -0.1857
  834MPD2    C112259   1.549   0.913  11.582  0.4848  0.3458  0.1751
  834MPD2    C212260   1.653   0.922  11.673 -0.7610 -0.2496  0.2836
  834MPD2    C312261   1.627   0.956  11.799  0.1996 -0.4939 -0.4666
  834MPD2    C412262   1.503   0.995  11.841 -0.4075 -0.1907  0.0666
  834MPD2    C512263   1.408   1.008  11.751  0.9456 -0.4449  0.2619
  834MPD2     H12264   1.753   0.888  11.650 -0.2197  1.4030  0.1502
  834MPD2    H112265   1.479   1.012  11.946  1.3237 -0.1881  0.4727
  834MPD2    H212266   1.339   0.973  11.561 -0.7372 -0.5047  0.8638
  834MPD2    H312267   1.306   1.032  11.776  0.4985 -0.7267 -1.2606
  834MPD2     N12268   1.744   0.945  11.884  0.0667 -0.1733 -0.1225
  834MPD2    H512269   1.833   0.912  11.848  0.8085  2.3982 -0.7064
  834MPD2    N112270   1.562   0.847  11.461 -0.0553  0.6771 -0.4199
  834MPD2    H712271   1.478   0.830  11.407  0.9458  1.3407 -2.2069
  835MPD2     C12272   2.365   3.753  10.941  0.2965 -0.6835 -0.1586
  835MPD2    C112273   2.230   3.791  10.913  0.0744 -0.3659  0.0251
  835MPD2    C212274   2.151   3.827  11.023  0.1142 -0.0444  0.0938
  835MPD2    C312275   2.204   3.849  11.147  0.1934  0.3561  0.7587
  835MPD2    C412276   2.339   3.817  11.170 -0.5888 -0.0259  0.1319
  835MPD2    C512277   2.418   3.774  11.064 -0.0328 -1.3839  0.3294
  835MPD2     H12278   2.043   3.833  11.015  0.1389  0.5828  0.2275
  835MPD2    H112279   2.394   3.844  11.259  1.3559 -0.1957 -1.0199
  835MPD2    H212280   2.420   3.706  10.860  2.5085 -1.1345  1.6297
  835MPD2    H312281   2.523   3.750  11.079  0.6331 -0.7041 -3.3195
  835MPD2     N12282   2.132   3.916  11.251 -0.4702 -0.0553  0.6545
  835MPD2    H512283   2.186   3.945  11.332 -2.4925  0.0673  1.9643
  835MPD2    N112284   2.172   3.770  10.786 -0.0993  0.0427 -0.0800
  835MPD2    H712285   2.071   3.782  10.782 -0.2416 -0.5459  2.0693
  836MPD2     C12286   1.491   4.376  11.166  0.5129  0.0248 -0.1181
  836MPD2    C112287   1.540   4.378  11.296 -0.2646 -0.1834  0.5865
  836MPD2    C212288   1.458   4.428  11.397  0.1778  0.0954  0.3721
  836MPD2    C312289   1.345   4.494  11.363  0.0929 -0.8253  0.3593
  836MPD2    C412290   1.310   4.509  11.231  0.3213  0.2525  0.1249
  836MPD2    C512291   1.382   4.453  11.130 -0.6694 -0.1284  0.4673
  836MPD2     H12292   1.487   4.418  11.501 -1.8470  0.9774  1.0077
  836MPD2    H112293   1.211   4.550  11.212  0.9436  1.1979 -1.0549
  836MPD2    H212294   1.542   4.325  11.085  0.8309  0.4943 -0.2124
  836MPD2    H312295   1.356   4.459  11.025  0.3800  0.6967  0.2556
  836MPD2     N12296   1.255   4.549  11.459 -0.5384  0.4868 -0.4408
  836MPD2    H512297   1.162   4.579  11.433  0.0644  2.0069 -0.8004
  836MPD2    N112298   1.654   4.308  11.325  0.2325 -0.1421  0.3073
  836MPD2    H712299   1.700   4.267  11.244  1.5305 -1.5337  1.7350
  837MPD2     C12300   0.100   3.887  10.083 -0.3494  0.0477  0.5798
  837MPD2    C112301   0.054   3.882   9.946  0.4134  0.6969 -0.2080
  837MPD2    C212302   4.713   3.997   9.897  0.5195  0.2302 -0.7724
  837MPD2    C312303   4.676   4.092   9.986  0.4008  0.0160  0.4139
  837MPD2    C412304   4.708   4.093  10.117 -0.1378 -0.0978  0.3154
  837MPD2    C512305   0.070   3.994  10.162  1.0360 -0.4555 -0.0007
  837MPD2     H12306   4.674   3.996   9.796 -0.0134  0.1693 -0.5662
  837MPD2    H112307   4.686   4.172  10.188 -0.7652  1.5337 -1.6892
  837MPD2    H212308   0.159   3.805  10.122 -1.0444 -0.3515  0.7888
  837MPD2    H312309   0.108   3.994  10.263  2.2583 -1.3586 -0.4644
  837MPD2     N12310   4.577   4.174   9.929  0.1983 -0.0503 -0.1997
  837MPD2    H512311   4.559   4.153   9.832  0.8888 -1.9810  0.0939
  837MPD2    N112312   0.057   3.764   9.862 -0.7220 -0.0220  0.0324
  837MPD2    H712313   0.005   3.766   9.775 -0.4011  1.3169 -0.1325
  838MPD2     C12314   2.711   1.607  11.742 -0.0119 -0.3173  0.1288
  838MPD2    C112315   2.731   1.710  11.829 -0.2902  0.3963 -0.0092
  838MPD2    C212316   2.659   1.719  11.944  0.1537 -0.5740  0.0041
  838MPD2    C312317   2.565   1.616  11.973 -0.5700  0.3455 -0.3652
  838MPD2    C412318   2.545   1.508  11.887  0.2835  0.1426 -0.1687
  838MPD2    C512319   2.626   1.503  11.778 -0.2235  0.3881  0.7744
  838MPD2     H12320   2.683   1.797  12.014  0.6904 -0.3450 -0.4362
  838MPD2    H112321   2.479   1.422  11.894 -2.5711  2.4709  1.4444
  838MPD2    H212322   2.769   1.597  11.651 -0.6319  0.6609 -0.3637
  838MPD2    H312323   2.613   1.413  11.718  3.6071  0.7895 -0.6790
  838MPD2     N12324   2.493   1.638  12.091  0.2747 -0.1033 -0.2295
  838MPD2    H512325   2.502   1.723  12.145 -0.0004 -0.7119  0.7749
  838MPD2    N112326   2.826   1.808  11.818 -0.5868 -0.0275 -0.1950
  838MPD2    H712327   2.815   1.888  11.880 -3.4915 -0.3238 -0.3281
  839MPD2     C12328   2.829   1.327  12.136 -0.6686 -0.2981 -0.1172
  839MPD2    C112329   2.846   1.338  11.999  0.0591  0.1562  0.0645
  839MPD2    C212330   2.929   1.434  11.949  0.3444  0.3626 -0.3520
  839MPD2    C312331   2.997   1.514  12.033 -0.4982 -0.3766  0.3345
  839MPD2    C412332   2.987   1.500  12.171 -0.3144 -0.4390  0.0457
  839MPD2    C512333   2.898   1.406  12.220 -0.0367  0.0684 -0.0367
  839MPD2     H12334   2.945   1.454  11.844  1.5437  1.3588  0.0195
  839MPD2    H112335   3.034   1.554  12.252  0.6868 -0.9703 -0.1773
  839MPD2    H212336   2.751   1.259  12.167  0.0306 -1.1505 -0.2349
  839MPD2    H312337   2.885   1.402  12.327 -0.8218  0.9752 -0.1054
  839MPD2     N12338   3.078   1.618  11.976  0.1037 -0.1597 -0.3568
  839MPD2    H512339   3.071   1.623  11.875 -1.7218 -0.3552 -0.2413
  839MPD2    N112340   2.765   1.267  11.909  0.1695  0.4949  0.4818
  839MPD2    H712341   2.781   1.286  11.811  0.1609 -2.3332 -0.0880
  840MPD2     C12342   3.604   4.132  10.062  0.5347 -0.0313  0.1870
  840MPD2    C112343   3.591   4.062  10.182 -0.3594  0.1192  0.0617
  840MPD2    C212344   3.630   4.126  10.301 -0.0130 -0.0257 -0.1340
  840MPD2    C312345   3.689   4.254  10.297 -0.3337 -0.0526 -0.0741
  840MPD2    C412346   3.710   4.310  10.172  0.1589  0.2152 -0.3294
  840MPD2    C512347   3.676   4.244  10.057  0.7693  0.0093 -0.1271
  840MPD2     H12348   3.610   4.072  10.393 -0.7173 -1.8333 -1.3329
  840MPD2    H112349   3.743   4.413  10.162  0.1956  0.1241 -1.1342
  840MPD2    H212350   3.571   4.076   9.976  0.0643  1.8489 -0.8626
  840MPD2    H312351   3.702   4.293   9.964 -0.5449  0.1101 -0.4469
  840MPD2     N12352   3.714   4.335  10.413 -0.1317  0.7535 -0.6747
  840MPD2    H512353   3.764   4.418  10.382  2.1401 -0.7582 -1.0433
  840MPD2    N112354   3.527   3.931  10.175 -0.2681  0.0910  0.0857
  840MPD2    H712355   3.486   3.916  10.084  0.8050 -0.5379 -0.2981
  841MPD2     C12356   3.121   4.365  15.050 -0.6847  0.1207  0.0575
  841MPD2    C112357   3.182   4.287  14.955  0.6141  0.3342  0.2951
  841MPD2    C212358   3.242   4.342  14.842  0.4855  0.1340 -0.0789
  841MPD2    C312359   3.232   4.475  14.819 -0.4137  0.0468  0.1570
  841MPD2    C412360   3.163   4.555  14.906 -0.5536  1.0725  0.7716
  841MPD2    C512361   3.113   4.500  15.026 -0.3274 -0.3241 -0.1113
  841MPD2     H12362   3.292   4.269  14.778 -0.3247 -1.7450  1.4524
  841MPD2    H112363   3.129   4.656  14.884 -0.8970  1.0198  1.0572
  841MPD2    H212364   3.081   4.322  15.141  0.1830  0.5300  0.6257
  841MPD2    H312365   3.047   4.559  15.087 -1.3693 -0.2162 -1.3394
  841MPD2     N12366   3.290   4.527  14.697 -0.3285 -0.7194 -0.4387
  841MPD2    H512367   3.338   4.460  14.637  1.0073 -1.0719  1.0068
  841MPD2    N112368   3.167   4.144  14.958 -0.6015  0.5709 -0.4316
  841MPD2    H712369   3.195   4.080  14.884 -0.3480  0.9450 -0.6611
  842MPD2     C12370   3.497   0.283  16.553 -0.3730 -0.6917 -0.4046
  842MPD2    C112371   3.403   0.373  16.595 -0.3630 -0.6295  0.3455
  842MPD2    C212372   3.361   0.356  16.723  0.2292  0.2734 -0.7914
  842MPD2    C312373   3.405   0.255  16.802  0.0981 -0.2314 -0.5825
  842MPD2    C412374   3.492   0.158  16.751 -0.6403 -0.8930 -0.6755
  842MPD2    C512375   3.547   0.181  16.631 -0.5678  0.7744 -0.4654
  842MPD2     H12376   3.305   0.437  16.768  1.2455 -0.2004  1.3021
  842MPD2    H112377   3.542   0.080  16.808 -2.1667 -0.0102  1.8669
  842MPD2    H212378   3.551   0.288  16.459  1.4534 -2.3174  0.5444
  842MPD2    H312379   3.620   0.110  16.592  1.2318  0.6715  3.0914
  842MPD2     N12380   3.358   0.231  16.927 -0.0961  0.4866 -0.2477
  842MPD2    H512381   3.408   0.158  16.976  0.4356  0.0253 -1.4765
  842MPD2    N112382   3.340   0.460  16.503 -0.0574  0.4628  0.5613
  842MPD2    H712383   3.356   0.445  16.404  0.2656 -0.7211  0.8023
  843MPD2     C12384   0.720   0.661  17.623  0.7658 -0.4392 -0.0514
  843MPD2    C112385   0.784   0.623   0.051 -0.5011  0.0212 -0.2041
  843MPD2    C212386   0.902   0.681   0.093  0.4640  0.2163  0.5465
  843MPD2    C312387   0.959   0.789   0.021  0.2727 -0.6487 -0.2945
  843MPD2    C412388   0.882   0.844  17.605  0.2326  0.4665 -0.4685
  843MPD2    C512389   0.770   0.778  17.567  0.1423  0.3932  0.7263
  843MPD2     H12390   0.950   0.644   0.183  0.0853  0.8671  1.0170
  843MPD2    H112391   0.916   0.932  17.551  1.0668  0.2263 -0.3199
  843MPD2    H212392   0.624   0.624  17.590 -0.3450  2.6928 -0.3120
  843MPD2    H312393   0.730   0.838  17.486  0.7905 -0.1663 -0.0021
  843MPD2     N12394   1.086   0.845   0.041 -0.2097 -0.2794  0.3352
  843MPD2    H512395   1.102   0.933  17.681  0.3673 -0.2644  0.5612
  843MPD2    N112396   0.720   0.521   0.123  0.1962 -0.1163 -0.0857
  843MPD2    H712397   0.642   0.480   0.072 -0.2250  1.8134 -1.0231
  844MPD2     C12398   4.329   0.544  16.563  0.0799  0.1769  0.0759
  844MPD2    C112399   4.440   0.460  16.565  0.3349 -0.1151 -0.1250
  844MPD2    C212400   4.552   0.514  16.626 -0.6703 -0.0943 -0.5218
  844MPD2    C312401   4.555   0.636  16.690 -0.3757  0.0328  0.5372
  844MPD2    C412402   4.439   0.710  16.689 -0.5977 -0.3201 -0.1743
  844MPD2    C512403   4.331   0.662  16.625  0.2097 -1.1296 -0.5868
  844MPD2     H12404   4.645   0.460  16.615 -0.2922  0.5961 -0.7293
  844MPD2    H112405   4.426   0.810  16.728 -1.4410  0.3014 -2.0471
  844MPD2    H212406   4.231   0.510  16.531  0.5083 -0.6430 -0.3721
  844MPD2    H312407   4.242   0.721  16.643  1.7015  1.3133 -1.1163
  844MPD2     N12408   4.676   0.681  16.744 -0.4705  0.5767 -0.0856
  844MPD2    H512409   0.035   0.626  16.715  0.1044  0.8416  0.9937
  844MPD2    N112410   4.454   0.331  16.511 -0.6356  1.1286  0.2383
  844MPD2    H712411   4.540   0.283  16.532 -0.6928  1.1412  0.4979
  845MPD2     C12412   0.170   1.413  17.374  0.1274 -0.1012 -0.0831
  845MPD2    C112413   0.065   1.342  17.331  0.0554 -0.0181  0.4945
  845MPD2    C212414   0.074   1.271  17.216 -0.5087 -0.4176 -0.3071
  845MPD2    C312415   0.188   1.261  17.140 -0.3642  0.6516  0.7917
  845MPD2    C412416   0.293   1.337  17.180  0.5313 -0.4046 -0.5034
  845MPD2    C512417   0.285   1.410  17.302 -0.4320  0.5383  0.4824
  845MPD2     H12418   4.717   1.208  17.175 -1.1185  0.6035 -0.7073
  845MPD2    H112419   0.396   1.330  17.146  1.2587  1.3067  1.3355
  845MPD2    H212420   0.168   1.480  17.460  0.2909  0.2776 -0.3747
  845MPD2    H312421   0.373   1.459  17.341 -0.5344  1.6326 -0.6707
  845MPD2     N12422   0.191   1.163  17.043 -0.0883  0.3706 -0.5091
  845MPD2    H512423   0.106   1.114  17.018 -1.1227  0.8578  2.1472
  845MPD2    N112424   4.659   1.336  17.392 -0.3030  0.0154  0.3790
  845MPD2    H712425   4.585   1.291  17.339 -0.9648  0.1599  1.1776
  846MPD2     C12426   1.305   1.165  13.673  0.4474 -0.3494  0.5206
  846MPD2    C112427   1.197   1.247  13.685 -0.2522 -0.1970  0.9325
  846MPD2    C212428   1.144   1.272  13.809 -0.1610  0.1171  0.6251
  846MPD2    C312429   1.204   1.222  13.926 -0.4151 -0.2036 -0.3151
  846MPD2    C412430   1.313   1.144  13.906 -0.7071 -0.1197 -0.0694
  846MPD2    C512431   1.358   1.109  13.784  0.3964 -1.0573  0.0743
  846MPD2     H12432   1.061   1.341  13.823  0.2413  0.9762 -1.2254
  846MPD2    H112433   1.378   1.117  13.988 -0.2590  0.1774 -0.3265
  846MPD2    H212434   1.346   1.140  13.576  0.9636 -0.4631  0.7637
  846MPD2    H312435   1.444   1.043  13.782  2.7715  2.0315 -0.3108
  846MPD2     N12436   1.153   1.256  14.060  0.4824 -0.1056 -0.2322
  846MPD2    H512437   1.060   1.294  14.072  0.7262  1.5821 -3.7270
  846MPD2    N112438   1.140   1.318  13.577 -0.2036  0.4322  0.3982
  846MPD2    H712439   1.076   1.394  13.600 -1.5857 -0.7841  0.5783
  847MPD2     C12440   1.649   2.422  13.738 -0.5765  0.2464 -0.4728
  847MPD2    C112441   1.756   2.385  13.812 -0.0907  0.2304 -0.1135
  847MPD2    C212442   1.786   2.251  13.814 -0.6371 -0.6282  0.3931
  847MPD2    C312443   1.697   2.162  13.767 -0.9924 -0.8814 -0.5597
  847MPD2    C412444   1.599   2.201  13.681  0.6518 -0.2375 -0.2167
  847MPD2    C512445   1.571   2.333  13.666 -0.0858  0.4401  0.1073
  847MPD2     H12446   1.871   2.228  13.877 -0.2097 -0.2463 -0.0390
  847MPD2    H112447   1.534   2.131  13.631  2.7824 -2.3234 -0.0810
  847MPD2    H212448   1.623   2.526  13.726 -0.6258  0.5117  1.8672
  847MPD2    H312449   1.487   2.365  13.604  1.9579  2.4990 -1.5913
  847MPD2     N12450   1.723   2.029  13.812 -0.1412 -0.2745  0.0995
  847MPD2    H512451   1.812   2.016  13.860  1.4081  1.3208 -2.3841
  847MPD2    N112452   1.844   2.466  13.882 -0.2196  0.3568 -0.3719
  847MPD2    H712453   1.917   2.419  13.935  1.2824  0.9348 -1.9312
  848MPD2     C12454   3.758   0.563  16.622 -0.4416 -0.4689 -0.2392
  848MPD2    C112455   3.886   0.608  16.651 -0.1560 -0.4561 -0.6893
  848MPD2    C212456   3.908   0.743  16.647 -0.3052 -0.3247 -0.2313
  848MPD2    C312457   3.827   0.836  16.589  0.2510  0.6107 -0.0598
  848MPD2    C412458   3.702   0.791  16.570 -0.8345  0.1011  0.3174
  848MPD2    C512459   3.667   0.661  16.593  0.1161 -0.8069  0.1508
  848MPD2     H12460   4.011   0.770  16.664 -0.6910  1.1853 -0.2347
  848MPD2    H112461   3.619   0.854  16.538  0.7577  0.5627 -2.8937
  848MPD2    H212462   3.727   0.460  16.638  0.7779 -0.6153  1.1544
  848MPD2    H312463   3.564   0.629  16.594  0.1288 -0.8986 -0.9931
  848MPD2     N12464   3.853   0.975  16.564 -1.2689 -0.2888 -0.5032
  848MPD2    H512465   3.774   1.035  16.544  0.4781  2.0800 -0.3325
  848MPD2    N112466   3.986   0.517  16.685 -0.2495 -0.8227  0.2763
  848MPD2    H712467   4.066   0.555  16.733 -2.8543  0.6089  3.4998
  849MPD2     C12468   3.346   0.053  14.048 -0.4801  0.0399 -0.5297
  849MPD2    C112469   3.394   0.180  14.043 -0.6744 -0.2220 -0.1251
  849MPD2    C212470   3.513   0.214  14.107  0.2699 -0.0990 -0.5432
  849MPD2    C312471   3.596   0.110  14.156  0.0190  0.0728  0.7021
  849MPD2    C412472   3.544   4.699  14.154  0.5293  0.1469  0.6813
  849MPD2    C512473   3.418   4.678  14.105 -0.0846  0.2472 -0.1927
  849MPD2     H12474   3.548   0.317  14.102  0.4662 -0.0756  1.2842
  849MPD2    H112475   3.598   4.615  14.198 -3.7071 -1.6163  2.4414
  849MPD2    H212476   3.252   0.022  14.002 -0.3083 -1.2527  0.0131
  849MPD2    H312477   3.394   4.572  14.101 -0.7029  0.3373  1.1885
  849MPD2     N12478   3.721   0.130  14.221 -0.5663  0.2920  0.1973
  849MPD2    H512479   3.771   0.042  14.229  0.3697  0.6946 -1.1799
  849MPD2    N112480   3.320   0.272  13.963 -0.4351 -1.0243 -0.0094
  849MPD2    H712481   3.254   0.227  13.901  0.5222  0.6546 -2.2641
  850MPD2     C12482   1.063   2.666  14.788  0.1337 -0.1084 -0.0451
  850MPD2    C112483   1.074   2.784  14.861  0.3055  0.0797  0.0063
  850MPD2    C212484   1.200   2.834  14.893  0.0812 -0.1160  0.6615
  850MPD2    C312485   1.319   2.773  14.854  0.2606 -0.6140 -0.1598
  850MPD2    C412486   1.308   2.661  14.772  0.8569 -0.3302 -0.5363
  850MPD2    C512487   1.182   2.613  14.745  0.4716  0.3789 -0.5860
  850MPD2     H12488   1.210   2.930  14.942 -0.4116  0.3606 -0.1692
  850MPD2    H112489   1.391   2.605  14.731  0.0013 -2.0363  0.0610
  850MPD2    H212490   0.964   2.631  14.762  1.0366 -2.2464 -0.5726
  850MPD2    H312491   1.175   2.521  14.688  2.0060  0.9508 -1.6784
  850MPD2     N12492   1.446   2.812  14.892 -0.4070 -0.3570 -0.3565
  850MPD2    H512493   1.522   2.748  14.873  2.0449  2.9948 -1.9849
  850MPD2    N112494   0.949   2.851  14.891 -0.9784  0.4207  0.1307
  850MPD2    H712495   0.872   2.835  14.828 -0.5671  0.9993 -0.5189
  851MPD2     C12496   1.576   2.856  15.465  1.1926 -0.8810 -0.0101
  851MPD2    C112497   1.494   2.789  15.369 -0.4817 -0.2588  0.0843
  851MPD2    C212498   1.549   2.687  15.285  0.0964  0.4157 -0.2666
  851MPD2    C312499   1.675   2.657  15.291  0.5987 -0.4454  1.1585
  851MPD2    C412500   1.753   2.722  15.378  0.0210 -0.3867 -0.1175
  851MPD2    C512501   1.703   2.815  15.463  0.3996  0.3044  0.6088
  851MPD2     H12502   1.485   2.631  15.218  0.1334 -0.7483  0.6803
  851MPD2    H112503   1.859   2.700  15.380  0.3003  0.9652 -0.1017
  851MPD2    H212504   1.555   2.947  15.520 -1.5351 -0.8745 -1.0628
  851MPD2    H312505   1.763   2.881  15.525  1.3852 -0.0724  0.0671
  851MPD2     N12506   1.717   2.551  15.211 -0.7626 -0.2887  0.3295
  851MPD2    H512507   1.646   2.499  15.162 -1.6552  0.1487  1.1680
  851MPD2    N112508   1.359   2.823  15.367  0.6949  0.4012 -0.0049
  851MPD2    H712509   1.333   2.900  15.428  0.8517  1.2769 -1.0367
  852MPD2     C12510   2.278   0.507   9.615  0.1405 -0.4773  0.1524
  852MPD2    C112511   2.140   0.504   9.636 -0.7477  0.3445 -0.7039
  852MPD2    C212512   2.075   0.619   9.675  0.2282  0.9096 -0.2147
  852MPD2    C312513   2.149   0.730   9.700  0.1887  0.0663 -0.1548
  852MPD2    C412514   2.282   0.743   9.677 -0.1093  0.2182  0.0564
  852MPD2    C512515   2.339   0.630   9.632 -0.8705 -0.6499  0.4439
  852MPD2     H12516   1.970   0.625   9.703  1.3593  1.6903  3.8409
  852MPD2    H112517   2.345   0.832   9.684  1.7493 -1.0611 -0.3392
  852MPD2    H212518   2.338   0.421   9.585  1.1658  0.0643  0.6340
  852MPD2    H312519   2.447   0.637   9.630 -0.9076  0.1716  1.1228
  852MPD2     N12520   2.085   0.831   9.782 -0.4832 -0.0868  0.1424
  852MPD2    H512521   1.999   0.807   9.830  0.1674  0.9400  1.8386
  852MPD2    N112522   2.058   0.388   9.622  0.0625  0.3702  1.0411
  852MPD2    H712523   1.962   0.390   9.654 -0.1882 -1.2698  0.3802
  853MPD2     C12524   3.199   0.693  12.270  0.6446 -0.6053  1.2126
  853MPD2    C112525   3.064   0.651  12.270 -0.5603 -0.1271  0.0382
  853MPD2    C212526   3.015   0.574  12.166  0.1626 -1.0015  0.0309
  853MPD2    C312527   3.096   0.538  12.058 -0.4655  0.4473  0.0045
  853MPD2    C412528   3.227   0.588  12.055 -0.4474  0.2420  0.2143
  853MPD2    C512529   3.273   0.661  12.162 -0.2728 -0.2191 -0.0339
  853MPD2     H12530   2.911   0.546  12.173 -0.4999  1.6978  1.0114
  853MPD2    H112531   3.289   0.570  11.968  0.3689  0.5873  0.7332
  853MPD2    H212532   3.252   0.740  12.352  0.8473  0.5017  0.4435
  853MPD2    H312533   3.374   0.699  12.156 -0.2990 -0.0377  0.7876
  853MPD2     N12534   3.059   0.455  11.950 -0.6878 -0.1098 -0.0581
  853MPD2    H512535   3.122   0.436  11.873 -2.1345  0.3816 -1.3717
  853MPD2    N112536   2.987   0.676  12.385  0.3235  0.1462 -0.4367
  853MPD2    H712537   3.038   0.714  12.464  0.5756 -0.5892 -0.2516
  854MPD2     C12538   4.419   0.362  12.457  0.0059  0.0939 -0.3033
  854MPD2    C112539   4.433   0.386  12.592  0.4603 -0.1146  0.4220
  854MPD2    C212540   4.545   0.327  12.659  0.1401 -0.3503 -0.1877
  854MPD2    C312541   4.639   0.248  12.586  0.0311  0.4888  0.5761
  854MPD2    C412542   4.630   0.242  12.447 -0.4475  0.2135  0.8834
  854MPD2    C512543   4.520   0.303  12.392  0.1971 -0.5999 -0.5631
  854MPD2     H12544   4.546   0.319  12.767 -0.5700  1.3040 -0.0489
  854MPD2    H112545   4.701   0.191  12.383  0.4854  1.2342  1.1066
  854MPD2    H212546   4.334   0.399  12.400  0.5898 -0.4672 -1.5288
  854MPD2    H312547   4.507   0.293  12.285 -0.6650 -0.5657 -0.4645
  854MPD2     N12548   0.029   0.184  12.638 -0.0491 -0.3420  0.5807
  854MPD2    H512549   0.094   0.144  12.572  0.5258  0.0196  0.9263
  854MPD2    N112550   4.324   0.455  12.661 -0.0586  0.1133 -0.4049
  854MPD2    H712551   4.255   0.489  12.594  0.6950 -0.5779 -1.5395
  855MPD2     C12552   0.594   0.481  13.418 -0.0384 -0.1329 -0.2776
  855MPD2    C112553   0.489   0.391  13.438  0.4262  0.1944  0.2222
  855MPD2    C212554   0.427   0.325  13.325  0.0904  0.4859 -0.3183
  855MPD2    C312555   0.477   0.350  13.198 -0.2229  0.4314 -0.5047
  855MPD2    C412556   0.578   0.443  13.183  0.0569 -0.0744 -0.1055
  855MPD2    C512557   0.629   0.507  13.285 -0.3623  0.1189  0.9401
  855MPD2     H12558   0.361   0.241  13.343 -2.1118  2.3400  0.2681
  855MPD2    H112559   0.626   0.462  13.087 -0.9651 -0.0088 -0.5986
  855MPD2    H212560   0.656   0.521  13.498 -1.4972  0.7392  0.4033
  855MPD2    H312561   0.707   0.582  13.286  1.2508 -1.5410 -0.2183
  855MPD2     N12562   0.426   0.274  13.090 -1.0092  0.1675  0.0160
  855MPD2    H512563   0.348   0.215  13.119 -1.8443  1.3185  0.0882
  855MPD2    N112564   0.428   0.366  13.560  0.0047  0.5824 -0.3104
  855MPD2    H712565   0.364   0.287  13.565  1.1740 -0.4890 -2.1669
  856MPD2     C12566   2.270   1.490  13.504 -0.2033  0.1301 -0.4017
  856MPD2    C112567   2.324   1.613  13.543 -0.4177  0.2139  0.6504
  856MPD2    C212568   2.261   1.727  13.500  0.2913 -1.2576 -0.0586
  856MPD2    C312569   2.132   1.723  13.447  0.4378  0.5155  0.6482
  856MPD2    C412570   2.082   1.596  13.410  0.1979 -0.0524  0.1087
  856MPD2    C512571   2.153   1.480  13.432  0.2761 -0.0810 -0.6014
  856MPD2     H12572   2.310   1.823  13.511 -0.2952 -0.6602 -2.8283
  856MPD2    H112573   1.986   1.576  13.365 -0.4103 -0.2023  1.4609
  856MPD2    H212574   2.300   1.395  13.547  1.6600  2.3128  3.0823
  856MPD2    H312575   2.120   1.383  13.396 -3.2306  0.8125  0.2101
  856MPD2     N12576   2.047   1.833  13.429 -0.2332  0.0245  0.0578
  856MPD2    H512577   1.960   1.810  13.382  0.9086  1.0677 -2.5667
  856MPD2    N112578   2.443   1.619  13.611  0.3092  0.1895  0.1850
  856MPD2    H712579   2.495   1.707  13.617 -1.7333  1.4633 -0.9038
  857MPD2     C12580   3.681   3.586  12.404  0.7927  0.0250  0.0164
  857MPD2    C112581   3.810   3.595  12.434  0.0935 -0.1924  0.1357
  857MPD2    C212582   3.862   3.714  12.467  0.6200 -0.7531  0.6835
  857MPD2    C312583   3.786   3.829  12.465 -0.9173  0.6720  0.0442
  857MPD2    C412584   3.656   3.822  12.427 -0.2700 -0.2857  0.3460
  857MPD2    C512585   3.599   3.698  12.403  0.0596 -0.8827 -0.1529
  857MPD2     H12586   3.966   3.724  12.496  0.7167  0.1705  0.0109
  857MPD2    H112587   3.585   3.904  12.420 -2.0160 -1.8634 -0.3833
  857MPD2    H212588   3.632   3.493  12.375  0.2760  0.3602 -0.1853
  857MPD2    H312589   3.497   3.698  12.367 -0.1144 -0.0594  0.3455
  857MPD2     N12590   3.839   3.950  12.516 -0.5634  0.0398  0.3950
  857MPD2    H512591   3.934   3.949  12.552 -0.9060  0.6262  1.3336
  857MPD2    N112592   3.883   3.479  12.443 -0.4312  0.2473 -0.3253
  857MPD2    H712593   3.829   3.394  12.459 -1.0005  0.7236  0.3298
  858MPD2     C12594   0.029   3.020  16.525 -0.0364 -1.0824  0.4220
  858MPD2    C112595   0.124   2.942  16.582  0.2958 -0.5771  0.6397
  858MPD2    C212596   0.164   2.963  16.715  0.2040  0.2588 -0.3874
  858MPD2    C312597   0.109   3.069  16.780  0.0378 -0.0607  0.2033
  858MPD2    C412598   0.013   3.147  16.718  0.4506 -0.0656  0.0613
  858MPD2    C512599   4.697   3.122  16.591  0.0682  0.5190  0.8311
  858MPD2     H12600   0.225   2.885  16.760  1.4023  1.5177  0.1981
  858MPD2    H112601   4.690   3.236  16.761 -1.0761 -2.1442  2.7790
  858MPD2    H212602   4.721   3.015  16.421 -2.2224 -2.9543  1.1442
  858MPD2    H312603   4.629   3.188  16.539  1.0052  0.3703 -0.5785
  858MPD2     N12604   0.137   3.104  16.915  0.5955  0.1840  0.2221
  858MPD2    H512605   0.089   3.189  16.943 -1.8064 -0.8903 -0.6962
  858MPD2    N112606   0.193   2.850  16.504  0.5924 -0.3122 -0.0141
  858MPD2    H712607   0.268   2.804  16.555 -0.1583  0.4307  1.7343
  859MPD2     C12608   3.134   4.649  15.384 -0.1013 -0.8284  0.0939
  859MPD2    C112609   3.261   4.654  15.325  0.5577  0.2152 -0.4883
  859MPD2    C212610   3.324   4.530  15.311 -0.4965  0.1907  0.3227
  859MPD2    C312611   3.282   4.410  15.365 -0.3497  0.9086  0.3604
  859MPD2    C412612   3.155   4.410  15.417  0.3975 -0.1223 -0.4342
  859MPD2    C512613   3.086   4.530  15.431  0.5747  0.1040 -0.3335
  859MPD2     H12614   3.420   4.533  15.261 -0.6987 -0.5053 -0.1246
  859MPD2    H112615   3.100   4.320  15.444 -1.3287  0.4492 -2.0555
  859MPD2    H212616   3.081   0.020  15.403 -1.9378 -1.0901 -3.8415
  859MPD2    H312617   2.984   4.528  15.467  0.6253  2.2660 -0.0565
  859MPD2     N12618   3.341   4.278  15.340  0.2070  0.3197 -1.0096
  859MPD2    H512619   3.285   4.198  15.368 -0.8224  0.9040 -1.3728
  859MPD2    N112620   3.306   0.060  15.276  0.0209  0.3643 -0.5560
  859MPD2    H712621   3.244   0.139  15.294  0.0031  0.6061 -1.6861
  860MPD2     C12622   0.972   0.573  11.407  0.6467 -0.0926 -0.0845
  860MPD2    C112623   0.937   0.635  11.525  0.9312 -0.5361  0.0597
  860MPD2    C212624   0.806   0.621  11.566  0.1732  0.5007  0.3949
  860MPD2    C312625   0.719   0.543  11.499 -0.5018  0.0678  0.1713
  860MPD2    C412626   0.746   0.488  11.380 -0.4423 -0.5234 -0.1170
  860MPD2    C512627   0.876   0.501  11.335 -0.1122 -0.1120  0.7312
  860MPD2     H12628   0.778   0.658  11.664 -0.0105 -1.8384  1.2125
  860MPD2    H112629   0.671   0.423  11.337  2.1411 -2.2607 -2.0074
  860MPD2    H212630   1.067   0.585  11.354  0.9870 -0.7889  0.3732
  860MPD2    H312631   0.908   0.444  11.249 -0.2992  2.8388 -1.2802
  860MPD2     N12632   0.602   0.514  11.567 -0.1623  0.0506  0.6272
  860MPD2    H512633   0.590   0.528  11.667  0.3694 -1.0173  0.8437
  860MPD2    N112634   1.035   0.683  11.613  0.0083 -0.2924 -0.6647
  860MPD2    H712635   1.007   0.718  11.704 -1.4349  2.7687 -2.3078
  861MPD2     C12636   0.279   3.716  11.121  0.5004 -0.5112  0.0946
  861MPD2    C112637   0.174   3.672  11.195  0.1764 -0.3901 -0.0720
  861MPD2    C212638   0.054   3.633  11.136  0.6410  0.0245 -0.1748
  861MPD2    C312639   0.046   3.641  11.001 -0.0810 -0.0939 -0.0849
  861MPD2    C412640   0.161   3.661  10.928  0.2936 -0.2859  0.5048
  861MPD2    C512641   0.280   3.693  10.987 -0.2954  0.0796 -0.3164
  861MPD2     H12642   4.693   3.595  11.194  0.3075 -1.8899 -1.9248
  861MPD2    H112643   0.160   3.642  10.821 -1.0806 -0.2180  0.5056
  861MPD2    H212644   0.364   3.774  11.157  2.6197 -1.6668 -2.9989
  861MPD2    H312645   0.373   3.707  10.934  0.6380  1.5377  1.7019
  861MPD2     N12646   4.648   3.610  10.917 -0.3045  0.0676  0.1584
  861MPD2    H512647   4.649   3.628  10.817  1.6947 -2.3048 -0.2443
  861MPD2    N112648   0.189   3.670  11.336 -0.0731 -0.3048 -0.0236
  861MPD2    H712649   0.107   3.644  11.391 -1.7044 -0.5747 -2.5955
  862MPD2     C12650   4.389   3.367  10.262 -0.2042  0.2680 -0.8379
  862MPD2    C112651   4.398   3.326  10.393  0.4431  0.0880  0.5250
  862MPD2    C212652   4.425   3.193  10.418 -0.2970 -0.5553 -0.3086
  862MPD2    C312653   4.426   3.096  10.320  0.5160  0.1589  0.5373
  862MPD2    C412654   4.405   3.134  10.185  0.5478  0.0931 -0.8167
  862MPD2    C512655   4.394   3.269  10.164  0.2182 -0.1540 -0.3272
  862MPD2     H12656   4.439   3.165  10.521 -0.9977  1.3639  0.2952
  862MPD2    H112657   4.390   3.068  10.100 -2.3178 -0.8086  0.3840
  862MPD2    H212658   4.364   3.469  10.234  0.8738  0.6732 -0.3065
  862MPD2    H312659   4.373   3.306  10.064  0.2210 -1.0584 -0.6609
  862MPD2     N12660   4.441   2.958  10.353  0.1194 -0.1093 -0.2649
  862MPD2    H512661   4.419   2.891  10.280  0.6125 -1.1338  0.5312
  862MPD2    N112662   4.389   3.411  10.508  0.0061  0.5137 -0.1812
  862MPD2    H712663   4.432   3.375  10.593  0.8202  0.6713 -0.5213
  863MPD2     C12664   2.973   1.605  17.179 -0.1964 -0.3351 -0.0850
  863MPD2    C112665   3.021   1.729  17.146 -0.6762 -0.7401  0.1533
  863MPD2    C212666   3.140   1.770  17.199  0.0978  0.1498 -0.4171
  863MPD2    C312667   3.217   1.678  17.269  0.4066 -0.7751 -0.5062
  863MPD2    C412668   3.173   1.556  17.288 -0.4663 -0.0412 -0.4795
  863MPD2    C512669   3.045   1.516  17.261  0.0206 -0.0059  0.3235
  863MPD2     H12670   3.179   1.868  17.173  1.1426 -0.3676 -0.8022
  863MPD2    H112671   3.226   1.484  17.349 -0.4768 -2.3262 -3.1580
  863MPD2    H212672   2.879   1.562  17.145 -0.7570  1.3845 -0.7041
  863MPD2    H312673   2.993   1.428  17.297 -0.8935 -0.4011 -1.9907
  863MPD2     N12674   3.349   1.708  17.318 -0.0194  0.6625  0.3993
  863MPD2    H512675   3.411   1.638  17.357  0.5251  0.3772 -0.9919
  863MPD2    N112676   2.933   1.816  17.072  0.7554 -0.2761 -0.0846
  863MPD2    H712677   2.839   1.780  17.064  0.6897  0.1907 -1.3813
  864MPD2     C12678   3.199   3.206  16.136  0.2226 -0.0746  0.5116
  864MPD2    C112679   3.230   3.314  16.222  0.2753 -0.4958 -0.8116
  864MPD2    C212680   3.246   3.433  16.165 -0.0162  0.3786 -0.0279
  864MPD2    C312681   3.223   3.449  16.026  0.9773  0.3317  0.5386
  864MPD2    C412682   3.184   3.344  15.942 -0.4731 -0.3935  0.2543
  864MPD2    C512683   3.173   3.223  16.000 -0.5320 -0.3385  0.3479
  864MPD2     H12684   3.277   3.519  16.222 -1.9805  1.2124 -0.2404
  864MPD2    H112685   3.168   3.347  15.835  0.5129 -0.0028  0.1191
  864MPD2    H212686   3.179   3.104  16.169 -0.9482 -0.0663 -0.1925
  864MPD2    H312687   3.149   3.136  15.940 -0.7772  1.0582 -1.5671
  864MPD2     N12688   3.264   3.575  15.973 -0.0382 -0.2773  0.1321
  864MPD2    H512689   3.291   3.639  16.047  0.6474 -1.6437  1.0707
  864MPD2    N112690   3.248   3.279  16.355 -0.4988  0.1833  0.1164
  864MPD2    H712691   3.260   3.179  16.367  0.0443  0.2699  0.3008
  865MPD2     C12692   3.749   2.976  15.498  0.6359  0.2022 -0.3933
  865MPD2    C112693   3.738   2.977  15.633 -0.3175  0.1492  0.2086
  865MPD2    C212694   3.714   3.097  15.697  0.4433  0.3869 -0.3417
  865MPD2    C312695   3.683   3.214  15.628  0.0173  0.3087  0.9184
  865MPD2    C412696   3.692   3.215  15.488 -0.3616 -0.1694  0.0979
  865MPD2    C512697   3.728   3.095  15.427  0.2072  0.1220  0.2920
  865MPD2     H12698   3.709   3.103  15.805 -1.4523  0.4270 -0.4409
  865MPD2    H112699   3.675   3.298  15.421 -1.5983 -0.4729  0.0358
  865MPD2    H212700   3.786   2.895  15.436 -0.9116 -1.1006  0.4019
  865MPD2    H312701   3.735   3.092  15.319 -3.2078 -0.2328  0.0612
  865MPD2     N12702   3.655   3.327  15.710  0.2117 -0.0586 -0.1417
  865MPD2    H512703   3.638   3.319  15.810 -1.0047 -0.7572 -0.3933
  865MPD2    N112704   3.757   2.851  15.697  0.6072  0.1808  0.2364
  865MPD2    H712705   3.775   2.773  15.635  0.4005  0.9225 -0.7507
  866MPD2     C12706   0.358   4.055  11.624 -0.1707 -0.3120  0.2299
  866MPD2    C112707   0.372   4.023  11.489 -0.1809 -0.1732 -0.2084
  866MPD2    C212708   0.252   4.018  11.422 -0.4848 -0.5310  0.3113
  866MPD2    C312709   0.127   4.053  11.474  0.1401  0.0102  0.1936
  866MPD2    C412710   0.125   4.108  11.599 -0.2590 -0.0734  0.5641
  866MPD2    C512711   0.239   4.099  11.675 -0.0648 -0.0289 -0.6495
  866MPD2     H12712   0.259   3.972  11.324  1.8310  2.8345 -1.0884
  866MPD2    H112713   0.040   4.152  11.648 -0.6384 -1.3612  1.0747
  866MPD2    H212714   0.453   4.064  11.675 -1.5797 -0.6605  2.8624
  866MPD2    H312715   0.251   4.142  11.774  1.6299 -0.6714 -0.5767
  866MPD2     N12716   0.008   4.059  11.393  0.4952 -0.2277 -0.0346
  866MPD2    H512717   4.640   4.070  11.439 -1.2539  1.0101 -3.7428
  866MPD2    N112718   0.490   3.970  11.434  0.5357  0.2618  0.6514
  866MPD2    H712719   0.573   3.958  11.492 -0.9306  0.1825  2.7193
  867MPD2     C12720   2.938   3.144  16.523  0.6995  0.3124  0.2241
  867MPD2    C112721   2.977   3.116  16.650 -0.0777 -0.2979 -0.1105
  867MPD2    C212722   2.970   3.214  16.745  0.1408 -0.2565  0.5581
  867MPD2    C312723   2.915   3.342  16.722  0.5329  0.0328 -0.2119
  867MPD2    C412724   2.874   3.368  16.594  0.5365  0.3499  0.2698
  867MPD2    C512725   2.885   3.269  16.498 -0.5901 -0.5092  0.1905
  867MPD2     H12726   2.994   3.189  16.847  1.4691  0.9049  0.5267
  867MPD2    H112727   2.831   3.465  16.568 -1.6956 -0.5192  0.7166
  867MPD2    H212728   2.953   3.078  16.438 -1.7645  0.8422 -0.6091
  867MPD2    H312729   2.856   3.288  16.396 -0.7742 -1.1058  0.1295
  867MPD2     N12730   2.900   3.444  16.816 -0.0600 -0.1998  0.3180
  867MPD2    H512731   2.871   3.533  16.776  0.1607 -2.1139 -4.1236
  867MPD2    N112732   3.032   2.985  16.665 -0.0046  0.3639 -0.5645
  867MPD2    H712733   3.040   2.926  16.583 -1.8941  0.1439 -0.5914
  868MPD2     C12734   4.156   1.520  12.920 -0.0007  0.1346  0.1105
  868MPD2    C112735   4.214   1.476  13.032 -0.0715  0.3853  0.0059
  868MPD2    C212736   4.153   1.512  13.152  0.1022  0.2173 -0.0340
  868MPD2    C312737   4.043   1.596  13.157 -1.0001  0.0723 -0.3428
  868MPD2    C412738   3.989   1.630  13.040 -0.2346 -0.4412  0.1060
  868MPD2    C512739   4.042   1.593  12.920 -0.2566 -0.0637  0.0134
  868MPD2     H12740   4.193   1.495  13.252 -1.0618 -0.8541  0.2538
  868MPD2    H112741   3.906   1.699  13.035 -0.0620 -0.3593 -1.7056
  868MPD2    H212742   4.201   1.500  12.823  1.9974  1.4718  0.7855
  868MPD2    H312743   3.994   1.634  12.832  1.7750 -0.6187 -1.3619
  868MPD2     N12744   3.996   1.645  13.285 -0.7148  0.3276 -0.8806
  868MPD2    H512745   4.053   1.614  13.363 -1.2920  0.1891 -0.5109
  868MPD2    N112746   4.332   1.408  13.017 -0.0410  0.8391 -0.0564
  868MPD2    H712747   4.357   1.382  12.922  0.8862 -0.5144  0.5541
  869MPD2     C12748   1.112   4.422   1.848 -0.0510 -0.6608  0.1815
  869MPD2    C112749   0.980   4.396   1.870  0.2970  0.2850  0.2957
  869MPD2    C212750   0.892   4.419   1.771  0.1336  0.3088  1.0495
  869MPD2    C312751   0.932   4.488   1.655  0.0945 -0.2791  0.1563
  869MPD2    C412752   1.066   4.523   1.643  0.0872  0.1676  0.2706
  869MPD2    C512753   1.159   4.489   1.737  0.2841 -0.1519  0.2473
  869MPD2     H12754   0.786   4.416   1.792 -0.2651  1.9103 -0.6502
  869MPD2    H112755   1.094   4.591   1.563  0.1225  0.0008  0.1434
  869MPD2    H212756   1.183   4.392   1.925  0.7060 -2.6605 -1.3133
  869MPD2    H312757   1.258   4.531   1.741  0.0274  0.6340 -1.6392
  869MPD2     N12758   0.844   4.533   1.550 -0.7818 -0.1029 -0.0728
  869MPD2    H512759   0.887   4.584   1.473 -1.3178 -0.5749 -0.6807
  869MPD2    N112760   0.942   4.320   1.987 -0.3179  0.3780 -0.6632
  869MPD2    H712761   1.016   4.300   2.053 -1.5838 -0.2624  0.5688
  870MPD2     C12762   4.522   3.570   1.873  0.8551 -0.2336  0.3309
  870MPD2    C112763   4.653   3.598   1.836 -0.4208  0.0262  0.7375
  870MPD2    C212764   4.684   3.612   1.706  0.9134 -0.3813 -0.4863
  870MPD2    C312765   4.584   3.616   1.606 -0.2187  0.4878 -0.2326
  870MPD2    C412766   4.451   3.595   1.648  0.3819  0.0816  0.4973
  870MPD2    C512767   4.423   3.577   1.783  0.4675  0.1346 -0.0069
  870MPD2     H12768   0.058   3.644   1.665  0.4739  1.9818  0.3394
  870MPD2    H112769   4.370   3.607   1.577 -0.4925  1.2441  1.6894
  870MPD2    H212770   4.490   3.549   1.974  2.3448  1.1036  1.0759
  870MPD2    H312771   4.321   3.568   1.819  1.6191 -0.9579  2.9674
  870MPD2     N12772   4.627   3.648   1.469 -0.0427 -0.0479  0.0007
  870MPD2    H512773   0.006   3.661   1.464  0.1026 -0.7336  0.9458
  870MPD2    N112774   0.026   3.616   1.939 -0.6583  0.6463  0.2875
  870MPD2    H712775   4.703   3.603   2.030 -0.9755 -0.2244  0.0113
  871MPD2     C12776   1.586   2.900  16.314  0.4118 -0.1051 -0.3910
  871MPD2    C112777   1.534   2.848  16.431  0.0344 -0.0317  0.2925
  871MPD2    C212778   1.506   2.718  16.442  0.4610 -0.4118 -0.0703
  871MPD2    C312779   1.542   2.629  16.334 -0.1487 -0.3972  0.2247
  871MPD2    C412780   1.601   2.679  16.221 -0.3328  0.7872  0.0983
  871MPD2    C512781   1.609   2.815  16.210  0.0767 -0.6576  0.3173
  871MPD2     H12782   1.442   2.676  16.518  0.0872  1.5740  0.7166
  871MPD2    H112783   1.634   2.619  16.137 -1.5190 -0.0577  0.2364
  871MPD2    H212784   1.617   3.004  16.310  0.2720 -0.0014  1.0598
  871MPD2    H312785   1.638   2.852  16.113 -1.5606  0.0425  0.1014
  871MPD2     N12786   1.515   2.495  16.337  0.0709  0.7898  0.4287
  871MPD2    H512787   1.474   2.468  16.426  0.9833 -0.0003  0.6152
  871MPD2    N112788   1.507   2.945  16.525 -0.0986 -0.7005 -0.7175
  871MPD2    H712789   1.537   3.041  16.512 -2.0266  0.4464  3.2074
  872MPD2     C12790   2.219   0.586  14.159  0.3902  0.1362 -0.1952
  872MPD2    C112791   2.181   0.671  14.065  0.5791  0.3384 -0.5175
  872MPD2    C212792   2.058   0.733  14.075 -0.3159  0.0556  0.5646
  872MPD2    C312793   1.998   0.725  14.198  0.8425  0.1540 -0.6292
  872MPD2    C412794   2.053   0.656  14.300  0.6077  0.5044 -0.6063
  872MPD2    C512795   2.156   0.578  14.272  0.4664  0.2447 -0.4805
  872MPD2     H12796   2.017   0.794  13.995  0.0455 -0.1131  0.2475
  872MPD2    H112797   2.000   0.655  14.395  0.6001 -0.9859 -0.6207
  872MPD2    H212798   2.311   0.528  14.152  2.4789  3.5006 -0.6184
  872MPD2    H312799   2.195   0.510  14.347  0.2412  2.1353  1.3467
  872MPD2     N12800   1.878   0.785  14.235  0.0372  0.0245  0.4548
  872MPD2    H512801   1.849   0.769  14.331 -1.8042  1.6967  0.1884
  872MPD2    N112802   2.266   0.701  13.955  0.1716  0.3675 -0.4907
  872MPD2    H712803   2.235   0.776  13.895 -0.5647  2.1035  2.0266
  873MPD2     C12804   4.176   1.159   0.931 -0.0720  0.4239  0.1216
  873MPD2    C112805   4.055   1.127   0.984 -0.1418  0.3644  0.0542
  873MPD2    C212806   4.010   0.996   0.969 -0.6636 -1.2383 -0.1034
  873MPD2    C312807   4.090   0.897   0.913  0.4405 -1.1009 -0.0538
  873MPD2    C412808   4.203   0.935   0.845  0.2885  0.4013  0.1196
  873MPD2    C512809   4.248   1.065   0.862  0.6345 -0.4827 -0.1670
  873MPD2     H12810   3.922   0.967   1.026 -1.0517  1.3350  0.6068
  873MPD2    H112811   4.273   0.863   0.803 -0.9197  0.1156 -1.3760
  873MPD2    H212812   4.221   1.256   0.949  0.3863  0.3950 -0.9030
  873MPD2    H312813   4.351   1.079   0.831  0.5422  0.3062 -0.1309
  873MPD2     N12814   4.066   0.756   0.920  0.0173 -0.5120  0.4112
  873MPD2    H512815   4.123   0.691   0.867  1.8682  0.2411  1.4767
  873MPD2    N112816   3.991   1.211   1.079 -0.0121  0.4170 -0.1180
  873MPD2    H712817   4.042   1.294   1.108  0.2097  1.4822 -3.5791
  874MPD2     C12818   3.290   1.246  16.097 -0.3259 -0.0928  0.4433
  874MPD2    C112819   3.322   1.149  16.190  0.0826  0.3526  0.0210
  874MPD2    C212820   3.430   1.172  16.271 -0.2250  0.0688  0.5706
  874MPD2    C312821   3.513   1.287  16.260  0.5123 -0.6263 -0.0818
  874MPD2    C412822   3.491   1.378  16.164 -0.2233 -0.3291  1.3488
  874MPD2    C512823   3.378   1.354  16.085 -0.1533  0.0079 -0.4767
  874MPD2     H12824   3.464   1.106  16.350  0.7091  1.8793  1.6763
  874MPD2    H112825   3.549   1.469  16.164  0.5662 -0.8001 -2.5267
  874MPD2    H212826   3.203   1.243  16.033  0.4526  2.4235 -0.7393
  874MPD2    H312827   3.364   1.421  16.001 -1.7624 -0.5376 -0.6487
  874MPD2     N12828   3.614   1.293  16.360 -0.5332  0.2406  0.4248
  874MPD2    H512829   3.616   1.224  16.434  1.1387  0.8206  0.9223
  874MPD2    N112830   3.240   1.031  16.202  0.4707 -0.0207 -0.6673
  874MPD2    H712831   3.155   1.031  16.147  0.6527  2.7369 -0.9222
  875MPD2     C12832   0.436   3.833  14.711  0.0096 -0.5461 -0.5880
  875MPD2    C112833   0.321   3.907  14.699 -0.6186 -0.3406  0.2164
  875MPD2    C212834   0.283   3.976  14.816 -0.3917 -0.1036  0.9017
  875MPD2    C312835   0.353   3.977  14.935 -0.4890 -0.0241  1.3724
  875MPD2    C412836   0.477   3.915  14.935  0.5933 -0.1183  0.0218
  875MPD2    C512837   0.508   3.830  14.830 -0.0577 -0.1029 -0.0051
  875MPD2     H12838   0.194   4.037  14.812  0.9545  1.8608  1.0959
  875MPD2    H112839   0.528   3.914  15.031 -2.3334 -0.3717  1.5949
  875MPD2    H212840   0.481   3.777  14.630  0.1688  0.1730 -1.0028
  875MPD2    H312841   0.609   3.792  14.842 -0.9856 -1.9814  1.8789
  875MPD2     N12842   0.315   4.049  15.051  0.8216 -0.2870 -0.9310
  875MPD2    H512843   0.385   4.055  15.124 -1.8329  0.2186  1.5843
  875MPD2    N112844   0.235   3.911  14.587  1.0231 -0.1160 -0.0090
  875MPD2    H712845   0.150   3.967  14.589 -0.1444 -1.6832 -4.3184
  876MPD2     C12846   3.252   0.331  15.915  0.7288  0.2626 -0.0856
  876MPD2    C112847   3.391   0.332  15.906 -0.1353  0.7393  0.8443
  876MPD2    C212848   3.455   0.211  15.927 -0.2712  0.1523  0.3536
  876MPD2    C312849   3.382   0.104  15.982 -0.2235 -0.9253  0.4511
  876MPD2    C412850   3.245   0.109  15.993  0.2827  0.2537 -0.1859
  876MPD2    C512851   3.179   0.221  15.953  0.0605 -0.4227  0.0035
  876MPD2     H12852   3.562   0.211  15.912 -0.4146 -1.7425 -0.5777
  876MPD2    H112853   3.193   0.025  16.039 -0.0069 -0.3274 -1.5570
  876MPD2    H212854   3.190   0.417  15.891  0.4249 -0.3046 -1.3172
  876MPD2    H312855   3.071   0.224  15.960  0.2487  0.0778  2.8114
  876MPD2     N12856   3.461   4.712  16.015  0.0770  0.2945  0.2390
  876MPD2    H512857   3.562   0.007  16.018  0.0159  0.9859 -1.8473
  876MPD2    N112858   3.447   0.448  15.850 -0.4618 -0.5578 -0.3438
  876MPD2    H712859   3.385   0.524  15.825  1.0620  1.0915  0.8927
  877MPD2     C12860   3.373   0.806  15.169  0.1603 -0.0346 -0.1525
  877MPD2    C112861   3.493   0.847  15.220 -0.1081 -0.3095 -0.4885
  877MPD2    C212862   3.571   0.929  15.138  0.0079 -0.2827 -0.2435
  877MPD2    C312863   3.533   0.951  15.008 -0.3431 -0.4044 -0.9535
  877MPD2    C412864   3.409   0.909  14.959  0.2845 -0.5658  0.0921
  877MPD2    C512865   3.329   0.832  15.039  0.7727  0.1874 -0.1747
  877MPD2     H12866   3.665   0.965  15.178  0.2506 -0.8217 -0.3242
  877MPD2    H112867   3.376   0.923  14.857 -0.8092 -0.8937  0.3969
  877MPD2    H212868   3.300   0.751  15.228 -0.7762 -0.6597 -1.8811
  877MPD2    H312869   3.231   0.804  15.002  0.6721  0.4534 -0.1069
  877MPD2     N12870   3.594   1.032  14.912  0.5516 -0.7151 -0.8085
  877MPD2    H512871   3.538   1.052  14.830 -0.3090  1.5881  0.3496
  877MPD2    N112872   3.540   0.817  15.350  0.9106 -0.4223 -0.1291
  877MPD2    H712873   3.630   0.857  15.374  0.9251 -1.9136  2.2974
  878MPD2     C12874   3.448   4.716  13.106 -0.4036 -0.1448 -0.5489
  878MPD2    C112875   3.478   0.126  13.082 -0.0449  0.6096 -0.5608
  878MPD2    C212876   3.482   0.215  13.196 -0.7197  0.5189 -0.1121
  878MPD2    C312877   3.452   0.172  13.322 -0.2021  0.0463 -0.2834
  878MPD2    C412878   3.428   0.040  13.343 -0.5209 -0.0795  0.2887
  878MPD2    C512879   3.437   4.675  13.235 -1.0923  0.3187  0.2144
  878MPD2     H12880   3.484   0.322  13.181  0.8392  0.7702  1.8506
  878MPD2    H112881   3.411   4.706  13.435  0.5638 -0.2603  0.3778
  878MPD2    H212882   3.461   4.639  13.031  0.5442  1.6958 -2.2464
  878MPD2    H312883   3.416   4.570  13.253 -2.7738  0.6984  0.5218
  878MPD2     N12884   3.444   0.267  13.431  0.2294 -0.6161 -0.1719
  878MPD2    H512885   3.505   0.346  13.414  0.2223 -0.1715  1.8386
  878MPD2    N112886   3.498   0.166  12.947  1.0966 -0.4511 -0.6302
  878MPD2    H712887   3.492   0.096  12.875 -1.0395  2.1460 -2.9381
  879MPD2     C12888   3.579   1.951  17.011 -0.2101  0.1764 -0.1601
  879MPD2    C112889   3.651   1.839  17.039  0.1388  0.6600  0.1359
  879MPD2    C212890   3.582   1.715  17.037 -0.2465 -0.2823 -0.1175
  879MPD2    C312891   3.452   1.704  16.994  0.0900 -0.1002  0.2279
  879MPD2    C412892   3.386   1.824  16.980 -0.5592  0.4838 -0.4847
  879MPD2    C512893   3.451   1.938  16.983  0.9299  0.6294 -0.1453
  879MPD2     H12894   3.625   1.616  17.048  0.6263  0.0750 -0.2549
  879MPD2    H112895   3.279   1.826  16.960 -0.9122  2.0540  1.5835
  879MPD2    H212896   3.616   2.051  17.028  0.6038 -0.4482  1.8359
  879MPD2    H312897   3.388   2.026  16.973 -0.6128 -0.2417  1.8947
  879MPD2     N12898   3.378   1.585  16.984 -0.5890 -0.0947 -0.0849
  879MPD2    H512899   3.283   1.588  16.948 -0.0287 -0.9679 -1.6711
  879MPD2    N112900   3.784   1.849  17.081  0.0076  1.1041 -0.3458
  879MPD2    H712901   3.828   1.941  17.084  1.6544  0.2906  0.5008
  880MPD2     C12902   0.915   2.870   0.198 -0.0035  0.2218 -0.0213
  880MPD2    C112903   0.893   2.902   0.331 -0.5275 -0.4063  0.0810
  880MPD2    C212904   0.924   2.813   0.433 -0.1072  0.0033  0.5564
  880MPD2    C312905   0.969   2.686   0.399 -0.6755 -0.2028  0.5148
  880MPD2    C412906   1.006   2.661   0.266  0.1102 -0.2738  0.1171
  880MPD2    C512907   0.981   2.751   0.163  1.0646 -0.4077  0.4901
  880MPD2     H12908   0.904   2.829   0.538  0.0139  0.4395  0.5122
  880MPD2    H112909   1.056   2.569   0.237 -0.5844 -0.1932 -1.3129
  880MPD2    H212910   0.908   2.946   0.121  0.8206  0.1471 -0.1722
  880MPD2    H312911   1.017   2.728   0.063 -0.5924  1.6264 -0.5672
  880MPD2     N12912   0.990   2.592   0.500  0.5124 -0.0585 -0.9017
  880MPD2    H512913   0.970   2.614   0.597 -2.3921 -0.7474 -1.3735
  880MPD2    N112914   0.830   3.031   0.349  0.1045  0.1556  0.2452
  880MPD2    H712915   0.819   3.087   0.265 -1.4336  1.3234  1.2339
  881MPD2     C12916   0.464   3.817  17.566 -0.2758 -0.7055 -0.0096
  881MPD2    C112917   0.542   3.704  17.544 -0.0318  0.2105 -0.3113
  881MPD2    C212918   0.567   3.621  17.649 -0.3021 -0.2007 -0.2604
  881MPD2    C312919   0.524   3.646   0.096 -0.2085 -0.3727 -0.4577
  881MPD2    C412920   0.450   3.764   0.111 -0.5541  0.4305 -0.5009
  881MPD2    C512921   0.427   3.850   0.003 -0.3181  0.1577  0.1320
  881MPD2     H12922   0.602   3.520  17.633  2.0888  0.5935  0.0162
  881MPD2    H112923   0.411   3.791   0.208  0.5587 -1.5203  0.4865
  881MPD2    H212924   0.442   3.875  17.477  1.0904  0.3765  0.3574
  881MPD2    H312925   0.379   3.946   0.023  1.0329  0.7040  0.6946
  881MPD2     N12926   0.540   3.552   0.207 -0.3785 -0.2020  0.1578
  881MPD2    H512927   0.499   3.583   0.294  0.9436 -0.6304  0.9201
  881MPD2    N112928   0.566   3.667  17.417  0.0976 -0.0852  0.7349
  881MPD2    H712929   0.546   3.742  17.351  0.3818  1.6941  2.6751
  882MPD2     C12930   3.792   0.790  14.290 -0.0158 -0.0177  0.6062
  882MPD2    C112931   3.693   0.878  14.341  0.0660 -0.3141  0.2580
  882MPD2    C212932   3.559   0.853  14.316 -0.0547 -0.5877 -0.0818
  882MPD2    C312933   3.524   0.745  14.229  0.2662 -0.2216  0.4296
  882MPD2    C412934   3.624   0.664  14.181 -0.8176  0.4097 -0.1937
  882MPD2    C512935   3.756   0.685  14.211 -1.1214 -0.4433 -0.2322
  882MPD2     H12936   3.488   0.914  14.370 -1.6976 -1.4733 -1.2247
  882MPD2    H112937   3.594   0.567  14.141 -2.1200  0.3995  0.8296
  882MPD2    H212938   3.897   0.817  14.295 -0.3308  1.6633 -1.7202
  882MPD2    H312939   3.824   0.605  14.183  1.4394  1.7848 -0.3633
  882MPD2     N12940   3.391   0.712  14.198  0.4948  0.2824  0.1548
  882MPD2    H512941   3.379   0.619  14.159 -1.2041 -0.3982  2.2729
  882MPD2    N112942   3.744   0.989  14.417  0.3835 -0.1962  0.6059
  882MPD2    H712943   3.841   0.982  14.445  0.8509 -0.1576 -1.0120
  883MPD2     C12944   0.988   0.778  16.580 -0.5533  0.0912 -0.0133
  883MPD2    C112945   1.034   0.725  16.459 -1.0976 -0.1809  0.0985
  883MPD2    C212946   1.157   0.672  16.442  0.3023  0.0735 -0.7737
  883MPD2    C312947   1.229   0.649  16.557  0.1637  0.0556 -0.5520
  883MPD2    C412948   1.186   0.699  16.682 -0.3604  0.4242  0.5072
  883MPD2    C512949   1.066   0.757  16.691  0.5497  0.0078 -0.0827
  883MPD2     H12950   1.207   0.662  16.347 -1.4462  0.2012 -1.7143
  883MPD2    H112951   1.236   0.695  16.778 -1.6850 -1.7850  1.1115
  883MPD2    H212952   0.896   0.831  16.602  0.0626  0.0777  2.6312
  883MPD2    H312953   1.029   0.794  16.786  2.4754  1.4750  0.0783
  883MPD2     N12954   1.351   0.584  16.552  0.0456 -0.9623  0.5791
  883MPD2    H512955   1.389   0.570  16.459 -1.4998  0.3169 -0.2301
  883MPD2    N112956   0.974   0.759  16.334 -0.2998  0.1456 -0.5935
  883MPD2    H712957   1.009   0.724  16.246  1.8147 -1.3578  0.8510
  884MPD2     C12958   2.927   1.548  14.890  0.4766 -0.2931 -0.1326
  884MPD2    C112959   2.923   1.677  14.946  0.0849 -0.9999 -0.4120
  884MPD2    C212960   2.802   1.747  14.954  0.5803  0.2609  0.0878
  884MPD2    C312961   2.689   1.685  14.918  0.5374  0.4836  0.3776
  884MPD2    C412962   2.689   1.553  14.863  0.4237 -0.0240 -0.1939
  884MPD2    C512963   2.809   1.494  14.838  0.4169  0.3488 -0.7076
  884MPD2     H12964   2.800   1.847  14.994 -2.8001  0.3770 -0.3912
  884MPD2    H112965   2.602   1.495  14.837  1.4578 -1.4170 -0.5647
  884MPD2    H212966   3.019   1.498  14.862  0.0331 -1.2445  0.1080
  884MPD2    H312967   2.811   1.405  14.776 -0.4399  0.9140 -1.5565
  884MPD2     N12968   2.572   1.763  14.933 -0.3882  0.3253  0.0386
  884MPD2    H512969   2.581   1.862  14.951 -0.2603  0.4389 -0.6497
  884MPD2    N112970   3.043   1.745  14.981  0.4396 -0.7171 -0.2387
  884MPD2    H712971   3.049   1.845  14.997  1.8755 -0.5137 -2.1048
  885MPD2     C12972   1.086   1.904   0.134  0.0114  0.3040 -0.6257
  885MPD2    C112973   1.133   1.783   0.081 -0.3665  0.1063 -0.0362
  885MPD2    C212974   1.132   1.765  17.632 -0.0877  0.0619  0.4100
  885MPD2    C312975   1.104   1.867  17.548 -0.2693 -0.4056  0.0096
  885MPD2    C412976   1.069   1.990  17.603  0.6191  0.5617 -0.1547
  885MPD2    C512977   1.051   1.999   0.052 -0.0321 -0.3570  0.2315
  885MPD2     H12978   1.146   1.663  17.597  2.8147  0.6062 -0.0265
  885MPD2    H112979   1.059   2.083  17.549 -0.9444 -0.1894 -1.1680
  885MPD2    H212980   1.059   1.927   0.236 -0.0449  0.4795 -0.6804
  885MPD2    H312981   1.032   2.095   0.098  1.0161 -0.4191  0.7851
  885MPD2     N12982   1.096   1.838  17.410  0.0425 -0.3087  0.1798
  885MPD2    H512983   1.103   1.744  17.375 -1.0774 -0.5551  0.6180
  885MPD2    N112984   1.182   1.669   0.154  0.7997 -0.7167 -0.1056
  885MPD2    H712985   1.225   1.590   0.106 -0.7911 -1.1838 -0.7726
  886MPD2     C12986   2.110   0.133  14.752 -0.0434 -0.4381 -0.2105
  886MPD2    C112987   2.202   0.154  14.852  0.0216 -0.3440  0.5755
  886MPD2    C212988   2.261   0.278  14.844  0.4230 -0.4544 -0.4023
  886MPD2    C312989   2.235   0.364  14.739  0.0641  0.1350  0.7081
  886MPD2    C412990   2.132   0.348  14.646 -0.1264 -0.4975 -0.2401
  886MPD2    C512991   2.079   0.228  14.652  0.0004  0.4666 -0.0183
  886MPD2     H12992   2.346   0.294  14.909  0.7962 -0.9484 -0.7709
  886MPD2    H112993   2.100   0.421  14.572 -1.0224 -0.9536 -0.3110
  886MPD2    H212994   2.050   0.043  14.759 -1.3483  0.3761 -0.9350
  886MPD2    H312995   1.994   0.197  14.593  1.4150 -0.9502 -1.3355
  886MPD2     N12996   2.307   0.488  14.736  0.1045  0.3352 -0.3786
  886MPD2    H512997   2.285   0.549  14.658  0.7960  1.2438  0.1422
  886MPD2    N112998   2.240   0.057  14.959 -0.2922 -0.3908  0.5810
  886MPD2    H712999   2.310   0.079  15.028  0.4146  1.1489 -0.6364
  887MPD2     C13000   2.670   4.652  15.552 -0.3184  0.6011 -0.3613
  887MPD2    C113001   2.623   0.023  15.458 -0.0141 -0.4916  0.5215
  887MPD2    C213002   2.696   0.140  15.444 -0.0882  0.4862 -0.1377
  887MPD2    C313003   2.806   0.180  15.522 -0.1522  0.2415 -0.0360
  887MPD2    C413004   2.843   0.086  15.610  0.0739  0.4248 -0.5736
  887MPD2    C513005   2.785   4.685  15.625 -0.5879 -0.1229  0.2533
  887MPD2     H13006   2.665   0.206  15.363  0.2114  0.7482 -0.0411
  887MPD2    H113007   2.922   0.109  15.681  0.4640  0.3368 -0.9761
  887MPD2    H213008   2.619   4.557  15.565  0.7770 -0.3466 -2.9343
  887MPD2    H313009   2.817   4.621  15.706 -2.0807 -0.1982  0.7739
  887MPD2     N13010   2.861   0.310  15.512  0.6461 -0.1404  0.1935
  887MPD2    H513011   2.815   0.376  15.451 -0.7397  0.1315  1.5491
  887MPD2    N113012   2.516   4.714  15.373  0.1196  0.4189 -0.2724
  887MPD2    H713013   2.510   0.047  15.288  1.4998  2.3590  0.8587
  888MPD2     C13014   0.180   0.378  14.873 -0.0203 -1.5495  0.1984
  888MPD2    C113015   0.113   0.387  14.994 -0.0699 -0.1501 -0.1045
  888MPD2    C213016   0.161   0.491  15.084  0.2283  0.3447  0.0463
  888MPD2    C313017   0.255   0.579  15.037 -0.4803 -0.9625  0.2489
  888MPD2    C413018   0.303   0.576  14.907  0.4603 -0.5015  0.6859
  888MPD2    C513019   0.256   0.476  14.826 -0.9768  0.2666  0.3406
  888MPD2     H13020   0.123   0.499  15.185 -0.8978  1.0810 -0.4282
  888MPD2    H113021   0.368   0.654  14.868 -0.6941 -0.6191 -1.4578
  888MPD2    H213022   0.142   0.311  14.796  1.7680  0.2986 -2.2845
  888MPD2    H313023   0.288   0.480  14.723  2.7459 -3.4017  1.3440
  888MPD2     N13024   0.297   0.690  15.121 -0.3830 -0.6232  0.0314
  888MPD2    H513025   0.262   0.695  15.216 -2.1332  0.5633 -0.6861
  888MPD2    N113026   0.009   0.306  15.038 -0.5705 -0.3984 -0.5242
  888MPD2    H713027   4.681   0.326  15.124  0.5210  0.0528 -0.0054
  889MPD2     C13028   3.856   0.089  12.703  0.8812 -0.5090 -0.9025
  889MPD2    C113029   3.840   0.009  12.810  0.2882  0.6367 -0.1170
  889MPD2    C213030   3.866   0.067  12.937 -0.5938 -0.3435 -0.1694
  889MPD2    C313031   3.858   0.203  12.961  0.0898  0.7854 -0.7604
  889MPD2    C413032   3.854   0.278  12.846  0.5621 -0.0972  0.3307
  889MPD2    C513033   3.855   0.222  12.721  0.0541  0.0473 -0.2001
  889MPD2     H13034   3.878   4.719  13.020 -2.3798 -0.8551 -0.3368
  889MPD2    H113035   3.830   0.384  12.847 -2.4463 -0.7602 -1.7842
  889MPD2    H213036   3.858   0.054  12.600  1.7474  0.4260 -1.2084
  889MPD2    H313037   3.840   0.290  12.638 -2.4316  0.2490  0.4091
  889MPD2     N13038   3.860   0.254  13.091 -0.7514  0.3347  0.3513
  889MPD2    H513039   3.878   0.189  13.167  0.6062 -0.0079 -0.2551
  889MPD2    N113040   3.866   4.588  12.798  0.4931  0.2512 -0.1750
  889MPD2    H713041   3.904   4.538  12.878  2.2762  1.0267 -0.5425
  890MPD2     C13042   3.631   1.611  14.736 -0.3422  0.4897 -0.3516
  890MPD2    C113043   3.690   1.712  14.800  0.1787 -0.2368  0.6683
  890MPD2    C213044   3.732   1.697  14.934 -0.0691 -0.8504 -0.2998
  890MPD2    C313045   3.680   1.591  15.001 -0.5399 -0.4156 -0.3477
  890MPD2    C413046   3.624   1.486  14.927  0.3745 -0.0392 -0.1203
  890MPD2    C513047   3.598   1.495  14.799  0.0737  0.0584  0.0283
  890MPD2     H13048   3.767   1.784  14.989  1.3941 -2.3712  1.1767
  890MPD2    H113049   3.608   1.388  14.971  2.9045 -1.6743 -2.8358
  890MPD2    H213050   3.609   1.620  14.630  0.0632 -1.4832 -0.6002
  890MPD2    H313051   3.555   1.416  14.739 -1.1885  0.8946 -0.1646
  890MPD2     N13052   3.708   1.586  15.138 -0.0912 -0.4656  0.3444
  890MPD2    H513053   3.778   1.651  15.173 -1.6366 -0.1375  2.8205
  890MPD2    N113054   3.711   1.830  14.721 -0.4909  0.4567 -0.0241
  890MPD2    H713055   3.689   1.834  14.622 -1.1559  0.6464  0.1285
  891MPD2     C13056   1.804   0.009  16.185 -0.4000 -0.1516 -0.1629
  891MPD2    C113057   1.705   4.708  16.272 -0.1037 -0.1214 -0.2098
  891MPD2    C213058   1.711   4.599  16.355  0.6796  0.7022 -0.0691
  891MPD2    C313059   1.814   4.504  16.352  1.0422  0.5204 -0.7827
  891MPD2    C413060   1.916   4.530  16.256  0.5886 -0.0971 -0.3131
  891MPD2    C513061   1.912   4.648  16.180  1.0183 -0.2766  0.3496
  891MPD2     H13062   1.629   4.586  16.424  2.3618  0.5833  1.8902
  891MPD2    H113063   1.986   4.454  16.222  0.0443  0.7540 -3.3670
  891MPD2    H213064   1.805   0.100  16.126  1.2381  0.0797  0.1969
  891MPD2    H313065   1.993   4.669  16.111  1.3093 -0.4433  0.6420
  891MPD2     N13066   1.809   4.392  16.438 -0.3681  0.2020 -0.1489
  891MPD2    H513067   1.742   4.381  16.514 -0.3102 -1.0380 -0.2789
  891MPD2    N113068   1.598   0.085  16.271 -0.0630 -0.9214 -0.2135
  891MPD2    H713069   1.596   0.154  16.196  4.2508 -0.1829  0.3557
  892MPD2     C13070   2.551   1.289  14.051 -0.0431  0.7239 -0.7091
  892MPD2    C113071   2.573   1.255  14.180  0.5240 -0.2450 -0.1732
  892MPD2    C213072   2.666   1.156  14.212  0.1216  0.1668 -0.5993
  892MPD2    C313073   2.747   1.100  14.117 -0.6094  0.3806  0.2641
  892MPD2    C413074   2.718   1.129  13.990  0.2859  0.6844  0.2348
  892MPD2    C513075   2.621   1.222  13.954  0.2698 -0.0778  0.0606
  892MPD2     H13076   2.673   1.123  14.315 -1.4108  1.1336 -0.1789
  892MPD2    H113077   2.789   1.094  13.916  0.0072  0.5088  0.0475
  892MPD2    H213078   2.491   1.374  14.021 -0.4724  0.4308 -0.6784
  892MPD2    H313079   2.608   1.256  13.852  0.3526 -1.3024 -0.3544
  892MPD2     N13080   2.848   0.998  14.129  0.2795  0.4775  0.0317
  892MPD2    H513081   2.896   0.957  14.050 -1.0701 -1.3245  0.1369
  892MPD2    N113082   2.511   1.311  14.287  0.0448  0.2077  0.0204
  892MPD2    H713083   2.542   1.287  14.380 -0.1036  0.0962  0.0404
  893MPD2     C13084   4.058   3.985   1.524 -0.3748 -0.1929 -0.9797
  893MPD2    C113085   4.119   3.924   1.629 -0.1650 -0.4333  0.0304
  893MPD2    C213086   4.045   3.834   1.709  0.1632 -0.2551  0.7346
  893MPD2    C313087   3.916   3.797   1.672 -0.2504  1.1313 -0.2142
  893MPD2    C413088   3.859   3.852   1.558  0.9810 -0.8000  0.1992
  893MPD2    C513089   3.932   3.948   1.487 -0.3557 -0.3593 -0.4581
  893MPD2     H13090   4.094   3.786   1.793 -0.7777  0.1499  1.5148
  893MPD2    H113091   3.765   3.812   1.522  0.2975  2.1686 -1.3283
  893MPD2    H213092   4.119   4.051   1.464  0.6568  0.3566  0.6777
  893MPD2    H313093   3.893   3.983   1.392 -0.8350  0.6575  0.1139
  893MPD2     N13094   3.830   3.713   1.749 -0.1316  0.3607 -0.3330
  893MPD2    H513095   3.737   3.705   1.709 -0.9783  2.1245  1.2834
  893MPD2    N113096   4.258   3.958   1.639 -1.0285 -0.0369 -0.1890
  893MPD2    H713097   4.298   4.013   1.564  0.2123 -0.2659  0.3114
  894MPD2     C13098   2.893   2.082   1.249  0.0653  0.2347 -0.5244
  894MPD2    C113099   2.912   2.153   1.364  0.1485  0.4169 -0.2238
  894MPD2    C213100   2.986   2.267   1.361  0.3002 -0.3731  0.5000
  894MPD2    C313101   3.019   2.329   1.244  0.1081  0.6763  0.0327
  894MPD2    C413102   2.996   2.259   1.132  0.3831 -0.3486  0.1827
  894MPD2    C513103   2.939   2.135   1.129 -0.1183  0.3213  0.1630
  894MPD2     H13104   2.998   2.324   1.452 -2.3725 -0.5499  0.9445
  894MPD2    H113105   3.016   2.299   1.033  1.1994 -0.7169  0.2009
  894MPD2    H213106   2.832   1.993   1.239 -2.7747  1.6898  3.7237
  894MPD2    H313107   2.922   2.083   1.035  1.1852 -0.7084  0.5063
  894MPD2     N13108   3.072   2.464   1.251 -0.5335 -0.5690 -0.7239
  894MPD2    H513109   3.076   2.502   1.345 -0.3505  2.4554 -1.9306
  894MPD2    N113110   2.845   2.118   1.483 -0.2756  0.4215  0.2765
  894MPD2    H713111   2.867   2.166   1.569  2.2960  0.3811 -0.3523
  895MPD2     C13112   1.778   0.581  13.742 -0.2449 -0.0514 -0.4222
  895MPD2    C113113   1.703   0.526  13.639 -0.1628 -0.2873  0.4887
  895MPD2    C213114   1.749   0.420  13.568 -0.2377 -0.3431 -0.3214
  895MPD2    C313115   1.863   0.354  13.606 -0.4795 -0.5214 -0.5076
  895MPD2    C413116   1.936   0.409  13.715  0.7851 -0.5201 -0.1744
  895MPD2    C513117   1.899   0.522  13.778 -0.1452 -0.0337 -0.0769
  895MPD2     H13118   1.683   0.383  13.490 -0.9336  3.2367 -1.4332
  895MPD2    H113119   2.027   0.364  13.752  0.2993 -1.4279 -0.0862
  895MPD2    H213120   1.732   0.658  13.803 -1.3766  0.5535 -2.0310
  895MPD2    H313121   1.959   0.555  13.862 -0.6572  0.5221  0.0720
  895MPD2     N13122   1.892   0.227  13.547  0.3813 -0.1354 -0.1830
  895MPD2    H513123   1.841   0.199  13.464 -4.0942 -1.7071  3.1081
  895MPD2    N113124   1.585   0.590  13.589 -0.0924  0.6414  0.1138
  895MPD2    H713125   1.549   0.551  13.502  0.2157  1.5975 -0.4430
  896MPD2     C13126   4.254   2.602   2.371  0.5612 -0.3698 -0.0499
  896MPD2    C113127   4.296   2.603   2.247 -0.4940  0.6886 -0.3138
  896MPD2    C213128   4.202   2.613   2.140  0.6297 -0.4152 -0.4108
  896MPD2    C313129   4.072   2.596   2.172 -0.4370 -0.0989  0.1636
  896MPD2    C413130   4.030   2.581   2.306  0.4600  0.3878 -0.1469
  896MPD2    C513131   4.124   2.597   2.403 -0.9086  0.2175 -0.6355
  896MPD2     H13132   4.234   2.633   2.039  2.2962 -1.0921 -0.0212
  896MPD2    H113133   3.927   2.559   2.331  0.3252  1.1995  0.0118
  896MPD2    H213134   4.340   2.604   2.437  1.0970  0.7306 -0.7743
  896MPD2    H313135   4.087   2.582   2.504 -1.5213  0.2474 -0.8537
  896MPD2     N13136   3.982   2.602   2.063  0.1072  0.0790 -0.0892
  896MPD2    H513137   4.027   2.634   1.978  0.1024 -0.8916 -0.4579
  896MPD2    N113138   4.436   2.614   2.230  0.1155  0.3240  0.2816
  896MPD2    H713139   4.499   2.645   2.304 -1.2163 -0.3460  1.6838
  897MPD2     C13140   0.287   4.369  10.139  0.4297  0.0496 -0.4540
  897MPD2    C113141   0.241   4.484  10.204 -0.5804 -0.7177 -0.0270
  897MPD2    C213142   0.187   4.465  10.324  0.1914  0.7141  0.4900
  897MPD2    C313143   0.189   4.340  10.390 -0.4139  0.2014  0.1371
  897MPD2    C413144   0.244   4.223  10.324 -0.0529  0.3986 -0.4917
  897MPD2    C513145   0.288   4.244  10.200  0.7503  0.7809  0.4142
  897MPD2     H13146   0.144   4.543  10.387 -1.3829  0.1418  0.1068
  897MPD2    H113147   0.241   4.125  10.370  0.4979 -0.0886 -1.5065
  897MPD2    H213148   0.329   4.376  10.039 -1.4147 -0.8806 -1.2938
  897MPD2    H313149   0.330   4.161  10.144 -0.4921 -0.1308  0.8599
  897MPD2     N13150   0.115   4.333  10.517  0.5559  0.1523  0.3573
  897MPD2    H513151   0.061   4.414  10.542 -4.0328 -2.0675 -2.3027
  897MPD2    N113152   0.266   4.615  10.150  0.4798  0.2168  0.2610
  897MPD2    H713153   0.307   4.624  10.058 -0.1615 -0.2461 -0.0640
  898MPD2     C13154   3.112   4.560  17.089  0.5722  0.2137  0.2423
  898MPD2    C113155   3.059   4.641  17.179  0.5063  0.1581  0.2593
  898MPD2    C213156   2.995   0.030  17.131  1.0300  0.4669  0.1073
  898MPD2    C313157   2.985   0.057  16.991 -0.6152 -0.1011 -0.1333
  898MPD2    C413158   3.032   4.682  16.904  0.0580  0.3113  0.3456
  898MPD2    C513159   3.094   4.575  16.954  0.0760 -0.1541 -0.4364
  898MPD2     H13160   2.942   0.095  17.200  0.3665  1.0714 -0.9649
  898MPD2    H113161   3.014   4.675  16.798  2.3679  1.6295 -0.1417
  898MPD2    H213162   3.167   4.473  17.123  1.0082 -1.0872 -3.8432
  898MPD2    H313163   3.124   4.498  16.884  0.7582 -0.1672 -0.1350
  898MPD2     N13164   2.912   0.166  16.938 -0.4188  0.3601  0.1080
  898MPD2    H513165   2.894   0.158  16.838 -1.6736 -2.1919  0.5405
  898MPD2    N113166   3.078   4.625  17.319  0.2991  0.3110 -0.3437
  898MPD2    H713167   3.033   4.693  17.380  1.6333 -0.1369  1.1493
  899MPD2     C13168   3.503   1.346   0.042 -0.1261  0.5852 -0.2083
  899MPD2    C113169   3.531   1.467   0.090 -0.2878 -0.2225 -0.3846
  899MPD2    C213170   3.513   1.492   0.227  0.4169 -0.3655  0.8642
  899MPD2    C313171   3.469   1.386   0.303  0.3333  0.7295  0.2427
  899MPD2    C413172   3.449   1.264   0.251 -0.5661 -0.0606 -0.7714
  899MPD2    C513173   3.460   1.245   0.122  0.4183 -0.3175 -0.7760
  899MPD2     H13174   3.528   1.593   0.265  1.8477  0.5229 -2.0780
  899MPD2    H113175   3.414   1.183   0.314  0.3930  0.3151  0.2423
  899MPD2    H213176   3.510   1.327  17.623  0.2396  2.1666 -0.4642
  899MPD2    H313177   3.434   1.148   0.080  0.5405 -0.6500 -0.0805
  899MPD2     N13178   3.425   1.404   0.433 -0.5987  0.6590 -0.8152
  899MPD2    H513179   3.344   1.346   0.454 -0.9759  1.4962  0.0555
  899MPD2    N113180   3.573   1.564  17.686 -0.0314  0.3265  0.0415
  899MPD2    H713181   3.559   1.540  17.588 -1.7921  0.9450  0.1419
  900MPD2     C13182   3.217   2.970  12.513 -0.3654  0.5164 -0.1972
  900MPD2    C113183   3.133   2.878  12.558  0.0057  0.9868  0.7150
  900MPD2    C213184   2.996   2.887  12.515  0.2330  0.1695  0.1893
  900MPD2    C313185   2.958   2.979  12.421  0.0668 -0.2708 -0.0176
  900MPD2    C413186   3.049   3.076  12.396 -0.2284 -0.4774 -0.5743
  900MPD2    C513187   3.177   3.077  12.437  0.6068  0.5694 -0.4093
  900MPD2     H13188   2.926   2.812  12.549  0.3835 -0.1915 -0.3050
  900MPD2    H113189   3.032   3.172  12.349 -0.1621 -0.2919 -0.2158
  900MPD2    H213190   3.323   2.960  12.531 -0.4970 -1.8969 -0.7099
  900MPD2    H313191   3.251   3.144  12.394 -0.1466  1.1388 -0.8085
  900MPD2     N13192   2.826   2.983  12.370 -0.3265  0.3375  0.2538
  900MPD2    H513193   2.767   2.904  12.392 -0.3352  0.5943  1.1417
  900MPD2    N113194   3.186   2.779  12.635 -0.6035  0.2655  0.9088
  900MPD2    H713195   3.287   2.786  12.642 -0.6192  1.5520 -0.1096
  901MPD2     C13196   3.127   1.895  13.267 -0.6207  0.5054  0.0233
  901MPD2    C113197   3.159   1.858  13.136 -0.3417 -0.3586  0.2633
  901MPD2    C213198   3.196   1.971  13.051 -0.1299  0.4012  0.7193
  901MPD2    C313199   3.177   2.105  13.090 -0.3896 -0.0346 -0.1961
  901MPD2    C413200   3.130   2.129  13.220 -1.1583 -0.5637  0.4091
  901MPD2    C513201   3.108   2.026  13.309  0.3503  0.7589  0.0078
  901MPD2     H13202   3.247   1.955  12.957  0.6992 -1.9129  1.5476
  901MPD2    H113203   3.116   2.229  13.259 -0.7836 -0.6469  0.7595
  901MPD2    H213204   3.093   1.816  13.333 -1.1507  1.2418  0.6417
  901MPD2    H313205   3.080   2.050  13.411  1.4459  3.3590 -0.2930
  901MPD2     N13206   3.222   2.208  13.004  0.2612  0.0506 -0.2168
  901MPD2    H513207   3.258   2.172  12.916  1.4251  0.5327  0.0631
  901MPD2    N113208   3.157   1.721  13.105  0.5987  0.7737  0.2176
  901MPD2    H713209   3.118   1.655  13.171 -1.0977  1.8272  0.2568
  902MPD2     C13210   1.813   0.880  13.474 -0.1050  0.3398  0.2910
  902MPD2    C113211   1.751   0.933  13.363 -0.1603  0.6976  0.2978
  902MPD2    C213212   1.760   0.860  13.240  0.8817 -0.1650 -0.2540
  902MPD2    C313213   1.830   0.746  13.227  0.0227  0.5837  0.0321
  902MPD2    C413214   1.897   0.695  13.335  0.6793 -0.0236 -0.2782
  902MPD2    C513215   1.885   0.763  13.459 -0.1430 -0.2768  0.1274
  902MPD2     H13216   1.711   0.904  13.154 -1.0421 -1.4893  0.1743
  902MPD2    H113217   1.966   0.612  13.328  0.7941  0.0969 -0.5627
  902MPD2    H213218   1.819   0.922  13.574 -0.1488  0.6601  0.1597
  902MPD2    H313219   1.948   0.728  13.541 -2.2497 -0.5313  1.6310
  902MPD2     N13220   1.848   0.686  13.101 -0.6228  0.3647  0.4719
  902MPD2    H513221   1.889   0.593  13.097 -1.9790 -0.2944  1.6240
  902MPD2    N113222   1.692   1.061  13.364  0.0408 -0.4128  0.1611
  902MPD2    H713223   1.703   1.114  13.450  0.2595 -0.7033  0.3142
  903MPD2     C13224   1.957   0.564  12.194 -0.0344 -0.0937 -0.1070
  903MPD2    C113225   1.853   0.604  12.275  0.2528  0.5751  0.3816
  903MPD2    C213226   1.734   0.652  12.211  0.2498  0.1068 -0.3152
  903MPD2    C313227   1.726   0.637  12.070  0.3161 -0.2316 -0.2473
  903MPD2    C413228   1.832   0.581  11.999 -0.2027  0.0247 -0.0709
  903MPD2    C513229   1.948   0.541  12.059  0.2230  0.1484 -0.1249
  903MPD2     H13230   1.653   0.685  12.275 -1.1088 -0.1801 -1.8821
  903MPD2    H113231   1.824   0.565  11.892  1.4383 -0.1210 -0.1715
  903MPD2    H213232   2.047   0.519  12.235  1.5702  1.4083 -1.9915
  903MPD2    H313233   2.033   0.501  12.005  1.9712  1.6473  1.5523
  903MPD2     N13234   1.600   0.664  12.019  0.2672  0.5162  0.1288
  903MPD2    H513235   1.527   0.689  12.085 -0.7367 -1.1711 -0.3574
  903MPD2    N113236   1.875   0.604  12.412  0.4315  0.2208 -0.5555
  903MPD2    H713237   1.954   0.546  12.437  1.3109  2.1554  1.1102
  904MPD2     C13238   1.265   4.309  13.775  0.1418  0.5925  0.4197
  904MPD2    C113239   1.360   4.407  13.779 -0.7628  0.5498 -0.0342
  904MPD2    C213240   1.493   4.368  13.810 -0.5014 -0.3083 -0.2211
  904MPD2    C313241   1.540   4.238  13.831  0.0314 -0.5758 -0.8783
  904MPD2    C413242   1.441   4.147  13.817  0.1760  0.0195 -0.0431
  904MPD2    C513243   1.312   4.172  13.793  0.3131  0.0707  0.2997
  904MPD2     H13244   1.559   4.453  13.818 -0.1703 -0.6333  0.5090
  904MPD2    H113245   1.459   4.042  13.839  0.3861  0.3120  1.2076
  904MPD2    H213246   1.159   4.322  13.759  0.4477  0.5557 -1.6452
  904MPD2    H313247   1.238   4.093  13.787  0.7527 -0.2960 -0.1892
  904MPD2     N13248   1.677   4.218  13.863  0.0050  0.3054 -0.2451
  904MPD2    H513249   1.734   4.300  13.885  1.0179 -0.7240  1.0048
  904MPD2    N113250   1.333   4.546  13.768  0.2163 -0.0679  0.3582
  904MPD2    H713251   1.411   4.609  13.784  1.3080 -1.3915  0.2039
  905MPD2     C13252   1.260   4.641  13.135  0.2939  0.2382  0.3595
  905MPD2    C113253   1.306   0.005  13.235  0.0841 -0.0651  0.6306
  905MPD2    C213254   1.436   0.032  13.247  0.1247  0.5087 -0.1200
  905MPD2    C313255   1.531   4.698  13.160  0.0435 -0.3974  0.0862
  905MPD2    C413256   1.487   4.609  13.060 -0.6740 -0.1936 -0.0121
  905MPD2    C513257   1.355   4.582  13.050 -0.0140 -0.4962  0.2624
  905MPD2     H13258   1.480   0.081  13.334 -0.8682  1.0817  0.0525
  905MPD2    H113259   1.554   4.555  12.995 -0.8807  1.9246 -1.9760
  905MPD2    H213260   1.153   4.621  13.133 -0.2474  2.9065  2.0118
  905MPD2    H313261   1.324   4.509  12.976 -2.0133 -0.3831  0.9849
  905MPD2     N13262   1.671   4.698  13.184  0.6077  0.1328 -0.1673
  905MPD2    H513263   1.729   4.649  13.116 -0.6708  0.5410 -1.5673
  905MPD2    N113264   1.217   0.060  13.336  0.0887  0.0171  0.3443
  905MPD2    H713265   1.136   0.000  13.351 -0.8540  0.8301 -1.5012
  906MPD2     C13266   3.683   4.372  11.275  0.6487  0.3448 -0.1015
  906MPD2    C113267   3.679   4.292  11.158  1.0624 -0.8004 -0.3323
  906MPD2    C213268   3.702   4.161  11.182  0.4714 -0.2615  0.6807
  906MPD2    C313269   3.697   4.105  11.312  0.2542  0.2062  0.0476
  906MPD2    C413270   3.691   4.186  11.418  0.4048  0.1323  0.0869
  906MPD2    C513271   3.699   4.316  11.395  0.0291 -0.2118 -0.7252
  906MPD2     H13272   3.702   4.093  11.098 -3.2169 -0.7060  1.0462
  906MPD2    H113273   3.684   4.151  11.520  1.6375  0.2438  0.2141
  906MPD2    H213274   3.673   4.479  11.267  0.5613  0.2705 -0.9199
  906MPD2    H313275   3.693   4.378  11.484 -0.2615 -2.5406  0.8988
  906MPD2     N13276   3.704   3.961  11.332 -0.3703 -0.8780  0.0241
  906MPD2    H513277   3.685   3.924  11.425 -2.9850 -0.0046 -0.1786
  906MPD2    N113278   3.652   4.343  11.026 -0.1716 -0.2626  0.1219
  906MPD2    H713279   3.648   4.270  10.956 -0.5238 -1.7029  1.6254
  907MPD2     C13280   2.288   3.403  15.459  0.3189  0.0555 -0.6182
  907MPD2    C113281   2.406   3.367  15.398  0.7574  0.3793 -0.0412
  907MPD2    C213282   2.493   3.273  15.457 -0.5532 -0.0778  0.1256
  907MPD2    C313283   2.458   3.232  15.584 -0.8960 -0.1504  0.4374
  907MPD2    C413284   2.339   3.267  15.646 -0.3832  0.5470  0.9198
  907MPD2    C513285   2.246   3.349  15.576  0.1903 -0.1005  1.0799
  907MPD2     H13286   2.590   3.243  15.419 -0.9964 -0.5063 -0.6699
  907MPD2    H113287   2.307   3.234  15.744 -0.9958 -2.3388 -0.2718
  907MPD2    H213288   2.222   3.481  15.423  0.8558  0.0584 -1.5898
  907MPD2    H313289   2.160   3.394  15.625 -0.8344 -2.1217  1.1503
  907MPD2     N13290   2.545   3.141  15.644  0.3543 -0.5688 -0.2681
  907MPD2    H513291   2.631   3.118  15.596  0.0805 -0.9094 -0.5890
  907MPD2    N113292   2.450   3.413  15.268 -0.0739 -0.1897 -0.1272
  907MPD2    H713293   2.545   3.393  15.238  0.3480  1.0242  0.4148
  908MPD2     C13294   0.138   0.166   9.312 -0.3549  0.2087 -0.4688
  908MPD2    C113295   0.129   0.048   9.381 -0.7132 -0.3826  0.0285
  908MPD2    C213296   0.155   0.043   9.515  0.4336 -0.1271 -0.4881
  908MPD2    C313297   0.178   0.161   9.589  0.1690 -0.2102 -0.2199
  908MPD2    C413298   0.184   0.276   9.513 -0.4187 -0.5801  0.4713
  908MPD2    C513299   0.176   0.273   9.382  0.8702 -0.0182 -0.3160
  908MPD2     H13300   0.155   4.668   9.565  1.8524  2.0182  3.5849
  908MPD2    H113301   0.208   0.373   9.555  2.1365 -0.1729 -1.9876
  908MPD2    H213302   0.152   0.169   9.204 -1.6155  1.3864 -0.5974
  908MPD2    H313303   0.199   0.362   9.324  1.7133  0.7036  1.1137
  908MPD2     N13304   0.199   0.155   9.730  0.8652 -0.1865  0.0131
  908MPD2    H513305   0.215   0.063   9.770 -1.1823 -0.9805 -0.9648
  908MPD2    N113306   0.092   4.652   9.318  0.1862  0.2627 -0.2057
  908MPD2    H713307   0.094   4.560   9.360  1.0781  1.2604  1.8876
  909MPD2     C13308   0.780   2.041  11.818  0.3379 -0.9139 -0.4671
  909MPD2    C113309   0.836   2.161  11.759 -0.4568 -0.2437 -1.0002
  909MPD2    C213310   0.790   2.279  11.801  0.4930  0.0738 -0.4752
  909MPD2    C313311   0.686   2.285  11.890 -0.3560  1.1086 -0.6565
  909MPD2    C413312   0.635   2.171  11.948 -0.2173  0.1623 -0.5975
  909MPD2    C513313   0.682   2.048  11.912  0.8548  0.0725  0.1540
  909MPD2     H13314   0.843   2.367  11.768 -0.2872  1.5555  2.2039
  909MPD2    H113315   0.555   2.176  12.021 -0.4223  1.8938 -0.9281
  909MPD2    H213316   0.815   1.941  11.795 -0.6035 -1.3688  0.0519
  909MPD2    H313317   0.651   1.952  11.950  0.4701  0.2665  0.3273
  909MPD2     N13318   0.641   2.410  11.926 -0.0778  0.6736  0.2463
  909MPD2    H513319   0.658   2.484  11.859  1.1160 -1.6685 -2.0668
  909MPD2    N113320   0.934   2.167  11.659 -0.0046  0.2818  0.1688
  909MPD2    H713321   0.958   2.263  11.637  3.0394 -0.7608 -0.9589
  910MPD2     C13322   2.100   4.051  15.677 -0.7870 -0.7288  0.5005
  910MPD2    C113323   2.051   3.929  15.641  0.0540  0.1034 -0.8544
  910MPD2    C213324   2.004   3.916  15.508  0.2246 -0.0675  0.3724
  910MPD2    C313325   2.011   4.016  15.420  0.0686 -0.6303 -0.0005
  910MPD2    C413326   2.075   4.127  15.454  1.0675 -0.8127  0.4973
  910MPD2    C513327   2.120   4.146  15.584 -0.5059  0.1502 -0.4088
  910MPD2     H13328   1.975   3.815  15.482 -1.8099  0.5953  0.1248
  910MPD2    H113329   2.085   4.212  15.387  2.0036  0.8916  2.7885
  910MPD2    H213330   2.140   4.071  15.776  1.7675  0.4353 -0.7497
  910MPD2    H313331   2.164   4.242  15.612  0.2288 -0.3375  0.1046
  910MPD2     N13332   1.973   4.006  15.284  0.8215 -0.0206 -0.1306
  910MPD2    H513333   2.012   4.074  15.220 -0.5255  0.8089 -0.0549
  910MPD2    N113334   2.054   3.820  15.722  0.0671  0.2847 -0.5644
  910MPD2    H713335   2.035   3.731  15.678 -0.4180  0.0090  0.2025
  911MPD2     C13336   4.656   0.305  16.160 -0.4612 -0.8930 -0.1195
  911MPD2    C113337   4.687   0.397  16.262 -0.5306  0.1489 -0.1014
  911MPD2    C213338   4.607   0.513  16.280  0.0942  0.1027 -0.5210
  911MPD2    C313339   4.486   0.516  16.217  0.4711 -0.2933  0.0338
  911MPD2    C413340   4.456   0.420  16.124 -0.0338 -0.6295 -0.7792
  911MPD2    C513341   4.546   0.326  16.086  0.5620  0.0787 -0.0540
  911MPD2     H13342   4.624   0.579  16.365 -1.0951  1.4504 -1.3238
  911MPD2    H113343   4.363   0.421  16.068  0.5744  1.7550 -1.7581
  911MPD2    H213344   4.720   0.220  16.140  2.7362  1.6741 -0.6523
  911MPD2    H313345   4.521   0.258  16.005 -0.0096 -0.9591  1.0009
  911MPD2     N13346   4.384   0.608  16.231  0.2481 -0.5379 -0.4416
  911MPD2    H513347   4.304   0.594  16.170 -0.5427 -1.5626  0.8306
  911MPD2    N113348   0.084   0.363  16.341 -0.4188 -0.2305 -0.0435
  911MPD2    H713349   0.131   0.277  16.314 -1.2765 -1.3563  2.1219
  912MPD2     C13350   4.054   0.377  15.861 -0.8292 -0.0599 -0.5653
  912MPD2    C113351   4.068   0.418  15.991 -0.6066 -0.5542 -0.0250
  912MPD2    C213352   4.105   0.333  16.094  0.3436  0.0598  0.8357
  912MPD2    C313353   4.122   0.201  16.061  0.5177 -0.0167 -0.3211
  912MPD2    C413354   4.115   0.157  15.930  1.1815  0.3781  0.5339
  912MPD2    C513355   4.078   0.241  15.830 -0.5105  0.5975  0.1343
  912MPD2     H13356   4.120   0.367  16.196  2.7753 -2.8251  1.4587
  912MPD2    H113357   4.139   0.054  15.904 -1.7408 -0.1230 -0.1867
  912MPD2    H213358   4.030   0.444  15.778 -0.7535  1.3528  0.5477
  912MPD2    H313359   4.081   0.210  15.726 -1.2883  1.2147 -0.0698
  912MPD2     N13360   4.162   0.123  16.169 -0.3317 -0.1577  0.1095
  912MPD2    H513361   4.174   0.167  16.260 -1.1307  1.3652 -0.5154
  912MPD2    N113362   4.051   0.556  16.017 -0.2079 -0.4658 -0.7023
  912MPD2    H713363   4.045   0.617  15.936  0.5612  1.1548  0.4767
  913MPD2     C13364   4.539   0.999  10.192 -0.1419  0.0060 -0.3092
  913MPD2    C113365   4.663   1.061  10.194 -0.0831  0.1800 -0.4224
  913MPD2    C213366   4.714   1.109  10.077 -0.4088  0.4803 -0.2510
  913MPD2    C313367   4.646   1.086   9.955 -0.3860  0.1545  0.9456
  913MPD2    C413368   4.529   1.023   9.948  0.7143  0.7186  1.3019
  913MPD2    C513369   4.473   0.986  10.070  0.2315 -0.4642 -0.4833
  913MPD2     H13370   0.093   1.149  10.083 -1.0610  2.3204 -1.5401
  913MPD2    H113371   4.481   0.987   9.858  0.3271  2.2479  0.8929
  913MPD2    H213372   4.499   0.950  10.280  0.7340 -0.5208 -0.1979
  913MPD2    H313373   4.380   0.931  10.062  0.5271 -1.1655  0.8683
  913MPD2     N13374   4.695   1.135   9.829  0.0695 -0.8102 -0.0498
  913MPD2    H513375   4.638   1.113   9.748  0.8394 -0.0166 -0.8128
  913MPD2    N113376   0.007   1.064  10.319  0.1590  0.3439 -0.0183
  913MPD2    H713377   4.678   1.041  10.404 -1.7335  2.2212 -0.6258
  914MPD2     C13378   2.508   1.249  12.790 -0.4621  0.2543 -0.0178
  914MPD2    C113379   2.563   1.369  12.750 -0.5940 -0.1549  0.5409
  914MPD2    C213380   2.687   1.405  12.799 -0.1363 -0.2152 -0.5441
  914MPD2    C313381   2.760   1.320  12.877  0.4953  0.1606 -0.1551
  914MPD2    C413382   2.699   1.210  12.928  0.8162  0.1628  0.8067
  914MPD2    C513383   2.571   1.177  12.882 -0.4284  0.7550  0.3017
  914MPD2     H13384   2.740   1.487  12.751 -0.1492  0.8367  1.2499
  914MPD2    H113385   2.740   1.141  13.002  1.8518  0.1914  0.2660
  914MPD2    H213386   2.409   1.218  12.756 -0.2185 -0.7943  0.2053
  914MPD2    H313387   2.516   1.090  12.916  0.4712 -0.0850 -0.4027
  914MPD2     N13388   2.888   1.362  12.919 -0.2241 -0.7003  0.5348
  914MPD2    H513389   2.928   1.450  12.889 -0.5706 -0.9620 -0.6856
  914MPD2    N113390   2.493   1.449  12.656 -0.9920  0.1414 -0.3449
  914MPD2    H713391   2.411   1.411  12.609 -1.0514 -0.3436  0.1478
  915MPD2     C13392   1.623   1.223  16.039 -0.1889  0.0330 -0.6335
  915MPD2    C113393   1.525   1.293  15.972  0.3448  0.7399 -0.6323
  915MPD2    C213394   1.420   1.346  16.049 -0.6163 -0.0892 -0.6427
  915MPD2    C313395   1.415   1.332  16.184 -0.3598 -0.2345 -0.1824
  915MPD2    C413396   1.524   1.264  16.246 -0.8475  0.4596 -0.1495
  915MPD2    C513397   1.623   1.210  16.178 -0.8299 -0.6368  0.0608
  915MPD2     H13398   1.341   1.402  16.002  0.0309  0.8151 -0.6337
  915MPD2    H113399   1.518   1.243  16.352  0.8723 -0.3849 -0.2255
  915MPD2    H213400   1.707   1.186  15.981  2.1397  1.0988  2.0922
  915MPD2    H313401   1.699   1.155  16.232  1.4125  0.8801 -1.5494
  915MPD2     N13402   1.317   1.409  16.252  0.1488 -0.1025 -0.7133
  915MPD2    H513403   1.266   1.477  16.196 -0.7797 -1.0065 -0.9665
  915MPD2    N113404   1.543   1.305  15.827 -0.0435  0.2085 -0.2563
  915MPD2    H713405   1.627   1.263  15.787 -0.0172  1.8140 -1.9025
  916MPD2     C13406   3.985   4.607  15.739  0.2314 -0.3324  0.3604
  916MPD2    C113407   3.951   4.486  15.785  0.0740 -0.6343  0.6747
  916MPD2    C213408   3.988   4.378  15.709  0.1388 -0.3004  0.2655
  916MPD2    C313409   4.052   4.389  15.581 -1.3370  0.3419  0.3413
  916MPD2    C413410   4.088   4.516  15.538 -0.3112  0.5408 -0.4153
  916MPD2    C513411   4.055   4.624  15.617 -0.3588 -0.0903 -0.2828
  916MPD2     H13412   3.973   4.282  15.755  0.3642 -0.4191  0.0945
  916MPD2    H113413   4.142   4.542  15.448  1.0869  2.3317  0.9276
  916MPD2    H213414   3.977   4.696  15.801  0.2187 -1.4854  2.0096
  916MPD2    H313415   4.073   0.000  15.574 -0.3014  0.3144  0.6505
  916MPD2     N13416   4.071   4.268  15.510  0.7835 -0.6568 -0.2910
  916MPD2    H513417   4.062   4.182  15.562 -0.7273 -0.8832 -0.9362
  916MPD2    N113418   3.887   4.481  15.910  0.0483 -0.0620 -0.8893
  916MPD2    H713419   3.863   4.569  15.953 -0.1587  0.0692 -1.2802
  917MPD2     C13420   3.898   1.668  11.243  0.6511 -0.3914  0.3421
  917MPD2    C113421   3.955   1.695  11.364  0.3412 -0.3927 -0.3072
  917MPD2    C213422   4.079   1.760  11.372 -0.7431  0.0771  0.0720
  917MPD2    C313423   4.152   1.794  11.250  0.5467 -0.3550  0.2641
  917MPD2    C413424   4.100   1.745  11.131  0.2849 -0.2196  0.4666
  917MPD2    C513425   3.971   1.689  11.132 -0.6565  0.3637  0.1071
  917MPD2     H13426   4.125   1.784  11.467  1.2433  0.4121 -0.9615
  917MPD2    H113427   4.134   1.743  11.028  3.0619  0.7385  1.3551
  917MPD2    H213428   3.795   1.633  11.237 -0.5522  2.4414  4.4102
  917MPD2    H313429   3.929   1.665  11.035 -3.9607  0.3907  1.5316
  917MPD2     N13430   4.279   1.857  11.250 -0.0600  0.2131  0.0000
  917MPD2    H513431   4.320   1.865  11.157  3.8416  2.1143  1.8549
  917MPD2    N113432   3.885   1.685  11.486  0.0352  0.1315  0.1091
  917MPD2    H713433   3.784   1.682  11.481  0.0876 -0.7629 -0.2748
  918MPD2     C13434   4.196   2.127  12.274 -1.1044 -0.1219 -0.8874
  918MPD2    C113435   4.272   2.015  12.244  0.6831  0.4924  0.5665
  918MPD2    C213436   4.200   1.909  12.202  0.4619  0.1026  0.1079
  918MPD2    C313437   4.068   1.918  12.168  0.3047 -0.3729 -0.3955
  918MPD2    C413438   3.998   2.027  12.198  0.0314 -0.6140 -0.1140
  918MPD2    C513439   4.060   2.137  12.247 -0.6303  0.0506  0.0371
  918MPD2     H13440   4.257   1.822  12.173  1.3523  0.9891 -0.7859
  918MPD2    H113441   3.893   2.036  12.174 -0.2943 -0.2590  1.4838
  918MPD2    H213442   4.245   2.217  12.310 -0.6875 -0.8481  0.3557
  918MPD2    H313443   3.998   2.225  12.255  0.0073  0.7367 -2.5163
  918MPD2     N13444   4.010   1.820  12.085 -1.0137  0.8202 -0.1302
  918MPD2    H513445   4.065   1.737  12.063 -2.1840  0.1520 -0.5159
  918MPD2    N113446   4.412   2.002  12.273  0.4428 -0.1556  0.1476
  918MPD2    H713447   4.459   1.912  12.265  0.8551  0.0957 -0.2858
  919MPD2     C13448   0.037   1.219  11.908 -0.2846 -0.7157 -0.3433
  919MPD2    C113449   0.029   1.095  11.851 -0.4623  0.2721  0.2448
  919MPD2    C213450   0.011   1.095  11.721  0.5562  0.1913  0.1213
  919MPD2    C313451   4.713   1.206  11.646 -0.2389  0.8345  0.1821
  919MPD2    C413452   0.007   1.326  11.701  0.3613  0.7733 -0.2039
  919MPD2    C513453   0.022   1.336  11.834 -0.4464  0.6608 -0.1228
  919MPD2     H13454   4.720   1.000  11.669  0.0250  0.0314  0.5415
  919MPD2    H113455   4.697   1.411  11.642  1.8582  1.5029  0.0419
  919MPD2    H213456   0.064   1.224  12.013 -0.3954  0.0547 -0.3465
  919MPD2    H313457   0.028   1.437  11.875  0.9871 -0.0702  1.4402
  919MPD2     N13458   4.659   1.211  11.509  0.1604 -0.0774  0.2158
  919MPD2    H513459   4.673   1.300  11.464  1.5458 -0.9611 -1.0955
  919MPD2    N113460   0.022   0.969  11.921 -0.3817  0.2048  0.6849
  919MPD2    H713461   0.014   0.888  11.860  0.3267 -0.4815  1.5150
  920MPD2     C13462   0.025   1.416  10.519  0.1309 -0.0210  0.0689
  920MPD2    C113463   4.618   1.369  10.513  0.6582  0.0781  0.5287
  920MPD2    C213464   4.563   1.339  10.638  0.2193  0.1232 -0.5479
  920MPD2    C313465   4.629   1.342  10.762 -0.5348  0.4304  0.3837
  920MPD2    C413466   0.032   1.400  10.761  0.9172  0.2496 -0.8698
  920MPD2    C513467   0.095   1.431  10.640 -0.1969 -0.5731 -0.4320
  920MPD2     H13468   4.457   1.313  10.638 -0.1540  1.6171 -1.9598
  920MPD2    H113469   0.086   1.434  10.849 -0.9139 -0.3189  0.4629
  920MPD2    H213470   0.083   1.447  10.433 -0.9823 -0.7442 -0.9367
  920MPD2    H313471   0.193   1.478  10.638 -0.3102 -0.3012  0.5109
  920MPD2     N13472   4.566   1.296  10.883  0.4002  0.6892  0.2891
  920MPD2    H513473   4.467   1.272  10.882  1.0381 -1.9104  0.3270
  920MPD2    N113474   4.549   1.363  10.390 -0.1082 -0.2143 -0.0142
  920MPD2    H713475   4.473   1.297  10.391  0.1803 -0.5324  1.8205
  921MPD2     C13476   1.060   0.355  16.831 -0.2072 -0.3869  0.1823
  921MPD2    C113477   1.012   0.369  16.705  0.1894  0.0122  0.0502
  921MPD2    C213478   0.878   0.390  16.677  0.5485 -0.3649  0.3930
  921MPD2    C313479   0.783   0.366  16.775  0.2340  0.1242  0.2074
  921MPD2    C413480   0.832   0.332  16.903  0.0383 -0.5025 -1.1135
  921MPD2    C513481   0.964   0.342  16.930  0.9317  0.8608 -0.2163
  921MPD2     H13482   0.836   0.396  16.578  0.9739 -1.8092  0.1304
  921MPD2    H113483   0.768   0.299  16.984  1.5491  0.5345  0.4973
  921MPD2    H213484   1.165   0.344  16.854 -0.1615 -0.3023  0.0107
  921MPD2    H313485   1.008   0.329  17.029  2.3661  0.9605 -0.8369
  921MPD2     N13486   0.648   0.349  16.749  0.6250 -0.2290 -0.9072
  921MPD2    H513487   0.588   0.309  16.821  1.7460  1.5007  0.9658
  921MPD2    N113488   1.102   0.341  16.604  0.3951  0.1311 -0.6392
  921MPD2    H713489   1.194   0.318  16.638  0.6489  1.1712 -0.6295
  922MPD2     C13490   2.494   2.108  17.365 -0.5557  0.9402 -0.1317
  922MPD2    C113491   2.469   2.228  17.297  0.5827 -0.0148 -0.4344
  922MPD2    C213492   2.337   2.262  17.271  0.0539  0.5048  0.6619
  922MPD2    C313493   2.237   2.186  17.317 -0.8146 -0.0162  0.2616
  922MPD2    C413494   2.262   2.069  17.388  0.1858 -0.6036  0.6001
  922MPD2    C513495   2.389   2.031  17.420  0.2940 -0.5994  0.5780
  922MPD2     H13496   2.317   2.348  17.209  1.6645  2.3753  2.7520
  922MPD2    H113497   2.179   2.006  17.416  0.6488 -2.1203 -1.4288
  922MPD2    H213498   2.592   2.084  17.404 -0.8579 -2.4060 -1.4282
  922MPD2    H313499   2.401   1.940  17.477  0.8404 -0.0458  1.3358
  922MPD2     N13500   2.103   2.219  17.273 -0.9065  0.1204 -0.7314
  922MPD2    H513501   2.091   2.298  17.211  0.6418  0.2747 -0.8334
  922MPD2    N113502   2.578   2.308  17.242 -0.0849  0.5584  0.7282
  922MPD2    H713503   2.549   2.391  17.191 -0.2059  0.2049  0.2184
  923MPD2     C13504   3.062   4.657   8.813 -0.6538 -0.4308  0.2292
  923MPD2    C113505   3.110   0.023   8.901  0.4605 -0.5656  0.4711
  923MPD2    C213506   3.205   4.698   8.992  0.1078  0.1740  0.5242
  923MPD2    C313507   3.252   4.565   8.988 -0.6779  0.2115 -0.5219
  923MPD2    C413508   3.190   4.483   8.903  0.5172  0.2535 -0.0649
  923MPD2    C513509   3.096   4.523   8.818  0.5044 -0.2503  0.0390
  923MPD2     H13510   3.247   0.049   9.061 -0.5723  0.4478  0.6498
  923MPD2    H113511   3.217   4.378   8.902  0.5750  0.2681  0.1933
  923MPD2    H213512   2.989   4.696   8.743 -0.6470  1.6179  1.3497
  923MPD2    H313513   3.043   4.449   8.760 -0.2983  2.3474 -2.5331
  923MPD2     N13514   3.344   4.506   9.075 -0.9257  0.3735 -0.3467
  923MPD2    H513515   3.367   4.414   9.040  2.3758  1.2869 -0.5984
  923MPD2    N113516   3.065   0.160   8.902 -0.2333  0.3947 -0.4210
  923MPD2    H713517   2.982   0.182   8.848 -1.4126 -0.4937  1.0239
  924MPD2     C13518   2.750   2.327  16.121  0.4978  0.0347 -0.3017
  924MPD2    C113519   2.661   2.433  16.111  0.5772  0.4079 -0.1450
  924MPD2    C213520   2.679   2.522  16.008  0.8343  0.0858  0.7421
  924MPD2    C313521   2.783   2.517  15.917  0.1539 -0.3076  0.0746
  924MPD2    C413522   2.877   2.418  15.935 -0.0896 -0.7101  0.3457
  924MPD2    C513523   2.856   2.323  16.035  0.3157  0.4385 -0.4029
  924MPD2     H13524   2.628   2.616  16.023 -1.6045 -0.6123 -3.3304
  924MPD2    H113525   2.962   2.405  15.869 -0.1233  1.1023 -0.0578
  924MPD2    H213526   2.749   2.259  16.206  0.0101 -0.3249 -0.5956
  924MPD2    H313527   2.927   2.242  16.050  0.5600  0.5032 -1.2310
  924MPD2     N13528   2.805   2.614  15.817  0.1336 -0.5991  0.0104
  924MPD2    H513529   2.889   2.618  15.760  0.5271 -0.4576  0.5985
  924MPD2    N113530   2.569   2.456  16.212 -0.3120 -0.4618  0.1738
  924MPD2    H713531   2.571   2.400  16.297 -0.6669  0.4533  0.7864
  925MPD2     C13532   1.895   0.943  14.880  0.2050  0.3456 -0.1970
  925MPD2    C113533   1.779   0.883  14.839 -0.2715  0.2090  0.1949
  925MPD2    C213534   1.720   0.798  14.927 -0.1107 -0.1367 -0.1633
  925MPD2    C313535   1.777   0.754  15.042  0.1674 -0.1387  0.3767
  925MPD2    C413536   1.895   0.813  15.084 -0.1155  0.6549 -0.3052
  925MPD2    C513537   1.956   0.905  15.003  0.2048  0.1535  0.6190
  925MPD2     H13538   1.625   0.757  14.893 -0.2545 -0.8284  1.0659
  925MPD2    H113539   1.933   0.766  15.174 -0.2965 -0.8445 -1.0223
  925MPD2    H213540   1.952   1.020  14.829  1.8228 -0.5988  0.2003
  925MPD2    H313541   2.054   0.947  15.022  0.4373  0.0411 -0.3749
  925MPD2     N13542   1.708   0.664  15.123 -0.2788 -0.1631 -0.4811
  925MPD2    H513543   1.736   0.648  15.220 -1.3360  2.2107  0.2213
  925MPD2    N113544   1.717   0.923  14.717  0.3240 -0.4024  0.1490
  925MPD2    H713545   1.636   0.872  14.682  0.3501 -0.8919  0.7927
  926MPD2     C13546   0.250   3.835  13.357 -0.3708 -0.8201 -0.3862
  926MPD2    C113547   0.182   3.950  13.330  0.0044  0.4343 -0.4225
  926MPD2    C213548   0.178   4.011  13.203 -0.1467  0.4021  0.0496
  926MPD2    C313549   0.257   3.964  13.099  0.0186  0.1235  0.1159
  926MPD2    C413550   0.323   3.848  13.123  0.0900  0.4743 -0.4793
  926MPD2    C513551   0.321   3.781  13.243 -0.0358 -0.3488 -0.5706
  926MPD2     H13552   0.128   4.105  13.184  0.4003  0.3289 -1.7819
  926MPD2    H113553   0.378   3.806  13.040  1.9940  2.7209 -0.3668
  926MPD2    H213554   0.249   3.783  13.452  1.2845 -2.0009 -1.0097
  926MPD2    H313555   0.369   3.684  13.248  2.8735  1.2388  2.3134
  926MPD2     N13556   0.279   4.032  12.982  0.7150 -0.8617 -0.1532
  926MPD2    H513557   0.337   3.980  12.917  0.3035 -0.4496 -0.8612
  926MPD2    N113558   0.109   4.021  13.433 -0.1297  0.0854 -0.1708
  926MPD2    H713559   0.048   4.096  13.400  2.4843  1.9134 -0.8311
  927MPD2     C13560   0.132   1.692   0.117  0.2664 -0.3380  0.2533
  927MPD2    C113561   0.220   1.644   0.210 -0.1698 -0.6454  0.2176
  927MPD2    C213562   0.344   1.591   0.169  0.6545 -0.4930  0.0444
  927MPD2    C313563   0.380   1.593   0.034 -0.2734 -0.0155  0.3105
  927MPD2    C413564   0.293   1.649  17.629 -0.2635 -0.4893  0.0381
  927MPD2    C513565   0.170   1.693  17.670  0.3371 -0.4379 -0.9809
  927MPD2     H13566   0.410   1.551   0.245  0.1664 -0.6469  0.3896
  927MPD2    H113567   0.310   1.649  17.523 -0.7208 -2.9995 -0.0424
  927MPD2    H213568   0.031   1.715   0.149  0.2000 -1.4271  0.8203
  927MPD2    H313569   0.095   1.717  17.596  0.4025  0.5621 -0.7342
  927MPD2     N13570   0.501   1.523   0.003 -0.0361 -0.4838  0.5189
  927MPD2    H513571   0.548   1.466   0.072 -1.1774  0.5147  2.1092
  927MPD2    N113572   0.175   1.632   0.346 -0.2353 -0.3045  0.1217
  927MPD2    H713573   0.087   1.676   0.372  0.7283  1.7844 -0.1176
  928MPD2     C13574   3.425   4.359   1.145  0.5765  0.3252 -0.4108
  928MPD2    C113575   3.508   4.461   1.167 -0.6303 -0.2972 -0.4277
  928MPD2    C213576   3.515   4.561   1.075  0.8069 -0.6142  1.1887
  928MPD2    C313577   3.446   4.547   0.956 -0.7846 -0.2695 -0.5638
  928MPD2    C413578   3.370   4.438   0.936  1.0265  0.8466  0.1311
  928MPD2    C513579   3.358   4.348   1.030  0.1580 -1.1166  0.4389
  928MPD2     H13580   3.578   4.648   1.086  1.3045 -0.8877  0.5278
  928MPD2    H113581   3.336   4.407   0.838  0.8609 -1.1203  0.8130
  928MPD2    H213582   3.398   4.280   1.215  1.5314  1.1818  0.9308
  928MPD2    H313583   3.303   4.258   1.005 -1.0042 -0.7254  1.5839
  928MPD2     N13584   3.457   4.643   0.855 -0.5607 -0.1640  0.3056
  928MPD2    H513585   3.425   4.622   0.761  0.5219 -2.7506  0.5092
  928MPD2    N113586   3.585   4.443   1.287  0.4809  0.1727  0.3890
  928MPD2    H713587   3.571   4.364   1.349  0.6420  0.1726  0.4255
  929MPD2     C13588   3.351   4.343  10.379  0.2200 -0.1476  0.2501
  929MPD2    C113589   3.296   4.228  10.348 -0.3981 -0.3125  0.2178
  929MPD2    C213590   3.248   4.217  10.220 -0.1176 -0.7101  0.1920
  929MPD2    C313591   3.245   4.330  10.140  0.0026 -0.3690 -0.6585
  929MPD2    C413592   3.299   4.442  10.179 -0.2270  0.7941  0.7090
  929MPD2    C513593   3.365   4.448  10.299 -0.4166  0.2760  0.3011
  929MPD2     H13594   3.182   4.137  10.192 -0.5154 -0.5126  0.5626
  929MPD2    H113595   3.306   4.533  10.119 -0.7141 -0.7318 -1.6573
  929MPD2    H213596   3.414   4.352  10.467 -0.1310 -0.7009  0.5597
  929MPD2    H313597   3.419   4.536  10.330 -0.1740 -0.4711  2.0199
  929MPD2     N13598   3.169   4.332  10.017  0.3750 -0.1715 -0.3485
  929MPD2    H513599   3.173   4.422   9.971  2.1691 -0.7425 -1.3288
  929MPD2    N113600   3.276   4.140  10.455 -0.6342 -0.6393  0.5138
  929MPD2    H713601   3.319   4.166  10.543  0.2084 -1.7231  0.4196
  930MPD2     C13602   4.461   1.898  14.405 -0.4295  0.4939 -0.3500
  930MPD2    C113603   4.531   1.864  14.287 -0.1160 -0.3715 -0.0775
  930MPD2    C213604   4.490   1.749  14.220  0.0875 -0.2911  0.5823
  930MPD2    C313605   4.380   1.673  14.247  0.0886 -0.8455  0.0331
  930MPD2    C413606   4.321   1.699  14.367 -0.3733  0.4166  0.2829
  930MPD2    C513607   4.358   1.813  14.439 -0.3458 -0.3196 -0.3609
  930MPD2     H13608   4.547   1.724  14.131  0.3746  2.3016  0.0138
  930MPD2    H113609   4.239   1.645  14.411 -1.2033 -0.0840 -1.8848
  930MPD2    H213610   4.471   1.994  14.453  2.8289 -0.0159 -0.0478
  930MPD2    H313611   4.296   1.832  14.525 -1.0942  1.2722 -1.2455
  930MPD2     N13612   4.333   1.569  14.158  0.4871  0.4873  0.1221
  930MPD2    H513613   4.303   1.486  14.208  2.3845 -1.3053 -1.7433
  930MPD2    N113614   4.611   1.962  14.230  0.0948  0.5749 -0.5406
  930MPD2    H713615   4.652   2.029  14.294  0.7387  0.9111 -1.3059
  931MPD2     C13616   0.425   1.132   0.892 -0.2615  0.0731 -0.9150
  931MPD2    C113617   0.294   1.175   0.922  0.5187 -0.3212 -0.1505
  931MPD2    C213618   0.228   1.132   1.037  0.4862 -0.4105 -0.3262
  931MPD2    C313619   0.286   1.035   1.115  0.8183 -0.0155 -1.0196
  931MPD2    C413620   0.409   0.985   1.076 -0.1386 -0.0775 -0.3406
  931MPD2    C513621   0.475   1.030   0.966 -0.5574  0.0617  0.6482
  931MPD2     H13622   0.143   1.188   1.075  1.0618 -0.1180  0.5417
  931MPD2    H113623   0.454   0.903   1.130 -0.7549 -0.8871 -1.0603
  931MPD2    H213624   0.471   1.157   0.797  0.3674  0.7420 -0.4241
  931MPD2    H313625   0.570   0.986   0.939 -0.3549 -0.0017  1.4744
  931MPD2     N13626   0.224   0.974   1.223  0.5652  0.6138 -0.1922
  931MPD2    H513627   0.277   0.896   1.260 -0.1591  0.8839  1.4156
  931MPD2    N113628   0.244   1.275   0.836 -0.1166 -0.0301 -0.0689
  931MPD2    H713629   0.295   1.298   0.752  0.0773  1.1553  0.3664
  932MPD2     C13630   1.186   0.296  11.311 -0.4664 -0.4951  0.0269
  932MPD2    C113631   1.288   0.330  11.394  0.3637 -0.5751 -0.2115
  932MPD2    C213632   1.277   0.290  11.527  0.1221  0.1955 -1.1175
  932MPD2    C313633   1.163   0.226  11.578 -0.2142 -0.5928  0.0292
  932MPD2    C413634   1.063   0.201  11.487 -0.4871 -0.7311 -0.2394
  932MPD2    C513635   1.076   0.224  11.357  0.1439  0.5457 -0.2267
  932MPD2     H13636   1.349   0.323  11.601  0.7397  1.5396 -2.3164
  932MPD2    H113637   0.985   0.131  11.514 -0.7510 -0.7704 -1.0786
  932MPD2    H213638   1.182   0.334  11.209  0.2358 -0.1486  0.1299
  932MPD2    H313639   0.999   0.197  11.287 -1.7410 -0.4450  2.2338
  932MPD2     N13640   1.147   0.177  11.709 -0.2413 -0.3241 -0.1069
  932MPD2    H513641   1.082   0.102  11.728 -0.6781  0.4558  1.4858
  932MPD2    N113642   1.398   0.412  11.358  0.8059 -0.1418 -0.1136
  932MPD2    H713643   1.454   0.454  11.432  0.4084  1.6246 -0.8123
  933MPD2     C13644   3.748   3.975   1.965  0.4380  0.3282 -0.2866
  933MPD2    C113645   3.676   4.027   1.856 -0.5580 -0.9001  0.9182
  933MPD2    C213646   3.554   3.967   1.829 -0.4789 -0.7069  0.0384
  933MPD2    C313647   3.504   3.868   1.914 -0.4042 -0.0189 -0.7696
  933MPD2    C413648   3.571   3.813   2.023 -0.0373 -0.4769  0.5690
  933MPD2    C513649   3.699   3.872   2.041  0.5951  0.4107 -0.3602
  933MPD2     H13650   3.496   3.993   1.741  0.2331 -2.6023 -0.9882
  933MPD2    H113651   3.535   3.736   2.090 -0.8377 -0.8886 -0.3430
  933MPD2    H213652   3.850   4.012   1.974  0.5329 -0.6146  2.8972
  933MPD2    H313653   3.758   3.835   2.124  1.6972  1.2480 -0.7777
  933MPD2     N13654   3.380   3.814   1.876 -0.1812  0.2321  0.2997
  933MPD2    H513655   3.348   3.852   1.788 -0.5959 -0.0431  0.3295
  933MPD2    N113656   3.736   4.132   1.775 -0.1600  0.0091 -0.3858
  933MPD2    H713657   3.825   4.167   1.809 -0.6871  1.5589 -0.5921
  934MPD2     C13658   3.976   2.449   2.727 -0.2513 -0.2991  0.3108
  934MPD2    C113659   4.022   2.346   2.644  0.2600  0.2045 -0.6123
  934MPD2    C213660   3.936   2.310   2.539 -0.3712  0.0986 -0.0638
  934MPD2    C313661   3.811   2.367   2.518 -0.0751 -0.2215  0.3875
  934MPD2    C413662   3.774   2.470   2.600 -0.4721  0.0439 -0.1812
  934MPD2    C513663   3.856   2.509   2.701  0.4767 -0.2484  0.2773
  934MPD2     H13664   3.971   2.239   2.464 -0.6394  0.8117 -0.8568
  934MPD2    H113665   3.679   2.522   2.590 -0.4601 -0.3297 -2.1662
  934MPD2    H213666   4.036   2.481   2.811 -0.0374  2.3989 -0.8610
  934MPD2    H313667   3.821   2.585   2.769  0.3732  1.8002 -2.0633
  934MPD2     N13668   3.732   2.307   2.415  0.2268 -0.1135  0.1188
  934MPD2    H513669   3.761   2.218   2.377  0.7089 -0.4526  1.2568
  934MPD2    N113670   4.147   2.286   2.662 -0.1225 -0.3012  0.4038
  934MPD2    H713671   4.176   2.211   2.599 -2.0399  0.2310 -1.1025
  935MPD2     C13672   4.108   1.770   1.941 -0.2601  0.5231  0.3434
  935MPD2    C113673   4.011   1.804   1.856 -1.0526  0.0743  0.1612
  935MPD2    C213674   3.905   1.882   1.899  0.7837  0.2462  0.3192
  935MPD2    C313675   3.887   1.917   2.033 -0.4388  0.2918 -0.1024
  935MPD2    C413676   3.986   1.872   2.117  0.6360  0.2458 -0.6428
  935MPD2    C513677   4.094   1.805   2.069  0.5557 -0.0682 -0.3200
  935MPD2     H13678   3.835   1.907   1.819 -0.5842 -2.5927  0.6370
  935MPD2    H113679   3.982   1.889   2.224 -1.8984 -1.5658 -0.4566
  935MPD2    H213680   4.196   1.716   1.907 -1.3695 -1.1143  0.0623
  935MPD2    H313681   4.169   1.785   2.144 -0.2531  1.4448  0.8867
  935MPD2     N13682   3.771   1.985   2.090 -0.4778 -0.1205  0.0278
  935MPD2    H513683   3.779   2.002   2.190  1.8270 -1.8456  0.1504
  935MPD2    N113684   4.016   1.775   1.719  0.2045  0.1177 -0.0319
  935MPD2    H713685   3.937   1.805   1.662  0.8124  0.3896 -0.7343
  936MPD2     C13686   1.780   3.884  12.569 -0.4666  0.0529 -0.0404
  936MPD2    C113687   1.911   3.916  12.604 -0.0018 -0.2236  0.4610
  936MPD2    C213688   1.991   3.967  12.505  0.3154 -0.3014  0.1401
  936MPD2    C313689   1.935   4.005  12.384  0.0737 -0.3714  0.0922
  936MPD2    C413690   1.804   3.983  12.360 -1.1868  0.0793  0.5978
  936MPD2    C513691   1.732   3.908  12.445  0.2664  0.3353  0.3309
  936MPD2     H13692   2.095   3.988  12.527 -0.3563  2.2913  0.7804
  936MPD2    H113693   1.757   4.021  12.269 -0.7649  0.6919  0.6373
  936MPD2    H213694   1.704   3.826  12.618 -0.1239 -1.5151 -1.3534
  936MPD2    H313695   1.631   3.876  12.423 -0.5663  2.5046  0.9546
  936MPD2     N13696   1.997   4.074  12.277  0.0308 -0.1546 -0.4239
  936MPD2    H513697   1.946   4.122  12.204  1.7662  0.3194 -1.3315
  936MPD2    N113698   1.966   3.898  12.738 -0.3232 -0.4333 -0.0977
  936MPD2    H713699   2.067   3.890  12.744 -0.0532  2.4265 -0.8645
  937MPD2     C13700   0.032   0.361  11.661 -0.3336  0.5312  0.1707
  937MPD2    C113701   0.020   0.495  11.670 -0.2850 -0.2780 -0.0227
  937MPD2    C213702   0.077   0.564  11.566  0.0500 -0.5848  0.2816
  937MPD2    C313703   0.145   0.502  11.460 -0.3981  0.2357 -0.2961
  937MPD2    C413704   0.146   0.367  11.450 -0.8610  0.1764 -0.1068
  937MPD2    C513705   0.084   0.296  11.552  0.1011 -0.3208 -0.9516
  937MPD2     H13706   0.092   0.669  11.588  0.4842 -1.0599  2.2090
  937MPD2    H113707   0.191   0.322  11.362  0.8600 -0.1998  0.9740
  937MPD2    H213708   4.711   0.301  11.740  0.7207  2.5815  2.2824
  937MPD2    H313709   0.082   0.188  11.549 -0.3351 -0.3670  1.0337
  937MPD2     N13710   0.214   0.578  11.366  0.5238  0.4039 -0.5807
  937MPD2    H513711   0.219   0.679  11.379  1.6252 -0.0342  2.5873
  937MPD2    N113712   4.696   0.559  11.786 -0.0042  0.0002  0.7384
  937MPD2    H713713   4.703   0.660  11.777  1.7387 -0.0541  1.6504
  938MPD2     C13714   2.981   2.025   0.614 -0.2192 -0.4211  0.1836
  938MPD2    C113715   3.046   2.025   0.740 -0.2011  0.4981 -0.2167
  938MPD2    C213716   2.994   1.934   0.834 -0.0813  1.2247 -0.1306
  938MPD2    C313717   2.888   1.840   0.817 -0.3589 -0.0041 -0.3515
  938MPD2    C413718   2.834   1.841   0.688  0.1787  0.2992  0.2111
  938MPD2    C513719   2.878   1.935   0.592 -0.5342 -0.9482  0.3178
  938MPD2     H13720   3.034   1.952   0.934  1.6695  0.8104 -0.7598
  938MPD2    H113721   2.756   1.773   0.656  0.1912 -0.3873  1.6341
  938MPD2    H213722   3.013   2.090   0.534  1.1758  0.6393  1.6068
  938MPD2    H313723   2.830   1.936   0.495  0.1269 -1.2126 -0.0136
  938MPD2     N13724   2.836   1.758   0.917  0.2286  0.6657 -0.0514
  938MPD2    H513725   2.752   1.703   0.901  0.3498  0.0145  1.6116
  938MPD2    N113726   3.159   2.104   0.761 -0.3065  0.4171  0.7490
  938MPD2    H713727   3.192   2.094   0.856  0.3821 -0.3651  0.4235
  939MPD2     C13728   4.354   2.872   1.360  0.3425  0.1473 -0.2701
  939MPD2    C113729   4.343   3.007   1.315  0.6248 -0.4723 -0.3208
  939MPD2    C213730   4.354   3.033   1.180 -0.9699  0.1628  0.2144
  939MPD2    C313731   4.386   2.940   1.084  0.3035  1.0056 -0.2037
  939MPD2    C413732   4.416   2.817   1.135  1.2437 -0.6061  0.2829
  939MPD2    C513733   4.387   2.783   1.266 -0.3225 -0.4506 -0.8869
  939MPD2     H13734   4.346   3.132   1.136  0.2107 -1.3007 -3.3295
  939MPD2    H113735   4.468   2.741   1.079  1.9079  1.4648 -1.9259
  939MPD2    H213736   4.338   2.834   1.460 -0.1041 -0.2117 -0.4741
  939MPD2    H313737   4.425   2.685   1.292  0.6699  0.0311 -0.5256
  939MPD2     N13738   4.390   2.967   0.946  0.6058 -0.3249 -0.7856
  939MPD2    H513739   4.384   3.065   0.921  0.1627  0.0756  0.8544
  939MPD2    N113740   4.317   3.101   1.416 -0.9903 -0.0358 -0.4999
  939MPD2    H713741   4.298   3.068   1.510  0.1049 -1.0713 -0.6497
  940MPD2     C13742   2.899   3.382  13.387  0.8445 -0.1529 -0.0775
  940MPD2    C113743   2.890   3.513  13.403  0.7240 -0.2306 -0.2940
  940MPD2    C213744   2.846   3.583  13.293  0.1609 -0.1525 -0.0639
  940MPD2    C313745   2.788   3.525  13.177  0.2744 -0.0395  0.3987
  940MPD2    C413746   2.796   3.389  13.168  0.0958 -0.2971 -0.2536
  940MPD2    C513747   2.851   3.320  13.276  0.1464 -0.0670 -0.4500
  940MPD2     H13748   2.846   3.691  13.296 -1.3211 -0.1437  0.0255
  940MPD2    H113749   2.767   3.336  13.078 -1.1738  0.5835 -0.3616
  940MPD2    H213750   2.932   3.320  13.469 -1.8106 -3.1831 -1.3296
  940MPD2    H313751   2.858   3.212  13.270  0.7782 -0.0795  0.5145
  940MPD2     N13752   2.732   3.599  13.069  0.0947 -0.5096 -0.4538
  940MPD2    H513753   2.711   3.538  12.990  1.1996 -0.7194 -0.5759
  940MPD2    N113754   2.934   3.587  13.518 -0.4325 -0.0926 -0.0481
  940MPD2    H713755   2.911   3.686  13.519  0.0172  0.0111  0.1747
  941MPD2     C13756   2.552   2.459   9.276 -0.0563  0.7081  0.2767
  941MPD2    C113757   2.646   2.438   9.373  0.0462 -0.3786  0.0891
  941MPD2    C213758   2.612   2.359   9.485 -0.3118 -0.5326 -0.2054
  941MPD2    C313759   2.487   2.299   9.494  0.3417 -0.0889  0.2162
  941MPD2    C413760   2.392   2.327   9.396  0.2042 -0.2491  0.0290
  941MPD2    C513761   2.426   2.405   9.292  0.0491  0.7447 -0.1396
  941MPD2     H13762   2.689   2.341   9.560  0.0182 -0.2164 -0.4659
  941MPD2    H113763   2.292   2.285   9.403 -0.8140  1.7897 -2.3954
  941MPD2    H213764   2.571   2.523   9.191  0.8592 -1.6333 -1.2613
  941MPD2    H313765   2.348   2.436   9.224 -0.8225 -0.6386  0.2313
  941MPD2     N13766   2.435   2.225   9.602 -0.1799 -0.1908 -0.1369
  941MPD2    H513767   2.351   2.170   9.590  0.6877 -1.6889  0.6196
  941MPD2    N113768   2.781   2.485   9.372  0.5003  0.1266 -0.1468
  941MPD2    H713769   2.840   2.450   9.448 -1.1022  0.3502  1.1967
  942MPD2     C13770   2.183   0.090   8.833 -0.0940  0.2197  0.0607
  942MPD2    C113771   2.309   0.137   8.801 -0.0805 -0.0693  0.3527
  942MPD2    C213772   2.421   0.061   8.833 -0.3640  0.3834  0.2480
  942MPD2    C313773   2.403   4.655   8.895  0.2635 -0.3010  0.4068
  942MPD2    C413774   2.280   4.601   8.914 -0.2702 -0.6911  1.5178
  942MPD2    C513775   2.172   4.684   8.889  0.6544  0.2109 -0.4961
  942MPD2     H13776   2.517   0.095   8.796 -1.0738  2.5364  0.3877
  942MPD2    H113777   2.278   4.501   8.956  0.4866 -0.8516  1.1789
  942MPD2    H213778   2.091   0.146   8.823 -0.0136 -0.1201 -2.5016
  942MPD2    H313779   2.072   4.646   8.909  1.7952 -0.8503  3.1911
  942MPD2     N13780   2.513   4.571   8.926  0.4354  0.1407 -0.2516
  942MPD2    H513781   2.488   4.478   8.956 -0.8322  0.5176 -0.1370
  942MPD2    N113782   2.328   0.254   8.724  0.2497 -0.0619  0.2021
  942MPD2    H713783   2.427   0.268   8.705 -0.2135  2.2460 -0.5519
  943MPD2     C13784   0.685   2.799   9.206  0.1618  0.5044 -0.1609
  943MPD2    C113785   0.688   2.704   9.313  1.0120  0.7883 -0.3651
  943MPD2    C213786   0.765   2.728   9.420  0.8352  0.0018  0.1102
  943MPD2    C313787   0.832   2.846   9.430 -0.4624  0.4882 -0.5887
  943MPD2    C413788   0.830   2.942   9.329  0.1293 -0.2694 -0.3586
  943MPD2    C513789   0.750   2.921   9.215  1.0677 -0.1456 -0.3070
  943MPD2     H13790   0.762   2.671   9.513 -2.2663 -0.5248 -0.3082
  943MPD2    H113791   0.876   3.040   9.336 -0.1704 -0.2037  0.6809
  943MPD2    H213792   0.608   2.788   9.131  0.7205  0.6306 -0.7541
  943MPD2    H313793   0.741   2.999   9.140 -0.9771 -1.9346 -1.9639
  943MPD2     N13794   0.907   2.881   9.549 -0.4043  0.0931  0.9156
  943MPD2    H513795   0.949   2.974   9.540  3.3081 -1.8554 -1.8884
  943MPD2    N113796   0.605   2.591   9.304  0.0414 -0.8039 -0.0789
  943MPD2    H713797   0.548   2.582   9.220  2.3049  0.3940 -1.7355
  944MPD2     C13798   0.439   1.556  10.858  0.7331 -0.4635 -0.3209
  944MPD2    C113799   0.529   1.652  10.813 -0.1220  0.1077  0.4793
  944MPD2    C213800   0.569   1.747  10.910 -0.4240  0.0090 -0.4839
  944MPD2    C313801   0.534   1.734  11.045 -0.0226 -0.2947 -0.5051
  944MPD2    C413802   0.437   1.638  11.077 -0.1028 -0.8696  0.2684
  944MPD2    C513803   0.391   1.553  10.986 -0.3938  0.1939 -0.6961
  944MPD2     H13804   0.656   1.807  10.883 -0.6688  0.1570 -0.9435
  944MPD2    H113805   0.410   1.613  11.179 -1.0566 -1.5330 -0.1419
  944MPD2    H213806   0.397   1.483  10.790 -0.3841 -0.0960 -0.0229
  944MPD2    H313807   0.328   1.469  11.012 -1.1153  0.5985 -1.1367
  944MPD2     N13808   0.565   1.833  11.134  0.9958 -0.2032 -0.5599
  944MPD2    H513809   0.609   1.911  11.086 -2.6597  1.6510 -0.9441
  944MPD2    N113810   0.587   1.631  10.681  0.2829 -0.3155  0.6540
  944MPD2    H713811   0.560   1.544  10.636  0.8799  1.1556 -2.5986
    1TCq1    O113812   2.902   2.798  14.728 -0.2818 -0.6917 -0.0764
    1TCq1    C113813   2.981   2.822  14.618 -0.5263 -0.7501  0.1281
    1TCq1    O213814   3.094   2.779  14.598 -0.1913  0.4082  0.0903
    1TCq1    C213815   2.889   2.834  14.507 -0.8205  0.5318  0.2677
    1TCq1    C313816   2.760   2.804  14.509 -0.1587 -0.9091  0.1768
    1TCq1    C413817   2.685   2.839  14.398  0.3381 -0.2949  0.1256
    1TCq1    C513818   2.739   2.903  14.290 -0.4617 -0.5036  0.0117
    1TCq1    C613819   2.868   2.945  14.307 -0.2283 -0.5515 -0.2395
    1TCq1    C713820   2.943   2.895  14.402 -0.6387  0.5888  0.2933
    1TCq1    C813821   2.935   3.026  14.200  0.1892  0.0742  0.2719
    1TCq1    O413822   2.881   3.034  14.094  0.7946 -0.2511 -0.3551
    1TCq1    C913823   2.538   2.824  14.396 -0.4713  0.6858 -0.4265
    1TCq1    O513824   2.485   2.775  14.498  0.0690 -0.0263 -0.1003
    1TCq1    O613825   2.483   2.847  14.282  0.4629  0.4079  0.0046
    1TCq1    H113826   2.820   2.851  14.719 -0.6734 -1.1251  0.9241
    1TCq1    H213827   2.714   2.751  14.591  1.3001 -2.0498  0.2639
    1TCq1    H313828   2.672   2.960  14.226  0.3358  0.8679  0.3923
    1TCq1    H413829   3.051   2.904  14.399 -0.4334 -1.5735  1.7833
    2MPD2     C13830   3.301   3.361  14.063  0.4796  0.0268  0.0095
    2MPD2    C113831   3.295   3.361  14.198  0.2529  0.0257 -0.1495
    2MPD2    C213832   3.210   3.271  14.265 -0.6590 -0.5874  0.5069
    2MPD2    C313833   3.126   3.192  14.195  0.0437  0.3410  0.1484
    2MPD2    C413834   3.133   3.197  14.054 -0.1622 -0.7945 -0.0346
    2MPD2    C513835   3.223   3.275  13.992 -0.2494  0.5810 -0.4138
    2MPD2     H13836   3.204   3.273  14.373  0.0252  0.9495  0.5147
    2MPD2    H113837   3.072   3.129  13.995 -0.8787  1.4034 -1.8159
    2MPD2    H213838   3.352   3.441  14.009 -0.7641  1.4173  0.8857
    2MPD2    H313839   3.230   3.280  13.883 -1.8617  2.0695 -0.4682
    2MPD2     N13840   3.033   3.105  14.262 -0.4834  0.3630 -0.1600
    2MPD2    H513841   3.055   3.095  14.361 -1.1000 -0.6700 -0.1317
    2MPD2    N113842   3.401   3.434  14.261 -1.1358  0.6820  0.1692
    2MPD2    H713843   3.472   3.480  14.204 -0.4005 -0.4399  0.1835
    3TMC2    C113844   3.542   3.496  14.438  0.0777  0.0005 -0.0609
    3TMC2    C213845   3.569   3.503  14.570 -0.2046 -0.0553 -0.3670
    3TMC2    C313846   3.697   3.533  14.609  0.3937 -0.2938 -0.5143
    3TMC2    C413847   3.644   3.520  14.346  0.3495  0.1662 -0.7840
    3TMC2    C513848   3.769   3.551  14.392 -0.9258  0.1110  0.1044
    3TMC2    C613849   3.801   3.554  14.524  0.2227  0.4811  0.3919
    3TMC2     C13850   3.413   3.447  14.397 -0.1751 -0.0692  0.7227
    3TMC2     O13851   3.336   3.419  14.485  0.0920  0.1758  0.0667
    3TMC2     H13852   3.494   3.475  14.642 -2.1759  2.3946 -1.4654
    3TMC2    H113853   3.627   3.514  14.239 -2.7293  0.5177 -0.3139
    3TMC2    H213854   3.897   3.588  14.562  0.2051 -0.3135  1.1417
    3TMC2    C713855   3.869   3.588  14.296 -0.3259 -1.2119 -0.6210
    3TMC2    C813856   3.706   3.543  14.756  0.1961  0.4037  0.0942
    3TMC2    O113857   3.985   3.570  14.330 -0.0344 -0.2259  0.3604
    3TMC2    O213858   3.610   3.578  14.824  0.0699 -0.1623 -0.0036
    3TMC2    O513859   3.837   3.528  14.795 -0.0473  0.4175  0.2415
    3TMC2    H513860   3.889   3.465  14.741 -2.3678  0.5983 -2.1663
    4MPD2     C13861   2.973   4.381  13.400  0.4550 -0.3912  0.1198
    4MPD2    C113862   3.022   4.323  13.282  0.4158  0.2967 -0.1474
    4MPD2    C213863   3.154   4.285  13.275 -0.3170 -0.0423 -0.3945
    4MPD2    C313864   3.235   4.278  13.382 -0.7696 -0.7516  0.1075
    4MPD2    C413865   3.190   4.334  13.501  0.3774 -0.8359  0.1463
    4MPD2    C513866   3.061   4.388  13.507  0.4926  0.8192  0.3504
    4MPD2     H13867   3.187   4.237  13.183  0.6674  0.2092 -0.1688
    4MPD2    H113868   3.238   4.319  13.597  1.8494 -2.1907 -0.8023
    4MPD2    H213869   2.870   4.412  13.407  0.9501  0.9376  1.4723
    4MPD2    H313870   3.026   4.436  13.598  3.3485  3.4514  0.0528
    4MPD2     N13871   3.360   4.206  13.368 -0.1136 -0.7209  0.6416
    4MPD2    H513872   3.371   4.160  13.278 -0.2010 -0.6314  0.5851
    4MPD2    N113873   2.938   4.309  13.170  0.1979 -0.3754  0.3685
    4MPD2    H713874   2.841   4.288  13.193  0.0698 -0.8582 -0.6278
    5TCq2    C113875   3.446   4.184  13.472  0.9487  0.3080 -0.0210
    5TCq2    O213876   3.448   4.246  13.578 -0.3912 -0.7859  0.2787
    5TCq2    C213877   3.532   4.065  13.467 -0.1867  0.5958 -0.1547
    5TCq2    C313878   3.529   3.979  13.361  0.6806 -0.4634  0.9609
    5TCq2    C413879   3.601   3.862  13.381 -0.7569  0.5901 -0.0764
    5TCq2    C513880   3.669   3.829  13.492  0.1094 -0.0494 -0.4648
    5TCq2    C613881   3.672   3.921  13.597 -0.4264  0.4818  0.0507
    5TCq2    C713882   3.590   4.029  13.590  0.0181 -0.2001 -0.4700
    5TCq2    C813883   3.716   3.883  13.729  0.9185  0.5464  0.2324
    5TCq2    O413884   3.653   3.909  13.829 -0.1093 -0.5760  0.1679
    5TCq2    C913885   3.596   3.765  13.276 -0.5608 -0.1038 -0.2251
    5TCq2    O513886   3.549   3.807  13.168  1.0402 -0.1874  0.4655
    5TCq2    O613887   3.634   3.652  13.305  0.1821  0.2918  0.2117
    5TCq2    H213888   3.489   4.011  13.266 -0.8786 -1.9036  1.1296
    5TCq2    H313889   3.727   3.738  13.498 -0.9737 -0.7362 -0.5809
    5TCq2    H413890   3.578   4.090  13.678  0.3878 -1.6102  0.5627
    6MPD1     C13891   2.214   0.560  13.407  0.6462  0.6613  0.5522
    6MPD1    C113892   2.228   0.626  13.285  0.2019 -0.1079  0.1028
    6MPD1    C213893   2.195   0.553  13.169  0.5530  0.0393  0.3354
    6MPD1    C313894   2.169   0.416  13.185  0.2186 -0.6607 -0.3800
    6MPD1    C413895   2.168   0.357  13.306  0.8209 -0.0888 -0.1610
    6MPD1    C513896   2.178   0.433  13.414 -0.7851  0.0867  0.3146
    6MPD1     H13897   2.208   0.595  13.070 -1.9820  2.2396  0.9211
    6MPD1    H113898   2.153   0.250  13.315  3.2905 -0.4628 -0.3376
    6MPD1    H213899   2.249   0.599  13.502 -0.9855 -1.2952  1.9466
    6MPD1    H313900   2.174   0.385  13.511 -0.5594  2.7769  1.6571
    6MPD1     N13901   2.144   0.330  13.078  0.0160  0.3414  0.0506
    6MPD1    H513902   2.117   0.236  13.108 -1.1285  0.1226 -1.6784
    6MPD1    N113903   2.275   0.762  13.277 -0.2346 -0.4482  0.3079
    6MPD1    H613904   2.364   0.758  13.228 -1.2099 -0.2583 -1.4920
    6MPD1    H713905   2.296   0.809  13.364  0.4148 -1.7843  0.8745
    7MPD2     C13906   2.113   4.438  13.130  0.1546 -0.4116 -0.0387
    7MPD2    C113907   2.174   4.460  13.006 -0.6499 -0.0852  0.4954
    7MPD2    C213908   2.280   4.389  12.958 -0.5070  0.1939 -0.1667
    7MPD2    C313909   2.343   4.297  13.040 -0.3061  0.0018 -0.1126
    7MPD2    C413910   2.289   4.270  13.166  0.3232 -0.2073 -0.3346
    7MPD2    C513911   2.175   4.345  13.209  0.0638  0.0464 -0.8881
    7MPD2     H13912   2.325   4.427  12.867 -2.0617  1.9635 -0.1800
    7MPD2    H113913   2.335   4.201  13.236  1.0903 -0.6803 -1.3055
    7MPD2    H213914   2.037   4.507  13.166  0.6795 -0.6663  1.5598
    7MPD2    H313915   2.127   4.331  13.305 -0.0270  0.2034 -0.9111
    7MPD2     N13916   2.467   4.234  13.008 -0.5894  0.4272  0.1393
    7MPD2    H513917   2.516   4.185  13.083  1.4901  1.1610 -0.7215
    7MPD2    N113918   2.135   4.562  12.923  0.2401  0.1810 -0.8736
    7MPD2    H713919   2.200   4.583  12.849 -0.7540  2.0655 -1.2188
    8TMC3    C113920   2.661   4.178  12.871  0.3424 -0.1548 -0.3882
    8TMC3    C213921   2.752   4.215  12.972  0.0035  0.6407  0.6016
    8TMC3    C313922   2.868   4.276  12.939 -0.0486  0.2334  0.3983
    8TMC3    C413923   2.699   4.191  12.741  0.3244  0.4931  1.3242
    8TMC3    C513924   2.820   4.248  12.707  0.1965 -0.2342  0.6119
    8TMC3    C613925   2.905   4.289  12.806 -0.2138 -0.2227  0.0223
    8TMC3     C13926   2.527   4.235  12.884 -0.1482 -0.2930 -0.6352
    8TMC3     O13927   2.467   4.261  12.780 -0.8147 -0.0921 -0.2616
    8TMC3     H13928   2.722   4.204  13.075  0.7417 -2.7043  0.4820
    8TMC3    H113929   2.637   4.143  12.666  0.9032  1.4981  0.2018
    8TMC3    H213930   2.993   4.348  12.782  0.9924 -2.3142 -0.6751
    8TMC3    C713931   2.802   4.340  12.594  0.4538 -0.2125 -0.4825
    8TMC3    C813932   2.972   4.293  13.038 -0.4513 -0.5186  0.3183
    8TMC3    O113933   2.903   4.377  12.541  0.2671 -0.2070  0.0276
    8TMC3    O213934   3.082   4.289  12.984  0.0964  0.5953 -0.1032
    9TMC3    C113935   2.090   0.249  12.862 -0.0611  0.9986  0.3060
    9TMC3    C213936   2.154   0.245  12.745 -0.2695  0.0129  0.3610
    9TMC3    C313937   2.154   0.127  12.671 -0.3344  0.7221 -0.0684
    9TMC3    C413938   2.033   0.138  12.920  0.9269  0.2789  0.5933
    9TMC3    C513939   2.034   0.026  12.848  0.7417 -0.1252  0.7486
    9TMC3    C613940   2.090   0.017  12.724  0.2266 -0.1624  0.5187
    9TMC3     C13941   2.131   0.367  12.945  0.3397  0.4355  0.1803
    9TMC3     O13942   2.160   0.471  12.892 -0.3062 -0.4651 -0.4126
    9TMC3     H13943   2.204   0.331  12.701  1.9442 -0.2883  2.2911
    9TMC3    H113944   1.987   0.141  13.018 -0.7184 -0.3199 -0.1464
    9TMC3    H213945   2.097   4.643  12.674 -1.3458  0.2024 -0.4040
    9TMC3    C713946   2.019   4.631  12.930 -0.3005  0.2248 -0.4640
    9TMC3    C813947   2.269   0.104  12.579 -0.0646  0.1485 -0.1772
    9TMC3    O113948   1.926   4.640  13.015  0.8834  0.2077  0.2671
    9TMC3    O213949   2.296   0.193  12.501 -0.2580 -0.0791 -0.3279
   10MPD2     C13950   2.695   4.576  12.439  0.3518 -0.0878 -0.1344
   10MPD2    C113951   2.624   4.502  12.527 -0.2645 -0.5357 -0.7779
   10MPD2    C213952   2.510   4.558  12.571  0.1024  0.1534 -1.2922
   10MPD2    C313953   2.457   4.682  12.540  0.2614  0.5434 -0.0178
   10MPD2    C413954   2.532   0.031  12.456  0.9638  0.8000  0.8529
   10MPD2    C513955   2.651   4.703  12.404  0.5194  0.0381 -0.2516
   10MPD2     H13956   2.453   4.498  12.641 -1.8377  0.4592 -2.6040
   10MPD2    H113957   2.499   0.129  12.425 -0.3361  0.4074  1.0110
   10MPD2    H213958   2.793   4.547  12.405  0.6534  0.0641  0.6033
   10MPD2    H313959   2.718   0.046  12.348 -0.4101  1.0693 -0.1818
   10MPD2     N13960   2.342   4.714  12.611 -0.1257 -0.3344  0.4861
   10MPD2    H513961   2.310   4.654  12.686  0.8960 -1.4439  0.0495
   10MPD2    N113962   2.674   4.392  12.593  0.5166  0.2076  1.1109
   10MPD2    H713963   2.614   4.350  12.663  1.1324  3.0020  3.3192
   11MPD2     C13964   4.015   3.634  14.047 -0.1072 -0.2363 -0.1550
   11MPD2    C113965   3.880   3.672  14.060  0.7383  0.2360 -0.0169
   11MPD2    C213966   3.820   3.715  13.948  0.2756  0.0999  0.6511
   11MPD2    C313967   3.884   3.738  13.829 -0.8915 -0.1177 -0.0964
   11MPD2    C413968   4.019   3.699  13.825  0.7115  0.1449 -0.9187
   11MPD2    C513969   4.080   3.639  13.932  0.1189  0.4830 -0.3206
   11MPD2     H13970   3.713   3.730  13.956  0.2154  0.7787 -1.6505
   11MPD2    H113971   4.082   3.699  13.737  0.9177  1.3697 -0.7806
   11MPD2    H213972   4.079   3.600  14.128  1.7570 -0.3586 -1.6789
   11MPD2    H313973   4.177   3.591  13.926  1.3562  2.9222  0.0507
   11MPD2     N13974   3.825   3.800  13.717 -0.0080  0.2222  0.9533
   11MPD2    H513975   3.872   3.800  13.628  1.8604 -2.1904  1.9386
   11MPD2    N113976   3.814   3.648  14.183  0.1628  0.1021  0.5883
   11MPD2    H713977   3.716   3.673  14.188  0.3417  0.9983 -0.2947
    1MPD1     C13978   0.943   4.560  16.651  0.7610  0.1661  0.3024
    1MPD1    C113979   0.961   4.695  16.695 -0.6210 -0.5310  0.0318
    1MPD1    C213980   1.085   0.014  16.737  0.8848 -0.1644 -0.3082
    1MPD1    C313981   1.189   4.645  16.738  0.9373 -0.5025  0.2146
    1MPD1    C413982   1.175   4.519  16.682  0.4337  0.0133 -0.7428
    1MPD1    C513983   1.051   4.477  16.649  0.3955  0.3848  0.4241
    1MPD1     H13984   1.097   0.118  16.765 -1.3045 -0.3148  1.1608
    1MPD1    H113985   1.254   4.446  16.674  0.8903  0.4538 -0.2914
    1MPD1    H213986   0.853   4.518  16.606 -0.6840  3.5058  0.1279
    1MPD1    H313987   1.031   4.371  16.637 -2.2273  0.8319  0.7357
    1MPD1     N13988   1.314   4.678  16.800  0.2722 -0.1798 -0.3150
    1MPD1    H513989   1.378   4.602  16.778  0.8668  0.1443  0.3171
    1MPD1    N113990   0.847   0.054  16.683  0.3289 -0.1617  0.6502
    1MPD1    H613991   0.757   0.008  16.695 -0.7933  2.1993  1.2740
    1MPD1    H713992   0.851   0.146  16.727  1.6312 -0.2541  0.7218
    2MPD1     C13993   1.926   0.065  17.687  0.0471  0.1983 -0.1388
    2MPD1    C113994   1.978   4.693  17.598  0.5908  0.0905 -0.4769
    2MPD1    C213995   1.924   4.695  17.472 -0.2960  0.1302  0.5617
    2MPD1    C313996   1.809   0.043  17.438 -0.0395  0.2092  0.4395
    2MPD1    C413997   1.756   0.125  17.532  0.2387  0.0948 -0.3154
    2MPD1    C513998   1.816   0.138  17.654  0.2273  0.3208 -0.1789
    2MPD1     H13999   1.963   4.629  17.395 -0.7607  1.0577 -0.4583
    2MPD1    H114000   1.662   0.176  17.515  1.5597  2.7280  0.2265
    2MPD1    H214001   1.956   0.091   0.100 -0.3411 -0.9667  0.2706
    2MPD1    H314002   1.773   0.199   0.044  0.1116  0.7708 -0.5988
    2MPD1     N14003   1.754   0.034  17.303 -0.2790  0.0088  0.7230
    2MPD1    H514004   1.801   4.694  17.238 -2.2187 -0.2678 -0.4392
    2MPD1    N114005   2.097   4.628  17.628 -0.0676 -0.1504  0.4695
    2MPD1    H614006   2.123   4.559  17.558  0.3789  1.5054 -0.9981
    2MPD1    H714007   2.084   4.567   0.021 -1.7461 -0.1717  0.1775
    3TMC3    C114008   1.623   0.072  17.111 -0.4915 -0.0065  0.2589
    3TMC3    C214009   1.719   4.710  17.043  0.4301 -0.0816 -0.1991
    3TMC3    C314010   1.683   4.658  16.923  0.5455 -0.3538 -0.0200
    3TMC3    C414011   1.499   0.104  17.054  0.1693 -0.9492 -0.6792
    3TMC3    C514012   1.482   0.065  16.923  0.0934 -0.0910  0.1146
    3TMC3    C614013   1.566   4.702  16.860  0.3090  0.0232  0.7337
    3TMC3     C14014   1.650   0.105  17.248 -0.7095  0.7929  0.2343
    3TMC3     O14015   1.566   0.168  17.314 -0.1458  0.1696  0.0995
    3TMC3     H14016   1.826   4.714  17.062  0.7975 -2.1380 -1.8431
    3TMC3    H114017   1.427   0.173  17.096 -1.8069 -2.6539 -1.2829
    3TMC3    H214018   1.560   4.685  16.753  0.1727  2.3970  0.3513
    3TMC3    C714019   1.338   0.051  16.893  0.4061 -0.3410 -0.5523
    3TMC3    C814020   1.784   4.583  16.846  0.3535  0.1559 -0.7043
    3TMC3    O114021   1.255   0.119  16.945  0.0269  0.2563 -0.2566
    3TMC3    O214022   1.742   4.533  16.742  0.4545  0.2038 -0.6200
    4MPD1     C14023   2.252   4.393  16.745  0.3675  0.2047  0.5990
    4MPD1    C114024   2.245   4.402  16.881  0.2813 -0.3983  0.4866
    4MPD1    C214025   2.129   4.461  16.925  0.8279  0.2074  0.1053
    4MPD1    C314026   2.016   4.486  16.846  0.2626  0.4980 -0.5869
    4MPD1    C414027   2.028   4.464  16.710 -0.1672  0.0808  0.2311
    4MPD1    C514028   2.142   4.412  16.664  0.1928  0.1909 -0.7335
    4MPD1     H14029   2.116   4.495  17.027  1.6150  1.8976 -0.3509
    4MPD1    H114030   1.948   4.489  16.641  0.2380  1.0618  0.1180
    4MPD1    H214031   2.346   4.358  16.703  0.4719  0.9629  0.2067
    4MPD1    H314032   2.153   4.400  16.557  0.2184 -0.0224 -0.7064
    4MPD1     N14033   1.905   4.548  16.913 -0.1658  0.2833 -0.2386
    4MPD1    H514034   1.916   4.578  17.009 -1.1052  3.3949 -1.0883
    4MPD1    N114035   2.362   4.408  16.956 -0.2492 -0.0976 -0.0021
    4MPD1    H614036   2.435   4.340  16.938 -1.7196 -1.6748 -0.0286
    4MPD1    H714037   2.343   4.392  17.055  1.9411 -0.2268  0.4015
    1TCq1    O114038   0.482   3.836   9.009  0.1498 -0.4006  0.5068
    1TCq1    C114039   0.389   3.753   8.965  0.2185 -0.7545  0.0833
    1TCq1    O214040   0.414   3.634   8.938  0.6553 -0.1257  0.1961
    1TCq1    C214041   0.257   3.816   8.939  0.1226  0.8135  0.0336
    1TCq1    C314042   0.253   3.939   8.888 -0.3333 -0.1124 -0.8464
    1TCq1    C414043   0.136   3.990   8.831 -0.5241  0.6341 -0.1780
    1TCq1    C514044   0.031   3.903   8.805 -0.1821  1.3691  0.4118
    1TCq1    C614045   0.033   3.779   8.862 -0.0002 -0.1017 -0.2807
    1TCq1    C714046   0.152   3.734   8.920 -0.6344  0.5413 -0.2004
    1TCq1    C814047   4.661   3.676   8.814 -0.2307 -0.4836 -0.3643
    1TCq1    O414048   4.704   3.562   8.820 -0.0793 -0.0358  0.1962
    1TCq1    C914049   0.144   4.103   8.742  0.4136  0.7182  0.8172
    1TCq1    O514050   0.030   4.149   8.707  0.7073  0.6583 -0.0136
    1TCq1    O614051   0.259   4.144   8.700  0.3255  0.2392  0.1423
    1TCq1    H114052   0.454   3.925   9.041  0.4159 -0.4853  0.9801
    1TCq1    H214053   0.347   3.991   8.873 -0.0135 -0.3115  0.5447
    1TCq1    H314054   4.674   3.940   8.740 -1.3116  0.2380  1.1614
    1TCq1    H414055   0.157   3.628   8.943 -1.6670  0.8953  1.6388
    2MPD1     C14056   4.205   3.551   8.597 -0.7151  0.0765 -0.5065
    2MPD1    C114057   4.196   3.673   8.654 -1.4554 -0.4085 -0.3832
    2MPD1    C214058   4.302   3.740   8.719 -0.2226  0.2767 -0.7545
    2MPD1    C314059   4.419   3.666   8.725  0.2539  0.1676 -0.5172
    2MPD1    C414060   4.424   3.536   8.685  0.2470  0.8898  0.0079
    2MPD1    C514061   4.318   3.476   8.618  0.6246  0.5261 -0.3870
    2MPD1     H14062   4.293   3.836   8.769  0.6799 -1.4215  2.6823
    2MPD1    H114063   4.512   3.472   8.691  1.5591  2.6933 -0.2615
    2MPD1    H214064   4.124   3.503   8.544 -1.4321  2.1318 -1.2568
    2MPD1    H314065   4.332   3.386   8.560 -0.7527 -0.7777  1.2966
    2MPD1     N14066   4.530   3.733   8.783 -0.3750 -0.1612 -0.4816
    2MPD1    H514067   4.517   3.830   8.811  1.3659  0.3982 -1.5992
    2MPD1    N114068   4.069   3.731   8.651 -0.0829 -0.6155 -0.6270
    2MPD1    H614069   4.014   3.697   8.573 -1.1767 -4.0013  1.6301
    2MPD1    H714070   4.081   3.831   8.636 -0.6693 -0.3829  0.4357
    1TCq1    O114071   0.889   0.805   2.036  0.2940 -0.3280 -0.4644
    1TCq1    C114072   0.770   0.754   2.065 -0.3946  0.0536 -0.0154
    1TCq1    O214073   0.742   0.631   2.080  0.9243 -0.0109 -0.4152
    1TCq1    C214074   0.667   0.857   2.076  0.8966 -0.2510  0.2772
    1TCq1    C314075   0.694   0.992   2.063 -0.1313  0.1056 -0.8467
    1TCq1    C414076   0.592   1.084   2.065 -0.0585  0.4396 -0.3784
    1TCq1    C514077   0.467   1.045   2.112 -0.4691 -0.1448  0.0876
    1TCq1    C614078   0.445   0.910   2.121 -0.3531  1.0338  0.0453
    1TCq1    C714079   0.537   0.818   2.088 -0.1155  0.8930 -1.4792
    1TCq1    C814080   0.311   0.856   2.163  0.1661  0.5396 -0.4404
    1TCq1    O414081   0.307   0.754   2.226  0.3597 -0.8151  0.0480
    1TCq1    C914082   0.624   1.223   2.078 -0.1202 -0.3826  0.4756
    1TCq1    O514083   0.535   1.308   2.040 -0.4453  0.5431 -0.4236
    1TCq1    O614084   0.744   1.258   2.099  0.4578 -0.8242  0.4471
    1TCq1    H114085   0.875   0.881   1.975 -3.2121 -0.2757  0.4141
    1TCq1    H214086   0.796   1.023   2.080 -0.9923  2.3465  0.3446
    1TCq1    H314087   0.387   1.117   2.114 -1.3244 -1.1486  1.2491
    1TCq1    H414088   0.512   0.713   2.099 -1.3562  1.3283 -0.1536
    2MPD1     C14089   4.528   0.957   2.217 -0.1970  0.6515 -0.7768
    2MPD1    C114090   4.578   1.043   2.131  0.5355  0.3172  0.5826
    2MPD1    C214091   4.715   1.043   2.110 -0.8442 -0.0091 -0.1771
    2MPD1    C314092   0.078   0.944   2.153 -0.2384  0.2185  0.2178
    2MPD1    C414093   0.020   0.839   2.226  0.7947 -0.4499 -0.1888
    2MPD1    C514094   4.610   0.851   2.257 -0.0755  0.1613  0.4475
    2MPD1     H14095   0.035   1.122   2.048  3.6023 -2.2332 -0.0416
    2MPD1    H114096   0.070   0.746   2.253  1.3711 -0.1138 -0.1045
    2MPD1    H214097   4.425   0.949   2.250 -0.1797  1.3055 -0.5740
    2MPD1    H314098   4.565   0.777   2.323  0.1282  0.3224  0.7668
    2MPD1     N14099   0.216   0.945   2.126 -0.2715 -0.5360 -0.2903
    2MPD1    H514100   0.249   1.031   2.084 -0.1351  0.0154  0.9473
    2MPD1    N114101   4.502   1.159   2.104 -0.4158  0.0783 -0.7403
    2MPD1    H614102   4.401   1.144   2.105 -0.3247 -0.6120 -1.9325
    2MPD1    H714103   4.516   1.201   2.012  0.6043  0.4212 -0.4214
    1MPD1     C14104   3.166   0.034  12.380 -0.4174 -0.5745 -0.4371
    1MPD1    C114105   3.153   0.109  12.274  0.1908 -0.5315 -0.5058
    1MPD1    C214106   3.257   0.202  12.250 -0.3062  0.3488 -0.2559
    1MPD1    C314107   3.383   0.194  12.318 -0.4669  0.5681  0.2528
    1MPD1    C414108   3.393   0.096  12.412  0.0467 -0.3902  0.8093
    1MPD1    C514109   3.284   0.022  12.450 -0.1140  0.4434  0.1641
    1MPD1     H14110   3.235   0.286  12.185  0.3531  1.1528  0.5598
    1MPD1    H114111   3.469   0.088  12.489 -1.0684 -0.7412  1.8526
    1MPD1    H214112   3.078   4.705  12.419 -0.7428  0.4623  0.1914
    1MPD1    H314113   3.292   4.666  12.525  0.5105  0.5211  0.1751
    1MPD1     N14114   3.493   0.281  12.288  0.5606 -0.1615  0.3851
    1MPD1    H514115   3.475   0.342  12.209  0.7711 -2.0521 -1.1363
    1MPD1    N114116   3.028   0.138  12.210 -0.4228  0.3520  0.8162
    1MPD1    H614117   2.966   0.058  12.204 -0.1064  0.1208  0.6593
    1MPD1    H714118   3.041   0.178  12.117 -0.7179  2.9089  1.8560
    2MPD1     C14119   3.080   0.644  11.589  0.7330 -0.0657 -0.2918
    2MPD1    C114120   3.012   0.569  11.498 -0.3086 -0.0924 -0.1109
    2MPD1    C214121   3.087   0.490  11.419 -0.1074 -0.8675  0.1663
    2MPD1    C314122   3.227   0.496  11.424 -0.1578 -0.1490 -0.5303
    2MPD1    C414123   3.292   0.576  11.510 -0.1646  0.1447 -0.4782
    2MPD1    C514124   3.214   0.651  11.598 -0.1113  0.9199  0.1941
    2MPD1     H14125   3.033   0.432  11.345  1.6738 -0.2475 -1.6449
    2MPD1    H114126   3.400   0.581  11.516 -0.1626 -0.8143  0.0944
    2MPD1    H214127   3.025   0.691  11.670 -0.9807 -0.3828 -1.2691
    2MPD1    H314128   3.259   0.710  11.677  0.5833  1.1331 -0.3634
    2MPD1     N14129   3.309   0.422  11.328  0.4264 -0.1251  0.0370
    2MPD1    H514130   3.409   0.439  11.325  0.2162  0.6900 -1.9915
    2MPD1    N114131   2.875   0.555  11.506  0.4097  0.0869 -0.2672
    2MPD1    H614132   2.841   0.509  11.421 -1.7878 -0.3588  0.8679
    2MPD1    H714133   2.816   0.635  11.529  0.5971 -0.2880  1.5198
    3MPD1     C14134   2.986   4.479  10.661 -0.1296  0.1335 -0.6006
    3MPD1    C114135   2.953   4.479  10.795 -0.0307 -0.4381  0.5606
    3MPD1    C214136   3.039   4.552  10.876  0.2544 -0.0435  0.1149
    3MPD1    C314137   3.154   4.607  10.826  0.2556 -0.3682 -0.0873
    3MPD1    C414138   3.189   4.589  10.694 -0.3972 -1.3504  0.1000
    3MPD1    C514139   3.109   4.515  10.608 -1.0176 -0.2387  0.2126
    3MPD1     H14140   3.010   4.560  10.980 -2.0548 -1.6002 -0.3939
    3MPD1    H114141   3.280   4.633  10.655 -1.5234 -0.7041 -1.7824
    3MPD1    H214142   2.907   4.442  10.597 -2.0081  2.0282  0.6250
    3MPD1    H314143   3.130   4.509  10.502  0.1224 -2.0322  0.5301
    3MPD1     N14144   3.235   4.681  10.922  0.6364  0.0172  0.2428
    3MPD1    H514145   3.201   4.684  11.018 -1.2221  0.5619 -0.4231
    3MPD1    N114146   2.831   4.426  10.839  0.4792  0.3183  0.7940
    3MPD1    H614147   2.807   4.344  10.784 -0.6798  1.4287 -0.3568
    3MPD1    H714148   2.823   4.405  10.938  0.0485 -1.4772  0.3696
    4MPD2     C14149   3.730   0.804  11.809  0.1385  0.5763 -0.3924
    4MPD2    C114150   3.822   0.725  11.867  0.3469  0.1259 -0.2456
    4MPD2    C214151   3.942   0.707  11.800 -0.4353  0.8114 -0.5367
    4MPD2    C314152   3.974   0.768  11.683  0.7318  0.5203  0.1463
    4MPD2    C414153   3.885   0.857  11.636  0.2609  0.6103  0.0119
    4MPD2    C514154   3.771   0.874  11.699 -1.2496 -0.0788  0.2551
    4MPD2     H14155   4.015   0.639  11.844 -0.8017  0.3355 -0.6644
    4MPD2    H114156   3.894   0.915  11.545  1.2922 -0.2718 -0.4533
    4MPD2    H214157   3.627   0.816  11.839 -0.3694 -0.0170 -1.8798
    4MPD2    H314158   3.704   0.949  11.657 -0.2113  1.1404  0.7915
    4MPD2     N14159   4.097   0.739  11.610 -0.4693  0.2662  0.4485
    4MPD2    H514160   4.115   0.788  11.523  0.1332 -0.2993  0.2545
    4MPD2    N114161   3.805   0.648  11.987 -0.2587  0.3885  0.0849
    4MPD2    H714162   3.890   0.601  12.018  0.2869 -0.0389 -2.0766
    5TMC3    C114163   3.748   0.571  12.180 -0.4619 -0.8160 -0.4754
    5TMC3    C214164   3.665   0.471  12.213  0.0025 -0.2746 -0.0590
    5TMC3    C314165   3.722   0.359  12.268 -0.7849 -0.4245  0.6616
    5TMC3    C414166   3.887   0.562  12.192  0.1094  0.2774 -0.2036
    5TMC3    C514167   3.937   0.440  12.246 -0.4511 -0.2030  1.0221
    5TMC3    C614168   3.855   0.339  12.289  0.1314 -0.1420 -0.0647
    5TMC3     C14169   3.696   0.645  12.066 -0.3020  0.3159  0.4890
    5TMC3     O14170   3.576   0.671  12.047  0.0115 -0.2170 -0.3915
    5TMC3     H14171   3.559   0.485  12.197 -0.1554 -1.5739 -0.1961
    5TMC3    H114172   3.964   0.636  12.175  0.8918 -0.9182 -1.9075
    5TMC3    H214173   3.897   0.244  12.321  0.1982  0.2756  1.0811
    5TMC3    C714174   4.020   0.394  12.141  0.1910  0.4194 -0.6060
    5TMC3    C814175   3.624   0.266  12.327  0.3553 -0.3809  0.1725
    5TMC3    O114176   4.001   0.444  12.029  0.0207  0.2723  0.0786
    5TMC3    O214177   3.671   0.172  12.391  0.3853  0.2794 -0.1059
    6TMC3    C114178   3.362   0.254  11.173  0.3173  0.3370  0.2357
    6TMC3    C214179   3.314   0.152  11.095 -0.0042 -0.2196  0.4372
    6TMC3    C314180   3.405   0.086  11.012 -0.3228 -0.5541 -1.2132
    6TMC3    C414181   3.495   0.291  11.178 -0.5270  0.2856  0.6156
    6TMC3    C514182   3.579   0.221  11.098 -0.4365 -0.0074  0.0212
    6TMC3    C614183   3.543   0.112  11.022  0.0619 -0.4168 -0.5282
    6TMC3     C14184   3.260   0.312  11.258 -0.1308 -0.6457  0.1157
    6TMC3     O14185   3.143   0.275  11.255  0.3667  0.1385  0.0149
    6TMC3     H14186   3.207   0.139  11.092  0.2056 -2.2255  1.7205
    6TMC3    H114187   3.535   0.372  11.236 -3.2401  1.1821  1.2204
    6TMC3    H214188   3.602   0.067  10.943 -0.8887 -2.3972 -0.1024
    6TMC3    C714189   3.724   0.235  11.128 -0.3194  0.4890 -0.2261
    6TMC3    C814190   3.359   0.005  10.902  0.1378 -0.9325 -0.3503
    6TMC3    O114191   3.750   0.338  11.187  0.4695  0.1741 -0.0394
    6TMC3    O214192   3.432   4.693  10.815  0.5614 -0.3593  0.5005
    7MPD2     C14193   4.400   0.147  11.901  0.6228  0.6017  1.0164
    7MPD2    C114194   4.331   0.262  11.871 -0.3910 -0.0324 -0.2207
    7MPD2    C214195   4.237   0.316  11.961 -0.1252  0.2548  0.0591
    7MPD2    C314196   4.213   0.252  12.079  0.0578  0.0772 -0.4656
    7MPD2    C414197   4.278   0.132  12.106  0.1779 -0.1327 -0.5395
    7MPD2    C514198   4.369   0.089  12.020  0.2221  0.3626  0.5255
    7MPD2     H14199   4.194   0.413  11.938 -0.7369 -0.1301 -0.4471
    7MPD2    H114200   4.262   0.080  12.200 -1.0490  0.5147 -0.3857
    7MPD2    H214201   4.471   0.107  11.830 -0.1384 -1.0033  1.1409
    7MPD2    H314202   4.417   4.716  12.045  0.1923  0.3708  0.6135
    7MPD2     N14203   4.120   0.304  12.176 -0.0509  0.5593  0.2641
    7MPD2    H514204   4.125   0.259  12.267  0.3770 -1.8042 -0.9195
    7MPD2    N114205   4.361   0.341  11.761  0.1457 -0.7413 -0.0548
    7MPD2    H714206   4.318   0.433  11.753 -2.3924 -1.9557 -0.3861
    8TMC3    C114207   4.436   0.432  11.571  0.2173  0.2968 -0.4372
    8TMC3    C214208   4.389   0.391  11.449  0.0070 -0.2750  0.4376
    8TMC3    C314209   4.298   0.474  11.384 -0.4693 -0.2914 -0.0793
    8TMC3    C414210   4.385   0.545  11.628  0.2489 -0.3336  0.8601
    8TMC3    C514211   4.301   0.628  11.562 -0.1491  0.5415 -0.4104
    8TMC3    C614212   4.261   0.599  11.433 -0.8110 -0.3845  0.0893
    8TMC3     C14213   4.445   0.317  11.656 -0.4000 -0.6195 -0.1873
    8TMC3     O14214   4.500   0.211  11.618 -0.1131 -0.1766  0.4146
    8TMC3     H14215   4.417   0.294  11.410 -0.5049 -0.3070  0.1392
    8TMC3    H114216   4.415   0.574  11.728  1.6067 -0.9761  0.6428
    8TMC3    H214217   4.193   0.663  11.379 -1.1400 -0.5792  0.2737
    8TMC3    C714218   4.186   0.642  11.650 -0.7480  0.1274  0.7639
    8TMC3    C814219   4.190   0.409  11.314  0.1612 -0.6248 -0.5392
    8TMC3    O114220   4.183   0.558  11.738 -0.0910 -1.0325 -0.3633
    8TMC3    O214221   4.087   0.472  11.295  0.0697  0.0988 -0.4538
    9MPD2     C14222   4.192   0.054  11.208  0.4601 -0.2647  0.3725
    9MPD2    C114223   4.151   0.187  11.218 -0.2570  0.6867 -0.5451
    9MPD2    C214224   4.018   0.212  11.188 -0.0787  0.3970 -0.4359
    9MPD2    C314225   3.937   0.111  11.139 -0.0157 -0.3772  0.7543
    9MPD2    C414226   3.993   4.707  11.124 -0.1764 -0.3239 -0.1218
    9MPD2    C514227   4.118   4.672  11.172  0.4092  0.5110  0.0159
    9MPD2     H14228   3.986   0.315  11.183 -0.4325  0.3534  1.1864
    9MPD2    H114229   3.940   4.622  11.083  1.5881 -0.7728 -1.4735
    9MPD2    H214230   4.297   0.044  11.232  0.6018 -1.8458 -0.9268
    9MPD2    H314231   4.166   4.579  11.145 -0.3704 -0.0685  0.6381
    9MPD2     N14232   3.802   0.126  11.101 -0.8035 -1.4068 -0.0879
    9MPD2    H514233   3.747   0.043  11.082 -1.9803 -0.6297 -0.0500
    9MPD2    N114234   4.241   0.286  11.265 -0.3178 -0.3661  0.1436
    9MPD2    H714235   4.333   0.256  11.296  0.7858  1.8705 -0.9660
    1MPD1     C14236   2.531   4.261  15.811  0.0983 -0.5259  0.6871
    1MPD1    C114237   2.667   4.284  15.790 -0.4284  0.1079 -0.1389
    1MPD1    C214238   2.752   4.269  15.901 -0.5471 -0.4974 -0.0439
    1MPD1    C314239   2.712   4.223  16.026  0.0581 -0.4821 -0.5672
    1MPD1    C414240   2.583   4.192  16.044 -0.2823  0.4038  0.0810
    1MPD1    C514241   2.493   4.215  15.940  0.6525 -0.5313  0.1048
    1MPD1     H14242   2.857   4.289  15.886 -0.7151  1.6471  1.6133
    1MPD1    H114243   2.550   4.146  16.136 -0.5349 -1.9698 -1.2129
    1MPD1    H214244   2.458   4.286  15.735 -1.0376 -2.0064  1.3085
    1MPD1    H314245   2.389   4.200  15.966  1.1347 -0.3083  2.1225
    1MPD1     N14246   2.790   4.203  16.138 -0.1954 -0.4696 -0.4946
    1MPD1    H514247   2.744   4.162  16.218 -1.2902 -0.1401 -0.9577
    1MPD1    N114248   2.706   4.351  15.674 -0.5556 -0.3533 -0.1574
    1MPD1    H614249   2.806   4.339  15.658 -0.3226  0.4792  0.6476
    1MPD1    H714250   2.650   4.321  15.595 -0.5729  1.0892 -0.6874
    2MPD1     C14251   3.550   4.444  16.869  0.1781  0.9291 -0.1174
    2MPD1    C114252   3.441   4.387  16.924  0.0706 -0.0108 -0.1705
    2MPD1    C214253   3.336   4.346  16.840  0.1697  0.1608  0.1583
    2MPD1    C314254   3.349   4.360  16.706 -0.1822  0.2159  0.6427
    2MPD1    C414255   3.465   4.416  16.656  0.1286  0.4137 -0.6718
    2MPD1    C514256   3.562   4.468  16.737 -0.6841  0.2491  0.4942
    2MPD1     H14257   3.246   4.302  16.881  1.1762 -1.1729  0.9473
    2MPD1    H114258   3.490   4.415  16.551 -1.0796  0.0358 -0.9458
    2MPD1    H214259   3.630   4.472  16.938  1.0691 -2.3381  0.1611
    2MPD1    H314260   3.648   4.522  16.701 -1.3966  0.0976 -1.4577
    2MPD1     N14261   3.239   4.318  16.627 -0.6226  0.4010 -0.1629
    2MPD1    H514262   3.162   4.283  16.683  0.2889  0.2440  1.0077
    2MPD1    N114263   3.460   4.342  17.055  0.4414 -0.9000 -0.4345
    2MPD1    H614264   3.372   4.324  17.104  0.8004 -1.4615  0.0007
    2MPD1    H714265   3.512   4.396  17.123 -0.2667  1.2957 -1.6439
    3TCq2    C114266   3.229   4.316  16.493 -0.0041 -0.2863 -0.3924
    3TCq2    O214267   3.312   4.360  16.408  0.2951  0.5060 -0.2725
    3TCq2    C214268   3.117   4.241  16.448 -0.6995 -0.5573 -0.3883
    3TCq2    C314269   3.049   4.152  16.526  0.0099 -0.0656  0.0413
    3TCq2    C414270   2.948   4.080  16.470 -0.1875 -0.4743  0.0970
    3TCq2    C514271   2.915   4.094  16.342 -0.2414 -0.3977 -0.3524
    3TCq2    C614272   2.968   4.193  16.273 -0.5283 -0.3392  0.0078
    3TCq2    C714273   3.075   4.253  16.318 -0.7270 -0.9032  0.0235
    3TCq2    C814274   2.916   4.231  16.143 -0.0763  0.3481  0.0675
    3TCq2    O414275   2.988   4.281  16.061  0.1839 -0.0278 -0.5673
    3TCq2    C914276   2.884   3.978  16.540  0.1728 -0.1097  0.3712
    3TCq2    O514277   2.793   3.919  16.477 -0.4816 -0.1318 -0.4293
    3TCq2    O614278   2.956   3.934  16.635  0.2280 -0.0946 -0.5476
    3TCq2    H214279   3.076   4.132  16.629 -1.4621 -0.5499  0.3270
    3TCq2    H314280   2.853   4.019  16.294 -1.9735 -0.0470  1.3605
    3TCq2    H414281   3.132   4.319  16.252 -0.8404 -2.2377 -1.4123
    1TCq1    O114282   1.172   3.109  12.749  0.3041  0.4747  0.5793
    1TCq1    C114283   1.207   3.236  12.777  0.0637  0.4968  0.5032
    1TCq1    O214284   1.208   3.330  12.700  0.2879  0.3877 -0.1172
    1TCq1    C214285   1.322   3.219  12.878 -0.0854  0.1293 -0.8115
    1TCq1    C314286   1.293   3.180  13.004 -0.2498  0.1170 -0.3510
    1TCq1    C414287   1.388   3.199  13.097 -0.0821 -0.0467  0.4460
    1TCq1    C514288   1.504   3.251  13.066 -0.2415  0.2320  0.1731
    1TCq1    C614289   1.525   3.286  12.934  0.0060 -0.1423  0.6306
    1TCq1    C714290   1.441   3.263  12.830 -0.8278  0.0245 -0.0308
    1TCq1    C814291   1.652   3.349  12.890  0.2352  0.5355 -0.4569
    1TCq1    O414292   1.663   3.365  12.767 -0.0940 -0.2388 -0.1734
    1TCq1    C914293   1.354   3.159  13.229  0.2223  0.2140 -0.2972
    1TCq1    O514294   1.266   3.072  13.235 -0.2192 -0.5669  0.1042
    1TCq1    O614295   1.405   3.227  13.318  0.2649 -0.0231  0.4993
    1TCq1    H114296   1.182   3.046  12.823  1.1254 -0.2926 -0.1689
    1TCq1    H214297   1.195   3.138  13.025 -0.7962  1.6794  0.2445
    1TCq1    H314298   1.581   3.274  13.139  1.2804  3.0590 -2.2893
    1TCq1    H414299   1.459   3.303  12.731  3.2232 -0.3534  0.5686
    2MPD2     C14300   1.901   3.501  12.856 -0.0946  0.4900 -0.0997
    2MPD2    C114301   1.869   3.435  12.974  0.2017  0.0814 -0.6356
    2MPD2    C214302   1.963   3.432  13.075 -0.5768 -0.5069 -0.3747
    2MPD2    C314303   2.089   3.490  13.060 -0.4015  0.3703  0.4244
    2MPD2    C414304   2.115   3.548  12.936 -0.4827  0.3841 -0.3343
    2MPD2    C514305   2.027   3.549  12.834  0.4988  0.0641 -0.2370
    2MPD2     H14306   1.942   3.393  13.174 -1.1102 -0.6061 -0.5269
    2MPD2    H114307   2.211   3.592  12.912 -0.4071 -0.0324 -0.8153
    2MPD2    H214308   1.838   3.511  12.769  0.2609 -1.2221 -0.5708
    2MPD2    H314309   2.045   3.585  12.734  1.6836 -0.6963 -0.2968
    2MPD2     N14310   2.178   3.483  13.169  0.4645  0.4835  0.2471
    2MPD2    H514311   2.137   3.417  13.233  1.5260  1.4401  1.9057
    2MPD2    N114312   1.743   3.375  12.992  0.4544  0.0625  0.4398
    2MPD2    H714313   1.725   3.319  13.075  0.8032  1.2654  1.3200
    3TCq1    O114314   2.546   3.696  13.630  0.0729 -0.2398 -0.5112
    3TCq1    C114315   2.583   3.723  13.503  0.0958 -0.6652 -0.1099
    3TCq1    O214316   2.674   3.788  13.466 -0.5477 -0.4471  0.1368
    3TCq1    C214317   2.537   3.607  13.430  0.0548 -0.0026 -0.4109
    3TCq1    C314318   2.564   3.482  13.479 -0.9408 -0.1075  0.0082
    3TCq1    C414319   2.504   3.373  13.423 -0.4733 -0.3063 -0.1805
    3TCq1    C514320   2.406   3.389  13.329  0.3015  0.2882 -0.5079
    3TCq1    C614321   2.367   3.519  13.298 -0.8001  0.0776  0.0479
    3TCq1    C714322   2.443   3.624  13.339  0.4107  0.1863 -0.1890
    3TCq1    C814323   2.302   3.554  13.181 -0.2946 -0.2232 -0.5420
    3TCq1    O414324   2.332   3.655  13.118  0.2605  0.3218 -0.0981
    3TCq1    C914325   2.540   3.247  13.469  0.6521 -0.1649  0.9968
    3TCq1    O514326   2.630   3.237  13.554  0.1723 -0.4019  0.2282
    3TCq1    O614327   2.491   3.147  13.410  0.2514  0.7259 -0.3958
    3TCq1    H114328   2.456   3.657  13.629  0.2534 -0.6701 -0.1752
    3TCq1    H214329   2.636   3.469  13.560 -0.9244 -1.5390 -0.2340
    3TCq1    H314330   2.352   3.307  13.283 -1.2837  1.7998 -1.3674
    3TCq1    H414331   2.428   3.727  13.309  1.7021  0.7053  0.9746
    1MPD2     C14332   2.484   4.512  14.220  0.0819 -0.0048  0.6989
    1MPD2    C114333   2.480   4.407  14.311  0.0951 -0.3978 -0.2859
    1MPD2    C214334   2.591   4.405  14.399 -0.6794 -0.7985  0.3660
    1MPD2    C314335   2.671   4.512  14.429  0.2444 -0.3269  1.2446
    1MPD2    C414336   2.665   4.619  14.350 -0.4767  0.4256  0.0260
    1MPD2    C514337   2.569   4.621  14.250 -0.4030 -0.2748 -0.7576
    1MPD2     H14338   2.590   4.325  14.472 -2.2781 -1.4509 -0.3651
    1MPD2    H114339   2.727   4.707  14.365 -0.1017  0.2163 -0.3096
    1MPD2    H214340   2.420   4.517  14.132  1.2091  1.3937 -0.0602
    1MPD2    H314341   2.563   4.711  14.189 -1.8095  0.1974  0.0925
    1MPD2     N14342   2.763   4.514  14.538  0.3481  0.5424 -0.3377
    1MPD2    H514343   2.815   4.600  14.555  0.2689 -0.2662  4.0322
    1MPD2    N114344   2.395   4.291  14.285 -0.7263  0.1844 -0.3630
    1MPD2    H714345   2.320   4.306  14.218 -0.0158  1.1505 -0.9438
    2TMC3    C114346   2.305   4.084  14.343  0.2135 -0.6475 -0.4350
    2TMC3    C214347   2.336   3.973  14.409 -0.1267  0.4846  1.6875
    2TMC3    C314348   2.246   3.903  14.486 -0.5982 -0.6740  0.2472
    2TMC3    C414349   2.175   4.125  14.353 -0.0807 -0.1598 -0.5704
    2TMC3    C514350   2.085   4.053  14.426  0.3300  0.1791 -0.5199
    2TMC3    C614351   2.116   3.941  14.495  0.2264  0.1580  0.1876
    2TMC3     C14352   2.409   4.179  14.356 -0.3210  0.0028 -0.3051
    2TMC3     O14353   2.474   4.151  14.455 -0.1790 -0.1145  0.2283
    2TMC3     H14354   2.437   3.939  14.390 -0.9388 -0.6025 -0.7442
    2TMC3    H114355   2.154   4.224  14.314  1.7844 -0.0213 -1.2545
    2TMC3    H214356   2.048   3.881  14.554  0.8856  0.0479  0.8469
    2TMC3    C714357   1.941   4.069  14.395 -0.2419  0.4643 -0.0221
    2TMC3    C814358   2.304   3.850  14.607  0.4067 -0.1498 -0.3711
    2TMC3    O114359   1.874   3.967  14.404  0.5222  0.0219 -0.3136
    2TMC3    O214360   2.230   3.797  14.688 -0.7531 -0.8123  0.0017
    3TCq1    O114361   1.109   0.141  14.166 -0.1014  0.3335 -0.0957
    3TCq1    C114362   1.194   0.234  14.121 -0.0057  0.4813 -0.4243
    3TCq1    O214363   1.158   0.348  14.100 -0.1672 -0.2924 -0.4099
    3TCq1    C214364   1.317   0.190  14.171  0.9002 -0.2845 -0.3740
    3TCq1    C314365   1.384   0.265  14.267 -0.6386  0.1747 -1.0112
    3TCq1    C414366   1.503   0.206  14.313  0.3895  0.3906  0.8406
    3TCq1    C514367   1.549   0.084  14.279 -0.3912 -0.0636  0.3105
    3TCq1    C614368   1.466   0.010  14.192  0.1411  0.1705 -0.4298
    3TCq1    C714369   1.353   0.062  14.135 -0.1154  0.2655 -0.0436
    3TCq1    C814370   1.476   4.590  14.175 -0.7424 -0.0007  0.1958
    3TCq1    O414371   1.387   4.538  14.106  0.1513 -0.1284  0.3775
    3TCq1    C914372   1.578   0.291  14.411  1.0261 -0.1504  0.6552
    3TCq1    O514373   1.681   0.245  14.461  0.3621 -0.0810 -0.2310
    3TCq1    O614374   1.530   0.407  14.429 -0.3753 -0.7901 -0.7173
    3TCq1    H114375   1.144   0.060  14.209  0.3600 -0.2566 -1.5570
    3TCq1    H214376   1.357   0.368  14.284 -0.3131  0.2138 -0.7214
    3TCq1    H314377   1.642   0.046  14.321 -0.6601 -1.8901 -0.7452
    3TCq1    H414378   1.294   0.011  14.060 -0.0021  0.0707  0.0002
    4MPD2     C14379   1.551   4.305  14.169  0.1334  0.3263  0.0092
    4MPD2    C114380   1.626   4.402  14.232 -0.2577 -0.4378 -0.0323
    4MPD2    C214381   1.745   4.365  14.303 -0.4682  0.1955 -0.0277
    4MPD2    C314382   1.772   4.227  14.308  1.2070  0.5663 -0.1489
    4MPD2    C414383   1.688   4.133  14.243  0.4617  1.1370 -0.1201
    4MPD2    C514384   1.586   4.168  14.174 -0.6691 -0.3393 -0.0333
    4MPD2     H14385   1.814   4.441  14.338 -2.8053  2.4394 -0.3091
    4MPD2    H114386   1.707   4.028  14.262 -1.6715  0.6814 -0.5887
    4MPD2    H214387   1.465   4.340  14.112 -1.9026 -3.2111  0.9491
    4MPD2    H314388   1.521   4.097  14.123 -0.9998  0.9741 -1.4510
    4MPD2     N14389   1.897   4.192  14.357  0.0938 -0.0713 -0.2441
    4MPD2    H514390   1.963   4.267  14.374 -0.3165  0.3779 -0.6355
    4MPD2    N114391   1.581   4.538  14.241  0.5854  0.2346 -1.0676
    4MPD2    H714392   1.644   4.607  14.280  1.1529 -1.2691  0.6529
    5TMC2    C114393   2.823   4.343  14.953  0.6255  0.0434 -0.4145
    5TMC2    C214394   2.772   4.457  15.009  0.0083  0.0150  0.2851
    5TMC2    C314395   2.750   4.563  14.923 -0.6794  0.2117  0.0091
    5TMC2    C414396   2.873   4.343  14.825  0.4833  0.1947 -0.0663
    5TMC2    C514397   2.844   4.449  14.748  0.1165  0.1311  0.7767
    5TMC2    C614398   2.784   4.562  14.794 -0.2005  0.3321  0.4658
    5TMC2     C14399   2.769   4.222  14.997 -0.5263  0.6005  0.5467
    5TMC2     O14400   2.746   4.208  15.116 -0.1383 -0.0716  0.2864
    5TMC2     H14401   2.716   4.446  15.101 -1.8537  0.4118 -0.7864
    5TMC2    H114402   2.929   4.258  14.788  2.4755  0.4053  2.4959
    5TMC2    H214403   2.754   4.644  14.729 -1.9097 -0.8992 -0.2984
    5TMC2    C714404   2.784   4.412  14.631 -0.5891  0.6237  0.3206
    5TMC2    C814405   2.619   4.627  14.942  0.2778 -0.4262 -0.3051
    5TMC2    O114406   2.739   4.301  14.637 -0.3896 -0.3775 -0.3328
    5TMC2    O214407   2.543   4.653  14.855 -0.3233  0.0504  0.1006
    5TMC2    O514408   2.598   4.649  15.073  0.0851 -0.0978  0.1478
    5TMC2    H514409   2.676   4.623  15.126  1.6599  2.2816 -1.0345
    6MPD2     C14410   2.466   3.833  14.855 -0.2832  0.3882 -0.1785
    6MPD2    C114411   2.486   3.921  14.753 -0.0646  0.8717 -0.9320
    6MPD2    C214412   2.586   4.014  14.765  0.5443 -0.0657 -0.5706
    6MPD2    C314413   2.640   4.044  14.895 -0.8173 -0.4447 -0.4187
    6MPD2    C414414   2.603   3.968  15.001  0.7811 -0.4430  1.1579
    6MPD2    C514415   2.509   3.872  14.983  0.6555 -0.5762  0.4097
    6MPD2     H14416   2.604   4.083  14.683  0.7480  1.5569  0.8340
    6MPD2    H114417   2.635   3.980  15.104 -0.3487 -2.5455  1.7552
    6MPD2    H214418   2.396   3.751  14.870 -0.1473  0.0398 -1.4085
    6MPD2    H314419   2.467   3.820  15.068  2.0490  1.0599  2.0978
    6MPD2     N14420   2.718   4.155  14.892  0.1230  0.8437 -0.4024
    6MPD2    H514421   2.738   4.195  14.801 -1.3186  3.9259  0.6366
    6MPD2    N114422   2.425   3.909  14.626  0.2084  0.1900  0.0643
    6MPD2    H714423   2.463   3.965  14.551 -2.6547  1.9817 -0.0081
  945NH3     N114424   1.814   0.174  11.259  0.6854  0.4510  0.1232
  945NH3     H214425   1.848   0.125  11.340 -1.8593 -1.5964 -0.0505
  945NH3     H314426   1.713   0.167  11.248  1.0714 -1.8061 -1.9604
  945NH3     H414427   1.840   0.109  11.186  0.6008  1.6686 -0.9878
  946SOD     NA14428   3.051   3.797  15.434  0.1374 -0.5024 -0.0794
  947SOD     NA14429   4.140   3.876  14.810  0.3440 -0.1611  0.0208
  948SOD     NA14430   1.423   3.560  14.979 -0.3441  0.0425 -0.2419
  949SOD     NA14431   2.144   3.113  11.863 -0.0702  0.5046  0.3010
  950SOD     NA14432   1.386   3.268   2.007  0.6127 -0.0383  0.0166
  951SOD     NA14433   4.211   4.280   0.805  0.1998 -0.2286  0.5790
  952SOD     NA14434   1.369   1.579   2.060  0.2330  0.0310  0.4211
  953SOD     NA14435   4.631   2.336   1.428 -0.1101  0.1388  0.1613
  954SOD     NA14436   3.487   2.035  12.755 -0.1636 -0.8033  0.3223
  955SOD     NA14437   0.795   2.141  14.541  0.3018  0.1107 -0.1447
  956SOD     NA14438   1.766   1.431  10.273 -0.2811  0.0162  0.3717
  957SOD     NA14439   3.058   3.442  11.309 -0.1691 -0.3181  0.3964
  958SOD     NA14440   2.402   3.341   4.381  0.0864 -0.2585 -0.1835
  959SOD     NA14441   0.054   0.664   9.171 -0.3254 -0.0460 -0.1026
  960SOD     NA14442   3.885   3.812  13.001  0.1077  0.1144 -0.4355
  961SOD     NA14443   2.194   0.405  17.168 -0.6336 -0.3518 -0.1060
  962SOD     NA14444   2.255   0.085  17.671 -0.2689  0.5840  0.2762
  963SOD     NA14445   3.559   3.223   2.423 -0.2788  0.3190  0.0112
  964SOD     NA14446   3.601   3.533  15.322  0.1163  0.4368 -0.5255
  965SOD     NA14447   1.539   3.173   9.624  0.0709 -0.6029 -0.4834
  966SOD     NA14448   1.124   0.565  14.566  0.1916 -0.1193  0.0926
  967SOD     NA14449   1.782   2.177   9.915 -0.1593  0.5334  0.0667
  968SOD     NA14450   4.332   0.914   3.180  0.1709  0.0587  0.1735
  969SOD     NA14451   0.291   3.284   6.515  0.5571  0.3890  0.7318
  970SOD     NA14452   4.661   3.169  11.156 -0.0361 -0.0164  0.2567
  971SOD     NA14453   1.299   2.191  14.457 -0.1527  0.9659  0.4225
  972SOD     NA14454   3.246   2.823   3.372 -0.0417 -0.1475 -0.2596
  973SOD     NA14455   0.491   1.292   9.056  0.2429 -0.2264 -0.1244
  974SOD     NA14456   4.020   3.198   2.090  0.0332  0.4435  0.4878
  975SOD     NA14457   4.600   0.947  16.471  0.2046  0.1767  0.3576
  976SOD     NA14458   2.896   2.506  13.350 -0.3261 -0.1113 -0.1397
  977SOD     NA14459   0.813   4.403  12.106 -0.1599  0.1679 -0.4892
  978SOD     NA14460   2.351   2.637  10.187 -0.6063  0.3415  0.3606
  979SOD     NA14461   1.114   2.916  13.214 -0.3552  0.6323 -0.5214
  980SOD     NA14462   4.214   2.822   0.173 -0.4085 -0.1276  0.0847
  981SOD     NA14463   1.628   2.848   9.623  0.2285 -0.1269  0.1468
  982SOD     NA14464   2.696   3.404  13.930 -0.1297  0.6141 -0.4916
  983SOD     NA14465   0.948   0.415  14.009 -0.1341 -0.0373 -0.0511
  984SOD     NA14466   3.331   4.232  12.596 -0.3079  0.0156  0.4492
  985SOD     NA14467   2.263   4.405  10.437  0.0282  0.1984 -0.2652
  986SOD     NA14468   1.112   2.524   8.393  0.5672  0.1392  0.1322
  987SOD     NA14469   2.270   3.365  11.827  0.4036 -0.6346  0.3510
  988SOD     NA14470   3.480   0.846   6.341  0.2248 -0.1862  0.3266
  989SOD     NA14471   4.542   2.469  13.180 -0.4239  0.1306 -0.0831
  990SOD     NA14472   2.568   2.105   0.957  0.4824 -0.1211  0.9764
  991SOD     NA14473   3.229   3.542  15.352  0.2305 -0.3427 -0.1447
  992SOD     NA14474   0.908   4.283  15.026 -0.2057  0.1192 -0.4472
  993SOD     NA14475   3.190   2.993  11.060  0.0246  0.2639  0.0610
  994SOD     NA14476   1.995   3.134  13.160 -0.0092  0.4855 -0.3266
  995SOD     NA14477   1.540   4.112  10.322  0.0597 -0.1120  0.2816
  996SOD     NA14478   2.891   2.487  10.970  0.2215 -0.2379 -0.0960
  997SOD     NA14479   0.297   4.500   2.787 -0.0662  0.2248 -0.5860
  998SOD     NA14480   3.041   0.785   1.524 -0.1723  0.0446 -0.4379
  999SOD     NA14481   2.332   4.428   2.383 -0.3623 -0.3864  0.1625
 1000SOD     NA14482   1.498   1.349  10.086  0.1213 -0.1264 -0.3358
 1001SOD     NA14483   3.813   0.252   8.950 -0.6638 -0.8520  0.0014
 1002SOD     NA14484   2.411   1.726  10.588 -0.2345 -0.3028 -0.0442
 1003SOD     NA14485   2.015   2.986  11.510 -0.2650 -0.6503  0.0975
 1004SOD     NA14486   1.615   2.295   9.180 -0.0015 -0.1126 -0.0628
 1005SOD     NA14487   0.260   1.904  11.712  0.4999  0.3796  0.0831
 1006SOD     NA14488   1.918   1.471   3.304 -0.2281 -0.0602 -0.0458
 1007SOD     NA14489   4.341   1.473   0.966  0.1223 -0.3001  0.3532
 1008SOD     NA14490   2.914   4.252  14.140  0.0560 -0.1594  0.3711
 1009SOD     NA14491   4.336   4.341   0.063  0.0802  0.1168  0.0377
 1010SOD     NA14492   2.420   0.146   3.707 -0.3178 -0.2721  0.1629
 1011SOD     NA14493   0.232   2.928  13.898 -0.1533  0.0280  0.5828
 1012SOL     OW14494   0.689   2.907   6.194  0.1126 -0.5095 -0.0540
 1012SOL    HW114495   0.657   2.843   6.130  1.5582  0.3593 -1.6336
 1012SOL    HW214496   0.781   2.900   6.169 -0.0577  1.3354 -1.1675
 1013SOL     OW14497   1.675   4.665   1.546  0.5349  0.1835 -0.3040
 1013SOL    HW114498   1.678   0.024   1.597 -0.3072  0.0125  0.0227
 1013SOL    HW214499   1.621   4.606   1.599  1.9402  0.2539  1.1726
 1014SOL     OW14500   0.673   4.443   3.167 -0.2589 -0.5992 -0.7157
 1014SOL    HW114501   0.726   4.414   3.242 -3.6165  0.3489  2.0486
 1014SOL    HW214502   0.697   4.534   3.153 -1.8045  0.2368  2.0614
 1015SOL     OW14503   4.043   2.862   5.932  0.0668 -0.6178  0.1833
 1015SOL    HW114504   4.031   2.827   6.020 -0.1664 -0.0153  0.3895
 1015SOL    HW214505   4.131   2.829   5.912  0.0987 -0.5725  0.2489
 1016SOL     OW14506   3.716   2.179   2.930 -0.3684  0.0035 -0.1671
 1016SOL    HW114507   3.714   2.273   2.949 -0.3622  0.3510 -1.8843
 1016SOL    HW214508   3.807   2.153   2.922 -1.1201 -2.3397 -1.1398
 1017SOL     OW14509   2.803   2.811  13.711  0.0931  0.0266  0.1285
 1017SOL    HW114510   2.789   2.862  13.631  3.4071 -1.6345 -1.5060
 1017SOL    HW214511   2.861   2.876  13.749  2.7426 -1.6032 -1.1781
 1018SOL     OW14512   1.426   3.706  15.237 -0.5508 -0.1801  0.1353
 1018SOL    HW114513   1.448   3.755  15.157  0.3177  1.0191  1.1078
 1018SOL    HW214514   1.405   3.766  15.308  0.8386 -0.2356  0.5925
 1019SOL     OW14515   1.805   2.152  12.690  0.3877  0.3958 -0.0164
 1019SOL    HW114516   1.747   2.229  12.693  0.3012  0.3578 -0.7133
 1019SOL    HW214517   1.782   2.106  12.770  2.3537 -1.4108 -0.4925
 1020SOL     OW14518   3.199   3.845  12.312 -0.0031  0.1569  0.0529
 1020SOL    HW114519   3.209   3.815  12.402  0.6212  1.6539  0.4784
 1020SOL    HW214520   3.279   3.810  12.272 -0.6505 -0.0715 -1.0224
 1021SOL     OW14521   2.518   1.584  15.911 -0.1381  0.1548 -0.3615
 1021SOL    HW114522   2.445   1.527  15.934  0.2122 -0.8958 -1.8459
 1021SOL    HW214523   2.577   1.509  15.906 -0.1229  0.0649  1.3692
 1022SOL     OW14524   2.089   1.144  11.599  0.2176  0.0960  0.3106
 1022SOL    HW114525   2.037   1.151  11.679  1.7962  2.8304  1.0618
 1022SOL    HW214526   2.127   1.056  11.603 -0.4661 -0.2501 -0.6987
 1023SOL     OW14527   0.588   0.837  14.237 -0.4928  0.5284  0.3035
 1023SOL    HW114528   0.554   0.926  14.250  1.0707  1.2813 -0.7608
 1023SOL    HW214529   0.507   0.788  14.253 -1.9217  2.2887 -1.5324
 1024SOL     OW14530   0.918   3.895   6.052 -0.1631  0.0424 -1.2232
 1024SOL    HW114531   0.951   3.892   5.962  2.6027 -0.5297 -0.1801
 1024SOL    HW214532   0.935   3.806   6.082 -1.2714 -0.1060 -1.0516
 1025SOL     OW14533   3.044   1.731   7.827 -0.0256 -0.1988 -0.4177
 1025SOL    HW114534   2.951   1.714   7.810  0.2125 -1.1669 -0.7474
 1025SOL    HW214535   3.058   1.792   7.754  0.6188 -0.3364 -0.4074
 1026SOL     OW14536   0.920   3.080   4.230  0.0112 -0.0503 -0.1755
 1026SOL    HW114537   0.960   3.003   4.269 -0.3066 -1.4465 -2.6175
 1026SOL    HW214538   0.857   3.036   4.172  0.4248 -0.3277 -0.4149
 1027SOL     OW14539   2.691   2.952  14.740 -0.0810  0.0963  0.2882
 1027SOL    HW114540   2.617   2.959  14.801  2.0226  1.7552  2.6374
 1027SOL    HW214541   2.664   3.017  14.675 -0.8531 -0.9086 -0.4016
 1028SOL     OW14542   0.555   1.368   8.413 -0.0347  0.5132  0.0352
 1028SOL    HW114543   0.493   1.298   8.391  0.5873  0.4558 -1.5579
 1028SOL    HW214544   0.590   1.382   8.325  0.3026 -2.2669 -0.2784
 1029SOL     OW14545   4.541   0.493   2.998 -0.1596 -1.0879  0.2905
 1029SOL    HW114546   4.498   0.415   3.035 -1.7668  0.1316  0.9920
 1029SOL    HW214547   4.568   0.464   2.911 -1.7638 -1.8710  0.0582
 1030SOL     OW14548   0.711   3.528   4.188 -0.1081 -0.2178  0.0501
 1030SOL    HW114549   0.773   3.462   4.220 -0.5671 -0.0717  1.2217
 1030SOL    HW214550   0.760   3.550   4.108 -0.2326 -1.0466 -0.2485
 1031SOL     OW14551   1.710   2.973   7.623  0.3839  0.5217 -0.4419
 1031SOL    HW114552   1.718   2.881   7.599 -1.1328  0.1243  0.5658
 1031SOL    HW214553   1.802   2.998   7.628  0.3907  0.5108 -0.5125
 1032SOL     OW14554   4.072   3.061   2.410  0.4242 -0.1293  0.6140
 1032SOL    HW114555   4.133   3.118   2.363 -2.1215  1.4610 -0.7622
 1032SOL    HW214556   4.074   2.997   2.338  0.0806 -0.4808  0.9257
 1033SOL     OW14557   0.947   1.174  10.518  0.1831 -0.2671 -0.1954
 1033SOL    HW114558   1.026   1.214  10.479 -1.6189  0.5565 -3.0339
 1033SOL    HW214559   0.969   1.188  10.610 -4.5631 -1.8084  1.1423
 1034SOL     OW14560   2.184   2.320   6.979  0.2524 -0.4323  0.4970
 1034SOL    HW114561   2.115   2.270   7.022 -1.7472  1.4326 -0.5470
 1034SOL    HW214562   2.240   2.347   7.052 -0.6199 -0.1129  1.0427
 1035SOL     OW14563   0.728   0.202  10.197  0.3472  0.6909  0.1009
 1035SOL    HW114564   0.661   0.187  10.130  1.2986  1.5766 -1.0481
 1035SOL    HW214565   0.712   0.117  10.238 -1.8420  0.8596 -0.3858
 1036SOL     OW14566   4.359   0.393   9.581 -0.2165 -0.1539  0.4212
 1036SOL    HW114567   4.445   0.421   9.615 -0.3089 -0.5332  0.9716
 1036SOL    HW214568   4.392   0.321   9.527 -0.6346 -1.9703  2.5671
 1037SOL     OW14569   1.797   2.323   4.524 -0.3882 -0.0570  0.3061
 1037SOL    HW114570   1.759   2.351   4.441  0.3295 -1.9332 -0.6391
 1037SOL    HW214571   1.800   2.410   4.564  0.1549 -0.6111  1.4990
 1038SOL     OW14572   2.476   3.590  10.345 -0.8104  0.0447  0.0930
 1038SOL    HW114573   2.433   3.659  10.294  1.2693  2.2490  1.3566
 1038SOL    HW214574   2.524   3.651  10.401  1.4158 -2.1595  0.5995
 1039SOL     OW14575   1.129   3.878   7.445  0.0704  0.1596 -0.2840
 1039SOL    HW114576   1.192   3.810   7.470 -0.2413 -0.5689 -1.4828
 1039SOL    HW214577   1.134   3.869   7.350 -0.8440 -3.5738  0.0503
 1040SOL     OW14578   1.753   2.851   8.311 -0.0137 -0.0454  0.4010
 1040SOL    HW114579   1.715   2.784   8.369 -1.5245  0.3650 -0.1159
 1040SOL    HW214580   1.810   2.891   8.377  0.3785  0.8250 -0.4695
 1041SOL     OW14581   0.333   1.700   6.663  0.2331  0.1050 -0.0768
 1041SOL    HW114582   0.241   1.697   6.636  0.2944  1.1850 -0.4286
 1041SOL    HW214583   0.382   1.710   6.582 -1.2584  0.0682 -0.9847
 1042SOL     OW14584   3.126   2.163  17.296  0.6028 -0.3115 -0.2587
 1042SOL    HW114585   3.212   2.206  17.300  0.3534  0.0177  1.9999
 1042SOL    HW214586   3.147   2.112  17.218  2.8984 -1.7699  1.2870
 1043SOL     OW14587   0.359   3.716   3.444 -0.0292  0.3929 -0.4208
 1043SOL    HW114588   0.399   3.794   3.483 -0.1408  1.1076 -1.7633
 1043SOL    HW214589   0.420   3.711   3.371  1.9571 -1.9451  1.4267
 1044SOL     OW14590   2.132   1.373   7.779 -0.2836 -0.4638 -0.1194
 1044SOL    HW114591   2.092   1.340   7.859  3.3731 -1.6863  1.2240
 1044SOL    HW214592   2.154   1.462   7.807  3.3466 -1.7339  1.1252
 1045SOL     OW14593   4.682   4.707   6.725  0.1576 -0.3319  0.0065
 1045SOL    HW114594   0.037   4.652   6.704  0.6858 -0.9123  3.3568
 1045SOL    HW214595   4.713   0.018   6.810 -2.2046  1.3834  0.1885
 1046SOL     OW14596   1.400   3.774  12.083  0.0943  0.4316  0.6906
 1046SOL    HW114597   1.402   3.683  12.053  0.9490  0.4228  0.7785
 1046SOL    HW214598   1.495   3.778  12.098  0.7735 -2.4077 -2.6511
 1047SOL     OW14599   0.670   0.927  12.768 -0.5777 -0.4709 -0.7420
 1047SOL    HW114600   0.687   0.848  12.818  0.5624  0.7339  0.7746
 1047SOL    HW214601   0.645   0.984  12.840  0.9413 -0.9352  0.1463
 1048SOL     OW14602   2.300   1.142   2.938 -0.1669 -0.0583 -0.6897
 1048SOL    HW114603   2.261   1.182   3.016 -2.5378 -0.3686 -1.7041
 1048SOL    HW214604   2.393   1.143   2.957 -0.3461  1.1796  0.1554
 1049SOL     OW14605   0.594   2.663   7.566 -0.2066  0.0362 -0.4163
 1049SOL    HW114606   0.579   2.632   7.655  0.6153 -0.1264 -0.3360
 1049SOL    HW214607   0.531   2.736   7.567  0.0535  0.2562 -0.0732
 1050SOL     OW14608   1.778   1.782   7.788  0.5995 -0.6150 -0.0035
 1050SOL    HW114609   1.812   1.725   7.719 -0.5808 -1.2893 -0.0313
 1050SOL    HW214610   1.684   1.762   7.789  0.6308 -0.6531  1.4890
 1051SOL     OW14611   0.744   4.109   6.114  0.3727  0.6961  0.1143
 1051SOL    HW114612   0.723   4.069   6.199 -2.0491  0.2253 -0.6999
 1051SOL    HW214613   0.812   4.052   6.077 -1.2910 -1.4371  0.3590
 1052SOL     OW14614   1.333   1.688   5.571 -0.0173  0.3060  0.2102
 1052SOL    HW114615   1.240   1.685   5.594  0.1839  0.8696  1.1097
 1052SOL    HW214616   1.321   1.703   5.477 -2.1733  0.0904  0.4389
 1053SOL     OW14617   1.351   1.008   7.764 -0.3694  0.4142  0.4137
 1053SOL    HW114618   1.358   0.920   7.727  0.5225  1.4858 -1.9463
 1053SOL    HW214619   1.427   1.004   7.821  2.1228  1.2222 -2.8149
 1054SOL     OW14620   2.708   2.910   4.733 -0.5148  0.6487  0.1340
 1054SOL    HW114621   2.619   2.946   4.742 -0.0955  1.4364  1.0659
 1054SOL    HW214622   2.732   2.923   4.641 -1.2645  0.8402 -0.0391
 1055SOL     OW14623   3.751   4.152   3.759  0.4570  0.2971  0.0826
 1055SOL    HW114624   3.748   4.082   3.824 -1.4120  0.2663 -0.0127
 1055SOL    HW214625   3.767   4.224   3.820 -1.7434 -0.5567  1.6774
 1056SOL     OW14626   0.901   3.990   8.642  0.2644  0.0168 -0.1481
 1056SOL    HW114627   0.866   3.922   8.584  2.5633 -1.5127  0.2450
 1056SOL    HW214628   0.992   3.963   8.631 -0.4958 -1.5145 -2.5366
 1057SOL     OW14629   3.110   2.890   6.451  0.2525  0.2359  0.3304
 1057SOL    HW114630   3.156   2.883   6.367  0.8349  3.3892  0.3825
 1057SOL    HW214631   3.020   2.916   6.431  0.8313  1.9827  0.0003
 1058SOL     OW14632   4.591   3.573   0.475  0.1690  0.5694  0.1890
 1058SOL    HW114633   4.549   3.488   0.492  1.1603  0.5654  2.6683
 1058SOL    HW214634   4.674   3.530   0.495  0.4732  1.0441 -0.0551
 1059SOL     OW14635   1.004   0.328   5.351  0.2787  0.1289  0.3776
 1059SOL    HW114636   0.981   0.327   5.444  2.2379 -0.4009  0.8403
 1059SOL    HW214637   1.044   0.415   5.342  0.2706  0.0264 -0.6543
 1060SOL     OW14638   4.257   0.672   6.669 -0.3055  0.1945 -0.4466
 1060SOL    HW114639   4.265   0.618   6.748  0.1141  1.1365  0.1487
 1060SOL    HW214640   4.221   0.757   6.695 -0.4756  0.6325 -2.1077
 1061SOL     OW14641   3.682   3.798   7.032 -0.5334  0.0467  0.0560
 1061SOL    HW114642   3.710   3.713   6.997  0.9129  0.2108  0.8149
 1061SOL    HW214643   3.735   3.805   7.112  0.3849  0.5013 -0.5949
 1062SOL     OW14644   2.746   0.464   4.235 -0.4610 -0.1347 -0.1477
 1062SOL    HW114645   2.715   0.554   4.244  1.8776  0.7833 -1.4485
 1062SOL    HW214646   2.755   0.437   4.326  1.6423 -0.7952 -0.5451
 1063SOL     OW14647   1.561   2.633   9.672  0.1863 -0.0523  0.1821
 1063SOL    HW114648   1.557   2.584   9.753  0.9147  0.4427  0.5176
 1063SOL    HW214649   1.635   2.587   9.631 -1.2548 -1.2845 -1.0139
 1064SOL     OW14650   4.585   4.581  12.473  0.3930  0.0196  0.4625
 1064SOL    HW114651   4.639   4.660  12.483 -0.2381  0.7451 -1.7068
 1064SOL    HW214652   4.632   4.513  12.521  0.6133  0.3868  0.7637
 1065SOL     OW14653   1.864   1.503   4.429 -0.0918 -0.5226 -0.0771
 1065SOL    HW114654   1.807   1.567   4.386  0.1337  0.2929  0.8297
 1065SOL    HW214655   1.919   1.561   4.482 -2.1186 -0.8240  2.3141
 1066SOL     OW14656   3.262   4.093   3.570  0.3074 -0.3254 -0.0460
 1066SOL    HW114657   3.226   4.163   3.515 -0.8887  0.1009  1.2938
 1066SOL    HW214658   3.348   4.073   3.531  0.5461 -1.8675  1.2985
 1067SOL     OW14659   0.722   3.488   7.650 -0.1586 -0.1921  0.3159
 1067SOL    HW114660   0.672   3.541   7.711 -0.0875 -0.4010  0.5588
 1067SOL    HW214661   0.736   3.406   7.698 -1.4636 -0.5483  0.0937
 1068SOL     OW14662   1.413   3.734  13.545  0.4123 -0.4524 -0.2144
 1068SOL    HW114663   1.474   3.751  13.617 -1.1110 -1.6440  1.3770
 1068SOL    HW214664   1.438   3.644  13.524  1.8777  0.4750 -2.4018
 1069SOL     OW14665   0.970   0.934   9.751  0.0103 -0.5279  0.1834
 1069SOL    HW114666   1.021   0.902   9.825 -1.0050  1.2448  1.6615
 1069SOL    HW214667   0.898   0.875   9.772 -3.1252  2.7194 -1.3711
 1070SOL     OW14668   2.046   1.364   5.607 -0.0901  0.2672 -0.3444
 1070SOL    HW114669   1.981   1.412   5.658  1.1582  1.3801  0.1888
 1070SOL    HW214670   2.032   1.270   5.616 -0.3169  0.1746 -1.5530
 1071SOL     OW14671   1.955   1.505   0.116  0.6954  0.6265  0.4613
 1071SOL    HW114672   1.930   1.442   0.183 -2.1476  2.3377  1.0126
 1071SOL    HW214673   1.889   1.484   0.050  0.4163  1.7291  0.3833
 1072SOL     OW14674   3.692   3.993   3.971  0.3145 -0.1490  0.7052
 1072SOL    HW114675   3.682   3.963   4.061 -0.5329 -0.2379  0.5729
 1072SOL    HW214676   3.757   3.930   3.940 -0.6205 -0.0745 -1.4044
 1073SOL     OW14677   3.110   4.718  13.385  0.4713 -0.0893  0.1568
 1073SOL    HW114678   3.062   4.698  13.465 -0.4317 -1.9797 -0.8489
 1073SOL    HW214679   3.182   0.040  13.430  0.4387  1.6333 -1.4574
 1074SOL     OW14680   2.613   1.922   8.644 -0.3099  0.1523 -0.1256
 1074SOL    HW114681   2.657   1.854   8.593  2.1865  0.4543  1.5996
 1074SOL    HW214682   2.675   1.990   8.668  0.0489 -0.4881  0.7693
 1075SOL     OW14683   0.678   2.590  11.711 -0.0881 -0.3009  0.1516
 1075SOL    HW114684   0.713   2.592  11.623  0.4614 -0.8219  0.3623
 1075SOL    HW214685   0.604   2.650  11.698  1.1932  1.3173  0.3588
 1076SOL     OW14686   1.551   1.718   7.487 -0.0224 -0.2727 -0.0869
 1076SOL    HW114687   1.549   1.631   7.449  0.6386 -0.0475 -0.6288
 1076SOL    HW214688   1.458   1.737   7.497 -0.1759 -0.2887 -1.4866
 1077SOL     OW14689   3.753   1.859   1.592 -0.4869  0.4530  0.2134
 1077SOL    HW114690   3.732   1.945   1.627  1.3416 -0.0875  2.6261
 1077SOL    HW214691   3.693   1.860   1.517  1.0452 -3.3925 -1.1276
 1078SOL     OW14692   1.542   0.927  10.982  0.0513 -0.1569 -0.7084
 1078SOL    HW114693   1.588   0.959  10.904 -2.2478  2.5604 -0.9368
 1078SOL    HW214694   1.589   0.987  11.039 -1.3185 -0.2648  0.5366
 1079SOL     OW14695   2.407   0.178   7.478 -0.2018  0.2707 -0.2011
 1079SOL    HW114696   2.326   0.211   7.516 -1.3402 -0.1275 -2.3144
 1079SOL    HW214697   2.469   0.217   7.540 -0.8088  3.4667 -1.6286
 1080SOL     OW14698   1.407   2.325   8.847  0.8799 -0.1403  0.3457
 1080SOL    HW114699   1.395   2.261   8.917  2.8675  0.5862  1.3194
 1080SOL    HW214700   1.396   2.270   8.769  0.5814 -0.3882  0.5620
 1081SOL     OW14701   4.314   1.576   8.420 -0.3185  0.6083 -0.0355
 1081SOL    HW114702   4.326   1.632   8.497 -3.8610  1.8077 -0.3490
 1081SOL    HW214703   4.285   1.504   8.475 -1.4892  1.8455  0.9740
 1082SOL     OW14704   2.028   1.666   4.611  0.1061 -0.3238 -0.0903
 1082SOL    HW114705   2.122   1.670   4.593 -0.1420  1.1458 -0.9837
 1082SOL    HW214706   2.028   1.642   4.704 -2.0231 -1.1036 -0.2788
 1083SOL     OW14707   1.240   3.305  10.208 -0.0298 -0.0221  0.4394
 1083SOL    HW114708   1.207   3.344  10.289 -0.4209  1.9760 -0.6817
 1083SOL    HW214709   1.255   3.389  10.165  0.9888 -2.0432 -3.0595
 1084SOL     OW14710   2.637   3.407   2.938  0.3446  0.3972 -0.2323
 1084SOL    HW114711   2.713   3.461   2.958 -0.3272  0.2118  2.8695
 1084SOL    HW214712   2.595   3.449   2.863  0.3317 -1.1898 -1.1204
 1085SOL     OW14713   4.413   3.439  13.833 -0.1761  0.4770  0.0203
 1085SOL    HW114714   4.502   3.403  13.844 -0.1703  0.5288  0.1392
 1085SOL    HW214715   4.364   3.365  13.869  1.3398 -0.1649  0.7913
 1086SOL     OW14716   3.348   3.593   3.114  0.2182  0.1781  0.5580
 1086SOL    HW114717   3.387   3.641   3.041  0.0059 -0.0141  0.3225
 1086SOL    HW214718   3.429   3.594   3.167  0.7296  1.4570 -0.2398
 1087SOL     OW14719   1.681   4.617   0.206  0.0490 -0.2184 -0.2254
 1087SOL    HW114720   1.649   4.652   0.123 -0.9541 -1.8292 -0.5102
 1087SOL    HW214721   1.605   4.610   0.263  0.7699 -0.9411  0.6584
 1088SOL     OW14722   0.277   4.097  16.785 -0.0636 -0.1524 -0.0540
 1088SOL    HW114723   0.245   4.029  16.844 -2.3234 -0.1199 -1.2463
 1088SOL    HW214724   0.368   4.068  16.776 -0.3083 -0.6686 -0.8988
 1089SOL     OW14725   3.341   1.142  12.145 -0.0428 -0.1483  0.0021
 1089SOL    HW114726   3.424   1.094  12.137 -1.2871 -2.2125 -0.5535
 1089SOL    HW214727   3.364   1.235  12.145 -2.2361  0.3902  0.3320
 1090SOL     OW14728   3.645   1.811   3.716  0.4040  0.0977  0.6200
 1090SOL    HW114729   3.579   1.744   3.732 -0.1797  0.0757 -1.8770
 1090SOL    HW214730   3.713   1.791   3.780  0.1254 -0.4989  0.7299
 1091SOL     OW14731   0.402   2.609   5.651 -0.3612  0.3668 -0.7269
 1091SOL    HW114732   0.397   2.521   5.689  0.9198  0.5822 -0.0518
 1091SOL    HW214733   0.373   2.580   5.565  1.4704  0.6831 -1.4479
 1092SOL     OW14734   1.319   0.638   0.430  0.4802  0.3981 -0.6656
 1092SOL    HW114735   1.270   0.674   0.356  2.7844  1.1811 -1.8249
 1092SOL    HW214736   1.263   0.566   0.460 -0.8016  1.5195 -0.3634
 1093SOL     OW14737   4.631   4.695  11.656  0.2532 -1.2062  0.2608
 1093SOL    HW114738   4.660   4.656  11.573 -0.7842  0.6925 -0.9901
 1093SOL    HW214739   4.611   0.065  11.639  3.6989 -0.3411  0.7547
 1094SOL     OW14740   2.739   1.307   5.642 -0.3471 -0.1390 -0.2524
 1094SOL    HW114741   2.738   1.338   5.733  0.1253 -0.4132 -0.1516
 1094SOL    HW214742   2.832   1.296   5.623 -0.1565  1.5388 -0.2175
 1095SOL     OW14743   1.192   0.495   5.607  0.4308  0.4970 -0.1753
 1095SOL    HW114744   1.273   0.541   5.585  0.7548  0.3664  0.7391
 1095SOL    HW214745   1.132   0.530   5.542  0.7243 -0.2739 -0.8590
 1096SOL     OW14746   4.156   0.076   2.765  0.0222 -1.2446 -0.2183
 1096SOL    HW114747   4.246   0.049   2.746  0.7096  0.2722  0.9250
 1096SOL    HW214748   4.141   0.139   2.695 -0.7269 -1.6406 -0.4160
 1097SOL     OW14749   4.069   0.163   8.968  0.0514 -0.0375 -0.1967
 1097SOL    HW114750   4.154   0.150   8.925 -0.4845  0.4014 -1.3840
 1097SOL    HW214751   4.078   0.090   9.030  0.9673 -0.5700 -0.9659
 1098SOL     OW14752   0.373   4.123   4.963 -0.4553  0.3779 -0.4654
 1098SOL    HW114753   0.369   4.209   5.005  0.6217  0.5595 -0.7465
 1098SOL    HW214754   0.415   4.163   4.887  0.4081 -1.0678 -0.7393
 1099SOL     OW14755   2.249   3.348   3.756  0.0203 -0.8217 -0.4001
 1099SOL    HW114756   2.335   3.349   3.715  0.2640 -1.7376  0.0995
 1099SOL    HW214757   2.272   3.280   3.819 -3.1338 -0.5311  1.0456
 1100SOL     OW14758   1.261   0.678   2.867 -0.1769 -0.6572 -0.2866
 1100SOL    HW114759   1.191   0.677   2.933  0.4644 -1.0328  0.3940
 1100SOL    HW214760   1.257   0.771   2.845  1.6547 -0.7783 -1.1139
 1101SOL     OW14761   1.638   0.611   6.811 -0.4601 -0.4132  0.4789
 1101SOL    HW114762   1.630   0.672   6.885  1.0395 -0.7515  0.9305
 1101SOL    HW214763   1.628   0.523   6.847  0.1930 -0.3580  0.7953
 1102SOL     OW14764   0.737   2.904  16.563 -0.4223  0.6739  0.0631
 1102SOL    HW114765   0.819   2.860  16.584 -1.5062 -0.0853  2.6315
 1102SOL    HW214766   0.675   2.832  16.572 -1.4509  1.3779 -1.3373
 1103SOL     OW14767   4.214   0.684   7.988 -0.3368  0.4734  0.1057
 1103SOL    HW114768   4.134   0.721   8.024  1.1768  1.5802  2.3218
 1103SOL    HW214769   4.254   0.651   8.068  0.7682 -1.8342 -1.3732
 1104SOL     OW14770   1.440   2.017   9.676 -0.0243 -0.2883  0.2006
 1104SOL    HW114771   1.446   2.039   9.769  1.5404 -1.3197  0.3399
 1104SOL    HW214772   1.513   1.956   9.665 -0.8700 -0.7892 -2.5581
 1105SOL     OW14773   0.714   3.775   3.052  0.2607  0.5850 -0.4788
 1105SOL    HW114774   0.685   3.852   3.004  2.2028  1.8908  0.4526
 1105SOL    HW214775   0.789   3.736   3.007  2.2141  2.8315  0.8894
 1106SOL     OW14776   0.163   0.837   7.501  0.2504 -0.2154 -0.0281
 1106SOL    HW114777   0.082   0.866   7.542  1.6313  2.1123  1.0474
 1106SOL    HW214778   0.180   0.760   7.556 -0.3470 -0.3836 -0.0771
 1107SOL     OW14779   1.261   1.708   3.328  0.1654 -0.4893  0.2617
 1107SOL    HW114780   1.346   1.750   3.315 -0.2430  1.0271  2.5583
 1107SOL    HW214781   1.286   1.666   3.411 -3.0501 -0.0367  1.4556
 1108SOL     OW14782   0.839   1.485   1.004  0.2474  0.1375  0.2375
 1108SOL    HW114783   0.744   1.494   1.012 -0.0588 -3.3370  0.5646
 1108SOL    HW214784   0.844   1.524   0.917 -3.1724 -0.4625 -0.2120
 1109SOL     OW14785   1.171   3.194   1.965 -0.4477 -0.4466 -0.0045
 1109SOL    HW114786   1.111   3.122   1.943 -2.0165  0.8819 -0.1006
 1109SOL    HW214787   1.108   3.261   1.938  2.3947  2.1623 -0.0852
 1110SOL     OW14788   3.273   1.067   7.380 -0.3957 -0.0639 -0.1176
 1110SOL    HW114789   3.222   1.073   7.299 -0.1234  1.7603 -0.1463
 1110SOL    HW214790   3.196   1.076   7.436  0.4736 -0.4825  1.1365
 1111SOL     OW14791   1.223   4.172  16.703  0.0897 -0.0399  0.0750
 1111SOL    HW114792   1.139   4.211  16.677 -0.6837 -2.0398 -0.4922
 1111SOL    HW214793   1.249   4.211  16.786  1.6531 -0.1186 -0.3811
 1112SOL     OW14794   4.191   1.143   7.465  0.2173 -0.3020  0.3929
 1112SOL    HW114795   4.101   1.175   7.476 -0.1139 -1.0251 -0.2431
 1112SOL    HW214796   4.211   1.101   7.548  0.7054  0.5394  0.7007
 1113SOL     OW14797   3.891   3.576  13.338  0.2238  0.2874 -0.9059
 1113SOL    HW114798   3.806   3.598  13.301  0.0468  0.2655 -0.5201
 1113SOL    HW214799   3.946   3.635  13.287 -0.0625  2.5945  1.4120
 1114SOL     OW14800   0.554   3.945   5.736  0.8707  0.4805 -0.4562
 1114SOL    HW114801   0.467   3.926   5.771  0.8699 -0.3682 -0.9034
 1114SOL    HW214802   0.577   4.024   5.785 -0.6730  0.5776  0.1150
 1115SOL     OW14803   3.124   2.826   3.943 -0.1622 -0.3207  0.0674
 1115SOL    HW114804   3.090   2.763   4.007 -0.7992 -0.7442 -0.6948
 1115SOL    HW214805   3.056   2.821   3.876 -1.4506  0.4849  1.2978
 1116SOL     OW14806   1.693   1.709  11.282  0.0953  0.0988 -0.0027
 1116SOL    HW114807   1.677   1.721  11.376  0.4118  2.0177 -0.1994
 1116SOL    HW214808   1.641   1.778  11.242 -2.7028 -1.3541  1.1298
 1117SOL     OW14809   0.353   2.961  13.420  0.0057  0.0541 -0.3095
 1117SOL    HW114810   0.333   2.904  13.495  0.2945  0.0281 -0.2503
 1117SOL    HW214811   0.271   2.950  13.373 -0.2195 -1.0353  0.3338
 1118SOL     OW14812   4.230   1.563  15.827 -0.0191  0.6768  0.0120
 1118SOL    HW114813   4.206   1.516  15.747 -0.2440  0.3171  0.2939
 1118SOL    HW214814   4.169   1.528  15.891 -1.9485  1.7203 -1.2616
 1119SOL     OW14815   4.029   1.156  10.435  0.3616 -0.5439 -0.0176
 1119SOL    HW114816   4.046   1.180  10.344 -0.7310 -2.7811 -0.8033
 1119SOL    HW214817   4.066   1.068  10.432 -1.4117 -1.3002  0.2007
 1120SOL     OW14818   0.141   2.546  12.788 -0.3661 -0.2411 -0.2202
 1120SOL    HW114819   0.225   2.536  12.743 -0.5256  0.9360 -0.7861
 1120SOL    HW214820   0.088   2.553  12.708  2.0617 -2.4839 -2.0621
 1121SOL     OW14821   0.281   4.389  14.762 -0.5461  0.2082 -0.9143
 1121SOL    HW114822   0.240   4.469  14.730 -0.2300  0.2896 -1.1099
 1121SOL    HW214823   0.221   4.326  14.720  0.0960 -1.0574  0.0566
 1122SOL     OW14824   3.239   1.130  11.349  0.0168 -0.0268 -0.3696
 1122SOL    HW114825   3.309   1.065  11.345  1.2986  1.3758 -0.6291
 1122SOL    HW214826   3.168   1.069  11.371  0.2406 -0.4980 -0.9615
 1123SOL     OW14827   0.529   2.950   6.429  0.1789 -0.7418  0.2527
 1123SOL    HW114828   0.512   2.865   6.469 -0.8193 -1.6395 -2.0882
 1123SOL    HW214829   0.569   2.932   6.344  0.0346 -0.5933  0.1526
 1124SOL     OW14830   2.547   3.482   6.663  0.1411  0.3386  0.3864
 1124SOL    HW114831   2.604   3.545   6.707  1.7214  0.2918 -1.5976
 1124SOL    HW214832   2.601   3.468   6.586 -0.6139 -0.7588  0.0489
 1125SOL     OW14833   4.437   1.308   8.869 -0.4710  0.1466 -0.2918
 1125SOL    HW114834   4.398   1.239   8.816 -1.5174 -0.2307  0.9808
 1125SOL    HW214835   4.508   1.250   8.898  1.8355  3.6646  1.1352
 1126SOL     OW14836   1.633   3.616   7.567  0.0913 -0.4372  0.2976
 1126SOL    HW114837   1.623   3.694   7.514 -0.4476 -2.1839 -2.1562
 1126SOL    HW214838   1.602   3.546   7.510  0.6809 -0.9263  0.5745
 1127SOL     OW14839   1.383   1.465  10.253  0.9297 -0.1667  0.7477
 1127SOL    HW114840   1.440   1.519  10.308  0.4578  0.6080  0.4692
 1127SOL    HW214841   1.296   1.480  10.289  0.6125 -0.6030  0.1519
 1128SOL     OW14842   3.348   4.402   7.204 -0.1173  0.0119 -0.2284
 1128SOL    HW114843   3.421   4.452   7.241  0.5622 -0.0730 -1.4401
 1128SOL    HW214844   3.275   4.441   7.252 -0.5567 -0.2910 -0.6575
 1129SOL     OW14845   0.963   2.351   8.446  0.0922 -0.0320 -0.0921
 1129SOL    HW114846   0.946   2.262   8.415 -2.3697  0.0496  1.0305
 1129SOL    HW214847   0.876   2.391   8.447 -0.0203 -0.2973  0.3075
 1130SOL     OW14848   3.268   2.520   8.228 -0.5871  0.0006  0.1008
 1130SOL    HW114849   3.242   2.458   8.296 -2.0349 -0.5997 -1.0110
 1130SOL    HW214850   3.363   2.526   8.240 -0.6056  0.9459 -0.2133
 1131SOL     OW14851   0.707   1.350   9.060  0.2605  0.2535 -0.6329
 1131SOL    HW114852   0.786   1.357   9.114 -1.4918  1.9394  1.7234
 1131SOL    HW214853   0.729   1.411   8.989 -0.1717  0.0240 -0.9606
 1132SOL     OW14854   3.964   4.206   5.042 -0.1202  0.6488 -0.0160
 1132SOL    HW114855   4.034   4.270   5.028 -0.5397  0.6530 -2.0530
 1132SOL    HW214856   3.996   4.160   5.120  0.2006 -0.7162 -0.9633
 1133SOL     OW14857   1.689   3.313   5.384 -0.5452  0.4178 -0.1744
 1133SOL    HW114858   1.706   3.404   5.409 -0.1529  0.1827  0.4149
 1133SOL    HW214859   1.608   3.299   5.433 -0.3318 -0.7307 -0.1558
 1134SOL     OW14860   0.615   4.173   5.883  0.0333  0.1160  0.2748
 1134SOL    HW114861   0.646   4.124   5.959 -0.5663  0.2479  0.6019
 1134SOL    HW214862   0.654   4.259   5.898  0.7643  0.1878 -2.0442
 1135SOL     OW14863   4.444   2.373   7.571  0.1208  0.2988 -0.5833
 1135SOL    HW114864   4.398   2.439   7.623  2.3404 -0.9600  2.9817
 1135SOL    HW214865   4.373   2.326   7.529  0.3319  1.4782 -2.2589
 1136SOL     OW14866   0.331   2.066   7.360  0.0555  0.1772  0.9822
 1136SOL    HW114867   0.361   2.077   7.451  1.4970 -0.0587  0.5345
 1136SOL    HW214868   0.309   1.973   7.353 -0.4108  0.3679 -0.0973
 1137SOL     OW14869   3.028   3.117   4.247  0.3119 -1.0077  0.2234
 1137SOL    HW114870   2.961   3.140   4.183 -0.7137 -0.5602  1.4595
 1137SOL    HW214871   3.030   3.195   4.304 -0.3696 -0.6134 -0.2992
 1138SOL     OW14872   3.147   3.235   7.480 -0.0897 -1.0199 -0.1142
 1138SOL    HW114873   3.103   3.165   7.528 -0.5441 -1.1730 -0.7586
 1138SOL    HW214874   3.219   3.187   7.439 -0.2460 -0.8246 -0.6151
 1139SOL     OW14875   3.260   2.902   8.454 -0.3887 -0.0574 -0.5021
 1139SOL    HW114876   3.255   2.952   8.372  0.1635  0.8989  0.0509
 1139SOL    HW214877   3.214   2.966   8.508  0.4184  1.0856 -1.1728
 1140SOL     OW14878   0.192   1.257  15.898  0.0583 -0.0416 -0.2408
 1140SOL    HW114879   0.217   1.210  15.978 -0.6632 -0.5677 -0.3228
 1140SOL    HW214880   0.213   1.204  15.822 -1.2337 -1.7984  0.6296
 1141SOL     OW14881   2.820   4.051   8.540 -0.2987 -0.1334  0.1099
 1141SOL    HW114882   2.801   4.096   8.622  2.4855  0.3711  0.5038
 1141SOL    HW214883   2.779   3.966   8.554 -0.6973 -0.3557 -2.3934
 1142SOL     OW14884   2.816   1.191   8.262  0.4596 -0.1158  0.9089
 1142SOL    HW114885   2.902   1.153   8.279  0.0628 -1.5232 -0.2356
 1142SOL    HW214886   2.782   1.152   8.182  0.3918  0.4626  0.6511
 1143SOL     OW14887   2.632   4.460   5.184  0.0968 -0.0791  0.5719
 1143SOL    HW114888   2.598   4.473   5.096 -1.3276  1.9822  1.4269
 1143SOL    HW214889   2.673   4.374   5.176  0.7051  0.4055 -1.4226
 1144SOL     OW14890   2.816   0.211   5.013  0.2933 -0.6539  0.2604
 1144SOL    HW114891   2.804   0.286   5.070 -1.6912 -0.4036 -0.4867
 1144SOL    HW214892   2.745   0.154   5.044 -1.7401  2.2138  0.8149
 1145SOL     OW14893   3.907   1.881   3.051  0.2560  0.0902 -0.6076
 1145SOL    HW114894   3.901   1.794   3.013 -0.1297  1.0986 -2.8220
 1145SOL    HW214895   3.853   1.927   2.987 -0.5163  3.9178  2.7627
 1146SOL     OW14896   4.444   3.618   7.607 -0.3840  0.4297  0.1292
 1146SOL    HW114897   4.473   3.552   7.671 -0.7476 -1.7430 -1.9367
 1146SOL    HW214898   4.364   3.578   7.572 -0.8843  1.5099  0.0546
 1147SOL     OW14899   1.860   1.701  15.308 -0.0106 -0.6753 -0.2244
 1147SOL    HW114900   1.873   1.744  15.224  2.6251 -0.3333  0.3667
 1147SOL    HW214901   1.953   1.690  15.324  0.4794 -0.4171 -2.9070
 1148SOL     OW14902   3.318   1.259  13.737 -0.0551 -0.0983 -0.2080
 1148SOL    HW114903   3.253   1.207  13.785 -1.1201  1.7885  0.4194
 1148SOL    HW214904   3.309   1.222  13.650 -1.2991  0.4807 -0.3231
 1149SOL     OW14905   3.772   3.704  10.758 -0.5208 -0.5218  0.5249
 1149SOL    HW114906   3.779   3.799  10.768  0.7425 -0.2296 -3.3730
 1149SOL    HW214907   3.802   3.688  10.848 -2.1949  1.2836  1.4116
 1150SOL     OW14908   4.310   4.270   6.302 -0.3082  0.2553  0.5365
 1150SOL    HW114909   4.397   4.270   6.261 -1.1852 -0.6139 -1.3446
 1150SOL    HW214910   4.268   4.340   6.252  0.7329  0.3590 -0.2073
 1151SOL     OW14911   2.345   4.436   8.490  0.7666 -0.1003 -0.1256
 1151SOL    HW114912   2.279   4.486   8.538  1.1322 -0.1928  0.4806
 1151SOL    HW214913   2.368   4.372   8.557 -1.1987 -0.4457  0.1938
 1152SOL     OW14914   1.489   3.055   1.063  0.6090  0.1819 -0.2941
 1152SOL    HW114915   1.489   3.032   1.156 -0.4459  1.9481  0.1465
 1152SOL    HW214916   1.498   3.151   1.064  0.7893  0.1511  1.0802
 1153SOL     OW14917   4.634   4.449   8.429  0.4971 -0.2175  0.2478
 1153SOL    HW114918   4.542   4.430   8.414  0.5294 -0.2232  0.0502
 1153SOL    HW214919   4.659   4.360   8.454  0.9633  0.8619  3.6069
 1154SOL     OW14920   0.717   3.039   1.278 -0.6586 -0.2900 -0.4280
 1154SOL    HW114921   0.646   3.094   1.310  2.3842  2.3401  1.8578
 1154SOL    HW214922   0.749   3.010   1.363 -0.9769 -1.5933 -0.7612
 1155SOL     OW14923   2.551   0.885   2.893 -0.3110 -0.0389  0.3085
 1155SOL    HW114924   2.580   0.955   2.951 -2.0440  1.0383 -0.1047
 1155SOL    HW214925   2.495   0.836   2.953  0.3947 -0.8690  0.2803
 1156SOL     OW14926   1.019   2.968   1.863  0.4509  0.4761 -0.0065
 1156SOL    HW114927   1.093   2.915   1.892 -0.0525  0.4631  1.2449
 1156SOL    HW214928   1.005   2.941   1.772  0.8629  0.5970 -0.1080
 1157SOL     OW14929   0.241   0.830  17.176  0.7678 -0.5936  0.0763
 1157SOL    HW114930   0.147   0.846  17.184  0.9937  0.6965  0.1930
 1157SOL    HW214931   0.255   0.742  17.210  0.3877 -0.6726  0.0321
 1158SOL     OW14932   2.413   4.230   4.297 -0.3073  0.2605  0.2657
 1158SOL    HW114933   2.481   4.289   4.264 -0.0452  0.1086  0.5368
 1158SOL    HW214934   2.415   4.159   4.233  1.7837 -0.7144  1.4386
 1159SOL     OW14935   2.808   4.305   7.770  0.2678  0.5667 -0.9253
 1159SOL    HW114936   2.773   4.346   7.850 -0.6325  0.6854 -1.3791
 1159SOL    HW214937   2.762   4.221   7.768 -0.2355  0.9305 -4.1363
 1160SOL     OW14938   2.508   1.746  14.052  0.0419 -0.3465 -0.0049
 1160SOL    HW114939   2.580   1.774  14.108  0.4885 -2.2798  0.3707
 1160SOL    HW214940   2.487   1.657  14.080  3.1622 -0.0953  3.1130
 1161SOL     OW14941   1.010   1.331  17.425  0.0570 -0.5012 -0.2110
 1161SOL    HW114942   1.012   1.262  17.492 -1.3695 -0.5428 -0.2174
 1161SOL    HW214943   0.933   1.298  17.380  0.2062 -1.0287 -0.0764
 1162SOL     OW14944   2.141   0.640   2.160  0.6939  0.0718 -0.4719
 1162SOL    HW114945   2.184   0.691   2.228 -0.2581  0.6357 -0.2895
 1162SOL    HW214946   2.100   0.573   2.215 -1.2698  1.6999  0.0602
 1163SOL     OW14947   2.179   0.994   0.740  0.7164 -0.1517 -0.8388
 1163SOL    HW114948   2.173   0.985   0.645  0.1348 -0.7385 -0.7482
 1163SOL    HW214949   2.267   1.029   0.752  1.2848 -2.3385  1.6206
 1164SOL     OW14950   3.562   4.253   7.446 -0.2345  0.2972 -0.0812
 1164SOL    HW114951   3.613   4.190   7.498  0.6692  0.7550 -0.4309
 1164SOL    HW214952   3.475   4.212   7.450 -1.2298  2.6051  1.7561
 1165SOL     OW14953   2.734   0.166   7.576  0.2891 -1.1146 -0.0204
 1165SOL    HW114954   2.682   0.242   7.550 -2.3680 -3.0016 -0.1251
 1165SOL    HW214955   2.695   0.089   7.536  0.8552 -0.5770 -1.6001
 1166SOL     OW14956   0.267   4.590  13.587 -0.4085 -0.1759 -0.0545
 1166SOL    HW114957   0.353   4.628  13.569  0.8079 -2.9508 -0.0309
 1166SOL    HW214958   0.218   4.637  13.520 -1.1796 -1.9186 -0.7058
 1167SOL     OW14959   0.779   0.652  14.293 -0.3181 -0.5306  0.9377
 1167SOL    HW114960   0.721   0.725  14.270 -0.1602 -0.4131  0.9093
 1167SOL    HW214961   0.713   0.583  14.292 -1.9990  1.1050 -1.1474
 1168SOL     OW14962   0.321   3.076  11.066 -0.3840  0.1292  0.6191
 1168SOL    HW114963   0.293   2.996  11.023 -2.0161 -0.5991  3.0334
 1168SOL    HW214964   0.329   3.042  11.155  0.7127 -0.8368  0.1558
 1169SOL     OW14965   3.785   0.974   3.408  0.2443 -0.7217 -0.4905
 1169SOL    HW114966   3.755   0.885   3.391  0.5294 -0.5546 -1.8632
 1169SOL    HW214967   3.735   1.005   3.484  0.6893 -0.9801 -0.0964
 1170SOL     OW14968   2.098   0.234   6.777  0.0731  1.1206 -0.5275
 1170SOL    HW114969   2.021   0.256   6.829  0.7726 -0.1168  1.0235
 1170SOL    HW214970   2.171   0.276   6.821  1.6852 -1.8269 -0.3478
 1171SOL     OW14971   2.342   0.696  16.608  0.2534 -0.7397  0.3021
 1171SOL    HW114972   2.258   0.736  16.586  0.5491 -0.0024  0.5090
 1171SOL    HW214973   2.314   0.620  16.658  0.4360 -2.1144 -1.6578
 1172SOL     OW14974   1.369   4.512   2.985  0.8711  0.1658  0.2779
 1172SOL    HW114975   1.352   4.438   3.043  2.1056  0.3280  0.8405
 1172SOL    HW214976   1.423   4.566   3.043 -0.6808  0.6247  1.2918
 1173SOL     OW14977   1.227   3.804   6.800 -0.0985  0.3477  0.0375
 1173SOL    HW114978   1.182   3.722   6.819 -0.1980  0.1717 -0.9659
 1173SOL    HW214979   1.307   3.817   6.852  0.5802  3.1507 -1.7203
 1174SOL     OW14980   2.021   2.948   8.796  0.5591  0.2752  0.2584
 1174SOL    HW114981   2.044   3.041   8.790 -0.0994  0.4103 -0.2371
 1174SOL    HW214982   1.938   2.946   8.843 -0.1006  0.9801 -0.8499
 1175SOL     OW14983   0.359   0.372   4.571  0.5367 -0.2566 -0.2011
 1175SOL    HW114984   0.413   0.391   4.494  0.1372 -0.1001 -0.4366
 1175SOL    HW214985   0.318   0.456   4.589 -0.6915 -1.2250  1.4859
 1176SOL     OW14986   1.931   0.510   8.773  0.0102  0.3707 -0.1078
 1176SOL    HW114987   1.997   0.464   8.721  2.0099  1.9724  1.0197
 1176SOL    HW214988   1.960   0.523   8.863 -0.0231  2.1542 -0.3501
 1177SOL     OW14989   3.747   3.882   2.920 -0.2416 -0.3267 -0.1198
 1177SOL    HW114990   3.757   3.835   3.003 -1.0600 -0.4665 -0.0967
 1177SOL    HW214991   3.839   3.873   2.896 -0.4311  2.1687 -1.7099
 1178SOL     OW14992   0.649   1.878   4.797  0.4084 -0.5454  0.3822
 1178SOL    HW114993   0.635   1.923   4.713 -0.3049  0.8354  1.2468
 1178SOL    HW214994   0.662   1.787   4.769 -0.4552 -1.0724  1.6822
 1179SOL     OW14995   2.626   0.713  11.600 -0.3187 -0.0100  0.2477
 1179SOL    HW114996   2.680   0.716  11.679 -1.2705 -3.5398  1.0537
 1179SOL    HW214997   2.601   0.621  11.612  1.9742 -0.4345  1.6102
 1180SOL     OW14998   1.070   0.649  10.989 -0.3126 -0.0501 -0.1557
 1180SOL    HW114999   1.031   0.681  11.070 -0.0754  0.4754 -0.2534
 1180SOL    HW215000   1.156   0.691  10.990 -0.8087  0.8850  2.4704
 1181SOL     OW15001   0.484   4.604   0.812  0.7763  0.9901  0.0312
 1181SOL    HW115002   0.511   4.651   0.733  0.6583  3.3939  1.4208
 1181SOL    HW215003   0.523   4.660   0.878  0.0122  0.5064  0.8906
 1182SOL     OW15004   3.133   0.083   9.383 -0.2801 -0.2164 -0.0460
 1182SOL    HW115005   3.208   0.039   9.344 -2.5763 -3.4328 -0.8013
 1182SOL    HW215006   3.174   0.164   9.414 -0.9024  0.0477  0.0989
 1183SOL     OW15007   3.596   1.389  14.462 -0.2078 -0.4778 -0.3331
 1183SOL    HW115008   3.528   1.407  14.397 -1.4564  0.7721  1.3207
 1183SOL    HW215009   3.572   1.297  14.470  3.3233 -1.2486  0.9857
 1184SOL     OW15010   2.397   3.873   0.455  0.0975 -0.0698 -0.3539
 1184SOL    HW115011   2.319   3.926   0.468  0.2834  0.8377 -2.8694
 1184SOL    HW215012   2.362   3.784   0.448 -0.8454  0.2615  0.2477
 1185SOL     OW15013   2.121   0.325   3.505 -0.0842 -0.3531  0.2594
 1185SOL    HW115014   2.082   0.246   3.543 -0.5015 -1.1949 -1.9102
 1185SOL    HW215015   2.214   0.308   3.520 -0.9065 -3.1566  2.1870
 1186SOL     OW15016   4.237   1.252   2.303 -0.1871 -0.0343 -0.0299
 1186SOL    HW115017   4.165   1.198   2.337  0.2396 -0.4153  0.2700
 1186SOL    HW215018   4.306   1.196   2.338  1.0082  0.3379 -1.8210
 1187SOL     OW15019   1.762   4.120  15.694 -0.0172 -0.5344 -0.0525
 1187SOL    HW115020   1.743   4.057  15.625  0.8302 -0.5884 -0.2371
 1187SOL    HW215021   1.857   4.133  15.683 -0.1411  0.9134  0.6144
 1188SOL     OW15022   3.998   4.535   5.810 -0.3233 -0.3740  0.6389
 1188SOL    HW115023   3.961   4.623   5.816 -2.3989 -1.3529  2.1802
 1188SOL    HW215024   3.933   4.500   5.748 -1.0743 -0.4074  1.4576
 1189SOL     OW15025   3.411   3.994   0.684 -0.8713  0.6117  0.1230
 1189SOL    HW115026   3.489   3.952   0.722 -0.8383 -1.8495 -2.7074
 1189SOL    HW215027   3.352   3.993   0.760 -2.1306 -0.7240 -0.8670
 1190SOL     OW15028   2.671   0.723   4.298  0.1171  0.0276 -0.1829
 1190SOL    HW115029   2.746   0.761   4.345  0.1992 -1.0799  0.5783
 1190SOL    HW215030   2.637   0.806   4.264  0.6628 -0.1682 -1.2050
 1191SOL     OW15031   3.563   1.821   8.941 -0.0535  0.3272 -0.0249
 1191SOL    HW115032   3.640   1.833   8.885  2.2605 -1.3052  2.7950
 1191SOL    HW215033   3.550   1.730   8.914 -1.5605  1.1696 -2.1883
 1192SOL     OW15034   1.926   3.831   5.118 -0.4883 -0.0825 -0.1295
 1192SOL    HW115035   1.982   3.904   5.144  0.4796 -1.3934  1.5509
 1192SOL    HW215036   1.919   3.849   5.025  0.7367 -1.9852 -0.6042
 1193SOL     OW15037   4.334   3.026   9.136  0.2103 -0.4656 -0.2861
 1193SOL    HW115038   4.407   3.066   9.185 -0.4296 -0.7344  0.8949
 1193SOL    HW215039   4.266   3.049   9.199  1.0179 -0.5131  0.6209
 1194SOL     OW15040   0.591   4.132   2.752  0.2042  0.0417 -0.5093
 1194SOL    HW115041   0.610   4.221   2.724  2.1428 -0.4456 -0.7644
 1194SOL    HW215042   0.679   4.095   2.746  0.3509  0.2725  0.2775
 1195SOL     OW15043   2.096   2.814   7.399  0.4720 -0.4539  0.3234
 1195SOL    HW115044   2.081   2.751   7.470  1.4023  0.7436  1.5746
 1195SOL    HW215045   2.188   2.809   7.374  0.0909  0.0842 -1.1654
 1196SOL     OW15046   4.635   2.831  17.062  0.1259  0.1054 -0.2162
 1196SOL    HW115047   4.704   2.766  17.049 -1.2385 -0.8926 -2.4195
 1196SOL    HW215048   4.581   2.806  16.987 -0.2282  1.0624 -0.2787
 1197SOL     OW15049   3.040   2.861   5.402 -0.0735  0.9858 -0.0997
 1197SOL    HW115050   3.077   2.878   5.315 -0.9600  0.5874 -0.5481
 1197SOL    HW215051   2.992   2.944   5.409 -1.6949  0.2235 -2.0967
 1198SOL     OW15052   3.740   2.999  11.758  0.2004  0.5185  0.0430
 1198SOL    HW115053   3.693   2.989  11.841  0.6481 -1.4513  0.0592
 1198SOL    HW215054   3.827   2.962  11.770  0.8976  2.1757  0.0964
 1199SOL     OW15055   0.067   1.534   2.607 -0.1126  0.2016  0.4155
 1199SOL    HW115056   0.066   1.489   2.522  0.0336  0.0187  0.5104
 1199SOL    HW215057   4.711   1.504   2.655 -0.1212 -0.2878  0.1021
 1200SOL     OW15058   2.359   2.239  10.331  0.5722  0.1728  0.1230
 1200SOL    HW115059   2.293   2.182  10.370  0.6439  0.7600  1.1065
 1200SOL    HW215060   2.437   2.220  10.383  0.5635 -0.0274  0.0607
 1201SOL     OW15061   2.087   4.002   2.016  0.0796  0.1745  0.3087
 1201SOL    HW115062   2.144   3.944   2.066  0.6837  0.2588 -0.2735
 1201SOL    HW215063   2.128   3.972   1.934  0.1058  0.3086  0.2724
 1202SOL     OW15064   4.368   1.381   7.090  0.1585 -0.1337 -0.1120
 1202SOL    HW115065   4.362   1.458   7.147 -2.7852  0.1253 -0.7593
 1202SOL    HW215066   4.287   1.400   7.044 -0.8612  0.1804  1.7971
 1203SOL     OW15067   2.170   0.140  16.789  0.4645  0.1911 -0.3647
 1203SOL    HW115068   2.168   0.107  16.699 -0.3538  1.8173 -0.9481
 1203SOL    HW215069   2.219   0.075  16.840  0.1595  1.8633  2.0548
 1204SOL     OW15070   4.421   4.344   2.251 -0.0590  0.0966 -0.0548
 1204SOL    HW115071   4.442   4.437   2.241  0.3195 -0.2275 -2.2472
 1204SOL    HW215072   4.428   4.336   2.346  0.8048 -2.6529 -0.3557
 1205SOL     OW15073   2.637   3.973   0.427 -0.6543  0.3245  0.0044
 1205SOL    HW115074   2.544   3.953   0.429 -0.9339  1.4727 -1.2016
 1205SOL    HW215075   2.650   4.021   0.509 -1.2697  0.0829  0.2359
 1206SOL     OW15076   1.101   1.527   8.204 -0.2129  0.3357  0.5242
 1206SOL    HW115077   1.007   1.547   8.204 -0.3428 -0.2424 -1.5342
 1206SOL    HW215078   1.124   1.585   8.131 -0.8514 -0.3826 -0.2566
 1207SOL     OW15079   3.773   1.604   2.050 -0.3703 -0.2658  0.4532
 1207SOL    HW115080   3.840   1.653   2.099 -0.3634 -1.1537  1.3221
 1207SOL    HW215081   3.824   1.538   2.002  1.0188  0.9902  0.1725
 1208SOL     OW15082   2.498   2.013   6.562 -0.5691 -0.6515 -0.2284
 1208SOL    HW115083   2.447   2.066   6.502  2.4908 -0.2591 -2.4906
 1208SOL    HW215084   2.445   1.933   6.567 -2.6572  0.7853  0.6975
 1209SOL     OW15085   1.745   3.134   1.889  0.3526 -0.3024  0.2565
 1209SOL    HW115086   1.779   3.223   1.878 -1.1785  0.1691 -0.6907
 1209SOL    HW215087   1.744   3.111   1.797 -1.8516  0.7430  0.0096
 1210SOL     OW15088   1.983   3.090  12.935  0.3745 -0.1395 -0.2119
 1210SOL    HW115089   2.058   3.141  12.905 -0.6667  0.3894 -1.8458
 1210SOL    HW215090   1.961   3.052  12.850  0.0720 -0.4184 -0.0079
 1211SOL     OW15091   1.681   2.976   2.262 -0.2768  0.2415 -0.1769
 1211SOL    HW115092   1.702   3.053   2.315 -2.2378 -1.4013  2.9791
 1211SOL    HW215093   1.760   2.966   2.209  0.1173 -0.9611  0.6406
 1212SOL     OW15094   3.990   2.259   6.904  0.1108  0.3239  0.0211
 1212SOL    HW115095   4.007   2.283   6.812 -1.7697 -0.5202 -0.5372
 1212SOL    HW215096   3.932   2.185   6.885 -0.9126  0.2667  3.4565
 1213SOL     OW15097   0.351   3.696   6.418 -0.1403  0.7209 -0.4855
 1213SOL    HW115098   0.292   3.661   6.351 -1.4524  1.6695  0.1519
 1213SOL    HW215099   0.294   3.672   6.491  1.1250 -0.9232 -0.0456
 1214SOL     OW15100   1.940   4.571   1.527  0.1104  0.1161 -0.1422
 1214SOL    HW115101   1.979   4.616   1.602  0.7767 -1.2062  0.3075
 1214SOL    HW215102   1.862   4.624   1.511 -1.3191 -0.9260  3.2623
 1215SOL     OW15103   1.795   4.548  12.220  0.2149  0.6448 -0.0550
 1215SOL    HW115104   1.700   4.560  12.219 -0.0556 -1.3707  1.2402
 1215SOL    HW215105   1.826   4.534  12.131  1.1176 -3.0457  0.8743
 1216SOL     OW15106   1.891   0.781   9.054  0.4168  0.6072  0.4641
 1216SOL    HW115107   1.878   0.689   9.033 -0.8556  0.8420  0.1770
 1216SOL    HW215108   1.944   0.775   9.133  2.4347 -1.0695 -1.0163
 1217SOL     OW15109   3.999   3.323   5.441  0.5781  0.4564 -0.2159
 1217SOL    HW115110   3.980   3.235   5.408  0.0429  0.2227  0.7401
 1217SOL    HW215111   3.946   3.368   5.375 -1.6775 -0.5329  0.9469
 1218SOL     OW15112   2.272   2.826   5.376 -0.3723 -0.1300 -0.4128
 1218SOL    HW115113   2.297   2.771   5.302  1.0183 -2.5576  1.8756
 1218SOL    HW215114   2.293   2.915   5.347 -1.0881  0.6933  1.5922
 1219SOL     OW15115   1.912   2.389   2.563 -0.2231 -0.4959  0.0312
 1219SOL    HW115116   1.833   2.348   2.599  0.7654 -2.8119 -0.4524
 1219SOL    HW215117   1.870   2.412   2.480 -2.5356  1.6924  1.8233
 1220SOL     OW15118   3.967   3.217   0.960 -0.1369  0.3907  0.2114
 1220SOL    HW115119   3.984   3.247   0.871  1.3515 -0.3873  0.2284
 1220SOL    HW215120   4.002   3.293   1.007  1.6725 -0.7731  0.7649
 1221SOL     OW15121   4.440   2.338   4.429 -0.1821 -0.4452 -0.6528
 1221SOL    HW115122   4.399   2.423   4.410 -1.1893 -0.9104 -0.5748
 1221SOL    HW215123   4.378   2.287   4.481  2.1119 -1.8503  0.6908
 1222SOL     OW15124   2.979   1.915   4.468 -0.1418 -0.1339 -0.0128
 1222SOL    HW115125   2.979   1.875   4.381  1.7755 -2.6592  1.1553
 1222SOL    HW215126   2.891   1.952   4.475 -0.8502 -1.3842 -2.3817
 1223SOL     OW15127   2.437   1.716   8.248 -0.3350 -0.1687  0.4415
 1223SOL    HW115128   2.516   1.760   8.278 -0.2655 -0.0741  0.1167
 1223SOL    HW215129   2.376   1.766   8.304  0.8588  0.2835  1.3400
 1224SOL     OW15130   4.375   4.250   3.052  0.6414 -0.0865  0.2180
 1224SOL    HW115131   4.321   4.236   3.130 -0.3820  1.3223 -0.2553
 1224SOL    HW215132   4.402   4.340   3.067  0.9961  0.0298 -1.1657
 1225SOL     OW15133   0.554   4.495   7.071  0.5349  0.3852 -0.0102
 1225SOL    HW115134   0.471   4.449   7.055 -0.2373  0.8705  2.5012
 1225SOL    HW215135   0.529   4.575   7.119 -0.5198 -0.6853  1.2251
 1226SOL     OW15136   3.798   2.282   3.229  0.2835  0.5271 -0.3056
 1226SOL    HW115137   3.784   2.188   3.217 -0.1669  0.6155 -0.4671
 1226SOL    HW215138   3.809   2.292   3.323 -2.2573 -2.4766  0.3115
 1227SOL     OW15139   0.419   3.300   3.914 -0.5695  1.1329  0.1268
 1227SOL    HW115140   0.483   3.370   3.919  1.6418 -0.8557 -0.0630
 1227SOL    HW215141   0.433   3.262   4.001  1.0413  2.5064  0.4636
 1228SOL     OW15142   2.662   3.360   3.862  0.0537  0.0849 -0.1387
 1228SOL    HW115143   2.728   3.349   3.795  1.0751 -1.5848  1.1499
 1228SOL    HW215144   2.585   3.382   3.810 -1.1194  0.7305  1.8382
 1229SOL     OW15145   3.997   0.327   9.590  0.1449 -0.0577  0.0873
 1229SOL    HW115146   4.049   0.252   9.560  0.5238 -0.2658  1.2829
 1229SOL    HW215147   4.069   0.375   9.631  0.9591  0.3867 -1.8385
 1230SOL     OW15148   3.436   0.023   3.747  0.5493  0.1504 -0.2236
 1230SOL    HW115149   3.352   4.701   3.736 -0.5706  2.2269  0.2091
 1230SOL    HW215150   3.506   4.679   3.751 -0.2500 -0.7027 -0.2489
 1231SOL     OW15151   0.941   3.602   6.011  0.3581 -0.3053 -0.1337
 1231SOL    HW115152   1.003   3.608   5.938 -0.8291  2.5396 -0.9142
 1231SOL    HW215153   0.854   3.597   5.971  0.2841  1.7253 -0.2273
 1232SOL     OW15154   0.488   3.432   6.959 -0.1037 -0.7219 -0.0841
 1232SOL    HW115155   0.471   3.357   7.017  0.0704  1.0327  2.2314
 1232SOL    HW215156   0.571   3.399   6.924  1.1651  1.8309  0.5243
 1233SOL     OW15157   2.804   3.863   3.453  0.2495  0.0395 -0.2264
 1233SOL    HW115158   2.815   3.926   3.381  1.4674 -1.4368 -1.3237
 1233SOL    HW215159   2.891   3.828   3.468 -0.4046 -2.6181 -2.6242
 1234SOL     OW15160   2.528   2.900  10.840 -0.1617  0.1226  0.0523
 1234SOL    HW115161   2.612   2.935  10.869  0.3079 -0.6008 -0.4143
 1234SOL    HW215162   2.483   2.984  10.830 -0.8411 -0.1735  0.5583
 1235SOL     OW15163   2.101   1.621   5.286  0.0181 -0.1565  0.1536
 1235SOL    HW115164   2.176   1.647   5.233 -2.3257  1.6082 -2.2800
 1235SOL    HW215165   2.130   1.645   5.374  2.1335 -0.3886 -0.4940
 1236SOL     OW15166   2.995   4.446   5.567  0.0227 -0.3938  0.1830
 1236SOL    HW115167   2.978   4.388   5.641 -0.6884  0.5525  0.7664
 1236SOL    HW215168   2.913   4.432   5.520  1.0005 -3.3199 -0.6594
 1237SOL     OW15169   3.086   4.150   7.264  0.0404 -1.2430 -0.2179
 1237SOL    HW115170   3.050   4.073   7.221  0.0138 -1.2499 -0.1825
 1237SOL    HW215171   3.054   4.129   7.351 -2.6253 -0.9542 -1.1391
 1238SOL     OW15172   3.795   3.281   8.614 -0.0032 -0.3180 -0.5022
 1238SOL    HW115173   3.829   3.304   8.700 -0.7261  1.0553 -0.5892
 1238SOL    HW215174   3.860   3.219   8.583  0.9001  0.4369 -0.1032
 1239SOL     OW15175   0.689   3.868  14.099 -0.7620 -0.1619 -0.2153
 1239SOL    HW115176   0.712   3.842  14.010 -2.5962  1.1717 -1.0881
 1239SOL    HW215177   0.709   3.961  14.089 -1.7106  0.1204  0.5066
 1240SOL     OW15178   0.977   0.617  14.117  0.1464  0.9160 -0.2435
 1240SOL    HW115179   0.955   0.699  14.073 -1.8585  0.2555 -0.4441
 1240SOL    HW215180   0.936   0.628  14.202 -1.8031 -0.9463 -0.9339
 1241SOL     OW15181   0.759   4.348   8.488 -0.2932 -0.1866 -1.1109
 1241SOL    HW115182   0.705   4.315   8.560  1.7729  0.3556  0.7106
 1241SOL    HW215183   0.743   4.441   8.502  2.1590 -0.1293  1.5168
 1242SOL     OW15184   2.043   0.241   3.268 -0.7104 -0.0062  0.4741
 1242SOL    HW115185   2.055   0.290   3.350 -1.2620  1.3134 -0.2254
 1242SOL    HW215186   2.137   0.230   3.250 -0.6079 -1.4557  1.8891
 1243SOL     OW15187   0.830   3.592   1.863 -0.2396  0.5799  0.0074
 1243SOL    HW115188   0.887   3.654   1.909 -0.6990  0.6883  0.4350
 1243SOL    HW215189   0.840   3.611   1.770 -0.9690 -0.3836 -0.2653
 1244SOL     OW15190   2.045   3.944   1.602 -0.1594  0.1029  0.4808
 1244SOL    HW115191   1.975   3.982   1.656  0.4208  0.7843  0.7567
 1244SOL    HW215192   2.095   4.024   1.584 -2.2154  1.3070  0.0025
 1245SOL     OW15193   1.392   3.933  10.446 -0.8841  0.2358  0.3412
 1245SOL    HW115194   1.334   3.999  10.483  1.9502  3.2380 -0.6183
 1245SOL    HW215195   1.413   3.883  10.525  0.8933  0.5058  0.0453
 1246SOL     OW15196   1.488   3.175  13.802  0.3784  0.7059  0.2402
 1246SOL    HW115197   1.418   3.235  13.824 -0.4909 -1.1269  2.4964
 1246SOL    HW215198   1.459   3.135  13.720 -1.6453  0.7659  0.9256
 1247SOL     OW15199   0.458   3.334  12.162 -0.1201  0.2021  0.9280
 1247SOL    HW115200   0.437   3.372  12.076  2.1907 -1.8761 -0.5253
 1247SOL    HW215201   0.522   3.402  12.183 -0.2684 -0.6048  3.8284
 1248SOL     OW15202   1.961   1.424   3.047  0.3396  0.2249  0.9276
 1248SOL    HW115203   1.940   1.335   3.017 -3.7221  1.8472 -0.9317
 1248SOL    HW215204   1.916   1.481   2.986 -1.6280 -0.0388  2.1171
 1249SOL     OW15205   3.005   1.031   7.529  0.7627 -0.3122 -0.0462
 1249SOL    HW115206   2.960   0.947   7.526 -1.9658  1.1357  0.8090
 1249SOL    HW215207   3.029   1.023   7.622  1.6151 -2.7104 -0.4655
 1250SOL     OW15208   4.234   2.354  16.285 -0.5633 -0.3083 -0.4077
 1250SOL    HW115209   4.313   2.388  16.328 -1.0279 -0.3794  0.4962
 1250SOL    HW215210   4.276   2.297  16.220  0.3780  0.9128 -0.8716
 1251SOL     OW15211   0.089   4.105   2.874  0.6139  0.5908 -0.3224
 1251SOL    HW115212   0.043   4.050   2.938 -1.7126  1.8348 -0.9224
 1251SOL    HW215213   0.021   4.114   2.807  1.7139  0.1721 -1.4927
 1252SOL     OW15214   3.194   3.786  14.227 -0.0332  0.1688  1.0356
 1252SOL    HW115215   3.264   3.798  14.291 -1.9974 -1.4392  3.5204
 1252SOL    HW215216   3.248   3.805  14.151 -0.7147 -1.2819  0.1740
 1253SOL     OW15217   0.445   0.873   9.291 -0.2652  0.0958  0.4183
 1253SOL    HW115218   0.442   0.791   9.341  0.5152 -2.2456 -3.3809
 1253SOL    HW215219   0.531   0.901   9.324  0.3734 -1.9128  0.4548
 1254SOL     OW15220   4.061   0.228   3.026  0.6734  0.1904 -0.2321
 1254SOL    HW115221   3.975   0.267   3.035 -0.2567 -1.6417 -1.0978
 1254SOL    HW215222   4.075   0.224   2.931  0.7922 -0.7619 -0.1793
 1255SOL     OW15223   0.071   3.056  11.317 -0.0590 -0.7844  0.4342
 1255SOL    HW115224   0.163   3.030  11.320 -0.5481 -2.6729 -0.7359
 1255SOL    HW215225   0.045   2.970  11.349  0.9236 -1.2955 -0.1318
 1256SOL     OW15226   1.499   1.784   3.217  0.2970 -0.1017  0.2323
 1256SOL    HW115227   1.521   1.873   3.191 -0.3098 -0.3240 -1.0610
 1256SOL    HW215228   1.475   1.744   3.133 -0.2160 -0.3420  0.4942
 1257SOL     OW15229   2.710   0.215   1.388  0.1117  0.1602 -0.0369
 1257SOL    HW115230   2.731   0.306   1.370 -0.0116  0.7413  2.7645
 1257SOL    HW215231   2.632   0.193   1.336 -0.4081  3.0365 -0.4813
 1258SOL     OW15232   2.810   3.035   6.604 -0.1045  0.2791  0.2224
 1258SOL    HW115233   2.835   3.124   6.631  0.7076  0.1507 -0.1004
 1258SOL    HW215234   2.717   3.047   6.587 -0.1293  3.0872  2.2221
 1259SOL     OW15235   0.549   3.464   2.483 -0.0736  0.2571 -0.2563
 1259SOL    HW115236   0.523   3.555   2.467 -0.2432  0.2239 -0.1720
 1259SOL    HW215237   0.604   3.480   2.560  1.0974 -1.5590 -0.7232
 1260SOL     OW15238   4.613   0.900   8.108  1.0802 -0.0602 -0.2484
 1260SOL    HW115239   4.546   0.877   8.044  0.8959 -1.0824  0.3067
 1260SOL    HW215240   4.654   0.816   8.128  2.7765  0.4032 -1.8455
 1261SOL     OW15241   1.105   3.293  16.051 -0.0974  0.3632  0.5830
 1261SOL    HW115242   1.036   3.350  16.018  0.2928  1.1979  1.2097
 1261SOL    HW215243   1.114   3.231  15.979 -0.1201  1.6944 -0.5586
 1262SOL     OW15244   2.734   2.673   4.904  0.1339 -0.8122 -0.5182
 1262SOL    HW115245   2.701   2.747   4.852 -0.3772  0.4125  1.5329
 1262SOL    HW215246   2.671   2.691   4.973 -0.5529  0.6050 -1.4899
 1263SOL     OW15247   4.325   2.547   1.532 -0.2927  0.4133 -0.0090
 1263SOL    HW115248   4.251   2.580   1.483  1.1826  1.3078 -1.6400
 1263SOL    HW215249   4.284   2.462   1.549  0.5747  0.2203  1.1560
 1264SOL     OW15250   0.983   0.530   3.726 -0.1555  0.0122  0.2393
 1264SOL    HW115251   1.048   0.529   3.796  0.6353  1.2502 -0.4909
 1264SOL    HW215252   0.958   0.621   3.708 -1.5135 -0.4848 -0.4483
 1265SOL     OW15253   4.364   2.795   5.194 -0.7160  0.2073 -0.6410
 1265SOL    HW115254   4.382   2.876   5.147 -1.0251  0.9968  0.5856
 1265SOL    HW215255   4.445   2.749   5.171 -0.8009 -0.1809 -0.1753
 1266SOL     OW15256   0.214   3.445  16.967 -0.4204 -0.6016  0.3904
 1266SOL    HW115257   0.265   3.417  17.043 -0.1513 -0.2481  0.3378
 1266SOL    HW215258   0.138   3.492  16.999 -1.4699 -1.7337 -0.4111
 1267SOL     OW15259   1.501   2.391   0.838  0.7973 -0.0470 -0.1625
 1267SOL    HW115260   1.562   2.413   0.908 -0.7805  1.5452  0.7183
 1267SOL    HW215261   1.543   2.308   0.816  2.3754  0.8365 -0.4374
 1268SOL     OW15262   1.854   0.914   2.290  0.0823  0.0716  0.7513
 1268SOL    HW115263   1.778   0.936   2.236 -0.2608 -0.2047  1.1155
 1268SOL    HW215264   1.830   0.830   2.329  1.8185 -0.8074 -0.0778
 1269SOL     OW15265   1.237   3.760   4.876 -0.2648  0.2778  0.9532
 1269SOL    HW115266   1.232   3.825   4.806  0.7659  0.1089  0.7205
 1269SOL    HW215267   1.276   3.816   4.944 -1.4695  2.6739 -0.3529
 1270SOL     OW15268   4.167   3.391  14.878  0.5207 -0.1883 -0.2226
 1270SOL    HW115269   4.162   3.347  14.963 -1.6583  0.0511 -0.2455
 1270SOL    HW215270   4.095   3.348  14.833 -0.3521 -1.8262  2.7214
 1271SOL     OW15271   2.045   0.217   7.461 -0.6636  0.0918  0.0194
 1271SOL    HW115272   1.951   0.228   7.450 -0.6404 -0.2367 -0.5161
 1271SOL    HW215273   2.075   0.228   7.371  0.9235 -1.5817  0.3283
 1272SOL     OW15274   2.765   2.053  14.676 -0.2162  0.0258  0.1584
 1272SOL    HW115275   2.774   1.968  14.633 -0.5646  0.2016 -0.2613
 1272SOL    HW215276   2.772   2.115  14.603 -0.3353  0.4797  0.5344
 1273SOL     OW15277   0.761   3.316  14.863 -0.0106 -0.6787 -0.0454
 1273SOL    HW115278   0.746   3.260  14.786 -0.1487  1.7548 -1.7996
 1273SOL    HW215279   0.840   3.275  14.899  0.3512 -2.2458 -2.5669
 1274SOL     OW15280   2.187   0.041   5.594 -0.0915  0.2312 -0.1450
 1274SOL    HW115281   2.269   0.012   5.554 -0.2239 -1.8494  1.1054
 1274SOL    HW215282   2.163   4.692   5.654 -1.1059  0.1335 -0.6632
 1275SOL     OW15283   4.113   3.132   6.531 -0.0208 -0.1616 -0.0634
 1275SOL    HW115284   4.106   3.215   6.483 -0.2722 -1.9416 -3.1273
 1275SOL    HW215285   4.076   3.150   6.618 -0.1910 -0.8244  0.0005
 1276SOL     OW15286   1.780   2.129   4.853 -0.0295 -0.2415  0.5281
 1276SOL    HW115287   1.876   2.131   4.852 -0.0348  1.1645  2.7542
 1276SOL    HW215288   1.746   2.216   4.874 -0.8779 -0.9714  2.1555
 1277SOL     OW15289   2.881   1.695  12.542 -0.0745  0.1336  0.5567
 1277SOL    HW115290   2.797   1.719  12.581 -0.4749 -0.7616  0.2527
 1277SOL    HW215291   2.849   1.665  12.458  1.9029  1.4501 -0.6587
 1278SOL     OW15292   1.691   3.572   3.487 -0.3988  0.0553 -0.4330
 1278SOL    HW115293   1.633   3.634   3.531  1.0605  0.5589  0.7732
 1278SOL    HW215294   1.671   3.492   3.535 -0.2816 -0.4017 -1.1561
 1279SOL     OW15295   1.621   2.143   9.400 -0.3535  0.4561 -0.0621
 1279SOL    HW115296   1.527   2.127   9.406 -0.3150  0.0154 -0.7151
 1279SOL    HW215297   1.657   2.062   9.366 -1.4681 -0.2334  0.4071
 1280SOL     OW15298   3.065   2.565   4.812 -0.2788 -0.6471  0.9910
 1280SOL    HW115299   3.013   2.485   4.808 -1.9366  0.3496  2.3147
 1280SOL    HW215300   3.152   2.527   4.817  1.1764  2.5925  0.7198
 1281SOL     OW15301   1.473   2.463   0.165 -0.2152 -0.0387  0.2484
 1281SOL    HW115302   1.420   2.409   0.223  2.3416 -0.9418  1.7614
 1281SOL    HW215303   1.496   2.539   0.219 -2.6335  0.0885  1.1050
 1282SOL     OW15304   4.007   1.870  14.221 -0.0445  0.1273 -0.5651
 1282SOL    HW115305   3.934   1.819  14.187  0.6336 -0.4175 -1.2268
 1282SOL    HW215306   4.049   1.821  14.292 -2.6122  1.9828  2.2353
 1283SOL     OW15307   2.446   0.518  12.999 -0.1552 -0.4429 -0.0093
 1283SOL    HW115308   2.520   0.475  12.956  1.6299  2.4856  0.1307
 1283SOL    HW215309   2.369   0.502  12.945  0.8410 -0.5289 -1.3915
 1284SOL     OW15310   3.019   2.811   0.569  0.0917  0.0804 -0.1731
 1284SOL    HW115311   3.099   2.766   0.543 -0.4415  0.0070 -1.6796
 1284SOL    HW215312   3.006   2.887   0.514  2.1172 -1.2226 -2.4253
 1285SOL     OW15313   1.994   0.549   5.367  0.2725  0.1884  0.5494
 1285SOL    HW115314   2.000   0.634   5.411  0.1078  1.0510 -1.1072
 1285SOL    HW215315   1.899   0.539   5.369  0.1923  1.1110  1.1474
 1286SOL     OW15316   2.259   2.277  17.619  0.5244 -0.6311 -0.4632
 1286SOL    HW115317   2.206   2.206  17.582 -2.9569  0.6409  2.1099
 1286SOL    HW215318   2.317   2.307  17.549 -0.3356 -2.1007 -1.8206
 1287SOL     OW15319   1.677   2.688   6.542  0.5506 -0.4333 -0.6017
 1287SOL    HW115320   1.656   2.772   6.502  1.0127 -0.0458 -0.0324
 1287SOL    HW215321   1.616   2.637   6.489 -0.9689 -0.5968  1.2946
 1288SOL     OW15322   3.589   0.624  17.035 -0.3849 -0.3357  0.1846
 1288SOL    HW115323   3.599   0.532  17.010 -2.9148 -0.2619 -1.1445
 1288SOL    HW215324   3.507   0.645  16.989 -0.9777 -0.5368  1.1404
 1289SOL     OW15325   2.607   4.434   5.874  0.2468 -0.0648  0.3518
 1289SOL    HW115326   2.666   4.368   5.910  1.2793  0.5387 -0.2138
 1289SOL    HW215327   2.654   4.510   5.909 -0.4118  0.9233 -0.8782
 1290SOL     OW15328   1.272   0.440  15.797  0.2176 -0.6529 -0.3122
 1290SOL    HW115329   1.267   0.480  15.710  1.4532  0.3543  0.0698
 1290SOL    HW215330   1.356   0.475  15.829  1.4098 -1.6425 -2.3244
 1291SOL     OW15331   0.265   4.136   3.296  0.3222  0.0918 -0.0525
 1291SOL    HW115332   0.329   4.207   3.288 -0.1227  0.1852 -2.6229
 1291SOL    HW215333   0.195   4.181   3.343  0.5980  0.2023  0.2605
 1292SOL     OW15334   0.308   3.358  10.719 -0.2271 -0.2088  0.7400
 1292SOL    HW115335   0.340   3.345  10.808 -0.3292 -2.3095  0.4699
 1292SOL    HW215336   0.369   3.431  10.706 -1.9717  1.2714  0.7661
 1293SOL     OW15337   4.497   0.398   5.882 -0.5178  0.1988  0.2057
 1293SOL    HW115338   4.515   0.486   5.849 -1.9979  0.1078 -0.8994
 1293SOL    HW215339   4.525   0.413   5.972 -0.1138 -1.4790  0.3548
 1294SOL     OW15340   0.979   1.503   6.293 -0.8647 -0.3627  0.3008
 1294SOL    HW115341   1.000   1.525   6.384 -0.5859  0.0369  0.1425
 1294SOL    HW215342   0.915   1.573   6.282  2.9525  3.4387  2.2899
 1295SOL     OW15343   0.859   2.849   2.176 -0.0853 -0.0549 -0.0783
 1295SOL    HW115344   0.802   2.908   2.227 -0.3470 -0.8101  0.5080
 1295SOL    HW215345   0.851   2.887   2.089 -0.2549 -0.7038 -0.3446
 1296SOL     OW15346   0.409   1.622   2.364  0.9119  0.1400  0.4825
 1296SOL    HW115347   0.457   1.702   2.342  1.2834 -0.3685 -0.5417
 1296SOL    HW215348   0.349   1.611   2.290 -1.6476 -0.3815  2.6255
 1297SOL     OW15349   1.391   4.023   3.939 -0.1457 -0.4349  0.2685
 1297SOL    HW115350   1.459   3.986   3.996  1.5201  2.7023  0.3195
 1297SOL    HW215351   1.332   4.053   4.008 -0.0382 -0.5991  0.4346
 1298SOL     OW15352   3.023   2.479   0.443 -0.2395  0.5461  0.0089
 1298SOL    HW115353   3.090   2.422   0.405  1.9967  1.0543  3.0934
 1298SOL    HW215354   3.051   2.499   0.533  0.0814  2.0290 -0.4190
 1299SOL     OW15355   0.422   1.385  13.060  0.1327 -0.1371  0.1611
 1299SOL    HW115356   0.514   1.411  13.058 -0.5774  2.4436  1.7518
 1299SOL    HW215357   0.438   1.311  13.117  0.5651 -0.7136 -0.7107
 1300SOL     OW15358   3.110   2.961   5.093 -0.4142  0.4338  0.5284
 1300SOL    HW115359   3.142   2.871   5.100 -0.7511 -0.1553 -4.9609
 1300SOL    HW215360   3.059   2.961   5.012  1.4396  2.8693 -0.6466
 1301SOL     OW15361   3.826   1.176  10.613  0.1837  0.0260  0.0589
 1301SOL    HW115362   3.872   1.152  10.533 -0.8870 -1.4033 -0.1134
 1301SOL    HW215363   3.789   1.262  10.592 -1.6672 -0.0584  2.9509
 1302SOL     OW15364   4.326   1.170  10.458 -0.3046 -0.1350 -0.3796
 1302SOL    HW115365   4.293   1.193  10.545  0.1369  1.8068 -0.7113
 1302SOL    HW215366   4.302   1.078  10.449  1.3390 -0.6892  0.8467
 1303SOL     OW15367   4.307   4.086   0.728  0.5990 -0.4927  0.0468
 1303SOL    HW115368   4.287   4.016   0.789 -1.1310 -0.8811 -0.9605
 1303SOL    HW215369   4.376   4.040   0.680  1.1481 -1.0099  1.3469
 1304SOL     OW15370   1.525   1.508  11.495  0.0611 -0.7381 -0.3366
 1304SOL    HW115371   1.515   1.481  11.404 -3.3087  0.4961 -0.3386
 1304SOL    HW215372   1.606   1.465  11.522  1.4576  1.2400 -1.3992
 1305SOL     OW15373   3.899   3.208   0.217  0.0687  0.2133 -0.0776
 1305SOL    HW115374   3.867   3.161   0.140 -0.5580 -0.1640  0.4133
 1305SOL    HW215375   3.946   3.281   0.177 -3.6103  0.8167 -3.2572
 1306SOL     OW15376   4.150   4.695  10.361  0.1997  0.8106  0.1853
 1306SOL    HW115377   4.087   0.043  10.380  0.3658  0.9205  0.3451
 1306SOL    HW215378   4.144   4.653  10.447 -0.2523 -0.0793 -0.2948
 1307SOL     OW15379   1.349   1.242   2.772  0.0787  0.2732  0.0042
 1307SOL    HW115380   1.379   1.318   2.822 -1.3495  0.5144  0.4804
 1307SOL    HW215381   1.277   1.287   2.728  1.3519  0.3850 -1.9533
 1308SOL     OW15382   0.453   4.599   9.925  0.8143  0.3676  0.0207
 1308SOL    HW115383   0.471   4.584   9.832  0.2097  2.8597 -0.4889
 1308SOL    HW215384   0.529   4.553   9.960  0.8901 -1.0091 -1.9645
 1309SOL     OW15385   3.359   4.566   6.354 -0.5312  0.0831 -0.3166
 1309SOL    HW115386   3.418   4.505   6.310 -2.7492 -1.0625 -1.7421
 1309SOL    HW215387   3.394   4.580   6.442  4.0470  0.2866 -2.2106
 1310SOL     OW15388   3.318   0.377   5.058 -0.1894 -0.7905 -0.5662
 1310SOL    HW115389   3.345   0.299   5.105 -0.7911  1.5026  3.5527
 1310SOL    HW215390   3.337   0.449   5.118  0.0484 -0.2367 -1.3084
 1311SOL     OW15391   2.774   1.538   5.878  0.0304  0.0157 -0.1795
 1311SOL    HW115392   2.793   1.557   5.970 -0.7988 -0.0000 -0.0021
 1311SOL    HW215393   2.683   1.509   5.884 -0.2331  0.3784 -2.8083
 1312SOL     OW15394   3.551   3.871   6.754 -0.4667  0.2148 -0.1122
 1312SOL    HW115395   3.619   3.928   6.717  1.3300 -0.8864  1.5061
 1312SOL    HW215396   3.581   3.857   6.844  0.0877  1.9243 -0.0292
 1313SOL     OW15397   3.561   2.921   3.857 -0.0410  0.3121  0.1601
 1313SOL    HW115398   3.499   2.949   3.925  0.1575  0.0486  0.4454
 1313SOL    HW215399   3.637   2.947   3.908  0.3393  0.9569 -0.7253
 1314SOL     OW15400   0.629   3.961   0.680  0.0552 -0.3393 -0.5599
 1314SOL    HW115401   0.591   4.021   0.744  2.5519  1.0646 -0.4168
 1314SOL    HW215402   0.639   3.880   0.731  0.6788  0.9127  1.3196
 1315SOL     OW15403   1.857   3.392  12.575 -0.4375 -0.1267  0.8895
 1315SOL    HW115404   1.911   3.315  12.557  0.4471  0.2391  1.9532
 1315SOL    HW215405   1.792   3.359  12.637 -1.7571  0.4765 -0.1720
 1316SOL     OW15406   3.240   4.255  15.908 -0.3771 -0.4121 -0.6091
 1316SOL    HW115407   3.249   4.349  15.898 -0.6344 -0.3803 -0.5535
 1316SOL    HW215408   3.151   4.251  15.944 -0.2894 -2.3797 -0.6239
 1317SOL     OW15409   3.189   4.016   8.330  0.3733 -0.0738  0.3548
 1317SOL    HW115410   3.259   4.021   8.396  0.3727  0.1794  0.3371
 1317SOL    HW215411   3.248   4.050   8.263 -0.2440  0.5084  0.1042
 1318SOL     OW15412   0.266   0.869   7.918  0.0805  0.3864  0.1341
 1318SOL    HW115413   0.333   0.802   7.933  0.9615  1.2349  0.0181
 1318SOL    HW215414   0.199   0.809   7.887  0.1607  0.1723  0.3704
 1319SOL     OW15415   3.565   1.028   6.976  0.4283 -0.2212 -0.3418
 1319SOL    HW115416   3.483   1.075   6.986  0.0444 -1.2605  1.2959
 1319SOL    HW215417   3.589   1.024   6.883 -0.3668 -1.0710 -0.5085
 1320SOL     OW15418   3.195   3.778  12.599  0.5991  0.3549 -0.3721
 1320SOL    HW115419   3.116   3.726  12.608  0.3503  1.0854  1.6400
 1320SOL    HW215420   3.262   3.715  12.624 -0.2839 -0.0915  0.8405
 1321SOL     OW15421   0.066   1.869   9.122  0.0560  0.0294 -0.1800
 1321SOL    HW115422   0.145   1.817   9.137  0.6306  0.5701 -1.3576
 1321SOL    HW215423   0.015   1.800   9.079 -1.7275  1.1340  0.1648
 1322SOL     OW15424   3.654   0.035   8.110 -0.1819 -0.1199 -0.2845
 1322SOL    HW115425   3.729   0.064   8.163 -0.4182 -0.8804  0.4747
 1322SOL    HW215426   3.580   0.091   8.132  0.8443  0.9632  0.3645
 1323SOL     OW15427   3.507   2.243   9.477 -0.2464  0.1094 -0.3148
 1323SOL    HW115428   3.580   2.184   9.497  1.3196  1.8383 -0.9762
 1323SOL    HW215429   3.484   2.273   9.565  0.7203 -0.0562 -0.0055
 1324SOL     OW15430   2.307   2.950  11.853  0.2833 -0.6502 -0.4691
 1324SOL    HW115431   2.323   2.898  11.774  1.7124  0.3092 -0.8102
 1324SOL    HW215432   2.400   2.958  11.873 -0.6486  2.2706  2.7131
 1325SOL     OW15433   4.512   2.036   5.332  0.0674  0.5039  0.6123
 1325SOL    HW115434   4.510   1.954   5.381 -1.8727 -0.7030 -1.4954
 1325SOL    HW215435   4.419   2.058   5.324 -0.9707 -4.4344 -0.5115
 1326SOL     OW15436   2.502   4.442   0.628  0.0739  0.1531  0.4204
 1326SOL    HW115437   2.584   4.490   0.637  0.4846 -0.5687  0.5508
 1326SOL    HW215438   2.476   4.452   0.720  0.8038  1.7202  0.4448
 1327SOL     OW15439   3.383   2.861   2.742 -0.0414  0.1984 -0.1984
 1327SOL    HW115440   3.464   2.860   2.792 -0.5670  2.5923  0.7273
 1327SOL    HW215441   3.360   2.768   2.741 -3.7111  1.0927  0.5479
 1328SOL     OW15442   0.867   3.538   9.974 -0.0106  0.9079  0.5058
 1328SOL    HW115443   0.867   3.458   9.922  2.0933  1.7851 -0.8386
 1328SOL    HW215444   0.935   3.519  10.039 -0.9487  0.5121  1.3873
 1329SOL     OW15445   2.829   2.423   2.016  0.3840 -0.9704 -0.4730
 1329SOL    HW115446   2.834   2.486   2.089 -0.3049 -0.3368 -0.9664
 1329SOL    HW215447   2.875   2.359   2.070  2.9975  0.9796 -0.4150
 1330SOL     OW15448   0.019   0.738   5.089 -0.5283 -0.3320  0.1781
 1330SOL    HW115449   0.080   0.768   5.157 -1.1829  1.6907 -0.1442
 1330SOL    HW215450   0.039   0.805   5.024  0.7975 -1.5033 -0.6215
 1331SOL     OW15451   4.053   0.268   8.574 -0.0969  0.2521 -0.0315
 1331SOL    HW115452   4.111   0.304   8.507  0.1325  2.0736  1.1341
 1331SOL    HW215453   4.109   0.206   8.621 -1.8620 -2.3322 -1.3230
 1332SOL     OW15454   4.501   0.048   3.332  0.2315  0.3518 -0.8223
 1332SOL    HW115455   4.586   0.007   3.350  0.1496  0.4240 -0.2822
 1332SOL    HW215456   4.439   4.704   3.361  2.9183 -2.8796 -2.3706
 1333SOL     OW15457   1.329   2.414   9.759 -0.4321 -0.4039 -0.6725
 1333SOL    HW115458   1.258   2.476   9.740  1.2644  1.1017 -2.1833
 1333SOL    HW215459   1.340   2.363   9.679 -0.8980 -1.1987 -0.2270
 1334SOL     OW15460   0.074   0.804  16.449 -0.0758 -0.2978  0.2819
 1334SOL    HW115461   0.166   0.823  16.432  0.1650 -0.9629  0.8464
 1334SOL    HW215462   0.065   0.709  16.443  0.6914 -0.3065 -0.6101
 1335SOL     OW15463   1.204   1.974  14.490 -0.1987 -0.4486  0.3978
 1335SOL    HW115464   1.109   1.981  14.479 -0.3032 -3.2372 -0.5466
 1335SOL    HW215465   1.218   1.884  14.462 -0.2389 -0.9174  1.8575
 1336SOL     OW15466   1.027   1.300   1.325 -0.3526  0.0657  0.0227
 1336SOL    HW115467   1.051   1.247   1.401  2.0957  2.1176  0.6962
 1336SOL    HW215468   1.077   1.263   1.253  2.8375  1.0270  1.7103
 1337SOL     OW15469   4.325   2.903   2.820  0.0015  0.3828  0.6661
 1337SOL    HW115470   4.405   2.925   2.868  0.9047 -2.4883  0.4347
 1337SOL    HW215471   4.344   2.812   2.797 -2.0871  0.2475 -0.5081
 1338SOL     OW15472   2.234   0.561   3.420  0.3230  0.0241  0.1861
 1338SOL    HW115473   2.220   0.558   3.325 -1.9412  1.3431  0.4811
 1338SOL    HW215474   2.211   0.473   3.450  1.2101 -0.2286  0.1328
 1339SOL     OW15475   1.440   2.573  13.983  0.3195  0.1814 -0.2810
 1339SOL    HW115476   1.431   2.512  13.910  0.1403  0.0637 -0.1624
 1339SOL    HW215477   1.528   2.605  13.964  0.3799 -0.2995 -0.7967
 1340SOL     OW15478   4.051   2.047   3.563  0.3780  0.7867  0.1086
 1340SOL    HW115479   3.996   2.099   3.621  0.6767  0.0142  1.0993
 1340SOL    HW215480   3.991   1.987   3.519  1.3341 -1.9744  2.5280
 1341SOL     OW15481   1.461   4.389   1.413  0.0104 -0.2796  0.2961
 1341SOL    HW115482   1.463   4.411   1.506 -2.7001 -0.1060  0.3047
 1341SOL    HW215483   1.439   4.296   1.416  1.1065 -0.6583 -3.7753
 1342SOL     OW15484   0.821   0.613   2.357 -0.4747 -0.0653 -1.0968
 1342SOL    HW115485   0.730   0.589   2.370  0.6571 -2.1479  2.7209
 1342SOL    HW215486   0.823   0.707   2.374 -2.9269 -0.1890 -0.1996
 1343SOL     OW15487   1.679   0.797   4.059 -0.1011  0.3550 -0.5005
 1343SOL    HW115488   1.639   0.884   4.050 -1.6606 -0.1810  1.1939
 1343SOL    HW215489   1.715   0.807   4.147 -2.4266  0.3214  0.4455
 1344SOL     OW15490   4.400   3.681  16.132 -0.0302  0.6539  0.8391
 1344SOL    HW115491   4.456   3.740  16.182 -0.0486  1.4756 -0.1093
 1344SOL    HW215492   4.312   3.714  16.149  0.0035  0.9065  0.5353
 1345SOL     OW15493   3.548   2.302  13.134 -0.1778 -0.2506  0.2242
 1345SOL    HW115494   3.488   2.367  13.171 -1.1299  0.0805 -1.9328
 1345SOL    HW215495   3.593   2.359  13.072 -2.4871  1.2506 -0.0893
 1346SOL     OW15496   4.541   1.639   7.249  0.0849  0.3338  0.1755
 1346SOL    HW115497   4.461   1.681   7.280 -0.4676 -0.0417 -0.7426
 1346SOL    HW215498   4.535   1.661   7.157 -4.5016 -2.8812 -0.3118
 1347SOL     OW15499   2.614   1.711  16.988 -1.3438 -0.6277  1.0590
 1347SOL    HW115500   2.544   1.648  17.001 -2.0825 -0.3957 -1.6888
 1347SOL    HW215501   2.658   1.659  16.920 -2.2083 -0.3241  0.2560
 1348SOL     OW15502   1.317   2.550   4.327  0.0480 -0.0362  0.1455
 1348SOL    HW115503   1.382   2.514   4.267  0.7275  2.6524 -0.7260
 1348SOL    HW215504   1.377   2.565   4.399 -1.2490 -0.3174  1.2802
 1349SOL     OW15505   2.574   0.248   3.843 -0.8331 -0.6001  0.7278
 1349SOL    HW115506   2.634   0.311   3.802  0.2706 -2.1348  0.0249
 1349SOL    HW215507   2.565   0.280   3.933 -1.5644 -0.6699  0.6788
 1350SOL     OW15508   4.691   3.398   8.424 -0.2435  0.1570 -0.8190
 1350SOL    HW115509   4.720   3.320   8.378 -0.6578  0.8325 -2.2063
 1350SOL    HW215510   0.042   3.459   8.411 -0.0524  0.2490  0.6384
 1351SOL     OW15511   2.573   0.594  10.310  0.0631 -0.4651 -0.2570
 1351SOL    HW115512   2.644   0.658  10.319 -0.9306  0.5539  0.3623
 1351SOL    HW215513   2.508   0.642  10.360 -1.1413  0.8457 -3.0476
 1352SOL     OW15514   0.509   3.155  13.104  0.1996  0.5789  0.0947
 1352SOL    HW115515   0.510   3.223  13.036  0.3667 -0.5763 -1.0695
 1352SOL    HW215516   0.476   3.081  13.052  0.2592 -0.9316  2.2374
 1353SOL     OW15517   0.462   3.983   1.904  0.4044  0.1001  0.4191
 1353SOL    HW115518   0.507   3.982   1.819 -0.6185 -1.6536 -0.0933
 1353SOL    HW215519   0.378   4.025   1.888  1.5745  1.7478 -1.4452
 1354SOL     OW15520   1.900   3.406   9.463 -0.2105 -0.4298  0.1528
 1354SOL    HW115521   1.921   3.328   9.411 -0.3419  0.4620 -1.2297
 1354SOL    HW215522   1.925   3.483   9.411 -0.0979  0.8610  2.1242
 1355SOL     OW15523   3.329   1.254   5.585  0.0938 -0.3885 -0.2165
 1355SOL    HW115524   3.386   1.199   5.532  1.3359  0.5489  0.1280
 1355SOL    HW215525   3.323   1.334   5.533 -0.8099  0.3644  1.0351
 1356SOL     OW15526   3.826   2.753   4.028  0.6069  0.0850  0.0926
 1356SOL    HW115527   3.909   2.799   4.043 -0.3914  1.6087  0.9724
 1356SOL    HW215528   3.795   2.746   4.118 -2.0620  4.2835 -0.5069
 1357SOL     OW15529   1.367   1.200   8.546  0.1724 -0.0440 -0.0175
 1357SOL    HW115530   1.288   1.252   8.532  0.1460  0.0494  0.5138
 1357SOL    HW215531   1.361   1.161   8.459  0.5567 -2.1155  0.8974
 1358SOL     OW15532   1.755   2.830   9.829  0.1003 -0.3696  0.0275
 1358SOL    HW115533   1.800   2.746   9.840  2.5175  1.2429  2.5520
 1358SOL    HW215534   1.734   2.840   9.922  2.1120 -0.9667  0.5397
 1359SOL     OW15535   1.002   4.470  12.376  0.3481  0.4360  0.6561
 1359SOL    HW115536   0.965   4.511  12.298 -2.9182 -3.8373 -0.0192
 1359SOL    HW215537   1.001   4.537  12.445 -0.0267 -2.0368  3.0453
 1360SOL     OW15538   0.882   3.938  15.839  0.0549 -0.5652  0.1060
 1360SOL    HW115539   0.883   3.854  15.885 -0.7027 -1.4083 -1.4195
 1360SOL    HW215540   0.973   3.952  15.812  0.1490 -2.0433 -0.3459
 1361SOL     OW15541   1.255   1.631   8.642 -0.2744  0.3636 -0.1242
 1361SOL    HW115542   1.166   1.618   8.676  0.2763  1.2969  1.6710
 1361SOL    HW215543   1.305   1.593   8.715  0.4660  0.1208 -0.7582
 1362SOL     OW15544   1.369   2.239   8.102 -0.3807  0.0880 -0.4768
 1362SOL    HW115545   1.440   2.291   8.141  0.0215 -0.8286  0.0171
 1362SOL    HW215546   1.403   2.230   8.013 -1.4548 -0.8993 -0.7875
 1363SOL     OW15547   2.843   4.405   0.380 -0.9402  1.0716 -0.0218
 1363SOL    HW115548   2.798   4.331   0.339 -0.6267  0.2117  1.1920
 1363SOL    HW215549   2.917   4.363   0.423  0.9752  0.9267 -3.4775
 1364SOL     OW15550   2.268   3.009  11.553 -0.3480 -0.0085 -0.0464
 1364SOL    HW115551   2.280   3.067  11.478  1.2075  1.0027  0.9738
 1364SOL    HW215552   2.325   2.935  11.533  1.1446  0.6977  1.6173
 1365SOL     OW15553   2.032   4.617   3.433 -0.2858  0.0851  0.2373
 1365SOL    HW115554   1.952   4.578   3.467 -0.7532 -0.2244 -1.2202
 1365SOL    HW215555   2.091   4.542   3.427 -2.1961 -1.2655 -1.5180
 1366SOL     OW15556   0.406   1.390   8.077  0.3149  0.5517 -0.4084
 1366SOL    HW115557   0.391   1.343   7.996  0.3366  1.4421 -0.9272
 1366SOL    HW215558   0.481   1.342   8.111  0.5470  1.8821  0.9896
 1367SOL     OW15559   3.285   3.036   6.649 -0.1997  0.0489 -0.0489
 1367SOL    HW115560   3.251   3.124   6.665  0.1104  0.5516 -2.1498
 1367SOL    HW215561   3.229   3.012   6.576  1.9437 -0.6098 -1.4767
 1368SOL     OW15562   3.126   0.254  14.228  0.7548 -0.3295  0.0281
 1368SOL    HW115563   3.153   0.306  14.303 -1.0111 -2.3358  2.0730
 1368SOL    HW215564   3.206   0.252  14.176  0.5276  0.2555 -0.3417
 1369SOL     OW15565   3.450   2.977  14.173 -0.3163 -0.3376  0.4394
 1369SOL    HW115566   3.465   3.061  14.131  1.2036 -1.2660 -0.8629
 1369SOL    HW215567   3.466   2.915  14.102  0.8707  0.0160  0.4068
 1370SOL     OW15568   2.843   4.270   2.360  0.4245 -0.5337  0.0555
 1370SOL    HW115569   2.903   4.248   2.289  2.3613  1.0945  1.2028
 1370SOL    HW215570   2.764   4.235   2.317  0.0636 -0.7932  0.9283
 1371SOL     OW15571   0.672   0.721  12.335 -0.5669 -0.2940 -0.3174
 1371SOL    HW115572   0.625   0.797  12.302  1.8359  1.3326  0.0502
 1371SOL    HW215573   0.653   0.716  12.429  2.1095 -2.7891  0.0928
 1372SOL     OW15574   3.207   2.625   3.726  0.2449  0.3390 -0.3836
 1372SOL    HW115575   3.241   2.604   3.813 -1.3994 -0.5164  0.0452
 1372SOL    HW215576   3.153   2.704   3.730 -2.6305 -1.7564  2.2078
 1373SOL     OW15577   4.340   3.605   4.937 -0.1527 -0.2427 -0.0406
 1373SOL    HW115578   4.385   3.677   4.894  0.3556 -0.8159 -0.4821
 1373SOL    HW215579   4.400   3.535   4.909 -0.8555 -1.6460  1.9325
 1374SOL     OW15580   1.187   1.999   3.105  0.7293  0.3818 -0.5432
 1374SOL    HW115581   1.118   1.935   3.125  1.9228 -0.4751  0.8293
 1374SOL    HW215582   1.147   2.085   3.120  1.9110  0.9055 -0.4477
 1375SOL     OW15583   3.144   3.312   6.748 -0.3251  0.1668 -0.0220
 1375SOL    HW115584   3.112   3.319   6.658  1.5910 -0.0812 -0.7330
 1375SOL    HW215585   3.200   3.391   6.751  1.6322 -1.1358 -1.6749
 1376SOL     OW15586   3.187   4.110   1.418  0.2855 -0.1829  0.0313
 1376SOL    HW115587   3.137   4.074   1.344 -3.0796 -0.1270  2.2804
 1376SOL    HW215588   3.259   4.048   1.430 -0.0775 -0.4476  0.8348
 1377SOL     OW15589   1.938   3.041  11.020 -0.5863  0.0066  0.1269
 1377SOL    HW115590   1.977   3.123  11.049  1.0414 -0.3051 -1.1630
 1377SOL    HW215591   2.001   3.004  10.958 -0.6582 -2.1054  1.3155
 1378SOL     OW15592   0.476   2.833   2.096  0.2901 -0.2218  0.3080
 1378SOL    HW115593   0.415   2.788   2.155 -0.9336 -0.7012 -1.3212
 1378SOL    HW215594   0.475   2.773   2.021  2.5970  1.6329 -1.1886
 1379SOL     OW15595   2.408   1.734   2.121 -0.3338  0.1532  0.2331
 1379SOL    HW115596   2.454   1.723   2.038  0.0981  0.7023  0.4062
 1379SOL    HW215597   2.323   1.690   2.109 -0.2803  0.1357 -0.0603
 1380SOL     OW15598   4.472   2.966  17.219  0.0194 -0.1781 -0.0540
 1380SOL    HW115599   4.547   2.919  17.181  0.7915 -0.0288  1.3058
 1380SOL    HW215600   4.425   2.984  17.137  0.4482 -1.0349 -0.4923
 1381SOL     OW15601   1.031   2.027   4.449  0.0089 -0.0406 -0.2996
 1381SOL    HW115602   1.120   2.046   4.478  0.1415 -1.3898  0.1626
 1381SOL    HW215603   0.993   2.002   4.533  1.4850  2.7452  1.1964
 1382SOL     OW15604   3.803   2.759   8.632  0.2872 -0.3919  0.1898
 1382SOL    HW115605   3.733   2.716   8.583 -0.1257  0.2661  0.1926
 1382SOL    HW215606   3.751   2.805   8.699 -0.6650  0.5591 -1.1998
 1383SOL     OW15607   1.639   2.608  14.818  0.3142 -0.3858  0.3416
 1383SOL    HW115608   1.607   2.565  14.739 -1.3831 -1.3109  1.5158
 1383SOL    HW215609   1.733   2.600  14.803  0.1703  1.0908 -1.2828
 1384SOL     OW15610   4.632   3.474   0.821 -0.3135 -0.1621 -0.8116
 1384SOL    HW115611   4.709   3.430   0.787  1.5377  1.7427  0.9363
 1384SOL    HW215612   4.566   3.418   0.779 -1.2651  0.1789  0.2366
 1385SOL     OW15613   0.756   4.476   6.115 -0.2572 -0.1093  0.0625
 1385SOL    HW115614   0.833   4.430   6.081  0.9796  1.5458  0.6595
 1385SOL    HW215615   0.730   4.417   6.186 -1.5269 -0.7486 -0.9288
 1386SOL     OW15616   3.875   2.922  11.481 -0.1106 -0.0145 -0.7603
 1386SOL    HW115617   3.921   2.944  11.562 -1.6169  1.1679 -0.2222
 1386SOL    HW215618   3.917   2.843  11.448  0.7055  0.3276 -0.5393
 1387SOL     OW15619   0.800   4.570  17.469  0.0473 -0.5824  0.9525
 1387SOL    HW115620   0.799   4.613  17.383 -0.6639 -2.0839  0.2076
 1387SOL    HW215621   0.744   4.633  17.515 -1.9889 -0.0659 -2.1781
 1388SOL     OW15622   4.492   3.356  11.211  0.3054  0.0924  0.5788
 1388SOL    HW115623   4.499   3.446  11.179  0.5782 -0.7704 -1.8260
 1388SOL    HW215624   4.398   3.338  11.219  0.1488  0.2663 -0.8097
 1389SOL     OW15625   4.449   2.267  12.647 -0.4704 -0.4634  0.6513
 1389SOL    HW115626   4.388   2.240  12.578  1.3448  0.6113 -1.3633
 1389SOL    HW215627   4.384   2.322  12.690 -0.3455  0.1574  0.0476
 1390SOL     OW15628   0.662   1.936  13.482 -0.3035  0.2132 -0.4490
 1390SOL    HW115629   0.600   1.928  13.409  0.6713 -1.2099 -1.1255
 1390SOL    HW215630   0.618   1.884  13.549  1.3713 -1.8541 -0.9544
 1391SOL     OW15631   0.362   0.534   0.520  0.8203 -0.4174 -0.2626
 1391SOL    HW115632   0.304   0.598   0.561 -0.7265 -1.9934  0.0296
 1391SOL    HW215633   0.443   0.537   0.570 -0.6636 -0.6546  2.1446
 1392SOL     OW15634   3.075   0.450   2.218  0.3600 -0.3247 -0.2653
 1392SOL    HW115635   2.995   0.413   2.256  0.2906  1.1795  1.0522
 1392SOL    HW215636   3.054   0.453   2.125  0.6804 -0.5795 -0.3482
 1393SOL     OW15637   4.035   4.175   4.545  0.0269  0.0710 -0.4311
 1393SOL    HW115638   4.098   4.104   4.555  1.9317  1.6081 -1.4600
 1393SOL    HW215639   3.974   4.154   4.616 -1.1460  1.4734 -1.0159
 1394SOL     OW15640   1.308   4.264  15.744 -0.4049 -0.0773  0.1054
 1394SOL    HW115641   1.370   4.233  15.677 -0.6842 -1.9119  0.6891
 1394SOL    HW215642   1.363   4.326  15.791 -0.2378 -0.3474  0.2678
 1395SOL     OW15643   3.689   4.701   4.782  0.1679  0.3231 -0.3221
 1395SOL    HW115644   3.619   4.697   4.847  1.1005 -1.2905  0.5747
 1395SOL    HW215645   3.770   0.009   4.823  2.2185 -2.6106 -2.2552
 1396SOL     OW15646   2.288   2.344   5.349 -0.0458 -0.0362  0.1304
 1396SOL    HW115647   2.356   2.277   5.344  0.3443  0.3558  0.0777
 1396SOL    HW215648   2.340   2.425   5.352  0.2362 -0.1710 -0.9909
 1397SOL     OW15649   1.808   1.710   3.642  0.0199  0.2190  0.2051
 1397SOL    HW115650   1.723   1.703   3.598  1.5245  0.1940 -2.7061
 1397SOL    HW215651   1.843   1.781   3.589 -2.5887  0.8420 -0.6674
 1398SOL     OW15652   0.005   3.773   5.521  0.4118 -0.2076  0.1746
 1398SOL    HW115653   0.009   3.723   5.602  5.1252 -2.4661 -1.4519
 1398SOL    HW215654   4.634   3.766   5.497 -0.2831  1.0553  2.4333
 1399SOL     OW15655   1.108   4.543   3.682  0.1854  0.8095 -0.1255
 1399SOL    HW115656   1.164   4.559   3.607 -1.7711 -2.2680 -2.2636
 1399SOL    HW215657   1.171   4.516   3.748  0.8502  0.0291 -1.0834
 1400SOL     OW15658   2.144   3.483   5.415 -0.0925  0.6574 -0.2514
 1400SOL    HW115659   2.230   3.441   5.415 -0.6439 -0.5028  0.9857
 1400SOL    HW215660   2.099   3.448   5.492 -0.2841  0.4866 -0.4385
 1401SOL     OW15661   2.770   1.697   3.294  0.4419 -0.0967  0.0914
 1401SOL    HW115662   2.778   1.732   3.205  1.9981  2.0347  1.0853
 1401SOL    HW215663   2.748   1.604   3.285 -2.2368  0.5075  0.4227
 1402SOL     OW15664   3.645   4.036   6.178 -0.1461 -0.0451 -0.4397
 1402SOL    HW115665   3.716   4.087   6.218 -1.4005 -0.5563  2.4531
 1402SOL    HW215666   3.579   4.105   6.174  0.1926  0.3604  0.7250
 1403SOL     OW15667   2.554   2.549   4.617 -0.6213  0.8879  0.2940
 1403SOL    HW115668   2.488   2.598   4.568 -1.3717  0.3135  0.7191
 1403SOL    HW215669   2.563   2.464   4.574 -0.2771  2.2701 -2.3374
 1404SOL     OW15670   1.875   2.266   8.854 -0.1065 -0.1571  0.0646
 1404SOL    HW115671   1.935   2.314   8.796  0.5911 -1.6808 -0.4700
 1404SOL    HW215672   1.828   2.213   8.790 -1.3511  0.6328  0.3238
 1405SOL     OW15673   4.307   2.776   5.457 -0.7920  0.3592  0.1914
 1405SOL    HW115674   4.278   2.867   5.465 -0.4331  0.4226  0.7509
 1405SOL    HW215675   4.323   2.774   5.363  1.1225 -3.2003  0.5671
 1406SOL     OW15676   3.877   1.814  15.279  0.1203  0.2008  0.6518
 1406SOL    HW115677   3.787   1.846  15.287  0.0865 -0.2228  1.8882
 1406SOL    HW215678   3.917   1.870  15.212 -0.7710  1.6182  1.2937
 1407SOL     OW15679   2.597   2.086   4.837 -0.1900 -0.3464 -0.3352
 1407SOL    HW115680   2.652   2.122   4.907  2.8864 -0.2479 -2.8302
 1407SOL    HW215681   2.524   2.051   4.889 -0.0542 -3.6792 -2.3816
 1408SOL     OW15682   0.436   1.737   7.631  0.4456 -0.4211 -0.2876
 1408SOL    HW115683   0.365   1.797   7.653  0.5538 -0.5093  0.2855
 1408SOL    HW215684   0.493   1.736   7.707  0.2924 -2.8012 -0.2088
 1409SOL     OW15685   3.231   1.735   1.015 -0.9614  0.5461  0.4888
 1409SOL    HW115686   3.147   1.757   1.055 -1.3482 -0.7929  0.4238
 1409SOL    HW215687   3.214   1.647   0.979 -0.2467  0.6835 -0.1738
 1410SOL     OW15688   2.522   3.246   0.638 -0.1205  0.2827  0.4970
 1410SOL    HW115689   2.580   3.183   0.596 -0.3220  0.9994 -0.8395
 1410SOL    HW215690   2.553   3.322   0.590 -1.5222  0.5181 -0.0296
 1411SOL     OW15691   0.399   1.525   2.077 -0.0105 -0.7933 -0.1725
 1411SOL    HW115692   0.335   1.461   2.047 -1.4652 -1.3168  3.9424
 1411SOL    HW215693   0.469   1.460   2.080 -1.8968 -2.8518 -1.0237
 1412SOL     OW15694   3.731   4.481   3.559 -0.4638 -0.2287  0.2000
 1412SOL    HW115695   3.695   4.480   3.647 -1.5211  0.9937 -0.2253
 1412SOL    HW215696   3.714   4.571   3.534 -1.2884 -0.7345 -1.0717
 1413SOL     OW15697   2.197   2.393   7.385  0.0595 -0.3819  0.3527
 1413SOL    HW115698   2.214   2.444   7.465 -0.4380 -0.7149  0.6716
 1413SOL    HW215699   2.101   2.401   7.381  0.0126 -1.1971 -0.0783
 1414SOL     OW15700   1.455   1.421   3.837 -0.3839  0.3346  0.1724
 1414SOL    HW115701   1.466   1.493   3.776  1.4279 -0.4781 -0.4769
 1414SOL    HW215702   1.381   1.443   3.893 -1.6262  2.3250 -2.2814
 1415SOL     OW15703   4.535   3.571   4.528 -0.5435  0.7488 -0.2735
 1415SOL    HW115704   4.617   3.568   4.577 -1.0888  0.0089  0.6129
 1415SOL    HW215705   4.481   3.501   4.566  1.4662  1.1671  3.3547
 1416SOL     OW15706   2.390   2.197   0.429 -0.0178 -0.6265 -0.0006
 1416SOL    HW115707   2.438   2.120   0.458 -1.3313 -2.1425 -1.8992
 1416SOL    HW215708   2.377   2.194   0.334 -0.9646 -0.0821  0.1075
 1417SOL     OW15709   2.990   4.246  15.674 -0.1543 -0.2188 -0.0266
 1417SOL    HW115710   3.056   4.178  15.660  1.2395  1.0595  0.4042
 1417SOL    HW215711   3.021   4.292  15.751  0.9208  0.9129 -1.1390
 1418SOL     OW15712   0.335   0.047   9.011  0.4743 -0.5790  0.1655
 1418SOL    HW115713   0.319   4.677   8.988  4.8099 -1.1101 -0.6923
 1418SOL    HW215714   0.392   0.041   9.088 -0.3397  1.7501  0.9460
 1419SOL     OW15715   4.618   3.036  14.318 -0.0896 -0.1633  0.0775
 1419SOL    HW115716   4.610   2.963  14.380  2.9901 -0.3443  0.2731
 1419SOL    HW215717   4.606   3.108  14.380  1.1649 -0.2130  0.3692
 1420SOL     OW15718   1.558   2.083   3.429 -0.0674  0.2956 -0.4576
 1420SOL    HW115719   1.519   2.170   3.431  3.0172  1.7312 -2.0779
 1420SOL    HW215720   1.547   2.065   3.335 -0.3810  1.3054 -0.6111
 1421SOL     OW15721   1.708   4.301   2.839 -0.1230 -0.6053  0.3558
 1421SOL    HW115722   1.792   4.297   2.884 -1.6866  2.4847  3.5525
 1421SOL    HW215723   1.685   4.208   2.836 -4.0500  0.3722 -0.0469
 1422SOL     OW15724   0.763   0.734  10.501 -0.2732  0.1878  0.5430
 1422SOL    HW115725   0.678   0.774  10.482 -0.6777 -0.9050  0.0633
 1422SOL    HW215726   0.813   0.767  10.427  0.0946 -1.4080  0.0691
 1423SOL     OW15727   0.580   1.220   4.866 -0.3181  0.4817 -0.7220
 1423SOL    HW115728   0.652   1.235   4.926 -0.9451 -1.7184  0.5978
 1423SOL    HW215729   0.599   1.130   4.839 -2.1869 -0.7265  2.0288
 1424SOL     OW15730   4.670   3.450   7.630  0.0756 -0.3426  0.1813
 1424SOL    HW115731   4.686   3.356   7.638 -2.1808 -1.0506 -3.3738
 1424SOL    HW215732   4.692   3.484   7.717 -0.6890  0.6191  0.0076
 1425SOL     OW15733   3.156   1.067  15.444 -0.2217  0.1921  0.0676
 1425SOL    HW115734   3.196   1.076  15.358 -0.8901 -1.1820 -0.3978
 1425SOL    HW215735   3.136   1.157  15.469  0.0626  0.0783  0.7040
 1426SOL     OW15736   2.533   0.823   2.593 -0.3289 -0.4268  0.0740
 1426SOL    HW115737   2.530   0.882   2.669 -2.6638 -1.9240  1.1431
 1426SOL    HW215738   2.447   0.787   2.613 -1.1308  0.9664 -0.8839
 1427SOL     OW15739   1.989   4.036   0.767 -0.0627  0.1987  0.3569
 1427SOL    HW115740   2.025   4.091   0.836  1.6536  1.3582 -1.4444
 1427SOL    HW215741   1.900   4.031   0.802  0.0321 -0.7879  0.4620
 1428SOL     OW15742   2.020   2.598   3.418 -0.0041 -0.1598  0.0679
 1428SOL    HW115743   2.044   2.526   3.477  1.6617  0.5605  0.2412
 1428SOL    HW215744   2.047   2.673   3.471  3.3153 -0.3480 -1.3936
 1429SOL     OW15745   1.489   1.143  11.301  0.2760 -0.8805 -0.3777
 1429SOL    HW115746   1.505   1.235  11.281  0.3956 -0.8139  0.0348
 1429SOL    HW215747   1.422   1.144  11.369  1.7380 -0.2898  1.0221
 1430SOL     OW15748   2.495   1.552   8.809  0.4472 -0.4780 -0.6686
 1430SOL    HW115749   2.474   1.645   8.796 -0.8652 -0.4281  1.7654
 1430SOL    HW215750   2.416   1.510   8.774  0.1754  0.3254 -1.0189
 1431SOL     OW15751   3.342   2.291  11.139 -0.2163 -0.3205 -0.2734
 1431SOL    HW115752   3.272   2.226  11.144  0.1632 -0.7492 -0.5580
 1431SOL    HW215753   3.363   2.277  11.231 -2.3727  0.6879  0.3707
 1432SOL     OW15754   4.020   4.137   2.681 -0.0099 -0.4477  0.2784
 1432SOL    HW115755   3.948   4.161   2.624 -0.4889  0.8549  1.4385
 1432SOL    HW215756   4.009   4.208   2.745 -0.5037 -0.3640  0.0962
 1433SOL     OW15757   2.107   2.476  14.879 -0.0165 -0.3556  0.2220
 1433SOL    HW115758   2.129   2.541  14.813 -0.1160  1.0528  1.5930
 1433SOL    HW215759   2.131   2.527  14.956 -1.2357  1.6198 -0.7159
 1434SOL     OW15760   4.552   1.323   6.189  0.7810  0.3379 -0.6247
 1434SOL    HW115761   4.495   1.269   6.245  0.5438  1.5291  0.2843
 1434SOL    HW215762   4.643   1.299   6.208  0.4645 -0.4707 -0.0900
 1435SOL     OW15763   0.545   0.167   4.411  0.2539  0.4738  0.1592
 1435SOL    HW115764   0.582   0.079   4.408 -1.0870 -0.1652  1.9944
 1435SOL    HW215765   0.487   0.148   4.485  1.9027  1.6317  1.7294
 1436SOL     OW15766   1.026   0.201   0.315 -0.2112  0.0808  0.4478
 1436SOL    HW115767   1.033   0.146   0.237 -0.4111 -0.9761  1.1748
 1436SOL    HW215768   1.036   0.286   0.273 -2.3243  0.6072  1.0383
 1437SOL     OW15769   0.202   3.565   1.476  0.3832  0.4394 -0.2635
 1437SOL    HW115770   0.237   3.526   1.557 -1.2382  0.7970  0.6153
 1437SOL    HW215771   0.248   3.649   1.483 -0.3598  0.8842 -0.8021
 1438SOL     OW15772   4.333   4.157  10.671  0.3598  0.5462  0.3913
 1438SOL    HW115773   4.293   4.087  10.724 -1.2827  0.1693 -1.3451
 1438SOL    HW215774   4.320   4.238  10.719  0.1260  1.1360 -0.6647
 1439SOL     OW15775   0.843   0.384   1.637 -0.2019 -0.1119  0.5687
 1439SOL    HW115776   0.807   0.373   1.724  2.7171  0.8128  1.9016
 1439SOL    HW215777   0.768   0.352   1.586  1.0757  0.2171 -1.5478
 1440SOL     OW15778   2.259   2.917   5.770  0.1844  0.5774  0.0186
 1440SOL    HW115779   2.170   2.881   5.772 -0.4581  2.1768  0.2922
 1440SOL    HW215780   2.244   3.005   5.735  0.9493  0.2480 -1.1152
 1441SOL     OW15781   2.556   1.252  14.907  0.4557 -0.1167  0.1207
 1441SOL    HW115782   2.500   1.175  14.901 -0.1474  0.2848  0.7051
 1441SOL    HW215783   2.569   1.255  14.812 -0.8471 -0.5452 -0.0676
 1442SOL     OW15784   3.677   2.325  16.952 -0.1292  0.3001  0.2125
 1442SOL    HW115785   3.750   2.269  16.978  2.1626  2.7417 -0.9438
 1442SOL    HW215786   3.637   2.361  17.031  0.3772  2.0353 -0.3138
 1443SOL     OW15787   1.949   2.235   0.928  0.5213 -0.1624 -0.5932
 1443SOL    HW115788   1.963   2.234   0.833 -2.4918 -0.2594 -1.0383
 1443SOL    HW215789   1.872   2.292   0.938  1.1878  0.5568  0.3925
 1444SOL     OW15790   2.163   3.733   3.119  0.6470  0.0090 -0.1616
 1444SOL    HW115791   2.224   3.806   3.113 -0.2940  0.7624 -0.6716
 1444SOL    HW215792   2.204   3.683   3.189 -0.7352 -1.0700 -0.1274
 1445SOL     OW15793   3.795   4.448  13.963 -0.3061 -0.0520  0.6657
 1445SOL    HW115794   3.705   4.437  13.995 -0.2918 -1.5397  0.2235
 1445SOL    HW215795   3.851   4.392  14.015 -1.1129 -2.2511 -0.7968
 1446SOL     OW15796   3.704   3.422   1.064 -0.5490 -0.0535  0.9679
 1446SOL    HW115797   3.701   3.343   1.118 -1.4480 -0.4832  0.2706
 1446SOL    HW215798   3.778   3.473   1.097 -0.5196  0.6203 -0.1453
 1447SOL     OW15799   0.574   3.934  15.699  0.2350  0.4708  0.2833
 1447SOL    HW115800   0.572   3.970  15.787  1.0978  1.7905 -0.2386
 1447SOL    HW215801   0.667   3.931  15.678  0.2037  1.1804  0.0654
 1448SOL     OW15802   2.168   3.520  11.197 -0.3199  0.2902  0.1284
 1448SOL    HW115803   2.145   3.458  11.266  1.3099 -1.8681 -1.2614
 1448SOL    HW215804   2.262   3.506  11.193 -0.5102 -1.2243  1.1060
 1449SOL     OW15805   1.788   3.618   0.323 -1.0563 -0.0888 -0.5493
 1449SOL    HW115806   1.706   3.605   0.371 -0.1554  3.1297  1.8084
 1449SOL    HW215807   1.757   3.693   0.272  2.1607 -0.1202 -2.5291
 1450SOL     OW15808   4.134   3.341  17.492  0.1036  0.2720  0.2529
 1450SOL    HW115809   4.076   3.297  17.554  1.3656  1.7725  2.5379
 1450SOL    HW215810   4.177   3.273  17.441 -0.0337  0.9627 -0.7753
 1451SOL     OW15811   0.074   4.184  17.397  0.1239 -0.0693  0.1164
 1451SOL    HW115812   0.159   4.178  17.442  0.4831  0.6325 -0.4604
 1451SOL    HW215813   0.024   4.123  17.451 -0.0409  0.6026  0.7165
 1452SOL     OW15814   2.819   1.754   3.555 -0.5922  0.2211 -0.1636
 1452SOL    HW115815   2.808   1.745   3.460  1.9591  0.0644 -0.4514
 1452SOL    HW215816   2.901   1.706   3.563 -0.6966  0.1158  0.3059
 1453SOL     OW15817   0.306   1.402  10.165 -0.6711 -0.4092  0.1715
 1453SOL    HW115818   0.271   1.313  10.163 -2.6143  0.4131 -1.9915
 1453SOL    HW215819   0.397   1.390  10.192  0.0968  2.3580 -1.2007
 1454SOL     OW15820   4.273   0.999   2.477 -0.0318 -0.3976  0.6839
 1454SOL    HW115821   4.243   0.925   2.424 -1.5334 -0.0175  1.0061
 1454SOL    HW215822   4.191   1.016   2.523  0.8726  0.9218  1.8202
 1455SOL     OW15823   3.019   2.252   5.504 -0.4512 -0.2969  0.6301
 1455SOL    HW115824   2.945   2.284   5.453  1.1490  2.7595  0.2441
 1455SOL    HW215825   3.081   2.211   5.443 -2.2294  1.2062 -2.1717
 1456SOL     OW15826   1.174   4.552   5.880  0.1589 -0.3337  0.1332
 1456SOL    HW115827   1.243   4.538   5.944  0.2640  2.9244  0.7166
 1456SOL    HW215828   1.202   4.635   5.841 -2.1010  0.7901  0.8899
 1457SOL     OW15829   1.269   3.799  14.105  0.4337 -0.3041 -0.0273
 1457SOL    HW115830   1.272   3.812  14.200  1.5152 -3.1263  0.3259
 1457SOL    HW215831   1.364   3.802  14.089  0.4717 -0.2910  0.2027
 1458SOL     OW15832   4.195   1.469   8.186  0.2068 -0.0200  0.0402
 1458SOL    HW115833   4.232   1.495   8.270  0.2866 -2.6561  0.8239
 1458SOL    HW215834   4.250   1.391   8.182  0.0252 -0.2379  1.8506
 1459SOL     OW15835   1.063   1.574  11.465  0.0635  1.0921 -0.2852
 1459SOL    HW115836   1.154   1.603  11.463  0.6456 -0.9184 -3.6894
 1459SOL    HW215837   1.039   1.600  11.376 -0.4254 -0.0885 -0.4986
 1460SOL     OW15838   0.629   2.332   8.449 -0.3371 -0.1132  0.0918
 1460SOL    HW115839   0.655   2.344   8.358  1.8915 -1.9938  0.4907
 1460SOL    HW215840   0.564   2.401   8.459 -1.4228 -1.3896  2.0605
 1461SOL     OW15841   1.944   3.701   4.480 -0.5592  0.0514 -0.2161
 1461SOL    HW115842   1.859   3.685   4.438  0.9446 -2.0348 -2.4695
 1461SOL    HW215843   1.965   3.613   4.512 -0.4891 -0.4341 -1.5973
 1462SOL     OW15844   3.120   0.124   9.957  0.1517 -0.0496 -0.3529
 1462SOL    HW115845   3.131   0.170   9.874  0.7887 -0.8211 -0.6944
 1462SOL    HW215846   3.194   0.165  10.003  0.1746  0.8036 -1.1539
 1463SOL     OW15847   2.539   3.318  13.782  0.1949 -0.5399 -0.6247
 1463SOL    HW115848   2.573   3.289  13.698 -1.8023  0.3283 -1.7302
 1463SOL    HW215849   2.535   3.231  13.822 -1.1994 -0.1450  0.0960
 1464SOL     OW15850   3.360   3.761   3.456  0.5685  0.1841  0.3678
 1464SOL    HW115851   3.407   3.796   3.380  0.0510 -1.7373 -0.8419
 1464SOL    HW215852   3.380   3.828   3.521  0.7194 -0.8296  1.3851
 1465SOL     OW15853   2.439   4.163  12.491  0.2443 -0.0947 -0.2992
 1465SOL    HW115854   2.354   4.158  12.447  0.4357  1.4181 -0.8428
 1465SOL    HW215855   2.415   4.204  12.575  0.9279  2.1135 -1.1754
 1466SOL     OW15856   0.503   2.146   1.276 -0.5775 -0.1912 -0.5077
 1466SOL    HW115857   0.535   2.093   1.349  0.5828  0.2577 -0.6916
 1466SOL    HW215858   0.459   2.077   1.226 -1.6897 -0.5371  0.9534
 1467SOL     OW15859   2.197   3.381   6.928 -0.2114 -0.2602 -0.2494
 1467SOL    HW115860   2.179   3.408   7.018  1.4343  1.2378 -0.3608
 1467SOL    HW215861   2.137   3.309   6.909 -0.8340 -0.2650  1.7794
 1468SOL     OW15862   0.441   1.614  13.256  0.2838  0.8751  0.3114
 1468SOL    HW115863   0.349   1.637  13.268  0.2576  0.6861  0.4658
 1468SOL    HW215864   0.433   1.545  13.191  0.3645  1.8489 -0.7396
 1469SOL     OW15865   4.388   2.303   2.352 -0.5444 -0.3447 -0.3482
 1469SOL    HW115866   4.397   2.365   2.281 -1.1299 -2.1120 -1.9615
 1469SOL    HW215867   4.312   2.256   2.316 -1.1533 -1.4502  2.2792
 1470SOL     OW15868   1.782   0.372   6.308  0.3881 -0.2230  0.3084
 1470SOL    HW115869   1.840   0.341   6.239 -1.0224 -0.2981 -0.8425
 1470SOL    HW215870   1.707   0.401   6.256 -0.4806  1.4054  2.4405
 1471SOL     OW15871   2.786   1.035   8.015  0.5399 -0.4133 -0.1921
 1471SOL    HW115872   2.845   1.094   7.967 -0.6308  1.0793  0.2109
 1471SOL    HW215873   2.770   0.963   7.954  0.8146  0.3188 -1.1188
 1472SOL     OW15874   4.072   1.398   2.589  0.1053  0.4801  0.3179
 1472SOL    HW115875   4.051   1.345   2.666  1.1032  1.0358  0.9780
 1472SOL    HW215876   3.994   1.390   2.534  1.0955 -1.5953 -0.8229
 1473SOL     OW15877   1.290   3.232   6.005  0.3396  0.0810 -0.2055
 1473SOL    HW115878   1.214   3.287   6.023 -0.1218 -0.1384 -1.5015
 1473SOL    HW215879   1.347   3.303   5.976 -0.5621  1.0447  0.4109
 1474SOL     OW15880   3.607   4.388   6.998  0.8810  0.1176  0.3460
 1474SOL    HW115881   3.666   4.336   7.052  0.0279  0.9426  2.0613
 1474SOL    HW215882   3.520   4.382   7.038  0.2978  1.9286 -0.6257
 1475SOL     OW15883   0.923   1.326   0.692 -0.0499  0.0541 -0.3092
 1475SOL    HW115884   0.896   1.326   0.600  1.3599  3.2963 -0.7208
 1475SOL    HW215885   0.941   1.420   0.695 -2.5583  0.5248  0.1480
 1476SOL     OW15886   0.080   3.120   3.404 -0.4425  0.2990  0.3428
 1476SOL    HW115887   0.078   3.038   3.453  1.2845 -0.0003 -0.0890
 1476SOL    HW215888   0.027   3.176   3.461  2.8200  1.0301  2.7050
 1477SOL     OW15889   0.983   2.698  10.625  0.3892  0.3791 -0.2908
 1477SOL    HW115890   0.907   2.639  10.618 -0.2462  1.1449  0.2086
 1477SOL    HW215891   0.991   2.720  10.533  1.9660  1.1040  0.0292
 1478SOL     OW15892   0.335   3.341  15.354 -0.1739 -0.3652  0.3618
 1478SOL    HW115893   0.255   3.320  15.306 -0.9779  1.7548  0.7813
 1478SOL    HW215894   0.403   3.302  15.299 -0.4266  0.8016 -0.7936
 1479SOL     OW15895   1.288   0.289   5.231  0.1348 -0.3914 -0.1054
 1479SOL    HW115896   1.357   0.249   5.178 -0.8349 -0.2200 -1.4756
 1479SOL    HW215897   1.245   0.337   5.161 -0.2640  0.0572  0.4536
 1480SOL     OW15898   2.439   3.107   6.240  0.1640 -0.2064  0.4114
 1480SOL    HW115899   2.434   3.033   6.301  1.6384  1.0763  2.1085
 1480SOL    HW215900   2.447   3.168   6.314  2.0401  1.3117 -1.0489
 1481SOL     OW15901   3.052   3.749   4.923  0.2479  0.2691  0.0824
 1481SOL    HW115902   3.121   3.685   4.908 -1.3871 -1.1703 -1.4068
 1481SOL    HW215903   3.085   3.818   4.980  0.2481 -1.1693  1.8447
 1482SOL     OW15904   2.568   1.734  16.194 -0.1993 -0.5851 -0.0857
 1482SOL    HW115905   2.657   1.769  16.194 -0.5237  0.2708  2.9588
 1482SOL    HW215906   2.543   1.733  16.102  1.9690 -0.5928 -0.6691
 1483SOL     OW15907   3.909   1.551   1.093 -0.1128  0.0423 -0.3370
 1483SOL    HW115908   3.983   1.493   1.082 -0.1106 -0.6297  3.4263
 1483SOL    HW215909   3.853   1.538   1.016 -0.0639  1.2011 -0.5739
 1484SOL     OW15910   3.504   4.254   3.298 -0.5858  0.1489 -0.6692
 1484SOL    HW115911   3.458   4.315   3.240 -1.2156 -0.2362 -0.5837
 1484SOL    HW215912   3.594   4.285   3.303 -0.1571 -1.5836  2.1653
 1485SOL     OW15913   1.604   4.165   8.431  0.4034 -0.3373 -0.0389
 1485SOL    HW115914   1.534   4.176   8.367  0.5025  1.8442  0.2282
 1485SOL    HW215915   1.595   4.072   8.451 -2.0953 -0.2610 -0.8669
 1486SOL     OW15916   2.170   3.418   4.951  0.0344 -0.6821 -0.5880
 1486SOL    HW115917   2.165   3.474   5.029 -1.2232 -2.2673  0.4692
 1486SOL    HW215918   2.265   3.430   4.946  0.0304 -0.5670 -0.3929
 1487SOL     OW15919   2.237   4.382   2.812 -0.1309  0.0692  0.6384
 1487SOL    HW115920   2.332   4.393   2.818  0.1017 -1.0341 -0.9397
 1487SOL    HW215921   2.223   4.471   2.843 -0.7411 -0.2456  1.2653
 1488SOL     OW15922   4.163   4.394   7.108  0.2184  0.3699  0.3248
 1488SOL    HW115923   4.073   4.384   7.076  1.0760 -2.0780 -1.3170
 1488SOL    HW215924   4.213   4.446   7.046  0.2052  0.0449  0.0438
 1489SOL     OW15925   3.283   4.454  12.980  0.3992 -0.0511  0.6557
 1489SOL    HW115926   3.212   4.390  12.988 -0.4053  0.9373  1.3832
 1489SOL    HW215927   3.369   4.413  12.969  0.3649 -0.1181  0.6320
 1490SOL     OW15928   2.801   1.629  10.761 -0.2778 -0.1423 -0.0760
 1490SOL    HW115929   2.823   1.722  10.770  1.4843 -0.5705 -0.0103
 1490SOL    HW215930   2.708   1.624  10.785 -0.0298 -0.9029  0.7124
 1491SOL     OW15931   2.541   3.329  16.500  0.2785 -0.3521  0.0627
 1491SOL    HW115932   2.448   3.329  16.478 -0.2830  0.8014  2.4338
 1491SOL    HW215933   2.574   3.260  16.441  1.3732 -1.1358  1.5957
 1492SOL     OW15934   0.322   4.558   4.858 -0.1325 -0.0961  0.6677
 1492SOL    HW115935   0.387   4.629   4.858 -0.2221 -0.0113  2.0440
 1492SOL    HW215936   0.258   4.591   4.794  0.5806 -0.2958 -0.1471
 1493SOL     OW15937   0.978   0.098  10.080 -0.3011 -0.2613 -0.9415
 1493SOL    HW115938   1.013   0.020  10.123 -1.9074 -1.1741 -1.2834
 1493SOL    HW215939   0.923   0.138  10.147  0.5141 -0.5151 -0.1294
 1494SOL     OW15940   3.826   1.880   4.728  0.1406  0.3933 -0.9495
 1494SOL    HW115941   3.764   1.851   4.660 -2.1916  0.4279  1.1420
 1494SOL    HW215942   3.811   1.974   4.722 -1.9717  0.1342  0.1393
 1495SOL     OW15943   0.084   1.251   6.292 -0.1376  0.0288  0.1121
 1495SOL    HW115944   0.169   1.269   6.333  0.2253  1.3528 -1.2089
 1495SOL    HW215945   0.051   1.173   6.336 -0.8562 -1.0670 -2.3983
 1496SOL     OW15946   3.871   0.440   9.067  0.4098  0.0533  0.3978
 1496SOL    HW115947   3.844   0.530   9.051 -0.7949 -0.2920  0.4594
 1496SOL    HW215948   3.948   0.459   9.120 -0.9333  2.0006  1.6143
 1497SOL     OW15949   1.148   3.437   9.602  0.6823  0.8067  0.0664
 1497SOL    HW115950   1.143   3.387   9.684  1.1569  2.0971  0.8869
 1497SOL    HW215951   1.168   3.361   9.547  1.3937  1.4023 -0.4861
 1498SOL     OW15952   3.279   1.094  12.671 -0.1353  0.3284 -0.2412
 1498SOL    HW115953   3.365   1.083  12.632 -0.2316 -1.8819  0.1753
 1498SOL    HW215954   3.245   1.157  12.607  2.6532  2.3116  0.2231
 1499SOL     OW15955   2.652   3.608  13.866  0.0417 -0.2055  0.1958
 1499SOL    HW115956   2.586   3.652  13.919 -0.2216  0.3953 -0.6411
 1499SOL    HW215957   2.622   3.647  13.784 -2.2797 -0.2456  1.0319
 1500SOL     OW15958   0.356   2.967   4.848  0.4274  0.0483  0.4720
 1500SOL    HW115959   0.431   2.909   4.833 -1.1081 -0.9225 -3.4608
 1500SOL    HW215960   0.380   3.030   4.917 -0.2813  0.0086  0.7568
 1501SOL     OW15961   2.029   0.285   2.113 -0.0328 -0.1777 -0.0591
 1501SOL    HW115962   2.044   0.335   2.033 -1.2903  0.7632  0.3015
 1501SOL    HW215963   2.027   0.194   2.083 -0.3693 -0.4030  0.6500
 1502SOL     OW15964   3.051   2.266   2.772 -0.2781  0.2898 -0.2775
 1502SOL    HW115965   2.971   2.310   2.744  0.1560  1.0175 -0.3792
 1502SOL    HW215966   3.107   2.286   2.697  1.6422 -2.1039  0.5069
 1503SOL     OW15967   1.619   1.205   3.799 -0.4059  0.8373  0.0556
 1503SOL    HW115968   1.558   1.274   3.825 -0.3193  1.8667 -2.4789
 1503SOL    HW215969   1.644   1.181   3.889 -4.9684 -1.9711  0.5336
 1504SOL     OW15970   3.002   3.251   5.218 -0.3007  0.1199  0.2787
 1504SOL    HW115971   2.951   3.210   5.288  0.0500 -0.7164  0.0385
 1504SOL    HW215972   3.055   3.176   5.192  1.1796  0.8759  1.1306
 1505SOL     OW15973   0.406   0.706   7.430  0.6691  0.3535  0.3577
 1505SOL    HW115974   0.319   0.746   7.431  0.4408 -0.1435  0.2404
 1505SOL    HW215975   0.456   0.773   7.384  0.2202 -1.2971 -2.5055
 1506SOL     OW15976   1.552   3.168   3.977 -0.2022 -0.4312 -0.2599
 1506SOL    HW115977   1.620   3.219   3.934 -0.7745 -0.9153 -1.7761
 1506SOL    HW215978   1.531   3.223   4.052  1.0983  1.3922 -1.2343
 1507SOL     OW15979   4.000   0.132  13.736  0.4761  0.8251  0.7080
 1507SOL    HW115980   4.018   0.198  13.803 -1.4231  0.1987  1.8316
 1507SOL    HW215981   3.981   0.064  13.801 -0.6868 -0.5128 -1.0339
 1508SOL     OW15982   1.668   1.673   2.312  0.1927  0.3540 -0.2353
 1508SOL    HW115983   1.612   1.612   2.261  0.0760  0.3992 -0.1614
 1508SOL    HW215984   1.748   1.621   2.317  0.2107  0.4548  0.4261
 1509SOL     OW15985   2.373   4.073   5.343  0.0615 -0.3648  0.0099
 1509SOL    HW115986   2.438   4.098   5.409  2.3703  0.3005 -2.4870
 1509SOL    HW215987   2.336   3.991   5.374  2.6275 -1.6522 -0.2761
 1510SOL     OW15988   0.292   2.756   5.903  0.3418  0.5778 -0.3541
 1510SOL    HW115989   0.383   2.778   5.922  0.2040 -0.0749  1.0510
 1510SOL    HW215990   0.297   2.662   5.922  1.6689  0.6324 -0.4684
 1511SOL     OW15991   3.749   0.375   5.707 -0.0386 -0.8473  0.1136
 1511SOL    HW115992   3.838   0.339   5.703  0.0950 -0.5890  0.7445
 1511SOL    HW215993   3.732   0.375   5.801 -1.4125  0.4426 -0.1417
 1512SOL     OW15994   4.196   0.095   4.980  0.2636  0.3289 -0.2086
 1512SOL    HW115995   4.276   0.140   4.953  1.5518 -1.6598  0.3329
 1512SOL    HW215996   4.187   0.140   5.064 -0.1935  0.9349 -0.5763
 1513SOL     OW15997   1.578   3.466   8.567  0.1681 -0.6441 -0.7713
 1513SOL    HW115998   1.661   3.505   8.595 -0.7715 -0.9851  2.5382
 1513SOL    HW215999   1.539   3.529   8.507  0.9659 -1.2109 -1.8702
 1514SOL     OW16000   4.173   0.119   1.901  0.0172  0.2286 -0.5128
 1514SOL    HW116001   4.217   0.034   1.898 -2.1018 -0.8533 -1.0680
 1514SOL    HW216002   4.250   0.174   1.913  1.2245 -1.7908  1.0794
 1515SOL     OW16003   4.236   3.324  16.921 -0.5571 -0.3120 -0.3540
 1515SOL    HW116004   4.148   3.325  16.959  0.5053 -0.9562  2.1284
 1515SOL    HW216005   4.278   3.379  16.987  0.0698 -1.4208  0.1856
 1516SOL     OW16006   3.079   4.552  13.871  0.2528  0.0093 -0.0804
 1516SOL    HW116007   3.160   4.566  13.823  0.8135 -1.0790  0.5395
 1516SOL    HW216008   3.040   4.638  13.860 -2.9011 -1.3169  0.7585
 1517SOL     OW16009   2.491   2.591   5.048  0.2227  0.1217  0.2330
 1517SOL    HW116010   2.517   2.576   5.139  2.1667 -0.2841 -0.3873
 1517SOL    HW216011   2.540   2.528   4.994 -0.2938  0.7778 -1.0052
 1518SOL     OW16012   3.627   1.155   1.760 -0.0387  0.2967  0.9987
 1518SOL    HW116013   3.603   1.217   1.829  2.0326  0.2858  1.7449
 1518SOL    HW216014   3.721   1.142   1.775  0.1027  1.2447  0.8826
 1519SOL     OW16015   2.197   3.579   9.231  1.0006 -0.1109  0.0520
 1519SOL    HW116016   2.204   3.669   9.200  2.8875  0.0309  0.9028
 1519SOL    HW216017   2.230   3.542   9.149 -0.2086 -1.9166  0.3715
 1520SOL     OW16018   1.144   1.556   7.237 -0.1762 -0.2912  0.5160
 1520SOL    HW116019   1.094   1.622   7.188 -1.4162 -1.1497  0.6261
 1520SOL    HW216020   1.195   1.510   7.170  0.5171 -1.0379  1.5525
 1521SOL     OW16021   1.442   0.813  13.999 -0.1380 -0.2636 -0.1434
 1521SOL    HW116022   1.488   0.779  13.922  1.0198  0.9251  0.0191
 1521SOL    HW216023   1.377   0.745  14.014  1.5475 -2.1041 -1.1888
 1522SOL     OW16024   1.981   3.012   6.165  0.0945 -0.0294 -0.5801
 1522SOL    HW116025   1.984   2.928   6.120  1.5546 -0.3520  0.1380
 1522SOL    HW216026   2.041   3.064   6.112  1.1056 -1.4754 -0.8273
 1523SOL     OW16027   4.252   2.198   5.985  0.2951 -0.4046  0.2369
 1523SOL    HW116028   4.233   2.166   5.897  0.2556  0.3194 -0.0086
 1523SOL    HW216029   4.307   2.274   5.967 -1.7577  0.9367 -0.2612
 1524SOL     OW16030   3.096   2.605  14.858  0.6180 -0.2182  0.0408
 1524SOL    HW116031   3.064   2.683  14.813  0.7733  0.3108  0.8449
 1524SOL    HW216032   3.150   2.568  14.789  0.8253  1.2918 -0.6072
 1525SOL     OW16033   0.488   0.427   5.991 -0.0898  0.2584 -0.1711
 1525SOL    HW116034   0.552   0.422   6.062  0.8124 -2.8634 -1.1926
 1525SOL    HW216035   0.441   0.344   5.983 -1.1732  0.8476  0.1887
 1526SOL     OW16036   3.789   1.572   8.418 -0.0600 -0.5058  0.1664
 1526SOL    HW116037   3.727   1.616   8.360 -1.4648 -3.0276 -0.2812
 1526SOL    HW216038   3.871   1.617   8.401 -0.0279 -0.0925  1.4748
 1527SOL     OW16039   0.492   1.940   2.170 -0.4031  0.1861 -0.4391
 1527SOL    HW116040   0.468   1.890   2.092 -0.5299 -0.0672 -0.2341
 1527SOL    HW216041   0.410   1.933   2.217  1.3898  0.1305  2.6734
 1528SOL     OW16042   2.270   1.480   8.644 -0.8878 -0.5080 -0.2770
 1528SOL    HW116043   2.287   1.486   8.550 -1.5902 -0.3740 -0.3988
 1528SOL    HW216044   2.176   1.497   8.652 -0.5212  0.6077  1.4708
 1529SOL     OW16045   3.952   0.057   4.373  0.6828 -0.1156  0.0437
 1529SOL    HW116046   3.890   0.128   4.385 -2.0899 -3.1973  3.7199
 1529SOL    HW216047   4.038   0.100   4.369  0.2008  0.8327 -0.0787
 1530SOL     OW16048   4.062   2.265   4.542 -0.4556  0.1208 -0.3547
 1530SOL    HW116049   4.111   2.346   4.549 -0.4889  0.0524  0.6770
 1530SOL    HW216050   4.031   2.266   4.451  0.0875  1.5017 -0.5198
 1531SOL     OW16051   4.213   4.240   1.052  0.0120  0.3533 -0.1458
 1531SOL    HW116052   4.275   4.202   1.113 -1.6580 -3.5682 -0.8451
 1531SOL    HW216053   4.220   4.332   1.078  1.9072  0.5717 -1.4166
 1532SOL     OW16054   1.528   4.689  11.943  0.4892  0.1809 -0.4148
 1532SOL    HW116055   1.590   4.623  11.911  1.2514  0.4572  0.4778
 1532SOL    HW216056   1.523   0.027  11.868  1.9600  1.1279  0.2429
 1533SOL     OW16057   4.156   4.403   2.148 -0.2067 -0.3589 -0.0403
 1533SOL    HW116058   4.213   4.378   2.222  0.6750 -1.2054 -1.0024
 1533SOL    HW216059   4.118   4.316   2.135  0.0444 -0.5428  0.4146
 1534SOL     OW16060   3.103   1.255   2.232 -0.4510  0.1405  0.3308
 1534SOL    HW116061   3.102   1.172   2.280  1.3318 -0.0128  0.0958
 1534SOL    HW216062   3.156   1.304   2.295  0.7021 -0.2023 -0.3871
 1535SOL     OW16063   0.858   2.291  17.181  0.1205 -0.6795  0.3340
 1535SOL    HW116064   0.768   2.260  17.167  0.3480 -1.2246  0.0769
 1535SOL    HW216065   0.854   2.320  17.272  0.8564 -1.2130  0.5387
 1536SOL     OW16066   0.106   0.609   4.672 -0.0982 -0.7474 -0.1317
 1536SOL    HW116067   0.018   0.633   4.641 -0.4463  1.5841  2.5310
 1536SOL    HW216068   0.093   0.519   4.701 -0.3198 -0.3942  0.8867
 1537SOL     OW16069   1.156   2.228   6.891 -0.0103 -0.6069  0.7820
 1537SOL    HW116070   1.248   2.212   6.911  0.0737  1.5419  2.1815
 1537SOL    HW216071   1.163   2.248   6.798  0.9998  2.0357  1.4064
 1538SOL     OW16072   0.565   0.561   4.455 -0.2574 -0.6208  0.4742
 1538SOL    HW116073   0.494   0.608   4.499  0.0978  0.6726 -0.3326
 1538SOL    HW216074   0.636   0.625   4.463  1.9716 -3.2709  1.8695
 1539SOL     OW16075   2.974   1.408   0.559 -0.2486 -0.3057 -0.2648
 1539SOL    HW116076   2.913   1.388   0.630 -1.3239  1.2981 -0.7300
 1539SOL    HW216077   2.939   1.495   0.537 -0.6154 -0.4839 -0.3727
 1540SOL     OW16078   1.071   0.048   5.584  0.6288 -0.0542  0.0359
 1540SOL    HW116079   1.104   0.126   5.539  2.3521 -1.2595 -0.8005
 1540SOL    HW216080   1.137   0.049   5.654  0.5925 -1.1526  0.0792
 1541SOL     OW16081   2.527   2.296   2.370  0.3258  0.1528 -0.9379
 1541SOL    HW116082   2.493   2.342   2.293 -0.2301  1.1016 -0.1197
 1541SOL    HW216083   2.589   2.357   2.411  0.6112 -0.4621 -0.4553
 1542SOL     OW16084   2.337   0.341   1.308  0.1165 -0.0816  0.0403
 1542SOL    HW116085   2.306   0.254   1.333 -3.9875  1.4039  0.0798
 1542SOL    HW216086   2.259   0.389   1.280  1.0132  0.0396 -2.2714
 1543SOL     OW16087   1.657   4.531  11.717  0.2022 -0.1994 -0.6533
 1543SOL    HW116088   1.683   4.480  11.641  0.0321 -0.9196 -0.2284
 1543SOL    HW216089   1.564   4.543  11.698  0.1839  1.4469  0.3839
 1544SOL     OW16090   4.552   2.248   1.611 -0.2501 -0.0950 -0.1730
 1544SOL    HW116091   4.480   2.285   1.662 -0.8444 -1.2024 -0.1991
 1544SOL    HW216092   4.603   2.204   1.680  0.8005 -1.2264 -1.6796
 1545SOL     OW16093   1.320   2.968   6.951 -0.3937  0.3307  0.0166
 1545SOL    HW116094   1.317   3.008   7.038  0.1904  1.0376 -0.2864
 1545SOL    HW216095   1.411   2.937   6.957  0.1936  1.7909 -1.2755
 1546SOL     OW16096   4.324   0.738   6.138 -0.4510 -0.2714  0.2492
 1546SOL    HW116097   4.379   0.660   6.133 -0.6515 -0.3138 -1.1920
 1546SOL    HW216098   4.283   0.742   6.051 -0.3197  2.0059  0.2863
 1547SOL     OW16099   0.682   2.119   5.405  0.5678  0.1905 -0.4558
 1547SOL    HW116100   0.645   2.032   5.421  0.0174  0.2893 -1.1766
 1547SOL    HW216101   0.696   2.115   5.311  0.3904  3.3069 -0.6152
 1548SOL     OW16102   4.279   0.653   0.135  0.2664  0.0803  0.5267
 1548SOL    HW116103   4.350   0.589   0.139  1.1077  0.9722 -0.3250
 1548SOL    HW216104   4.300   0.710   0.209  1.1379 -0.5538  0.7557
 1549SOL     OW16105   2.008   4.656  17.161 -0.5359 -0.6509 -0.2119
 1549SOL    HW116106   2.058   4.588  17.208 -2.8311 -2.1557  0.0638
 1549SOL    HW216107   2.057   0.015  17.177 -0.6610 -0.5449 -0.3810
 1550SOL     OW16108   2.856   3.811   4.604 -0.4145  0.1892 -0.3172
 1550SOL    HW116109   2.812   3.896   4.611  0.9759  0.8112  0.9931
 1550SOL    HW216110   2.917   3.815   4.678  0.0852 -1.1524 -0.6601
 1551SOL     OW16111   0.366   1.740   4.817 -0.0785 -0.4832  0.0939
 1551SOL    HW116112   0.330   1.697   4.740  0.4913  0.7927 -0.8764
 1551SOL    HW216113   0.459   1.717   4.825  0.0864  0.8699  2.2237
 1552SOL     OW16114   1.764   2.950   0.468 -0.0833 -0.0534  0.4536
 1552SOL    HW116115   1.795   2.973   0.380 -0.4791 -0.6660  0.1523
 1552SOL    HW216116   1.839   2.900   0.498  0.0750 -0.4530 -0.6007
 1553SOL     OW16117   4.495   3.834   4.834 -0.2506 -0.6662 -0.0310
 1553SOL    HW116118   4.576   3.867   4.872 -0.7893  0.8522 -0.2191
 1553SOL    HW216119   4.528   3.806   4.748  0.6703  0.8331 -0.1627
 1554SOL     OW16120   3.155   3.594   5.703 -0.1877 -0.0832 -0.0396
 1554SOL    HW116121   3.230   3.561   5.753  1.4805 -1.9275 -3.7703
 1554SOL    HW216122   3.113   3.509   5.688  0.5876 -0.2201 -1.5086
 1555SOL     OW16123   1.747   1.852  10.978 -0.5201  0.1248 -0.6176
 1555SOL    HW116124   1.795   1.775  10.946 -1.6358 -0.8025 -0.0276
 1555SOL    HW216125   1.680   1.858  10.910 -0.6338  3.2261 -0.2404
 1556SOL     OW16126   1.834   1.159  15.429  0.0020 -0.3931  0.5075
 1556SOL    HW116127   1.914   1.159  15.376  0.5481 -3.0242  1.3125
 1556SOL    HW216128   1.783   1.231  15.392 -0.4949 -1.4127 -0.7975
 1557SOL     OW16129   2.728   3.841   3.714  0.0580 -0.1251 -0.4004
 1557SOL    HW116130   2.725   3.856   3.620 -0.3975  1.7444 -0.0764
 1557SOL    HW216131   2.688   3.923   3.744  1.7195  2.2053 -4.6032
 1558SOL     OW16132   4.310   3.728   2.177  0.1303  0.4492 -0.1234
 1558SOL    HW116133   4.275   3.659   2.121  0.5200  1.3590 -1.4993
 1558SOL    HW216134   4.258   3.801   2.142 -0.5075  0.7602  1.4794
 1559SOL     OW16135   1.929   1.016   8.373 -0.5073 -0.4457  0.5391
 1559SOL    HW116136   1.865   0.951   8.401 -1.2002 -1.3853 -3.2127
 1559SOL    HW216137   2.008   0.966   8.393 -1.0113 -0.6088  2.1225
 1560SOL     OW16138   1.041   0.559   4.478  0.2986  0.2588 -0.5181
 1560SOL    HW116139   1.093   0.586   4.554 -0.3642  2.9871 -1.0464
 1560SOL    HW216140   1.070   0.625   4.415  1.9300 -0.6794 -0.7650
 1561SOL     OW16141   2.026   3.724   2.400 -0.0469  0.3392  0.1164
 1561SOL    HW116142   2.038   3.688   2.312  0.7038  0.6197  0.1004
 1561SOL    HW216143   1.930   3.727   2.398  0.0069  2.5799  0.0597
 1562SOL     OW16144   1.661   1.403   5.308 -0.4963 -0.4198  0.4627
 1562SOL    HW116145   1.756   1.393   5.317 -0.1332  1.2589 -1.6123
 1562SOL    HW216146   1.637   1.485   5.351  0.4046  0.5988 -0.9918
 1563SOL     OW16147   2.698   2.212  11.249 -0.0127  0.3648  0.2086
 1563SOL    HW116148   2.718   2.134  11.300  2.8642  1.4928  0.7751
 1563SOL    HW216149   2.740   2.279  11.304  2.6322 -1.2125  0.0627
 1564SOL     OW16150   4.396   2.338   6.936 -0.4132 -0.3206  0.3098
 1564SOL    HW116151   4.492   2.343   6.932 -0.3218 -2.2773  0.2387
 1564SOL    HW216152   4.374   2.313   6.846 -0.3950 -2.6824  0.9568
 1565SOL     OW16153   2.188   0.819   6.161  0.0125 -0.7375 -0.3570
 1565SOL    HW116154   2.102   0.822   6.120  0.3231  1.4812 -0.8455
 1565SOL    HW216155   2.185   0.726   6.185 -0.7439 -0.6631 -0.1381
 1566SOL     OW16156   1.467   0.253   8.432  0.0170  0.4438  0.1728
 1566SOL    HW116157   1.439   0.186   8.370 -1.1479 -0.0772  1.2691
 1566SOL    HW216158   1.543   0.208   8.470  0.4086  0.2210 -0.8842
 1567SOL     OW16159   3.844   2.636   7.771  0.5574  0.3350 -0.0450
 1567SOL    HW116160   3.763   2.597   7.804  0.1679  3.3072  2.5349
 1567SOL    HW216161   3.841   2.600   7.683  1.2693 -1.5898  0.7201
 1568SOL     OW16162   2.407   1.701   5.634  0.1050 -0.2718 -0.2362
 1568SOL    HW116163   2.438   1.636   5.696 -1.0110 -0.4329  0.1543
 1568SOL    HW216164   2.370   1.642   5.568 -0.7884  1.4154 -1.2632
 1569SOL     OW16165   1.731   3.461   7.843  0.1940  0.1959  0.2975
 1569SOL    HW116166   1.701   3.373   7.822  0.2895  0.3874 -0.6576
 1569SOL    HW216167   1.713   3.498   7.757 -2.8469  0.4040  1.0290
 1570SOL     OW16168   2.258   0.783   7.769 -0.3623 -0.2245  0.2576
 1570SOL    HW116169   2.212   0.782   7.685 -0.9219  0.9173  0.5441
 1570SOL    HW216170   2.278   0.877   7.768 -1.6866  0.0625  0.2689
 1571SOL     OW16171   2.377   0.095   5.946  0.2335  0.3639 -0.0636
 1571SOL    HW116172   2.321   0.170   5.967  1.0839 -0.3305  4.6789
 1571SOL    HW216173   2.328   0.053   5.876  0.3482 -1.8920  1.2072
 1572SOL     OW16174   2.299   2.260   5.867 -0.0702  0.2045  0.7633
 1572SOL    HW116175   2.204   2.265   5.876  0.1007 -0.1904  2.8917
 1572SOL    HW216176   2.295   2.185   5.808 -2.2377 -0.1820  1.4102
 1573SOL     OW16177   0.790   4.658   8.536 -0.1384  0.1598 -0.4029
 1573SOL    HW116178   0.855   4.721   8.565 -0.8022  1.3137 -1.4544
 1573SOL    HW216179   0.715   4.696   8.582  0.4241  0.8249 -0.0441
 1574SOL     OW16180   0.414   0.515  12.811 -0.4721 -0.1831  0.4184
 1574SOL    HW116181   0.412   0.599  12.765  0.6509 -0.5291 -0.2476
 1574SOL    HW216182   0.503   0.491  12.787 -0.1135  0.0470  1.4899
 1575SOL     OW16183   0.912   1.042   1.241 -1.0090  0.1455 -0.1137
 1575SOL    HW116184   1.005   1.019   1.238 -1.4679 -1.7806  0.8242
 1575SOL    HW216185   0.901   1.106   1.170 -1.6168  0.7239  0.5013
 1576SOL     OW16186   1.209   0.521   2.503 -0.4877  0.1887 -0.3505
 1576SOL    HW116187   1.203   0.597   2.445  1.8591  1.6560  1.3299
 1576SOL    HW216188   1.210   0.448   2.440 -4.0434 -1.0821  1.0407
 1577SOL     OW16189   0.948   4.575   2.197 -0.3379 -0.2872  0.2652
 1577SOL    HW116190   0.957   4.649   2.137  0.1528  0.0417  0.7403
 1577SOL    HW216191   0.913   4.628   2.269 -0.4423  2.3477 -1.7042
 1578SOL     OW16192   2.916   2.761   5.790 -0.7953  0.3964  0.1544
 1578SOL    HW116193   2.825   2.757   5.817 -0.3012  0.2086  1.7670
 1578SOL    HW216194   2.912   2.742   5.696 -1.5450  0.4363  0.1848
 1579SOL     OW16195   0.001   1.213   2.591  0.2901 -1.1639  0.1220
 1579SOL    HW116196   4.698   1.305   2.600  0.7557 -1.2017  1.6239
 1579SOL    HW216197   4.719   1.209   2.495 -4.0938 -1.3848  0.3270
 1580SOL     OW16198   2.102   0.434   3.777  0.2722 -0.6194  0.4242
 1580SOL    HW116199   2.079   0.367   3.842  0.1776 -0.9316  0.0727
 1580SOL    HW216200   2.167   0.393   3.718 -0.0589  0.6544 -0.8227
 1581SOL     OW16201   1.671   3.349   5.984 -0.1186 -0.3918 -0.1128
 1581SOL    HW116202   1.624   3.432   5.987  1.2247  0.2350  3.4244
 1581SOL    HW216203   1.754   3.373   5.944 -0.1171 -0.8917 -0.4070
 1582SOL     OW16204   4.089   3.862  14.590  0.2754  0.3465 -0.5920
 1582SOL    HW116205   4.122   3.776  14.563  1.0859 -1.1857  5.3683
 1582SOL    HW216206   4.112   3.911  14.511 -0.2672  0.8918 -0.4131
 1583SOL     OW16207   3.111   0.654   7.389 -0.0513 -0.1296 -0.1108
 1583SOL    HW116208   3.206   0.654   7.380 -0.3135 -0.3677 -2.9334
 1583SOL    HW216209   3.081   0.640   7.300  0.0871 -0.1459 -0.1545
 1584SOL     OW16210   1.131   2.360   4.619  0.4063 -0.6559 -0.1758
 1584SOL    HW116211   1.174   2.443   4.639 -2.9008  1.3599 -1.3523
 1584SOL    HW216212   1.108   2.336   4.709  1.3767  2.0122  0.8089
 1585SOL     OW16213   3.169   0.207   7.419  0.0066  0.1748 -0.1514
 1585SOL    HW116214   3.103   0.157   7.370  0.4983 -0.7468  0.1489
 1585SOL    HW216215   3.195   0.143   7.484  1.3814  0.8100 -0.0685
 1586SOL     OW16216   3.839   0.570   4.930 -0.1162  0.0084  0.3323
 1586SOL    HW116217   3.843   0.480   4.962 -0.1728  0.5946  1.9943
 1586SOL    HW216218   3.773   0.613   4.985  1.5225  3.2783 -0.2474
 1587SOL     OW16219   0.555   2.180  12.780 -0.4299  0.3713 -0.7784
 1587SOL    HW116220   0.639   2.138  12.800 -1.4250 -1.1339  0.2878
 1587SOL    HW216221   0.570   2.262  12.826 -0.9462  0.6420 -1.1014
 1588SOL     OW16222   2.449   4.472   7.217  0.3959  0.5299 -0.2663
 1588SOL    HW116223   2.530   4.428   7.192 -0.1652  0.1247 -1.3346
 1588SOL    HW216224   2.437   4.449   7.310 -2.6571  0.7659 -0.6056
 1589SOL     OW16225   1.553   4.185   0.432  0.1260  0.2851 -0.1749
 1589SOL    HW116226   1.528   4.129   0.359  2.7993  0.6830 -1.3936
 1589SOL    HW216227   1.648   4.174   0.427 -0.0744 -1.5217  0.0230
 1590SOL     OW16228   1.375   3.341  11.296  0.1017 -0.5454 -0.4444
 1590SOL    HW116229   1.432   3.274  11.334  1.4834  0.4409 -0.7935
 1590SOL    HW216230   1.356   3.298  11.213  0.3646 -1.2492 -0.1377
 1591SOL     OW16231   1.021   0.882   5.194 -0.1020  0.6978 -0.5386
 1591SOL    HW116232   0.986   0.798   5.165  1.0512 -0.3687  1.1165
 1591SOL    HW216233   1.114   0.875   5.177  0.6816  0.9015  3.5655
 1592SOL     OW16234   2.385   2.614   6.354 -0.1174 -0.1062 -0.4414
 1592SOL    HW116235   2.300   2.655   6.337 -0.6536 -1.3858 -0.8598
 1592SOL    HW216236   2.389   2.586   6.446  0.2037  0.5577 -0.2534
 1593SOL     OW16237   3.507   2.566   2.896  0.3022 -0.5322 -0.2863
 1593SOL    HW116238   3.427   2.530   2.935 -0.8616  2.0423 -0.2693
 1593SOL    HW216239   3.578   2.522   2.942  1.6358  0.0211 -1.8181
 1594SOL     OW16240   2.660   1.372   3.219  0.4805 -0.2606 -0.0880
 1594SOL    HW116241   2.621   1.458   3.204  0.5762  0.0178  1.3434
 1594SOL    HW216242   2.579   1.321   3.228  0.9711 -1.1799 -0.8668
 1595SOL     OW16243   0.976   1.716   3.227  0.1740 -0.4574  0.1695
 1595SOL    HW116244   0.944   1.683   3.143 -1.8244 -1.8473  1.4991
 1595SOL    HW216245   1.051   1.658   3.240  2.0071  1.4714 -1.6082
 1596SOL     OW16246   1.332   2.396   2.457 -0.1529  1.0215 -0.2831
 1596SOL    HW116247   1.373   2.311   2.474 -1.5306  0.0076 -1.9829
 1596SOL    HW216248   1.244   2.399   2.494 -0.0826  0.4943 -0.0797
 1597SOL     OW16249   0.431   4.074   9.119  0.0112 -0.0705  0.5135
 1597SOL    HW116250   0.486   4.146   9.087 -0.1613  0.8486  2.3102
 1597SOL    HW216251   0.358   4.113   9.166  1.1603  1.4648  1.0461
 1598SOL     OW16252   0.205   3.523   6.590  0.2043  0.2565 -0.1333
 1598SOL    HW116253   0.201   3.557   6.679 -2.2481  0.5553 -0.3468
 1598SOL    HW216254   0.113   3.506   6.570  0.2390  0.8412 -0.8191
 1599SOL     OW16255   2.818   3.272   6.800 -0.2337 -0.2840  0.2954
 1599SOL    HW116256   2.809   3.365   6.819  0.4123 -0.1098 -0.2571
 1599SOL    HW216257   2.914   3.269   6.806 -0.0134  0.0819 -3.3086
 1600SOL     OW16258   0.790   1.387   1.606  0.1371  0.0138 -0.0362
 1600SOL    HW116259   0.834   1.313   1.649  0.5271  0.2484 -0.0314
 1600SOL    HW216260   0.704   1.399   1.648  0.5115  0.1933  0.6831
 1601SOL     OW16261   0.285   3.812   5.482  0.1361  0.2699  0.2145
 1601SOL    HW116262   0.319   3.805   5.393 -0.3165 -0.5814  0.1054
 1601SOL    HW216263   0.202   3.765   5.471  0.6156 -0.3503 -0.7974
 1602SOL     OW16264   0.109   4.601  14.694 -0.3758 -0.3585 -0.2134
 1602SOL    HW116265   0.077   4.688  14.671  2.0685  0.1799 -1.6052
 1602SOL    HW216266   0.028   4.552  14.708 -0.3572 -0.9117 -1.9891
 1603SOL     OW16267   3.823   1.981  13.058  0.3150  0.0628 -0.1732
 1603SOL    HW116268   3.823   1.898  13.105 -2.1410 -0.3298 -0.8440
 1603SOL    HW216269   3.742   1.977  13.006 -0.5820 -1.0544  1.3109
 1604SOL     OW16270   2.570   0.059   0.790 -0.4731  0.2970  0.4186
 1604SOL    HW116271   2.629   4.709   0.765  0.2718  1.3927 -0.9952
 1604SOL    HW216272   2.531   0.032   0.873  1.1829 -0.6705  0.8793
 1605SOL     OW16273   3.797   0.999   6.607 -0.0529 -0.1919  0.2438
 1605SOL    HW116274   3.827   1.066   6.545  0.3861 -0.6440 -0.0332
 1605SOL    HW216275   3.754   0.937   6.548  1.4598  0.3601 -1.4361
 1606SOL     OW16276   1.410   3.110  13.542 -0.4068  0.5894  0.0218
 1606SOL    HW116277   1.407   3.173  13.470 -0.2638 -0.6062 -1.0280
 1606SOL    HW216278   1.324   3.069  13.533 -0.5791  0.5759  1.6965
 1607SOL     OW16279   2.888   1.229  17.458 -0.0908 -0.2820  0.4688
 1607SOL    HW116280   2.958   1.170  17.429 -0.0469  0.7323 -1.5495
 1607SOL    HW216281   2.886   1.189  17.544 -0.9674 -0.7303  0.2345
 1608SOL     OW16282   1.152   0.845   7.429  0.1510  0.0409  0.1755
 1608SOL    HW116283   1.061   0.824   7.448  0.3000 -1.1861 -0.4333
 1608SOL    HW216284   1.201   0.819   7.507  2.4509 -1.2559 -1.7118
 1609SOL     OW16285   1.752   2.992   2.629  0.3101 -0.2546  0.0427
 1609SOL    HW116286   1.661   2.965   2.619  0.3403 -0.5769  0.6285
 1609SOL    HW216287   1.744   3.087   2.630 -1.3068 -0.3864 -0.6440
 1610SOL     OW16288   4.154   3.101  11.631 -0.2451 -0.6136 -0.1005
 1610SOL    HW116289   4.175   3.082  11.722 -1.2674  0.6655  0.4053
 1610SOL    HW216290   4.084   3.166  11.634 -1.8219 -2.0849 -4.8008
 1611SOL     OW16291   2.594   1.153  15.525  0.3412  0.6994 -0.6122
 1611SOL    HW116292   2.538   1.230  15.514 -2.5253 -1.4675 -1.0439
 1611SOL    HW216293   2.578   1.114  15.439  1.4454  1.3376 -1.1110
 1612SOL     OW16294   2.813   1.163   3.729 -0.2549  0.2368  0.1656
 1612SOL    HW116295   2.891   1.192   3.682  0.8258 -1.5708  0.8435
 1612SOL    HW216296   2.743   1.211   3.684 -0.3547  0.6043  0.7173
 1613SOL     OW16297   1.555   3.819   2.220  0.6857  0.2510  0.0990
 1613SOL    HW116298   1.478   3.853   2.265 -1.7092 -1.9809 -2.2906
 1613SOL    HW216299   1.574   3.886   2.154 -0.5271  1.1643  0.6862
 1614SOL     OW16300   1.276   2.009   6.322 -0.4837 -0.3526 -0.5245
 1614SOL    HW116301   1.239   1.927   6.291 -2.2018  0.1057  0.3247
 1614SOL    HW216302   1.315   1.974   6.403  0.4378 -0.4765 -1.0224
 1615SOL     OW16303   0.721   4.314  15.145  0.2586  0.2254 -0.3666
 1615SOL    HW116304   0.734   4.273  15.230 -1.2925 -0.0261 -0.2576
 1615SOL    HW216305   0.626   4.301  15.144  0.3473 -0.5684  1.1665
 1616SOL     OW16306   1.537   2.816   7.395 -0.4595  0.1017  0.4864
 1616SOL    HW116307   1.480   2.891   7.376 -1.6139 -1.2465 -1.3662
 1616SOL    HW216308   1.587   2.810   7.314  1.5445  1.3530  1.6430
 1617SOL     OW16309   1.405   3.288  15.363 -0.1473  0.4630  0.3150
 1617SOL    HW116310   1.379   3.219  15.424  0.6394 -1.6740 -1.7893
 1617SOL    HW216311   1.486   3.256  15.325 -0.2733  1.0102 -0.4324
 1618SOL     OW16312   3.963   2.553  13.561  0.4204  0.0928 -0.2447
 1618SOL    HW116313   4.012   2.563  13.642  1.4270 -1.2669 -0.6857
 1618SOL    HW216314   3.883   2.603  13.578  0.6584  0.9363 -1.5540
 1619SOL     OW16315   2.671   1.112   0.201  0.3472 -0.5546 -0.1098
 1619SOL    HW116316   2.691   1.074   0.116 -1.1896 -3.8899  1.0244
 1619SOL    HW216317   2.692   1.204   0.184  0.1032 -0.2519  1.2376
 1620SOL     OW16318   4.166   1.231  15.697  0.5040  0.1291 -0.5519
 1620SOL    HW116319   4.137   1.157  15.642  1.2758  0.6082 -1.5953
 1620SOL    HW216320   4.135   1.302  15.641 -1.0186 -0.4819 -0.5077
 1621SOL     OW16321   1.187   1.252  10.434 -0.7473  0.1255  0.1617
 1621SOL    HW116322   1.274   1.285  10.457 -1.5533  1.6389  1.0546
 1621SOL    HW216323   1.153   1.339  10.413 -1.2784  0.2693  1.6459
 1622SOL     OW16324   4.160   1.446  13.618 -0.0207  0.1138  0.6801
 1622SOL    HW116325   4.122   1.507  13.681 -0.3406 -1.2769  1.8279
 1622SOL    HW216326   4.120   1.367  13.655  1.4685 -1.2780 -0.6683
 1623SOL     OW16327   3.132   0.853   3.933  0.1166  0.6851 -0.1803
 1623SOL    HW116328   3.193   0.896   3.872  1.7782 -0.9717  0.3313
 1623SOL    HW216329   3.082   0.929   3.964  0.5930  1.8081 -2.1194
 1624SOL     OW16330   2.169   0.235  17.533  0.3879 -0.0065  0.3064
 1624SOL    HW116331   2.110   0.306  17.557 -1.0755 -0.8598 -0.7428
 1624SOL    HW216332   2.114   0.193  17.467 -1.8743  2.6368  0.5162
 1625SOL     OW16333   0.394   4.327   0.810 -0.2678  0.0826 -0.2920
 1625SOL    HW116334   0.463   4.288   0.864  0.5889  3.7934  1.3242
 1625SOL    HW216335   0.415   4.417   0.833  0.4822  0.2492 -1.5923
 1626SOL     OW16336   2.855   1.685  14.513 -0.3415  0.4512 -0.2727
 1626SOL    HW116337   2.849   1.589  14.512  1.9036  0.2986  2.3001
 1626SOL    HW216338   2.949   1.700  14.518 -0.3778  0.6661 -0.2375
 1627SOL     OW16339   3.111   0.810   5.991 -0.1992 -0.6010 -0.2421
 1627SOL    HW116340   3.086   0.855   5.910 -1.9745  0.3546  0.8218
 1627SOL    HW216341   3.072   0.882   6.040  0.7677 -0.6470  0.5777
 1628SOL     OW16342   2.768   0.624   2.202 -0.2473 -0.6923  0.0537
 1628SOL    HW116343   2.777   0.663   2.289  0.4703  1.0700 -0.7972
 1628SOL    HW216344   2.722   0.694   2.154  1.1990 -0.2394 -0.6690
 1629SOL     OW16345   1.680   1.751  15.506  0.2964  0.1174  0.1541
 1629SOL    HW116346   1.668   1.837  15.465  1.5709  0.9182  1.4783
 1629SOL    HW216347   1.743   1.719  15.441 -2.6473 -2.9052 -1.1835
 1630SOL     OW16348   2.462   3.570   7.577 -0.6817 -0.1191  0.1450
 1630SOL    HW116349   2.536   3.612   7.622  0.0589  0.8245 -1.9489
 1630SOL    HW216350   2.399   3.566   7.649  0.8177  2.0237  1.5665
 1631SOL     OW16351   0.301   3.980   5.215  0.0801 -0.2442  0.8801
 1631SOL    HW116352   0.319   4.035   5.139 -1.3064  0.5999  1.1548
 1631SOL    HW216353   0.381   4.005   5.261  0.7944  1.8957 -1.5800
 1632SOL     OW16354   0.746   0.418  14.527  0.9463  0.1339 -0.2086
 1632SOL    HW116355   0.804   0.343  14.522  0.6865 -0.0861  0.1220
 1632SOL    HW216356   0.681   0.374  14.581  0.8912 -0.6935 -0.9493
 1633SOL     OW16357   0.889   4.276   3.764  0.4994 -0.1432 -0.8195
 1633SOL    HW116358   0.977   4.250   3.792  0.9957 -0.4864 -2.6488
 1633SOL    HW216359   0.829   4.256   3.835 -1.0549  1.5101 -1.6777
 1634SOL     OW16360   3.150   2.271  15.791 -0.3678  0.2029 -0.3761
 1634SOL    HW116361   3.209   2.214  15.741  0.1050 -2.1516  2.8503
 1634SOL    HW216362   3.069   2.250  15.746 -0.8710 -0.3267  0.7559
 1635SOL     OW16363   0.770   1.097   8.547 -0.0374 -0.5427 -0.4034
 1635SOL    HW116364   0.712   1.171   8.566  0.8130  0.2198 -0.7714
 1635SOL    HW216365   0.749   1.037   8.618 -0.4743 -1.2386 -1.1169
 1636SOL     OW16366   4.356   2.041   6.732  0.0408  0.1815  0.6995
 1636SOL    HW116367   4.451   2.050   6.727 -0.0134 -0.4877 -1.4126
 1636SOL    HW216368   4.343   1.997   6.816  1.2519  1.0319  1.3328
 1637SOL     OW16369   0.557   4.546   8.683 -0.5692 -0.2719  0.4085
 1637SOL    HW116370   0.600   4.550   8.769 -1.0609 -0.5783  0.6656
 1637SOL    HW216371   0.528   4.455   8.681  0.0851 -0.4702 -0.4707
 1638SOL     OW16372   3.100   0.636   5.592 -0.0715 -0.2779 -0.2886
 1638SOL    HW116373   3.054   0.591   5.520 -1.9114  0.6143  0.3303
 1638SOL    HW216374   3.086   0.572   5.662  0.4513  0.2721  0.3134
 1639SOL     OW16375   2.779   0.365   2.627 -0.0919 -0.1045  0.1954
 1639SOL    HW116376   2.868   0.381   2.595 -0.3019 -0.7826 -0.7363
 1639SOL    HW216377   2.744   0.438   2.678 -0.8770  0.4916 -1.2073
 1640SOL     OW16378   1.025   2.961  13.425  0.2253  0.0639 -0.2400
 1640SOL    HW116379   0.936   2.997  13.426 -0.0632 -0.7212  3.3616
 1640SOL    HW216380   1.048   2.986  13.515 -1.9884 -0.1128  0.3658
 1641SOL     OW16381   1.668   1.903  14.910 -0.0785  0.2419 -0.3805
 1641SOL    HW116382   1.761   1.893  14.932 -0.7511  0.0464  2.3406
 1641SOL    HW216383   1.626   1.851  14.979  2.1036  0.0397  0.7978
 1642SOL     OW16384   3.945   1.704   5.472  0.6773  1.0519 -0.3084
 1642SOL    HW116385   3.873   1.734   5.417 -0.3691 -0.1972  0.3928
 1642SOL    HW216386   4.013   1.761   5.436  2.1442 -0.7989 -0.4834
 1643SOL     OW16387   2.868   2.620   6.930 -0.4915  0.3667 -0.0487
 1643SOL    HW116388   2.942   2.655   6.979 -0.6847 -0.5439  0.9008
 1643SOL    HW216389   2.882   2.667   6.848 -0.3350 -2.0016 -1.3930
 1644SOL     OW16390   3.191   0.555   4.341  0.1421 -0.2422 -0.1536
 1644SOL    HW116391   3.231   0.542   4.255  0.5666 -1.1574  0.1806
 1644SOL    HW216392   3.270   0.565   4.395  0.6290  2.6755 -1.3712
 1645SOL     OW16393   2.786   1.966   9.948  0.4527  0.2619 -0.4905
 1645SOL    HW116394   2.805   1.874   9.928 -0.3971 -0.1551  0.6375
 1645SOL    HW216395   2.773   1.963  10.043 -1.1508 -3.0050 -0.7954
 1646SOL     OW16396   0.720   3.705   9.061  0.0784  0.1117  0.1032
 1646SOL    HW116397   0.794   3.755   9.027 -0.5984  0.2020 -1.2155
 1646SOL    HW216398   0.642   3.759   9.047 -0.9396 -1.0581  1.1935
 1647SOL     OW16399   0.531   2.915   3.166 -0.2891 -0.8963 -0.3119
 1647SOL    HW116400   0.476   2.898   3.089 -0.2018 -3.0845  0.0931
 1647SOL    HW216401   0.476   2.976   3.215  0.2201  0.7888 -1.8565
 1648SOL     OW16402   2.761   1.877   6.107  0.1111 -0.8482 -0.0052
 1648SOL    HW116403   2.709   1.958   6.107 -0.2258 -1.0656  2.0961
 1648SOL    HW216404   2.693   1.810   6.094 -2.3835  1.1434  2.7838
 1649SOL     OW16405   1.161   1.193   7.846 -0.1243  0.2133 -0.3791
 1649SOL    HW116406   1.218   1.268   7.866  0.2348  0.5723 -2.7170
 1649SOL    HW216407   1.216   1.141   7.788 -0.1563 -0.5357  0.2628
 1650SOL     OW16408   4.662   3.398   3.109 -0.0905 -0.2981  0.2796
 1650SOL    HW116409   4.572   3.421   3.085  0.3620  0.6506 -0.4895
 1650SOL    HW216410   4.652   3.302   3.115  1.3899 -0.5593 -1.7363
 1651SOL     OW16411   1.302   1.780   5.291  0.8602 -0.3525  0.0993
 1651SOL    HW116412   1.387   1.823   5.277  0.9862 -0.6979 -0.1738
 1651SOL    HW216413   1.237   1.819   5.233 -0.4395  1.2400  2.6302
 1652SOL     OW16414   3.594   1.832   1.338  0.1737 -0.2934 -0.0007
 1652SOL    HW116415   3.506   1.794   1.338 -0.1140  0.3784 -0.3475
 1652SOL    HW216416   3.655   1.758   1.334  1.6434  0.9270  0.1789
 1653SOL     OW16417   2.006   0.013   2.061 -0.2004  0.7983  0.0724
 1653SOL    HW116418   1.981   4.666   2.123 -1.0037  2.3701  1.4657
 1653SOL    HW216419   2.063   4.686   2.001 -1.5121  0.2536 -0.7318
 1654SOL     OW16420   1.126   1.798   9.621 -0.7093 -0.0283  0.1719
 1654SOL    HW116421   1.197   1.838   9.671  0.0908  0.5209 -1.3930
 1654SOL    HW216422   1.092   1.735   9.684  1.8874 -0.4983  1.0646
 1655SOL     OW16423   4.552   3.276  10.737  0.1245 -0.0940  0.0668
 1655SOL    HW116424   4.577   3.184  10.743  0.2683  0.0244  1.3519
 1655SOL    HW216425   4.639   3.310  10.714 -0.3220 -1.8159 -4.2338
 1656SOL     OW16426   4.291   3.581   3.044  0.4583 -0.7159  0.0946
 1656SOL    HW116427   4.203   3.598   3.010  0.8248 -2.0904 -1.5080
 1656SOL    HW216428   4.320   3.511   2.986  1.9665  1.8132 -2.2186
 1657SOL     OW16429   4.019   4.619   3.809  0.1303 -0.2443  0.0408
 1657SOL    HW116430   4.080   4.561   3.855  0.8344  1.9840  1.9235
 1657SOL    HW216431   3.997   4.562   3.735  0.7348 -0.4093 -0.0153
 1658SOL     OW16432   3.103   0.800  10.455 -0.3555  0.2974  0.7635
 1658SOL    HW116433   3.048   0.723  10.469 -0.8150  0.1094 -2.0445
 1658SOL    HW216434   3.123   0.771  10.366 -0.0523 -0.1891  0.9926
 1659SOL     OW16435   2.324   0.552   1.798  0.3846  0.1768  1.0095
 1659SOL    HW116436   2.394   0.517   1.743 -1.3245 -1.4496 -0.1035
 1659SOL    HW216437   2.335   0.646   1.782 -0.2596  0.0178 -0.3833
 1660SOL     OW16438   2.164   2.267   8.702  0.3142 -0.2680  0.6828
 1660SOL    HW116439   2.124   2.333   8.646  0.4394 -1.3126 -0.6256
 1660SOL    HW216440   2.180   2.318   8.782  2.7325  0.6953 -0.4040
 1661SOL     OW16441   2.287   2.579   6.606 -0.3923 -0.2209  0.1040
 1661SOL    HW116442   2.327   2.586   6.693 -2.6404 -2.0655  1.2999
 1661SOL    HW216443   2.194   2.579   6.627 -0.3203  4.2807  0.4163
 1662SOL     OW16444   3.614   2.782   6.903  0.4097  0.6088  0.0152
 1662SOL    HW116445   3.590   2.864   6.860 -1.1329  0.1122 -0.0580
 1662SOL    HW216446   3.702   2.766   6.867  1.4242 -0.3824  2.9661
 1663SOL     OW16447   2.423   1.346  17.341 -0.1997 -0.6262  0.2271
 1663SOL    HW116448   2.481   1.326  17.414 -1.6698  0.1094  1.6003
 1663SOL    HW216449   2.380   1.261  17.332 -0.7817 -0.6146  2.8946
 1664SOL     OW16450   3.009   1.921   5.382 -0.2302 -0.2027  0.1041
 1664SOL    HW116451   2.978   1.856   5.318 -2.1257 -0.2861  1.0915
 1664SOL    HW216452   2.921   1.949   5.409  0.2872 -1.6651  3.2878
 1665SOL     OW16453   2.856   2.718   0.743 -0.3065  0.3035 -0.3800
 1665SOL    HW116454   2.908   2.743   0.667 -0.4725 -1.5374 -1.0952
 1665SOL    HW216455   2.773   2.701   0.697 -1.1913  0.0073  1.3424
 1666SOL     OW16456   3.228   3.172   7.760 -0.3448 -0.0458  0.1313
 1666SOL    HW116457   3.207   3.127   7.842 -2.8361 -1.0106 -1.0245
 1666SOL    HW216458   3.305   3.121   7.735 -1.6539 -1.8415 -0.2807
 1667SOL     OW16459   3.777   4.685  10.336  0.1428  0.2721  0.2886
 1667SOL    HW116460   3.750   4.720  10.420 -2.3204 -1.1363  0.0839
 1667SOL    HW216461   3.791   0.047  10.292  1.0909 -0.2293 -0.3901
 1668SOL     OW16462   1.907   1.360   6.011 -0.5882  0.3020 -0.3296
 1668SOL    HW116463   1.898   1.405   6.095  0.1399 -0.0326 -0.0743
 1668SOL    HW216464   1.839   1.294   6.025 -0.8834  0.0181 -3.1855
 1669SOL     OW16465   3.127   2.708   2.897 -0.3061  0.1840  0.2064
 1669SOL    HW116466   3.046   2.657   2.903  0.7933 -1.5148  0.5232
 1669SOL    HW216467   3.121   2.713   2.802  1.0036 -0.9690  0.0687
 1670SOL     OW16468   0.774   4.370   4.998  0.0112  0.1314  0.5293
 1670SOL    HW116469   0.802   4.447   5.047 -0.5634  0.3216  0.5647
 1670SOL    HW216470   0.752   4.405   4.911 -1.5391  1.2326  1.3637
 1671SOL     OW16471   3.280   1.368   8.016  0.0159 -0.2485 -0.0936
 1671SOL    HW116472   3.203   1.390   8.068  0.3337 -1.6919  1.0032
 1671SOL    HW216473   3.331   1.336   8.091 -1.7726 -0.6530  0.9366
 1672SOL     OW16474   2.837   0.754   0.238 -0.0345  0.5516 -0.1486
 1672SOL    HW116475   2.806   0.697   0.308  0.2152  0.3905 -0.1673
 1672SOL    HW216476   2.860   0.834   0.286  0.0535 -0.7219  1.9409
 1673SOL     OW16477   4.174   4.475   6.192 -0.5397  0.1105  0.1732
 1673SOL    HW116478   4.092   4.522   6.207 -0.3072  0.9746 -1.1668
 1673SOL    HW216479   4.176   4.454   6.098 -0.1338  2.2471 -0.3086
 1674SOL     OW16480   3.609   4.557   5.295  0.0051 -0.6350 -0.4488
 1674SOL    HW116481   3.583   4.499   5.224 -5.2343  0.6033  0.4467
 1674SOL    HW216482   3.520   4.574   5.326  1.2369  1.9357  1.7291
 1675SOL     OW16483   0.127   3.202   8.326 -0.7022 -0.0921  0.1178
 1675SOL    HW116484   0.195   3.142   8.357  0.0014  1.1400  0.9555
 1675SOL    HW216485   0.111   3.173   8.236 -1.9692 -0.7127  0.5398
 1676SOL     OW16486   2.403   2.773   8.648  0.0855  0.7716 -0.6394
 1676SOL    HW116487   2.340   2.772   8.720  0.4458 -1.1641 -0.3582
 1676SOL    HW216488   2.471   2.833   8.677 -1.5599  2.5029 -0.3612
 1677SOL     OW16489   1.956   4.130   2.242 -0.6521  0.1203  0.4274
 1677SOL    HW116490   2.022   4.097   2.181  0.8543  0.2929  1.9803
 1677SOL    HW216491   1.984   4.099   2.328  1.9091 -0.6170 -0.6652
 1678SOL     OW16492   2.242   2.622  13.437 -0.6604  0.6248  0.6514
 1678SOL    HW116493   2.318   2.651  13.487 -0.4499  0.5811  0.3547
 1678SOL    HW216494   2.172   2.675  13.477 -1.0222 -0.2854  1.2378
 1679SOL     OW16495   0.261   4.645   5.990 -0.4868  0.4101  0.1629
 1679SOL    HW116496   0.282   4.555   6.016  1.3572  0.1574 -2.1320
 1679SOL    HW216497   0.251   4.643   5.895  0.2158 -1.8785  0.1418
 1680SOL     OW16498   2.717   0.516   7.069  0.3944 -0.2521  0.0298
 1680SOL    HW116499   2.759   0.452   7.127  0.0083  0.9636  1.6379
 1680SOL    HW216500   2.781   0.586   7.078 -0.3217  0.3898  0.0772
 1681SOL     OW16501   2.179   3.760   4.747  0.2143  0.6281  0.2366
 1681SOL    HW116502   2.238   3.775   4.821 -0.1544 -3.7427  1.4275
 1681SOL    HW216503   2.241   3.755   4.674 -1.2856  0.5824 -1.0527
 1682SOL     OW16504   1.609   3.672  10.193  0.3824 -0.4361  0.8657
 1682SOL    HW116505   1.636   3.670  10.285 -0.2236  2.1912  1.1123
 1682SOL    HW216506   1.694   3.693  10.154 -0.5360  3.6175  0.9868
 1683SOL     OW16507   4.190   0.816  17.166  0.0473 -0.0731 -0.0372
 1683SOL    HW116508   4.095   0.805  17.176  0.1328  0.0853  0.8984
 1683SOL    HW216509   4.217   0.736  17.210 -0.7419  0.3515  1.2192
 1684SOL     OW16510   2.408   2.451   2.167  0.1948  0.1262  0.5136
 1684SOL    HW116511   2.463   2.522   2.132 -1.5445  1.6376  0.8408
 1684SOL    HW216512   2.361   2.492   2.240 -0.4261  0.3372 -0.0115
 1685SOL     OW16513   3.321   1.412   5.099  0.0230 -0.5882 -0.7083
 1685SOL    HW116514   3.233   1.392   5.067 -0.9235  0.6132  1.1640
 1685SOL    HW216515   3.314   1.399   5.193 -2.4202  0.0945 -0.8058
 1686SOL     OW16516   3.942   0.241   4.072 -0.4890  0.2800 -0.1476
 1686SOL    HW116517   3.854   0.241   4.109 -1.1390 -0.0198 -1.6828
 1686SOL    HW216518   3.968   0.326   4.108 -2.6419  1.0661 -0.4812
 1687SOL     OW16519   0.964   2.920   6.435  0.5949 -0.2853 -0.0121
 1687SOL    HW116520   0.990   2.895   6.346  1.2870 -0.0010  0.1046
 1687SOL    HW216521   0.925   3.007   6.430  0.6624 -0.2832 -0.5429
 1688SOL     OW16522   0.444   2.154  15.386 -0.4792 -0.3040 -0.1204
 1688SOL    HW116523   0.513   2.123  15.327  1.0340 -2.2830  2.7109
 1688SOL    HW216524   0.371   2.095  15.367 -0.6781 -0.5296  1.3417
 1689SOL     OW16525   1.251   3.229   3.048 -0.7893  0.2446  0.1820
 1689SOL    HW116526   1.165   3.188   3.060  0.3899 -1.7767  1.8267
 1689SOL    HW216527   1.232   3.300   2.988 -1.6927 -2.3509 -2.6233
 1690SOL     OW16528   4.662   0.692   5.498  0.2165  0.0077  0.3710
 1690SOL    HW116529   0.024   0.682   5.452 -0.6114 -1.7050 -0.7417
 1690SOL    HW216530   4.652   0.787   5.492 -0.2375 -0.1042 -0.4963
 1691SOL     OW16531   0.946   1.886   5.321  0.5863  0.4386  0.0498
 1691SOL    HW116532   0.924   1.795   5.338 -2.2273  0.9025 -1.2171
 1691SOL    HW216533   0.967   1.892   5.228 -2.9873  0.1178 -0.7497
 1692SOL     OW16534   1.782   3.368  10.871  0.3339  0.0950  0.0283
 1692SOL    HW116535   1.773   3.290  10.816 -1.4658 -0.4051  1.0485
 1692SOL    HW216536   1.690   3.388  10.882  0.4031 -0.5298  1.7802
 1693SOL     OW16537   1.845   3.887   1.247 -0.5148  0.2035  0.3770
 1693SOL    HW116538   1.754   3.917   1.237 -1.0321 -1.0129  1.4855
 1693SOL    HW216539   1.887   3.973   1.253  1.9234 -0.9139 -0.8278
 1694SOL     OW16540   4.395   4.379  16.463 -0.1367 -0.0230  0.1899
 1694SOL    HW116541   4.331   4.367  16.393 -1.3060  0.3611  1.1970
 1694SOL    HW216542   4.379   4.300  16.515  2.1894  0.4930  1.7130
 1695SOL     OW16543   0.855   1.694  12.323 -0.2458  0.1327 -0.2285
 1695SOL    HW116544   0.890   1.766  12.270 -0.1214  1.8485  2.1736
 1695SOL    HW216545   0.939   1.657  12.349 -0.5487 -1.7363 -1.8704
 1696SOL     OW16546   0.453   2.324   5.766  0.2990 -0.1854  0.5021
 1696SOL    HW116547   0.407   2.267   5.704  0.1122 -2.5486  2.8460
 1696SOL    HW216548   0.546   2.304   5.761  0.2800 -0.1443 -0.0085
 1697SOL     OW16549   2.768   4.152  13.548  0.5869 -0.4879 -0.1927
 1697SOL    HW116550   2.776   4.112  13.635 -0.7154 -1.9541 -0.7420
 1697SOL    HW216551   2.799   4.079  13.495  3.8310 -0.0319  1.0606
 1698SOL     OW16552   0.065   2.016   8.222  0.1207 -0.2163 -0.3601
 1698SOL    HW116553   4.708   2.026   8.168  0.2317 -1.1641 -0.6966
 1698SOL    HW216554   0.114   2.098   8.222 -0.7134  0.2810 -0.5213
 1699SOL     OW16555   2.952   3.431   7.919  0.0624 -0.1248 -0.2861
 1699SOL    HW116556   3.017   3.361   7.908  0.6811  0.3773  0.1569
 1699SOL    HW216557   2.988   3.477   7.994  0.7626 -0.9901 -0.0830
 1700SOL     OW16558   4.676   2.390   8.957  0.5357  0.3306  0.4856
 1700SOL    HW116559   0.030   2.380   9.015  0.8162 -2.0771 -0.2809
 1700SOL    HW216560   4.619   2.448   9.007  1.6379  2.2738 -0.4928
 1701SOL     OW16561   3.571   0.626   0.339 -0.1921 -0.3209 -0.0170
 1701SOL    HW116562   3.530   0.683   0.404  1.0223 -0.8063  1.1658
 1701SOL    HW216563   3.609   0.561   0.398  1.6326  2.6835  2.0938
 1702SOL     OW16564   0.828   3.355  13.575 -0.6169 -0.1683 -0.1465
 1702SOL    HW116565   0.863   3.389  13.492 -0.0740 -1.1708 -0.3234
 1702SOL    HW216566   0.861   3.417  13.640 -1.4519  2.7926 -2.5457
 1703SOL     OW16567   0.422   2.910   7.997  0.2206  0.1270 -0.2768
 1703SOL    HW116568   0.357   2.842   8.017  0.4829 -0.4963 -1.4841
 1703SOL    HW216569   0.363   2.969   7.951 -0.3967 -1.9243 -2.1606
 1704SOL     OW16570   0.254   2.740   5.407 -0.1772 -0.2332 -0.5119
 1704SOL    HW116571   0.210   2.741   5.493 -1.5010  1.1112 -1.1958
 1704SOL    HW216572   0.187   2.694   5.357  1.1991 -1.8465 -0.8565
 1705SOL     OW16573   3.583   0.580   6.004  0.0641 -0.0524 -1.1405
 1705SOL    HW116574   3.599   0.674   6.012  0.9553 -0.4212  1.6280
 1705SOL    HW216575   3.491   0.579   5.977 -0.3831 -1.1231  0.3841
 1706SOL     OW16576   4.621   1.932   0.209 -0.0162  0.0638 -0.1926
 1706SOL    HW116577   4.681   1.948   0.137  0.9004  1.1330  0.8266
 1706SOL    HW216578   4.534   1.937   0.170  0.2581 -1.4469 -1.0041
 1707SOL     OW16579   3.338   2.487   5.489  0.3329  0.2451  0.3885
 1707SOL    HW116580   3.246   2.511   5.482  0.7011  1.0696 -1.8646
 1707SOL    HW216581   3.384   2.570   5.503 -2.8410  1.7772  1.8156
 1708SOL     OW16582   4.573   1.069  16.290 -0.0709  0.1432  0.5899
 1708SOL    HW116583   4.616   1.049  16.207 -1.9176  1.1265 -0.6193
 1708SOL    HW216584   4.507   1.131  16.261 -0.8861 -0.6257  0.7911
 1709SOL     OW16585   1.881   1.051   2.731 -0.1654  0.3176  0.1450
 1709SOL    HW116586   1.801   1.103   2.718 -0.1629  1.1039  3.2792
 1709SOL    HW216587   1.904   1.060   2.638 -0.6673  1.0947  0.0952
 1710SOL     OW16588   4.720   1.340   6.704 -0.1675 -0.5527 -0.3221
 1710SOL    HW116589   0.078   1.358   6.754 -0.2036  0.8265 -0.7652
 1710SOL    HW216590   4.656   1.308   6.767 -0.7246  1.7370  0.2774
 1711SOL     OW16591   0.966   4.553   5.143  0.2902 -0.3112 -0.3430
 1711SOL    HW116592   1.012   4.616   5.199  0.8538  0.9953 -2.2848
 1711SOL    HW216593   1.015   4.471   5.141  2.0656  0.7112  0.9821
 1712SOL     OW16594   4.391   1.839  10.971 -0.0882  0.5415 -0.6603
 1712SOL    HW116595   4.354   1.753  10.951 -1.3865  1.0615 -0.4523
 1712SOL    HW216596   4.445   1.844  10.891 -1.2082  4.4198 -1.2024
 1713SOL     OW16597   2.736   3.004  10.937 -0.4391  0.7410  0.0266
 1713SOL    HW116598   2.745   3.099  10.941  1.0543  0.5532  1.3132
 1713SOL    HW216599   2.798   2.966  10.999 -1.6160 -0.4927  0.4544
 1714SOL     OW16600   4.239   0.381   2.819  0.4428  0.1630  0.4531
 1714SOL    HW116601   4.303   0.416   2.758  1.2656 -0.1844  1.1170
 1714SOL    HW216602   4.198   0.327   2.751  2.0703 -1.8656  1.0614
 1715SOL     OW16603   3.303   0.566   2.086  0.2786 -0.1466  0.4190
 1715SOL    HW116604   3.238   0.585   2.018 -0.2365 -0.6074  0.7783
 1715SOL    HW216605   3.245   0.541   2.158 -0.4541  0.3611  0.0139
 1716SOL     OW16606   4.120   0.764   8.515 -0.8982  0.2708 -0.1578
 1716SOL    HW116607   4.145   0.701   8.583 -2.4183 -1.6626 -1.3890
 1716SOL    HW216608   4.128   0.847   8.562  1.7498  0.4352 -0.9106
 1717SOL     OW16609   4.433   0.875  13.630 -0.1953 -0.5137  0.1999
 1717SOL    HW116610   4.513   0.902  13.585 -0.9958  2.2739  0.4413
 1717SOL    HW216611   4.403   0.811  13.566 -1.5057 -0.8994  1.1999
 1718SOL     OW16612   0.526   1.242  15.919  0.5695  0.7924 -0.2127
 1718SOL    HW116613   0.461   1.232  15.850 -1.3180  2.4237  1.3061
 1718SOL    HW216614   0.506   1.165  15.972  0.3627  0.1395 -1.2435
 1719SOL     OW16615   2.884   4.588  11.720 -0.2211  0.5298  0.0286
 1719SOL    HW116616   2.946   4.649  11.759 -0.3690  0.8778 -0.2810
 1719SOL    HW216617   2.800   4.632  11.732 -0.3329  0.0266  1.0806
 1720SOL     OW16618   1.794   0.344  13.247  0.6121 -0.1004  0.0782
 1720SOL    HW116619   1.770   0.381  13.332 -1.2542 -1.2085  0.0247
 1720SOL    HW216620   1.710   0.305  13.226  0.5274  0.0534  0.1345
 1721SOL     OW16621   1.948   2.440  17.658  0.1099  0.3841  0.5137
 1721SOL    HW116622   1.862   2.398  17.666 -0.7722  1.8186 -1.6149
 1721SOL    HW216623   2.004   2.379   0.018 -0.2342 -4.3280 -5.1232
 1722SOL     OW16624   0.701   4.341   6.917 -0.1737 -0.0703 -0.1898
 1722SOL    HW116625   0.714   4.277   6.988 -1.7081 -0.5788 -0.3768
 1722SOL    HW216626   0.638   4.402   6.954 -0.3894 -0.1626 -0.4076
 1723SOL     OW16627   2.056   1.763  11.682  0.2911 -0.4489 -0.0777
 1723SOL    HW116628   1.975   1.811  11.665  0.3801  0.6046  2.3857
 1723SOL    HW216629   2.068   1.712  11.602 -0.3536 -1.0058  0.1779
 1724SOL     OW16630   0.975   0.010   7.376 -0.1614  0.0431  0.0851
 1724SOL    HW116631   0.906   4.699   7.318 -0.5057  1.1158 -0.1140
 1724SOL    HW216632   1.002   0.092   7.333 -0.2073 -0.6026 -1.1871
 1725SOL     OW16633   3.678   3.245   7.410  0.0006 -1.0638 -0.1791
 1725SOL    HW116634   3.715   3.274   7.326  1.0939  0.7016  0.8997
 1725SOL    HW216635   3.637   3.165   7.379 -1.0320 -1.4740  2.2975
 1726SOL     OW16636   1.432   0.764   9.087  0.0010 -0.7629  0.1180
 1726SOL    HW116637   1.344   0.733   9.064 -0.1614  0.3987 -0.8328
 1726SOL    HW216638   1.435   0.855   9.059 -0.5813 -0.6888  0.2847
 1727SOL     OW16639   1.308   2.113   4.586  0.4915 -0.0983  0.4222
 1727SOL    HW116640   1.301   2.209   4.583  2.7252  0.0373 -0.8626
 1727SOL    HW216641   1.321   2.110   4.681 -1.0436 -1.2632  0.5966
 1728SOL     OW16642   0.119   0.251  17.679  0.0893  0.6858  0.5304
 1728SOL    HW116643   0.200   0.250   0.042  0.7542 -3.2443 -0.5825
 1728SOL    HW216644   0.138   0.252  17.585  2.8682 -0.6150  1.0805
 1729SOL     OW16645   4.438   1.567   8.730 -0.1019 -0.1347 -0.0064
 1729SOL    HW116646   4.483   1.533   8.653  1.9911 -0.6433  1.4693
 1729SOL    HW216647   4.441   1.489   8.784  2.1899  0.5636  0.8459
 1730SOL     OW16648   1.694   0.060  12.377 -0.5829 -0.0614  0.1068
 1730SOL    HW116649   1.637   0.073  12.453 -0.4765 -0.8006  0.3118
 1730SOL    HW216650   1.661   4.696  12.351  1.1388 -0.5855 -0.3618
 1731SOL     OW16651   0.269   4.615   0.453  0.4995  0.1981 -0.5195
 1731SOL    HW116652   0.272   4.687   0.391  0.0653  0.2930 -0.4310
 1731SOL    HW216653   0.307   4.544   0.401  2.1509  0.7382 -0.0707
 1732SOL     OW16654   2.320   0.871   3.494 -0.0630 -0.4611  0.1224
 1732SOL    HW116655   2.238   0.886   3.446  0.8326  0.3125 -1.1712
 1732SOL    HW216656   2.289   0.807   3.558 -1.5732 -0.8361 -0.9782
 1733SOL     OW16657   2.638   1.152   5.178 -0.1452 -0.6057  0.3391
 1733SOL    HW116658   2.561   1.097   5.188 -2.1275  1.9021 -0.9288
 1733SOL    HW216659   2.717   1.099   5.166  0.7084  0.8635 -0.5353
 1734SOL     OW16660   3.409   1.916   4.557  0.5714  0.3619  0.1197
 1734SOL    HW116661   3.399   1.943   4.465 -0.6207 -1.2685 -0.2458
 1734SOL    HW216662   3.401   2.002   4.597  1.4281  0.5001 -0.0173
 1735SOL     OW16663   2.664   3.447   8.485 -0.5037 -0.1903  0.3478
 1735SOL    HW116664   2.622   3.448   8.399  0.6281  0.3488 -0.1883
 1735SOL    HW216665   2.721   3.371   8.474  0.9739  1.1042 -0.8352
 1736SOL     OW16666   0.972   1.336   8.780  0.0367 -0.8207 -0.4834
 1736SOL    HW116667   0.895   1.387   8.803 -0.6510 -2.5200  0.9408
 1736SOL    HW216668   1.028   1.352   8.856 -0.2754 -0.2165 -0.3777
 1737SOL     OW16669   1.268   0.441   5.020  0.2179 -0.3095 -0.1334
 1737SOL    HW116670   1.172   0.434   5.019  0.2276 -0.3210 -1.6090
 1737SOL    HW216671   1.295   0.392   4.942 -3.4928 -1.1277 -0.8953
 1738SOL     OW16672   4.432   4.573  11.281  0.4890  0.0966 -0.0302
 1738SOL    HW116673   4.366   4.624  11.326  0.8309  0.3669  0.1668
 1738SOL    HW216674   4.479   4.649  11.246  0.9324 -0.1234  0.0813
 1739SOL     OW16675   1.967   3.256  17.198  0.1640  0.3079 -0.2809
 1739SOL    HW116676   1.954   3.324  17.132  2.1426  1.3985  0.4795
 1739SOL    HW216677   1.906   3.282  17.267  0.6669 -0.6552  0.5180
 1740SOL     OW16678   3.208   3.879   9.219 -0.0719 -0.2463 -0.0656
 1740SOL    HW116679   3.129   3.932   9.230 -0.1898  0.1133 -2.5900
 1740SOL    HW216680   3.184   3.824   9.144  2.5206 -0.6855 -0.5519
 1741SOL     OW16681   3.024   4.569   6.055 -0.2422 -0.0806  0.5064
 1741SOL    HW116682   3.051   4.564   6.147  0.4025  0.9268  0.3653
 1741SOL    HW216683   3.106   4.602   6.020 -1.3438  1.4795 -0.6213
 1742SOL     OW16684   4.009   4.188  16.227  0.1861  0.1536  0.5400
 1742SOL    HW116685   4.018   4.102  16.268  0.8477  0.1747  0.4387
 1742SOL    HW216686   3.946   4.174  16.156  0.9847 -0.6200 -0.0161
 1743SOL     OW16687   2.292   4.510   3.800 -0.0287  0.1460  0.6115
 1743SOL    HW116688   2.285   4.559   3.883 -0.5705  1.7548 -0.3724
 1743SOL    HW216689   2.288   4.421   3.833 -0.4926  0.3165  1.0083
 1744SOL     OW16690   2.445   0.309   5.197  0.6450  0.2064  0.3620
 1744SOL    HW116691   2.369   0.356   5.163  0.8571  1.6936  1.9174
 1744SOL    HW216692   2.435   0.331   5.290 -0.7108  1.4258 -0.0628
 1745SOL     OW16693   1.853   1.439   9.216  0.1857 -0.2366 -0.2711
 1745SOL    HW116694   1.881   1.406   9.130  0.4597 -0.7268  0.0049
 1745SOL    HW216695   1.767   1.397   9.221  0.3685 -0.4559  1.0842
 1746SOL     OW16696   1.511   4.187   1.002 -0.0454  0.0954  0.4241
 1746SOL    HW116697   1.512   4.213   0.909 -1.2329  1.3014  0.7346
 1746SOL    HW216698   1.523   4.276   1.035  0.8653  0.4135 -0.7619
 1747SOL     OW16699   1.028   3.647   5.117 -0.7917 -1.3492  0.4638
 1747SOL    HW116700   1.010   3.715   5.052  3.4604  0.3572  1.0851
 1747SOL    HW216701   1.056   3.709   5.184  0.7634 -1.4584 -0.0840
 1748SOL     OW16702   3.819   2.810  14.660  0.2133 -0.1421  0.0348
 1748SOL    HW116703   3.854   2.724  14.635 -2.1583 -1.6439  1.9071
 1748SOL    HW216704   3.836   2.863  14.582  1.0692  2.8040  2.2237
 1749SOL     OW16705   3.151   1.473   0.919  0.0195 -0.3365  0.0213
 1749SOL    HW116706   3.229   1.421   0.941  0.9437 -0.2898 -3.1959
 1749SOL    HW216707   3.086   1.412   0.955  0.3542 -2.0584 -2.3268
 1750SOL     OW16708   2.449   3.947   5.880 -0.3260 -0.1192  0.0098
 1750SOL    HW116709   2.468   3.914   5.968  1.0719  2.8279  0.8046
 1750SOL    HW216710   2.369   3.895   5.870  0.6676 -1.0953 -2.9308
 1751SOL     OW16711   2.436   1.433   2.885  0.2961  0.5907 -0.2788
 1751SOL    HW116712   2.386   1.490   2.827  0.2019 -0.4158 -1.1893
 1751SOL    HW216713   2.465   1.360   2.829  0.1245 -0.4051  0.9263
 1752SOL     OW16714   2.046   4.182   6.503 -0.2439 -0.1634 -0.9128
 1752SOL    HW116715   2.139   4.175   6.526 -0.1582 -0.0030 -1.2119
 1752SOL    HW216716   2.052   4.156   6.411  1.9681 -1.6894 -0.3315
 1753SOL     OW16717   4.464   0.684   8.383  0.1466  0.2274  0.7924
 1753SOL    HW116718   4.375   0.677   8.346  0.4851 -0.3599  0.0920
 1753SOL    HW216719   4.511   0.695   8.300 -0.7599 -0.2256  0.2151
 1754SOL     OW16720   2.811   0.949  15.505 -0.4394 -0.1473 -0.4725
 1754SOL    HW116721   2.758   1.029  15.510  1.8184  1.3980 -1.4537
 1754SOL    HW216722   2.875   0.969  15.574  0.1366 -1.1688 -0.7206
 1755SOL     OW16723   4.611   0.845   0.318  0.3896 -0.1305 -0.7580
 1755SOL    HW116724   4.676   0.809   0.378  0.7399  1.2828 -0.2890
 1755SOL    HW216725   4.656   0.919   0.277  0.5398  0.1156 -0.1471
 1756SOL     OW16726   2.001   2.879   1.061 -0.5993 -0.4167 -0.2981
 1756SOL    HW116727   2.047   2.917   0.986 -2.6158 -0.1944 -1.4316
 1756SOL    HW216728   1.952   2.956   1.089 -0.5036 -0.4939  0.0714
 1757SOL     OW16729   4.517   2.125  16.838  0.3908  0.3046 -0.5735
 1757SOL    HW116730   4.456   2.157  16.905  1.2244  0.8974 -0.0964
 1757SOL    HW216731   4.533   2.035  16.868  1.2385  0.2132 -1.3193
 1758SOL     OW16732   0.069   0.164   3.006 -0.1245 -0.2518 -0.3323
 1758SOL    HW116733   0.034   0.209   3.083 -1.4477 -1.4361 -0.2337
 1758SOL    HW216734   0.164   0.169   3.013 -0.2828  1.1558  0.7461
 1759SOL     OW16735   4.579   3.553   8.048 -0.3001  0.0062 -0.3942
 1759SOL    HW116736   4.509   3.614   8.026 -0.1030  0.3937  0.0627
 1759SOL    HW216737   4.583   3.563   8.143  0.9928 -0.1004 -0.4354
 1760SOL     OW16738   3.451   3.620   2.671  0.1145  0.3042 -0.8837
 1760SOL    HW116739   3.481   3.637   2.760 -0.8670  0.2442 -0.5316
 1760SOL    HW216740   3.427   3.709   2.644  2.2191  1.1025 -0.0816
 1761SOL     OW16741   2.085   2.215  16.109 -0.3987 -0.5273  0.5205
 1761SOL    HW116742   2.080   2.256  16.195 -1.4833 -0.2946  0.3391
 1761SOL    HW216743   2.140   2.282  16.068 -2.1834 -0.9779 -2.6141
 1762SOL     OW16744   0.366   0.660   5.030  0.0108  0.0053  0.0025
 1762SOL    HW116745   0.367   0.579   4.980 -0.6973 -0.5338  0.8574
 1762SOL    HW216746   0.291   0.648   5.089  2.0729 -1.6598  2.2758
 1763SOL     OW16747   3.243   1.903   9.422 -0.0834 -0.1051  0.1269
 1763SOL    HW116748   3.256   1.931   9.331  0.6221 -2.1738 -0.4171
 1763SOL    HW216749   3.149   1.916   9.434 -0.4742 -1.5407 -1.3268
 1764SOL     OW16750   3.022   1.261   5.053  0.4955 -0.9986 -0.3624
 1764SOL    HW116751   2.995   1.266   5.145 -1.0498  2.0474 -0.9743
 1764SOL    HW216752   2.986   1.176   5.030  1.1711 -1.6272  0.9343
 1765SOL     OW16753   4.164   3.935   3.545 -0.0634 -0.0657 -0.2272
 1765SOL    HW116754   4.136   4.025   3.531 -2.2049 -0.6859  0.0939
 1765SOL    HW216755   4.115   3.894   3.474  3.0596 -1.8549 -1.3401
 1766SOL     OW16756   3.979   2.663  12.012  0.3421  0.1036  0.4342
 1766SOL    HW116757   3.895   2.673  12.056  1.1890 -2.2660  2.6129
 1766SOL    HW216758   4.042   2.687  12.080  0.0690  0.5751  0.5160
 1767SOL     OW16759   1.162   3.763  13.618 -0.4571  0.6962  0.6814
 1767SOL    HW116760   1.181   3.786  13.709  0.4764 -1.2446  0.9849
 1767SOL    HW216761   1.249   3.762  13.580 -1.0628  0.4850 -0.7020
 1768SOL     OW16762   2.849   1.643   7.234 -0.1024  0.0593 -0.0234
 1768SOL    HW116763   2.816   1.733   7.239 -1.2126 -0.3341 -0.2118
 1768SOL    HW216764   2.941   1.650   7.257 -0.4001  1.0698  0.8710
 1769SOL     OW16765   4.404   2.515   4.839  0.2859 -0.5100 -0.5141
 1769SOL    HW116766   4.451   2.435   4.815 -1.6004 -1.4339 -1.1692
 1769SOL    HW216767   4.346   2.488   4.910  1.6748 -1.6951  0.1592
 1770SOL     OW16768   3.536   2.653  10.424  0.5673 -0.1618 -0.1579
 1770SOL    HW116769   3.524   2.725  10.485  0.2419  1.4374 -2.1429
 1770SOL    HW216770   3.628   2.629  10.433  0.9965  0.7719 -2.1093
 1771SOL     OW16771   1.467   2.330   1.180 -0.1242  0.2084  0.4075
 1771SOL    HW116772   1.536   2.263   1.182 -1.5033 -1.2116  0.7946
 1771SOL    HW216773   1.525   2.404   1.197  1.7176 -0.5147 -2.7895
 1772SOL     OW16774   3.708   1.563   4.384  0.1500 -0.0552 -0.5908
 1772SOL    HW116775   3.775   1.551   4.317  0.6103  2.0542 -0.5115
 1772SOL    HW216776   3.658   1.481   4.383 -1.3592  0.8558  0.3120
 1773SOL     OW16777   2.204   4.187  12.753  0.2410  0.7738 -0.2785
 1773SOL    HW116778   2.290   4.225  12.771 -0.0980  1.1158  0.6297
 1773SOL    HW216779   2.222   4.121  12.685 -0.6444 -0.0734  0.3058
 1774SOL     OW16780   2.449   3.603  12.288 -0.5338  0.2030  0.1236
 1774SOL    HW116781   2.417   3.690  12.309 -0.2834 -0.1105  1.8290
 1774SOL    HW216782   2.526   3.611  12.345  1.1364 -0.3812 -2.0696
 1775SOL     OW16783   3.295   2.284  10.076  0.4046 -0.1688 -0.0931
 1775SOL    HW116784   3.326   2.368  10.111 -1.1622  1.0883 -1.6584
 1775SOL    HW216785   3.257   2.300   9.990 -1.7703  0.5348  0.9862
 1776SOL     OW16786   0.844   2.401   2.880  0.1867 -0.3268 -0.5996
 1776SOL    HW116787   0.906   2.353   2.825 -0.6162 -3.1486  0.9348
 1776SOL    HW216788   0.863   2.493   2.862 -0.7767 -0.0135 -0.0099
 1777SOL     OW16789   0.369   0.855   5.518 -0.6831  0.0138  0.2754
 1777SOL    HW116790   0.384   0.944   5.553  1.3530 -0.1618 -0.1803
 1777SOL    HW216791   0.436   0.806   5.565 -1.4189 -0.9988  0.2555
 1778SOL     OW16792   4.076   2.057   9.821  0.0095 -0.1232  0.2725
 1778SOL    HW116793   4.167   2.028   9.831  0.0611 -0.4502 -1.1734
 1778SOL    HW216794   4.047   2.043   9.911  1.3442 -0.8730  0.5896
 1779SOL     OW16795   3.112   3.048   8.695  0.1589 -0.0352 -0.1462
 1779SOL    HW116796   3.018   3.028   8.698  0.1384  0.1864  0.8597
 1779SOL    HW216797   3.106   3.143   8.706 -0.6658  0.0293 -1.1897
 1780SOL     OW16798   3.492   2.709  14.865 -0.1006  0.3225 -0.5898
 1780SOL    HW116799   3.459   2.774  14.803  2.4672 -0.5655 -2.9198
 1780SOL    HW216800   3.571   2.753  14.898  0.8425 -0.4774 -1.8067
 1781SOL     OW16801   3.684   3.283  12.460 -0.0745  0.3530  0.5624
 1781SOL    HW116802   3.604   3.335  12.456 -0.5163 -0.5032 -1.3768
 1781SOL    HW216803   3.669   3.214  12.397 -0.1481 -0.6729  1.7119
 1782SOL     OW16804   1.722   4.312   3.987  0.0686 -0.0791 -0.5114
 1782SOL    HW116805   1.801   4.333   3.938  0.3081  1.5025  0.5661
 1782SOL    HW216806   1.653   4.340   3.927 -1.8953 -1.7415  0.9431
 1783SOL     OW16807   1.529   2.577   7.909  0.3559  0.1483  0.2114
 1783SOL    HW116808   1.549   2.640   7.840 -2.0857  1.0795  0.3565
 1783SOL    HW216809   1.587   2.505   7.884 -1.1505 -0.8181 -0.4738
 1784SOL     OW16810   2.200   1.621  16.158 -0.0971 -0.2831 -0.2075
 1784SOL    HW116811   2.239   1.543  16.118  1.0122  2.0805 -3.6924
 1784SOL    HW216812   2.153   1.649  16.080 -0.1881 -0.0884 -0.0833
 1785SOL     OW16813   0.783   3.566   3.459 -0.0304 -0.5454  0.3832
 1785SOL    HW116814   0.762   3.566   3.365 -2.3292  1.7748  0.8875
 1785SOL    HW216815   0.694   3.570   3.495 -0.3028  0.2906 -0.3825
 1786SOL     OW16816   3.414   4.205   8.912  0.5458 -0.0286 -0.0899
 1786SOL    HW116817   3.435   4.121   8.871 -0.6923 -1.0952  1.4406
 1786SOL    HW216818   3.498   4.233   8.949  0.0915  0.6172  0.4412
 1787SOL     OW16819   3.134   2.375   8.444  0.2524  0.1779  0.0555
 1787SOL    HW116820   3.057   2.326   8.415 -0.2730  0.3122  1.2015
 1787SOL    HW216821   3.097   2.445   8.497 -0.0539 -0.0041  0.0863
 1788SOL     OW16822   0.486   0.833   9.646  0.0521  0.2542  0.3650
 1788SOL    HW116823   0.423   0.849   9.717  1.4102 -2.3681  2.1372
 1788SOL    HW216824   0.536   0.913   9.659 -0.0333  0.6508 -1.7016
 1789SOL     OW16825   1.617   0.545   5.733  0.0512 -0.5260  0.3667
 1789SOL    HW116826   1.625   0.484   5.806 -2.6073 -1.1089  0.1662
 1789SOL    HW216827   1.680   0.609   5.767 -0.3887 -0.4506  1.0307
 1790SOL     OW16828   0.613   2.946  15.052 -0.3413  0.1757 -0.2164
 1790SOL    HW116829   0.667   2.915  15.124  0.1545  0.9020 -0.2744
 1790SOL    HW216830   0.675   3.000  15.003  0.1898  0.3004  0.5974
 1791SOL     OW16831   3.373   3.242   9.604  0.3079 -0.3223  0.2836
 1791SOL    HW116832   3.460   3.204   9.591  0.4232 -0.1877  0.6786
 1791SOL    HW216833   3.391   3.293   9.683  1.1721  0.5649 -0.4869
 1792SOL     OW16834   2.623   0.019  11.689  0.6419 -0.2936  0.3402
 1792SOL    HW116835   2.590   4.651  11.696  0.5212 -0.2449  0.3904
 1792SOL    HW216836   2.573   0.050  11.764  1.8343  0.3957  0.8505
 1793SOL     OW16837   1.705   2.951  11.840 -0.3455  0.2777  0.0578
 1793SOL    HW116838   1.736   2.886  11.903  2.7013  2.6928  0.9926
 1793SOL    HW216839   1.640   2.989  11.899 -1.9108 -1.1522 -0.7439
 1794SOL     OW16840   1.012   4.395   9.350 -0.0563  0.0460  0.0991
 1794SOL    HW116841   1.086   4.372   9.294  0.9734  4.1813 -0.2261
 1794SOL    HW216842   1.044   4.482   9.375 -0.5168  0.8621 -2.1559
 1795SOL     OW16843   1.988   1.699   3.261 -0.2607 -0.2256 -1.0482
 1795SOL    HW116844   1.933   1.776   3.247 -0.4524 -0.0567  0.6744
 1795SOL    HW216845   2.034   1.723   3.342 -0.3897  2.1881 -1.6774
 1796SOL     OW16846   3.004   1.322   5.647 -0.7131  0.4139  0.0847
 1796SOL    HW116847   3.006   1.413   5.678 -0.9804 -0.4541  2.6865
 1796SOL    HW216848   3.095   1.297   5.662 -0.8283 -0.2790 -0.4075
 1797SOL     OW16849   4.311   4.363   4.378 -0.1889  0.3228  0.7766
 1797SOL    HW116850   4.315   4.267   4.376  0.2075  0.4377 -2.6171
 1797SOL    HW216851   4.313   4.372   4.474  2.3454  0.2854  0.7368
 1798SOL     OW16852   2.240   3.661   5.103 -0.6010  0.1894  0.1037
 1798SOL    HW116853   2.257   3.736   5.045  0.8022 -0.7045 -0.6500
 1798SOL    HW216854   2.324   3.637   5.143 -0.1067  3.0934  0.8054
 1799SOL     OW16855   3.893   0.975  12.862 -0.6943 -0.7925 -0.1469
 1799SOL    HW116856   3.811   1.025  12.857  0.6163  1.2956 -0.6614
 1799SOL    HW216857   3.955   1.047  12.851 -2.0500  0.4051 -0.1143
 1800SOL     OW16858   1.747   3.129  11.250 -0.1395  0.1747 -0.3990
 1800SOL    HW116859   1.671   3.138  11.193  0.8744 -0.3424 -1.8116
 1800SOL    HW216860   1.792   3.064  11.196  0.3140 -0.4403  0.7210
 1801SOL     OW16861   3.132   3.966   3.811  0.0424  0.2732  0.3682
 1801SOL    HW116862   3.213   3.917   3.819  0.1538  0.4404  0.2694
 1801SOL    HW216863   3.148   4.021   3.734 -1.0945  0.9443  0.6016
 1802SOL     OW16864   3.093   4.272   7.861 -0.2837 -0.3875  0.1848
 1802SOL    HW116865   2.999   4.285   7.853 -0.4628 -1.9377 -0.2181
 1802SOL    HW216866   3.101   4.189   7.909  4.2099 -0.8265 -1.3500
 1803SOL     OW16867   2.248   2.199   1.389 -0.5199 -0.0984  0.0508
 1803SOL    HW116868   2.168   2.246   1.412 -0.7932 -0.8976  0.7517
 1803SOL    HW216869   2.206   2.150   1.319  0.0846  0.6660 -0.8510
 1804SOL     OW16870   2.184   4.300   1.279  0.2480  0.2896  0.2058
 1804SOL    HW116871   2.253   4.364   1.263  1.3980 -1.8819 -3.6005
 1804SOL    HW216872   2.156   4.333   1.364 -1.7871  0.0349 -0.3724
 1805SOL     OW16873   4.479   4.034   6.025  0.2298 -0.6598 -0.0649
 1805SOL    HW116874   4.472   4.105   6.089 -1.8965 -1.5591  0.6934
 1805SOL    HW216875   4.413   3.975   6.061 -0.5079  0.8956  1.0905
 1806SOL     OW16876   2.897   0.994   2.152 -0.0834 -0.1602  0.0635
 1806SOL    HW116877   2.823   0.940   2.123 -0.2122 -0.4021  0.8488
 1806SOL    HW216878   2.964   0.929   2.171 -0.8736 -0.6865  1.0311
 1807SOL     OW16879   2.939   4.408   7.026 -0.0391 -0.2720  0.1065
 1807SOL    HW116880   2.975   4.494   7.007  2.3451 -1.4820 -0.7885
 1807SOL    HW216881   2.987   4.389   7.107 -0.7015  2.5950  1.1605
 1808SOL     OW16882   4.131   3.052   9.301  0.0856 -0.8419  0.5301
 1808SOL    HW116883   4.043   3.076   9.273  1.1115  2.2022 -0.1158
 1808SOL    HW216884   4.134   3.061   9.397  0.8286 -1.9509  0.6094
 1809SOL     OW16885   0.620   4.676   5.181 -0.3889 -0.6596 -0.0053
 1809SOL    HW116886   0.706   4.637   5.163  0.1028  0.1908  0.5254
 1809SOL    HW216887   0.633   0.027   5.242 -0.4291 -0.5007 -0.1847
 1810SOL     OW16888   0.600   2.285   1.755  0.3368  0.6897  0.3188
 1810SOL    HW116889   0.514   2.328   1.754 -1.0836 -2.0837  1.1890
 1810SOL    HW216890   0.579   2.202   1.798 -0.1773  0.1823 -0.9022
 1811SOL     OW16891   1.764   2.366   7.261 -0.0833 -0.4738 -0.5438
 1811SOL    HW116892   1.796   2.359   7.351 -1.6941  0.5533  0.1110
 1811SOL    HW216893   1.670   2.384   7.265 -0.2039 -1.5007  1.2102
 1812SOL     OW16894   1.387   0.524   6.691  0.2381  0.6805  0.5589
 1812SOL    HW116895   1.298   0.503   6.662  0.5203 -1.4202  1.2166
 1812SOL    HW216896   1.378   0.564   6.778  1.1272  1.4207  0.3078
 1813SOL     OW16897   3.101   1.746   3.267  0.0657  0.6090 -0.4229
 1813SOL    HW116898   3.167   1.772   3.203  2.1315 -1.8425  0.7134
 1813SOL    HW216899   3.151   1.734   3.347 -0.2375 -0.5912 -0.3988
 1814SOL     OW16900   0.047   3.264   0.056 -0.2675 -0.3814 -0.3233
 1814SOL    HW116901   4.701   3.290   0.118  0.8965 -2.1173  1.6666
 1814SOL    HW216902   0.121   3.313   0.091 -1.1822  1.2403 -0.6550
 1815SOL     OW16903   3.843   4.671   5.303  0.0996 -0.3978 -0.5819
 1815SOL    HW116904   3.828   0.044   5.292  0.0528 -0.3060  0.2830
 1815SOL    HW216905   3.754   4.641   5.287  1.0885 -4.0659  0.8029
 1816SOL     OW16906   2.693   2.017   7.068 -0.2491  0.2367  0.0860
 1816SOL    HW116907   2.698   2.041   6.976  0.6828 -0.3017 -0.0130
 1816SOL    HW216908   2.617   1.958   7.069 -1.5835  2.0098  1.6978
 1817SOL     OW16909   0.453   4.384   8.394 -0.0204  0.2675  0.3512
 1817SOL    HW116910   0.436   4.464   8.344 -1.3642 -1.5038 -2.0064
 1817SOL    HW216911   0.548   4.388   8.402 -0.0904  0.2007  1.1742
 1818SOL     OW16912   3.373   4.554  15.658 -0.1107  0.0243 -0.6647
 1818SOL    HW116913   3.290   4.520  15.690  0.0520  1.5728  1.4502
 1818SOL    HW216914   3.344   4.644  15.645 -0.8710  0.1015  1.4856
 1819SOL     OW16915   0.563   2.444   8.981 -0.1481 -0.4276  0.1608
 1819SOL    HW116916   0.504   2.519   8.980  2.6909  1.8335  2.8575
 1819SOL    HW216917   0.500   2.372   8.979 -1.2403  0.5913 -1.6117
 1820SOL     OW16918   2.199   0.931  14.646  0.3666  0.6147 -0.3998
 1820SOL    HW116919   2.119   0.979  14.623 -1.2960 -1.1797  1.6516
 1820SOL    HW216920   2.159   0.856  14.689  1.3257  0.5774  0.4341
 1821SOL     OW16921   3.060   0.602  16.836  0.3970  0.2029  0.5313
 1821SOL    HW116922   3.110   0.563  16.908 -3.4202 -1.8429  2.0742
 1821SOL    HW216923   3.044   0.536  16.769  0.3665 -1.3515  2.0806
 1822SOL     OW16924   1.580   1.625  13.370  0.1607 -0.1952 -0.1510
 1822SOL    HW116925   1.529   1.550  13.403 -0.1930  0.3908  0.6360
 1822SOL    HW216926   1.535   1.699  13.410 -0.2447 -2.2589  3.2073
 1823SOL     OW16927   1.244   2.309   1.019  0.1762 -0.2036  0.1506
 1823SOL    HW116928   1.335   2.301   1.048  0.1105 -1.9210 -0.1396
 1823SOL    HW216929   1.206   2.281   1.102  1.0294 -0.8490  0.3251
 1824SOL     OW16930   1.985   3.285   3.705  0.1036 -0.4126 -0.0630
 1824SOL    HW116931   2.064   3.314   3.750  0.8502 -0.1891 -1.5453
 1824SOL    HW216932   2.014   3.267   3.616  0.8873  2.1814 -0.3356
 1825SOL     OW16933   3.249   3.743   5.452  0.3082  0.3599 -0.6370
 1825SOL    HW116934   3.212   3.702   5.531 -0.0606 -0.7730 -1.3981
 1825SOL    HW216935   3.230   3.681   5.382  2.2040 -1.7659  0.7220
 1826SOL     OW16936   4.161   4.279  12.535 -0.7503  0.6883  0.1695
 1826SOL    HW116937   4.159   4.342  12.607 -1.0008  0.1637  0.6180
 1826SOL    HW216938   4.135   4.196  12.575  0.5535  0.5751  0.8047
 1827SOL     OW16939   2.389   2.012   4.661  0.1424  0.4764  0.6320
 1827SOL    HW116940   2.393   2.052   4.574 -0.0390 -2.4235 -0.7055
 1827SOL    HW216941   2.482   2.004   4.681  0.3382 -1.1832 -1.0116
 1828SOL     OW16942   2.972   1.359   2.829 -0.3810 -0.1018  0.2678
 1828SOL    HW116943   2.972   1.397   2.741  0.5735 -0.0743  0.2764
 1828SOL    HW216944   3.050   1.397   2.869  0.5439  0.9334 -2.5674
 1829SOL     OW16945   2.645   3.706  17.609  0.4500  0.5322  0.8439
 1829SOL    HW116946   2.608   3.739  17.527  1.1158  2.4115  1.3069
 1829SOL    HW216947   2.677   3.621  17.578 -0.6909  0.2124  0.5303
 1830SOL     OW16948   1.680   4.503   7.433 -0.8085  0.0302 -0.1632
 1830SOL    HW116949   1.651   4.506   7.341  1.2667 -0.4278 -0.8205
 1830SOL    HW216950   1.638   4.587   7.455 -1.4495 -0.3556  0.0819
 1831SOL     OW16951   1.497   0.849  12.451  0.6137 -0.0005  0.0735
 1831SOL    HW116952   1.454   0.763  12.445  2.1540 -0.8801  1.9148
 1831SOL    HW216953   1.580   0.828  12.493  1.3122  0.5054 -1.0393
 1832SOL     OW16954   4.394   2.324  11.962  0.2918 -0.3893  0.0264
 1832SOL    HW116955   4.377   2.247  11.907  1.1772 -0.1203 -0.6457
 1832SOL    HW216956   4.416   2.280  12.044  1.3297  0.5123  0.2399
 1833SOL     OW16957   3.596   0.357   8.950  0.1978 -0.2684 -0.0982
 1833SOL    HW116958   3.526   0.308   8.907  1.1806 -1.2674 -0.5629
 1833SOL    HW216959   3.549   0.415   9.010  1.3246  0.4497  0.0972
 1834SOL     OW16960   3.768   0.491   9.500  0.1115  0.1666 -0.3039
 1834SOL    HW116961   3.846   0.436   9.492 -1.4826 -2.0314 -0.6845
 1834SOL    HW216962   3.712   0.415   9.517 -1.0078  0.6978 -1.6364
 1835SOL     OW16963   3.069   0.746   2.230 -0.2266 -0.2302  0.5123
 1835SOL    HW116964   3.094   0.736   2.322  0.8869  1.0202  0.3398
 1835SOL    HW216965   3.009   0.672   2.223 -0.5511  0.0194  0.6886
 1836SOL     OW16966   2.490   0.764  17.264 -0.3736 -0.3825 -0.1099
 1836SOL    HW116967   2.490   0.763  17.168 -3.3761 -0.5080 -0.1336
 1836SOL    HW216968   2.584   0.778  17.273 -0.4005 -1.1256  1.3099
 1837SOL     OW16969   1.801   3.965   2.584  0.1784  0.2128  0.1203
 1837SOL    HW116970   1.785   3.884   2.537 -1.3052  0.7641 -0.3433
 1837SOL    HW216971   1.748   4.024   2.531  0.4225 -0.7003 -1.1116
 1838SOL     OW16972   1.421   3.865   9.009 -0.3086  0.0174 -0.3206
 1838SOL    HW116973   1.500   3.861   8.955 -0.1985  0.5413 -0.1967
 1838SOL    HW216974   1.417   3.958   9.031 -2.2416  0.5477 -2.9487
 1839SOL     OW16975   0.875   0.311  14.197  0.2113 -0.2510  0.1871
 1839SOL    HW116976   0.891   0.217  14.192 -3.0494 -0.8403  0.7705
 1839SOL    HW216977   0.781   0.305  14.216  0.6111 -2.1180  1.5552
 1840SOL     OW16978   1.482   4.263   2.169 -0.2949  0.1221  0.4499
 1840SOL    HW116979   1.400   4.232   2.130  1.1766 -0.2186 -2.3773
 1840SOL    HW216980   1.475   4.358   2.175  1.9140  0.1256  2.8182
 1841SOL     OW16981   3.004   1.753   4.692 -0.5737  0.0201  0.4512
 1841SOL    HW116982   2.920   1.720   4.723 -0.9221  1.5933  1.1806
 1841SOL    HW216983   2.988   1.828   4.635  0.7431  1.2880  1.7296
 1842SOL     OW16984   4.548   1.272   2.350 -0.7323 -0.2393  0.2451
 1842SOL    HW116985   4.634   1.307   2.329 -0.6283 -0.3469  0.4989
 1842SOL    HW216986   4.521   1.214   2.279 -1.9758  0.6579 -0.0275
 1843SOL     OW16987   3.996   2.815   0.062  0.0662 -0.2125 -0.0061
 1843SOL    HW116988   3.937   2.788  17.680  1.8269 -0.5893 -1.3391
 1843SOL    HW216989   3.927   2.829   0.127 -0.0058 -2.3360  0.3933
 1844SOL     OW16990   1.689   3.548   6.444 -0.2685 -0.2128 -0.4228
 1844SOL    HW116991   1.612   3.505   6.481 -2.0986  3.4708  0.1043
 1844SOL    HW216992   1.760   3.528   6.504 -0.8311  0.8852  0.6110
 1845SOL     OW16993   0.541   2.668   2.522  0.1230  0.2256  0.2594
 1845SOL    HW116994   0.518   2.576   2.535 -0.5128  0.5799  1.6791
 1845SOL    HW216995   0.520   2.698   2.611 -0.6012 -0.0944  0.2001
 1846SOL     OW16996   4.397   0.268   9.182 -0.2220 -0.3030  0.0741
 1846SOL    HW116997   4.416   0.271   9.276  1.2463  0.2962 -0.2427
 1846SOL    HW216998   4.339   0.193   9.196 -0.6836  0.2499  1.1382
 1847SOL     OW16999   4.508   2.754   8.720  0.1139  0.5494  0.1401
 1847SOL    HW117000   4.445   2.761   8.792 -1.4001  3.0214 -1.4191
 1847SOL    HW217001   4.451   2.738   8.645 -0.1955  3.4787 -0.2439
 1848SOL     OW17002   4.062   2.763   6.185 -0.0309  0.1331 -0.0926
 1848SOL    HW117003   4.143   2.722   6.217 -0.5360 -0.0299  0.9880
 1848SOL    HW217004   4.035   2.820   6.257  1.7287  1.1022 -0.2120
 1849SOL     OW17005   0.706   1.758  17.003 -0.5176  0.5167 -0.0712
 1849SOL    HW117006   0.700   1.739  16.909  1.6927  2.7658 -0.6791
 1849SOL    HW217007   0.713   1.853  17.009 -0.2996  0.4229  1.0693
 1850SOL     OW17008   0.148   1.787   4.980  0.4835 -0.0774  0.3724
 1850SOL    HW117009   0.228   1.780   4.929  0.4250 -0.8107  0.3835
 1850SOL    HW217010   0.109   1.871   4.956  2.2650  0.5146 -0.3934
 1851SOL     OW17011   3.865   1.140   4.950 -0.2523  0.6414  0.1615
 1851SOL    HW117012   3.783   1.106   4.914  0.6890 -0.1215 -1.2884
 1851SOL    HW217013   3.866   1.231   4.920  0.1744  0.8629  0.8707
 1852SOL     OW17014   1.337   3.966   3.117 -0.6214  0.0576 -0.0563
 1852SOL    HW117015   1.306   3.964   3.027  1.0107  1.8448 -0.6520
 1852SOL    HW217016   1.269   3.913   3.158 -1.4496  0.6350 -0.6952
 1853SOL     OW17017   1.751   3.601   6.186  0.4063 -0.3265  0.1348
 1853SOL    HW117018   1.834   3.639   6.214  1.0243 -0.3316 -1.7002
 1853SOL    HW217019   1.707   3.566   6.264 -1.8676 -2.1444 -1.9691
 1854SOL     OW17020   2.136   3.022   3.104  0.0309  0.4502 -0.3012
 1854SOL    HW117021   2.198   3.044   3.174 -0.7986 -1.5688  1.0464
 1854SOL    HW217022   2.171   2.935   3.085 -2.5852 -0.9456  1.2533
 1855SOL     OW17023   3.942   4.679  13.930  0.6139  0.3668 -0.2827
 1855SOL    HW117024   3.855   4.720  13.933  0.4153  0.1672 -3.1886
 1855SOL    HW217025   3.914   4.597  13.889  0.5668  0.8261 -1.1645
 1856SOL     OW17026   2.150   2.391   0.169  0.2030  0.2580 -0.0685
 1856SOL    HW117027   2.184   2.341   0.094 -0.3045  1.4151 -1.0642
 1856SOL    HW217028   2.227   2.443   0.193 -0.9843  1.0052  2.1298
 1857SOL     OW17029   0.921   3.296   9.781 -0.5107 -0.1906 -0.2471
 1857SOL    HW117030   0.996   3.252   9.821  1.7450  2.0166 -2.0450
 1857SOL    HW217031   0.848   3.246   9.817 -0.2104 -0.5752 -0.1700
 1858SOL     OW17032   2.128   4.428   7.697 -0.5703  0.9542  0.7371
 1858SOL    HW117033   2.076   4.476   7.633  1.6594  1.2224 -0.8953
 1858SOL    HW217034   2.091   4.446   7.784 -1.8270 -1.5633  0.7340
 1859SOL     OW17035   1.022   0.858   1.460  0.5293 -0.1084  0.1793
 1859SOL    HW117036   0.974   0.940   1.454 -1.3038 -1.1498  0.6771
 1859SOL    HW217037   1.050   0.846   1.369 -0.2814  1.9312 -0.3319
 1860SOL     OW17038   1.963   1.064  11.348 -0.2132 -0.4476 -0.4642
 1860SOL    HW117039   2.012   1.114  11.413  1.4609 -0.9449 -1.3218
 1860SOL    HW217040   1.960   0.979  11.393 -1.0250  0.7629  1.7353
 1861SOL     OW17041   1.800   2.947   5.075  0.0825  0.8930  0.1327
 1861SOL    HW117042   1.833   2.883   5.012  1.2310 -0.8549  2.5073
 1861SOL    HW217043   1.765   3.017   5.020  0.5182 -0.1340 -1.4563
 1862SOL     OW17044   4.213   2.302  13.692  0.4868 -0.0991 -0.0044
 1862SOL    HW117045   4.174   2.222  13.726 -1.1449  0.7583  0.1169
 1862SOL    HW217046   4.227   2.279  13.600  0.5832  2.2311 -0.5730
 1863SOL     OW17047   2.534   0.725  13.127  0.1723  0.0513  0.3215
 1863SOL    HW117048   2.486   0.651  13.090 -2.5421  1.1157  1.6982
 1863SOL    HW217049   2.601   0.675  13.173  0.4021 -0.7796 -0.9178
 1864SOL     OW17050   3.885   0.078   4.976 -0.3233 -0.4361  0.5721
 1864SOL    HW117051   3.959   0.053   5.031  0.2971  0.4811  0.1722
 1864SOL    HW217052   3.915   0.143   4.912  2.1235 -1.4442  0.7047
 1865SOL     OW17053   0.204   0.288   6.731 -0.0596  0.3249 -0.1538
 1865SOL    HW117054   0.206   0.195   6.752 -0.3409  0.4465  0.3919
 1865SOL    HW217055   0.159   0.320   6.809 -0.1514 -1.8627  0.6682
 1866SOL     OW17056   3.924   1.661   7.770 -0.0761  0.2035 -0.4059
 1866SOL    HW117057   3.935   1.752   7.743  2.0615  0.0565  0.0032
 1866SOL    HW217058   3.890   1.673   7.858  1.8844  2.3532  0.0559
 1867SOL     OW17059   0.483   1.152   8.640  0.3251 -0.1761 -0.1583
 1867SOL    HW117060   0.436   1.221   8.592 -1.3336 -0.2000  1.4372
 1867SOL    HW217061   0.418   1.083   8.631  0.1911 -0.2162  1.1912
 1868SOL     OW17062   2.189   3.353   0.677  0.1679  0.0043  0.2352
 1868SOL    HW117063   2.240   3.335   0.756 -0.4530  0.0931  0.6518
 1868SOL    HW217064   2.102   3.379   0.705  0.3105  1.2762 -0.5266
 1869SOL     OW17065   1.771   2.483  16.537  0.3085 -0.1318 -0.7461
 1869SOL    HW117066   1.819   2.400  16.540 -0.0985 -0.3308  0.0326
 1869SOL    HW217067   1.788   2.507  16.445 -0.9622  1.1432 -0.6387
 1870SOL     OW17068   3.234   2.471   6.393 -0.4800  0.4242 -0.0048
 1870SOL    HW117069   3.161   2.418   6.427  0.8824 -0.7224  1.1155
 1870SOL    HW217070   3.244   2.523   6.472  0.7199 -2.5854  1.8402
 1871SOL     OW17071   3.990   2.284  16.192 -0.1816 -0.0541 -0.2827
 1871SOL    HW117072   4.082   2.301  16.211 -0.5940  0.9817  0.8166
 1871SOL    HW217073   3.953   2.356  16.244  3.0610 -1.0903  3.4917
 1872SOL     OW17074   0.270   2.385   3.908  0.0405 -0.1950 -0.0562
 1872SOL    HW117075   0.323   2.402   3.830  2.2440 -0.5171  1.3720
 1872SOL    HW217076   0.187   2.418   3.875 -0.3680 -0.1072  1.0470
 1873SOL     OW17077   3.958   2.216  13.125 -0.3924  0.4296 -0.1817
 1873SOL    HW117078   3.911   2.145  13.082  0.3025 -0.1200 -0.0222
 1873SOL    HW217079   4.028   2.163  13.163 -1.8745 -2.0936 -1.0287
 1874SOL     OW17080   2.493   3.119   0.884 -0.3592  0.4197  0.0959
 1874SOL    HW117081   2.493   3.154   0.795  1.1103 -1.5357 -0.6704
 1874SOL    HW217082   2.485   3.025   0.870  1.8416  0.1931  0.3804
 1875SOL     OW17083   4.451   0.151   7.244  0.1965  0.3070 -0.4235
 1875SOL    HW117084   4.416   0.133   7.331 -3.4182  0.9993 -1.7700
 1875SOL    HW217085   4.410   0.235   7.225 -0.0969 -0.0533 -1.3459
 1876SOL     OW17086   3.122   4.447   6.304 -0.0433  0.5086  0.3129
 1876SOL    HW117087   3.204   4.487   6.335  0.8947 -0.8398 -0.4082
 1876SOL    HW217088   3.100   4.395   6.381  0.4330  1.0362  0.8148
 1877SOL     OW17089   1.706   3.027  12.908  0.4179 -0.5221  0.5479
 1877SOL    HW117090   1.793   2.990  12.920  0.6170  0.1530  1.2259
 1877SOL    HW217091   1.707   3.035  12.813 -2.2795  1.2314  0.6687
 1878SOL     OW17092   0.421   3.844  12.791  0.0882  0.0956 -0.5297
 1878SOL    HW117093   0.502   3.797  12.773  1.3024  1.7544  0.6777
 1878SOL    HW217094   0.381   3.849  12.704 -1.5220  0.6065  0.2394
 1879SOL     OW17095   2.752   2.035  11.973  0.1579 -0.1896  0.4168
 1879SOL    HW117096   2.720   2.125  11.974  0.4660 -0.0951  2.0636
 1879SOL    HW217097   2.668   1.991  11.979 -0.6534  1.1610 -0.9657
 1880SOL     OW17098   0.768   1.278   5.053 -0.1981 -0.4990 -0.7915
 1880SOL    HW117099   0.851   1.309   5.019 -0.0078 -0.6905 -0.5012
 1880SOL    HW217100   0.782   1.185   5.074  2.1311  0.0008 -0.2368
 1881SOL     OW17101   0.611   3.947   4.123 -0.1796  0.8397  0.0450
 1881SOL    HW117102   0.586   3.884   4.191  1.1442  0.4221  0.1249
 1881SOL    HW217103   0.610   3.902   4.039  2.1828 -0.5978  0.8178
 1882SOL     OW17104   0.434   3.908  13.812 -0.0670 -0.2530 -0.5783
 1882SOL    HW117105   0.359   3.903  13.754 -1.5370  2.1122  1.0952
 1882SOL    HW217106   0.439   4.004  13.820 -0.6405 -0.2930  0.2448
 1883SOL     OW17107   2.259   2.949   2.774 -0.2617 -0.3691 -0.0240
 1883SOL    HW117108   2.302   2.871   2.810 -0.9319 -0.5665  0.3408
 1883SOL    HW217109   2.281   3.011   2.843 -2.0129  1.4467 -1.0903
 1884SOL     OW17110   3.795   2.656   6.169  0.0383  0.4960  0.2897
 1884SOL    HW117111   3.821   2.633   6.079 -2.2041  1.3039 -0.5598
 1884SOL    HW217112   3.877   2.698   6.194 -0.7004  0.0381  3.4071
 1885SOL     OW17113   4.614   4.258   4.929  0.0768 -0.1376  0.1024
 1885SOL    HW117114   4.692   4.305   4.958 -0.3917  0.7409 -0.0256
 1885SOL    HW217115   4.553   4.329   4.907  2.5211  1.8401 -0.2611
 1886SOL     OW17116   3.196   3.124   8.257 -0.6901 -0.8326  0.2585
 1886SOL    HW117117   3.273   3.140   8.203 -0.2315 -0.2758  1.0742
 1886SOL    HW217118   3.163   3.213   8.271 -1.8871 -1.4940  1.5417
 1887SOL     OW17119   2.637   2.889   5.060  0.1361 -0.1949  0.4650
 1887SOL    HW117120   2.551   2.927   5.080  0.5115  0.0010  1.6841
 1887SOL    HW217121   2.659   2.954   4.993 -0.3893 -2.1065 -1.5362
 1888SOL     OW17122   0.208   3.932   7.705  0.4010 -0.2961 -0.2182
 1888SOL    HW117123   0.167   3.853   7.671  0.3421 -0.8329  1.1082
 1888SOL    HW217124   0.130   3.984   7.726  0.2084 -0.4272 -0.6087
 1889SOL     OW17125   1.664   2.285   3.053 -0.3745  0.5819 -0.2196
 1889SOL    HW117126   1.590   2.335   3.018  0.6982  0.8197 -2.0782
 1889SOL    HW217127   1.740   2.334   3.024 -0.0780  0.6539  0.6612
 1890SOL     OW17128   1.742   3.800   3.156  0.4109  0.5356  0.3576
 1890SOL    HW117129   1.827   3.817   3.115  0.9590 -0.2014  1.2044
 1890SOL    HW217130   1.694   3.881   3.138  1.3063  1.2255  1.0426
 1891SOL     OW17131   4.301   0.681   7.448 -0.0065 -0.1140 -0.2453
 1891SOL    HW117132   4.307   0.771   7.482 -2.5395  0.3644 -1.0668
 1891SOL    HW217133   4.212   0.684   7.414  0.3635  2.4566 -1.0150
 1892SOL     OW17134   4.354   3.342   4.179 -0.5525 -0.5689  0.0998
 1892SOL    HW117135   4.386   3.432   4.183 -0.2393 -0.6475 -0.7749
 1892SOL    HW217136   4.384   3.317   4.092 -1.5587  0.4292 -0.5133
 1893SOL     OW17137   0.917   4.465  10.215  0.1291  0.6978  0.6814
 1893SOL    HW117138   0.994   4.521  10.211 -0.6903  1.7735 -0.2328
 1893SOL    HW217139   0.963   4.382  10.230 -0.1297  0.9270  2.7764
 1894SOL     OW17140   2.426   3.020   8.422  0.1190 -0.0124  0.0253
 1894SOL    HW117141   2.378   2.938   8.411  0.4776 -0.1010 -0.9441
 1894SOL    HW217142   2.466   2.989   8.503 -2.5911 -1.6952  0.7167
 1895SOL     OW17143   2.333   2.725   4.155  0.1659 -0.1760  0.1584
 1895SOL    HW117144   2.382   2.648   4.126  2.0474  0.8817  0.5115
 1895SOL    HW217145   2.264   2.721   4.089  0.5356 -1.4441 -0.1635
 1896SOL     OW17146   4.175   1.984  10.310 -0.2251  0.0953  0.1306
 1896SOL    HW117147   4.239   2.042  10.352 -1.7202  0.8896  1.2775
 1896SOL    HW217148   4.228   1.904  10.303 -0.2475  0.2469 -1.8069
 1897SOL     OW17149   2.814   4.182  17.001 -0.0786 -0.1885  0.5387
 1897SOL    HW117150   2.886   4.177  17.065 -1.2321 -1.7179  1.7145
 1897SOL    HW217151   2.843   4.109  16.946 -2.0996  0.2022 -1.0425
 1898SOL     OW17152   2.677   1.779   3.853 -0.0894 -0.3183  0.5608
 1898SOL    HW117153   2.766   1.778   3.818  0.2419  1.5078  1.3576
 1898SOL    HW217154   2.680   1.695   3.898 -1.8590 -0.3238  0.6763
 1899SOL     OW17155   0.166   0.129   8.448  0.3022  0.2069 -0.2072
 1899SOL    HW117156   0.108   0.076   8.503  1.7727 -0.2605  0.8879
 1899SOL    HW217157   0.113   0.146   8.370 -0.1837  2.3152  0.5932
 1900SOL     OW17158   3.358   1.853   7.489 -0.1403 -0.4569  0.0206
 1900SOL    HW117159   3.392   1.763   7.479 -0.8398 -1.0064  2.6760
 1900SOL    HW217160   3.364   1.862   7.584  0.2857 -2.5985  0.2192
 1901SOL     OW17161   4.697   1.971   6.346  0.1829  0.0872 -0.6878
 1901SOL    HW117162   4.681   1.930   6.261 -0.0226  1.4937 -1.3216
 1901SOL    HW217163   0.012   1.900   6.399 -0.2299 -0.8407 -1.6468
 1902SOL     OW17164   0.271   0.825   3.108 -0.7123  0.3949 -0.4084
 1902SOL    HW117165   0.179   0.799   3.114 -0.6501  0.7107  1.8449
 1902SOL    HW217166   0.315   0.752   3.152  0.1637  2.3408  1.9568
 1903SOL     OW17167   1.555   0.608   4.899  0.2314  0.6290 -0.2921
 1903SOL    HW117168   1.643   0.583   4.870  0.3844  0.7877  0.0334
 1903SOL    HW217169   1.503   0.545   4.849 -0.4740 -1.4327  3.0827
 1904SOL     OW17170   1.073   3.664  10.389 -0.2045 -0.0219  0.3338
 1904SOL    HW117171   1.147   3.698  10.339 -1.4996  2.9950  0.4985
 1904SOL    HW217172   1.072   3.574  10.357  1.0273  0.8314 -2.1355
 1905SOL     OW17173   0.465   1.235   7.729  0.0444  0.7181 -0.1563
 1905SOL    HW117174   0.434   1.195   7.647 -4.0252 -0.0859  1.8163
 1905SOL    HW217175   0.392   1.289   7.758 -0.9648 -0.6134 -0.1951
 1906SOL     OW17176   2.351   2.647   8.425  0.7131  0.1236 -0.4472
 1906SOL    HW117177   2.283   2.702   8.385  0.0857 -0.7326 -0.5542
 1906SOL    HW217178   2.379   2.697   8.502 -0.7526  0.5578 -0.1963
 1907SOL     OW17179   0.313   3.103   6.363  0.3930  0.0956  0.3820
 1907SOL    HW117180   0.312   3.129   6.271 -0.9120  1.9262  0.9208
 1907SOL    HW217181   0.399   3.063   6.372 -0.2037 -1.0386  1.1301
 1908SOL     OW17182   3.499   4.657   3.220  0.8634  0.0071  0.1824
 1908SOL    HW117183   3.535   4.611   3.144  4.1206  1.4175  0.9083
 1908SOL    HW217184   3.489   4.581   3.278 -1.1316 -1.0720 -1.5517
 1909SOL     OW17185   4.264   4.381  13.442 -0.2766  0.4589 -0.4511
 1909SOL    HW117186   4.248   4.288  13.453  1.1799  0.4906  1.9674
 1909SOL    HW217187   4.358   4.381  13.458 -0.3832  0.9958  0.1908
 1910SOL     OW17188   1.944   2.000  11.893  0.3694  0.4850 -0.2401
 1910SOL    HW117189   1.908   1.982  11.807  1.6954 -0.5629 -0.5818
 1910SOL    HW217190   1.910   1.937  11.956 -0.6690  1.8085  0.5263
 1911SOL     OW17191   4.387   4.470   0.427 -0.0404  0.0338  0.5474
 1911SOL    HW117192   4.473   4.459   0.385 -0.3388  0.6706 -0.2422
 1911SOL    HW217193   4.399   4.565   0.436  1.9047 -0.1853  0.3301
 1912SOL     OW17194   3.446   0.218   5.241  0.0965 -0.4379  0.1853
 1912SOL    HW117195   3.540   0.218   5.227  0.0395 -0.1411 -0.2051
 1912SOL    HW217196   3.434   0.146   5.303 -0.2423 -0.2844  0.2950
 1913SOL     OW17197   0.891   1.824  11.347  0.3311 -0.0281  0.3989
 1913SOL    HW117198   0.918   1.875  11.423  1.0627  0.5229 -0.2265
 1913SOL    HW217199   0.822   1.767  11.380  1.0988 -0.0197  2.0288
 1914SOL     OW17200   3.485   2.722   5.271  0.1695  0.3709 -0.2389
 1914SOL    HW117201   3.409   2.735   5.214  1.2176 -0.0637 -1.7196
 1914SOL    HW217202   3.454   2.744   5.359 -1.4397  0.9739 -0.9509
 1915SOL     OW17203   3.177   2.617   3.463 -0.0697 -0.1589 -0.4656
 1915SOL    HW117204   3.163   2.604   3.557  1.6734  1.3161 -0.0041
 1915SOL    HW217205   3.132   2.546   3.417 -1.7180  0.7047 -0.1655
 1916SOL     OW17206   3.942   2.553   9.665  0.4060  0.4093 -0.3582
 1916SOL    HW117207   3.873   2.619   9.670  0.0741 -0.0802  1.7532
 1916SOL    HW217208   4.020   2.594   9.703  0.6887 -0.9362  0.4949
 1917SOL     OW17209   0.582   4.187   7.345 -0.4671 -0.3940  0.3966
 1917SOL    HW117210   0.559   4.172   7.254  2.6211 -0.9404 -0.2840
 1917SOL    HW217211   0.606   4.280   7.350  4.3329 -1.6635  0.9368
 1918SOL     OW17212   3.284   0.411   7.744  0.5430 -0.1272 -0.4163
 1918SOL    HW117213   3.239   0.338   7.786 -1.9092  2.1401  0.9162
 1918SOL    HW217214   3.245   0.407   7.656  0.6797  0.9572 -0.5244
 1919SOL     OW17215   0.135   4.360   1.953 -0.3030 -0.3526  0.2202
 1919SOL    HW117216   0.179   4.330   1.874 -0.0167  0.7878 -0.0445
 1919SOL    HW217217   0.182   4.326   2.029 -0.7460 -0.6990  0.3423
 1920SOL     OW17218   4.661   0.252   5.471 -0.1397  0.6084  0.0325
 1920SOL    HW117219   0.018   0.252   5.417 -0.8299 -0.6438 -0.9930
 1920SOL    HW217220   4.694   0.235   5.559  0.0599  0.7484 -0.0162
 1921SOL     OW17221   4.199   2.151   5.722 -0.0273  0.4172 -0.1049
 1921SOL    HW117222   4.124   2.125   5.670  0.1921  2.1798 -1.3108
 1921SOL    HW217223   4.275   2.138   5.666  1.8665 -1.4115  2.8525
 1922SOL     OW17224   2.229   1.254  15.414 -0.4373 -0.3014  0.3760
 1922SOL    HW117225   2.248   1.329  15.358 -0.2331 -0.1119  0.6985
 1922SOL    HW217226   2.219   1.294  15.500 -0.2445 -1.9149  1.1694
 1923SOL     OW17227   3.544   4.458   7.684 -0.4086  0.3865  0.0741
 1923SOL    HW117228   3.506   4.399   7.620  2.2532 -0.7529 -0.4503
 1923SOL    HW217229   3.512   4.418   7.765  0.6336 -0.6451 -0.0394
 1924SOL     OW17230   1.044   2.192   2.714  0.1296  0.0757 -0.0882
 1924SOL    HW117231   0.964   2.184   2.663  1.4451 -1.3692 -1.9115
 1924SOL    HW217232   1.068   2.099   2.720 -1.6919 -0.2613  2.1210
 1925SOL     OW17233   0.684   4.455   2.454  0.3138  0.1377 -0.4567
 1925SOL    HW117234   0.754   4.432   2.392  0.0253 -0.3107 -0.6156
 1925SOL    HW217235   0.689   4.550   2.464 -0.9302 -0.0472  1.8644
 1926SOL     OW17236   0.221   3.993   4.790  0.1860  0.3852 -0.3134
 1926SOL    HW117237   0.281   3.934   4.743  2.2067  1.8881  0.3745
 1926SOL    HW217238   0.286   4.045   4.837  0.5542  0.2538 -0.6719
 1927SOL     OW17239   0.976   2.826   1.638 -0.2808  0.0290 -0.3375
 1927SOL    HW117240   0.881   2.838   1.641 -0.3854 -1.1458  1.0508
 1927SOL    HW217241   0.985   2.735   1.610  0.1003  0.4037 -1.4021
 1928SOL     OW17242   2.818   2.011   7.608  0.6794 -0.0486 -0.4332
 1928SOL    HW117243   2.795   2.076   7.541  2.3434  1.0978  0.1030
 1928SOL    HW217244   2.911   1.998   7.594  0.7927 -0.0834  0.3355
 1929SOL     OW17245   3.669   1.972   9.746 -0.2487 -0.5782  0.1483
 1929SOL    HW117246   3.613   1.928   9.683 -0.7140 -0.8261  0.7316
 1929SOL    HW217247   3.611   2.010   9.813 -0.2879 -0.7369  0.2042
 1930SOL     OW17248   4.684   2.334   6.981  0.4820 -0.0195 -0.1614
 1930SOL    HW117249   0.003   2.247   6.986 -0.5195 -0.4258  0.6351
 1930SOL    HW217250   4.644   2.337   7.067  1.6341 -0.8972  0.4064
 1931SOL     OW17251   3.461   0.549   7.234  0.0251  0.2302  0.4204
 1931SOL    HW117252   3.455   0.639   7.201 -1.3586  0.8787  2.4429
 1931SOL    HW217253   3.492   0.510   7.152 -0.1747  0.2150  0.3526
 1932SOL     OW17254   0.854   3.308   6.587  0.1201 -0.1887 -0.2103
 1932SOL    HW117255   0.945   3.287   6.608  0.6216  0.4619 -1.7733
 1932SOL    HW217256   0.812   3.233   6.544 -1.6323 -0.0301  1.2049
 1933SOL     OW17257   4.205   1.328   7.861 -0.1660 -0.5608 -0.6748
 1933SOL    HW117258   4.289   1.286   7.842 -0.9655 -2.7682  0.6671
 1933SOL    HW217259   4.171   1.292   7.943  1.9550 -1.3241 -0.1382
 1934SOL     OW17260   4.090   3.472   4.934 -0.2077 -0.4051 -0.4419
 1934SOL    HW117261   4.170   3.518   4.960 -0.1995 -1.0890  0.7174
 1934SOL    HW217262   4.113   3.425   4.853  1.3028 -0.8426  0.2388
 1935SOL     OW17263   0.686   0.713   1.483 -0.6963  0.4739 -0.1064
 1935SOL    HW117264   0.680   0.685   1.392  1.4294  0.3158 -0.2117
 1935SOL    HW217265   0.694   0.805   1.457 -1.8051  0.7872  0.6608
 1936SOL     OW17266   0.852   0.796   8.115  0.4923 -0.0948 -0.1126
 1936SOL    HW117267   0.868   0.777   8.207  0.8013  0.0239 -0.1427
 1936SOL    HW217268   0.764   0.828   8.137 -0.0301 -2.2988  0.9832
 1937SOL     OW17269   1.315   2.413   7.323 -0.2988  0.1211 -0.0306
 1937SOL    HW117270   1.376   2.343   7.345  0.3184  0.2508 -1.3443
 1937SOL    HW217271   1.229   2.370   7.325  0.4707 -1.2639  2.6210
 1938SOL     OW17272   1.268   2.648   7.991 -0.4352 -0.3201  0.1008
 1938SOL    HW117273   1.359   2.637   7.964 -0.6226 -2.0676  0.1283
 1938SOL    HW217274   1.254   2.742   7.999 -2.0425 -0.3802 -1.9330
 1939SOL     OW17275   4.706   4.307   7.614  0.0285 -0.0081  0.3602
 1939SOL    HW117276   4.658   4.231   7.648 -0.0290  0.3522  1.0877
 1939SOL    HW217277   0.073   4.276   7.631 -0.0865 -1.5317 -1.8727
 1940SOL     OW17278   2.672   4.666   1.310 -0.0290 -0.0516  0.0499
 1940SOL    HW117279   2.727   0.021   1.331  1.9954 -1.2152 -1.0409
 1940SOL    HW217280   2.590   4.687   1.355  1.1497 -2.4624  3.2944
 1941SOL     OW17281   0.827   3.702   0.605 -0.0132  0.0698 -0.0147
 1941SOL    HW117282   0.835   3.744   0.519 -0.1880 -0.2163 -0.1726
 1941SOL    HW217283   0.876   3.628   0.568 -0.6596 -0.6627  0.6140
 1942SOL     OW17284   4.458   1.728   8.025  0.1352 -0.0829  0.4680
 1942SOL    HW117285   4.402   1.691   7.957 -1.0248  2.3375  0.0985
 1942SOL    HW217286   4.407   1.803   8.055 -2.5722 -0.9882 -1.8777
 1943SOL     OW17287   2.456   0.142  13.100 -0.1168  0.2983 -0.6184
 1943SOL    HW117288   2.481   0.182  13.016  2.1806  1.5989  0.7033
 1943SOL    HW217289   2.516   0.175  13.166  2.3741 -0.4223 -2.5275
 1944SOL     OW17290   0.977   0.690   3.299  0.1994 -0.1236  0.5076
 1944SOL    HW117291   0.964   0.701   3.393 -3.6479  1.5631 -0.1936
 1944SOL    HW217292   0.907   0.630   3.272  1.2165 -1.3912  0.6607
 1945SOL     OW17293   4.458   4.186   7.977  0.3629  0.3260 -1.1923
 1945SOL    HW117294   4.514   4.243   8.030  1.2915 -1.5329 -0.1730
 1945SOL    HW217295   4.508   4.104   7.978 -0.3742 -0.1258 -1.0828
 1946SOL     OW17296   2.480   1.081   3.579  1.0125  0.1291 -0.4355
 1946SOL    HW117297   2.442   1.079   3.667 -0.5718  3.0659 -1.0663
 1946SOL    HW217298   2.424   1.010   3.548  3.0842 -0.8003 -2.0808
 1947SOL     OW17299   1.544   4.056   0.195  0.5234  0.0493  0.3615
 1947SOL    HW117300   1.623   4.046   0.142  0.5414 -0.6299  0.5243
 1947SOL    HW217301   1.540   3.961   0.202 -2.9199  0.1129 -0.4507
 1948SOL     OW17302   1.505   2.550   7.165  0.0919  0.1933 -0.0580
 1948SOL    HW117303   1.442   2.495   7.211 -0.1505  1.1260  0.7189
 1948SOL    HW217304   1.505   2.623   7.227 -0.9442  1.6964 -1.8397
 1949SOL     OW17305   0.419   0.131   6.048 -0.3807 -0.2569  0.2830
 1949SOL    HW117306   0.486   0.120   5.981  0.4961 -0.0680  1.1254
 1949SOL    HW217307   0.358   0.061   6.023 -0.7105  0.5866 -1.2898
 1950SOL     OW17308   3.732   0.373   5.991 -0.4083 -0.5418 -0.4840
 1950SOL    HW117309   3.698   0.462   5.991 -0.5346 -0.5829  2.1094
 1950SOL    HW217310   3.813   0.386   6.040 -1.1529  0.4096  0.5018
 1951SOL     OW17311   4.563   2.833   6.016  0.0282 -0.1272  0.1304
 1951SOL    HW117312   4.579   2.801   6.105 -3.9956 -0.3604  0.7716
 1951SOL    HW217313   4.627   2.903   6.006 -1.2701  0.8873 -1.2059
 1952SOL     OW17314   0.107   4.059   4.104  0.1499 -0.0371 -0.0509
 1952SOL    HW117315   0.119   4.139   4.154 -0.5198  0.5425 -0.8067
 1952SOL    HW217316   0.043   4.088   4.039  0.2418  0.2258 -0.0218
 1953SOL     OW17317   2.315   4.052   1.201  0.6466 -0.3078  0.2165
 1953SOL    HW117318   2.266   4.111   1.258  2.2388  3.7392 -2.5779
 1953SOL    HW217319   2.351   4.114   1.138 -1.0526 -0.8996 -1.3262
 1954SOL     OW17320   4.066   1.338  10.992 -0.0438 -0.4625  0.1717
 1954SOL    HW117321   4.021   1.417  10.965  0.7339 -0.3289 -0.7256
 1954SOL    HW217322   4.040   1.329  11.084  1.7140 -0.1847  0.6977
 1955SOL     OW17323   1.184   2.714   1.896  0.2934 -0.1716  0.3751
 1955SOL    HW117324   1.216   2.765   1.970 -1.0842 -0.1553  0.9645
 1955SOL    HW217325   1.253   2.740   1.835 -1.6370 -0.4128 -1.9111
 1956SOL     OW17326   3.864   1.390   8.617 -0.9044  0.1356  0.5075
 1956SOL    HW117327   3.843   1.463   8.559 -1.3506  0.4721  1.0967
 1956SOL    HW217328   3.924   1.441   8.672 -1.0307 -0.2627  1.0119
 1957SOL     OW17329   1.215   0.169   3.451 -0.5873 -0.0332 -0.3911
 1957SOL    HW117330   1.157   0.094   3.462 -0.4225 -0.1581 -0.3743
 1957SOL    HW217331   1.169   0.240   3.496  0.4700  0.9440 -0.8509
 1958SOL     OW17332   3.336   0.706   3.813  0.5288 -0.4485  0.0888
 1958SOL    HW117333   3.275   0.634   3.796 -1.1901  1.2503 -0.9763
 1958SOL    HW217334   3.328   0.717   3.908 -0.0288  0.1878 -0.0281
 1959SOL     OW17335   3.718   2.478   3.039  0.1910  0.0624 -0.0703
 1959SOL    HW117336   3.734   2.417   3.112 -2.2622 -1.0785 -0.4850
 1959SOL    HW217337   3.799   2.528   3.036 -0.7597  1.6578  0.9655
 1960SOL     OW17338   1.504   3.246   2.736 -0.2784  0.1013 -0.6822
 1960SOL    HW117339   1.416   3.208   2.747 -0.3330  0.3008 -0.4227
 1960SOL    HW217340   1.531   3.261   2.827 -0.6769 -1.1488 -0.3439
 1961SOL     OW17341   0.721   1.642   9.248  0.2110  0.5151  0.3827
 1961SOL    HW117342   0.753   1.568   9.299  1.0986  1.0435  0.5894
 1961SOL    HW217343   0.683   1.689   9.323  1.0406  2.4979 -0.4376
 1962SOL     OW17344   4.608   2.125   7.599  0.2674 -0.4597  0.2475
 1962SOL    HW117345   4.659   2.162   7.671  0.3642 -0.9976  0.4530
 1962SOL    HW217346   4.554   2.199   7.571 -0.5281 -1.4353 -0.7869
 1963SOL     OW17347   4.171   2.373   1.021  0.1844  0.2607  0.0355
 1963SOL    HW117348   4.083   2.391   0.989  0.4757  1.2947 -0.1683
 1963SOL    HW217349   4.149   2.325   1.101 -0.6304  1.6336  0.6276
 1964SOL     OW17350   3.159   1.723   6.946  0.4963 -0.1980 -0.6606
 1964SOL    HW117351   3.083   1.678   6.911 -0.2365  0.5126  0.0051
 1964SOL    HW217352   3.144   1.705   7.039  0.4008 -1.6241 -0.9621
 1965SOL     OW17353   2.353   4.259  11.601 -0.4985  0.5718  0.3529
 1965SOL    HW117354   2.448   4.271  11.596 -0.6052  0.4897 -1.8368
 1965SOL    HW217355   2.340   4.276  11.694 -0.5559 -0.9541  0.6337
 1966SOL     OW17356   0.634   0.058   2.739 -0.4959  0.3789 -0.3995
 1966SOL    HW117357   0.611   0.145   2.707  0.8531  1.4905  1.5904
 1966SOL    HW217358   0.730   0.058   2.744 -0.4888  2.3904 -0.1824
 1967SOL     OW17359   0.891   2.851   6.715  0.8181  0.6468  0.2487
 1967SOL    HW117360   0.923   2.881   6.630 -2.3352  2.8115 -0.1438
 1967SOL    HW217361   0.815   2.797   6.691  1.4176  0.0110 -0.2150
 1968SOL     OW17362   1.591   2.859  10.301 -0.5282 -0.3317  0.1337
 1968SOL    HW117363   1.524   2.926  10.311  1.4507  1.5218  0.9994
 1968SOL    HW217364   1.549   2.790  10.351 -1.7449  1.0255  0.9818
 1969SOL     OW17365   2.971   0.981   0.945 -0.0091 -0.1543  0.1701
 1969SOL    HW117366   2.977   0.891   0.913 -1.2380 -0.0968 -0.2408
 1969SOL    HW217367   2.924   0.964   1.027 -1.2122  1.6168 -0.1482
 1970SOL     OW17368   1.029   3.351   8.258  0.2008 -0.0683  0.4864
 1970SOL    HW117369   1.079   3.432   8.248 -1.8822  1.0146 -1.2475
 1970SOL    HW217370   1.058   3.331   8.347 -0.6164  1.5359  1.0952
 1971SOL     OW17371   3.835   0.235   8.727  0.4285 -0.0177 -0.1869
 1971SOL    HW117372   3.780   0.301   8.684  0.1762 -0.6193 -0.7759
 1971SOL    HW217373   3.914   0.253   8.676  0.2549  1.2923  0.0012
 1972SOL     OW17374   2.173   0.643   6.947  0.0703 -0.4951  0.4101
 1972SOL    HW117375   2.266   0.663   6.959 -0.1951 -0.1187  1.8313
 1972SOL    HW217376   2.138   0.691   6.872  1.0716  0.8192  0.7853
 1973SOL     OW17377   2.579   4.069  10.234  0.8344  0.5515 -0.3240
 1973SOL    HW117378   2.673   4.079  10.219  0.5835 -1.2136 -3.0725
 1973SOL    HW217379   2.554   4.161  10.228  1.1337  0.7123  0.9319
 1974SOL     OW17380   2.342   2.620   2.351  0.1072 -0.4023  0.2638
 1974SOL    HW117381   2.349   2.715   2.360 -0.6027 -0.1064 -2.2372
 1974SOL    HW217382   2.316   2.593   2.439 -1.7573  0.8578  0.0866
 1975SOL     OW17383   2.022   2.711   8.238 -0.1001  0.1916  0.4539
 1975SOL    HW117384   1.959   2.658   8.286 -1.8466  1.3995 -0.5386
 1975SOL    HW217385   2.018   2.669   8.153 -0.5709 -1.2969  1.2141
 1976SOL     OW17386   2.466   4.491   3.184  0.1747  0.3421  0.3074
 1976SOL    HW117387   2.455   4.472   3.091 -1.1397 -0.0959  0.5594
 1976SOL    HW217388   2.558   4.467   3.200 -0.0808 -2.3847 -2.2203
 1977SOL     OW17389   3.821   0.963   7.879 -0.0412  0.3818 -0.5225
 1977SOL    HW117390   3.743   0.914   7.853  1.2074 -1.2036 -1.2400
 1977SOL    HW217391   3.806   0.957   7.974 -0.5556 -0.9016 -0.6798
 1978SOL     OW17392   3.323   1.837   2.782  0.0645  0.3431  0.3647
 1978SOL    HW117393   3.269   1.813   2.707 -0.2033  0.6024  0.4750
 1978SOL    HW217394   3.377   1.758   2.770  0.8676  1.1835 -1.6524
 1979SOL     OW17395   1.071   2.640   5.238 -0.0686  0.6179 -0.2185
 1979SOL    HW117396   1.030   2.636   5.325  1.2240  0.0813  0.3615
 1979SOL    HW217397   1.019   2.714   5.204  1.0049  1.9971  1.1419
 1980SOL     OW17398   1.067   2.687   0.775  0.3800  0.1139  0.1000
 1980SOL    HW117399   1.118   2.752   0.727  1.5518  1.7651  3.5691
 1980SOL    HW217400   1.132   2.622   0.801  0.2466 -0.4074 -0.8779
 1981SOL     OW17401   4.352   4.168  16.614 -0.3010 -0.6492  0.0174
 1981SOL    HW117402   4.261   4.136  16.611 -0.6039  0.1896  0.1047
 1981SOL    HW217403   4.393   4.094  16.570 -0.0889 -1.2690  1.2553
 1982SOL     OW17404   2.501   4.496  11.773  0.0849 -0.3708  0.3538
 1982SOL    HW117405   2.469   4.451  11.851 -0.5814  0.1080  0.3607
 1982SOL    HW217406   2.541   4.422  11.729 -1.8013 -1.8775  1.1416
 1983SOL     OW17407   3.997   0.454   2.228  0.7179 -0.4640  0.0777
 1983SOL    HW117408   4.078   0.450   2.177 -0.2901  5.3984 -2.0365
 1983SOL    HW217409   3.934   0.448   2.156  1.9549  1.8973 -1.2371
 1984SOL     OW17410   1.982   1.902  11.400 -0.3010 -0.2717 -0.2225
 1984SOL    HW117411   1.919   1.899  11.472 -0.7309 -1.6068 -0.6405
 1984SOL    HW217412   1.965   1.992  11.375 -2.4306 -0.8338 -0.8173
 1985SOL     OW17413   4.233   1.513   4.700  0.1989 -0.0158  0.2502
 1985SOL    HW117414   4.161   1.574   4.683 -1.1333 -2.1388 -1.6812
 1985SOL    HW217415   4.294   1.558   4.641  0.4958 -2.6933 -1.4551
 1986SOL     OW17416   2.295   4.409   5.599 -0.1190 -0.0202 -0.0953
 1986SOL    HW117417   2.306   4.318   5.626  1.8580  0.5421  0.9599
 1986SOL    HW217418   2.368   4.430   5.542 -0.4681  0.1253 -0.4940
 1987SOL     OW17419   4.186   1.875   2.662 -0.1987 -0.0851  0.1135
 1987SOL    HW117420   4.193   1.886   2.757  2.7769  1.8475 -0.3255
 1987SOL    HW217421   4.159   1.784   2.665  2.6836 -0.8972  1.3330
 1988SOL     OW17422   3.246   4.469   4.040  0.1664 -0.7643 -0.1082
 1988SOL    HW117423   3.246   4.536   3.971 -2.7380 -1.1746 -0.4922
 1988SOL    HW217424   3.190   4.406   3.996 -1.5122 -0.7025  1.9278
 1989SOL     OW17425   2.648   1.088   7.301  0.6517  0.5995  0.7450
 1989SOL    HW117426   2.679   1.176   7.280  1.9502 -0.2957 -1.1213
 1989SOL    HW217427   2.726   1.038   7.276  1.1717  0.8298  1.9109
 1990SOL     OW17428   3.014   0.527  10.421 -0.0421  0.1254  0.0465
 1990SOL    HW117429   3.027   0.570  10.337 -0.1325 -0.2720 -0.1660
 1990SOL    HW217430   3.066   0.448  10.408  0.6200  0.4454  0.6877
 1991SOL     OW17431   2.780   1.421   2.330  0.1061  0.1823 -0.1183
 1991SOL    HW117432   2.759   1.460   2.415  0.0553  0.0237 -0.0573
 1991SOL    HW217433   2.870   1.389   2.337 -0.2873 -1.1701 -1.2603
 1992SOL     OW17434   2.422   3.229   9.665  0.3216 -0.0413 -0.1503
 1992SOL    HW117435   2.506   3.259   9.630  1.1057 -3.5780 -1.2766
 1992SOL    HW217436   2.382   3.313   9.686  1.1693 -0.1732  1.9389
 1993SOL     OW17437   3.901   0.897   2.925  0.3444  0.1940  0.2280
 1993SOL    HW117438   3.838   0.827   2.909 -2.8143  2.7589  1.4621
 1993SOL    HW217439   3.935   0.862   3.007 -3.5530 -0.1688  1.6887
 1994SOL     OW17440   3.581   4.258   3.994 -0.2021  0.4331 -0.5848
 1994SOL    HW117441   3.670   4.283   4.018 -0.3832 -0.9948  1.6271
 1994SOL    HW217442   3.590   4.164   3.978 -0.7525  0.1877  0.5319
 1995SOL     OW17443   3.160   1.065   5.348  0.3956  0.3997 -0.2252
 1995SOL    HW117444   3.177   0.981   5.392  1.8299  1.2666  0.8727
 1995SOL    HW217445   3.209   1.128   5.399  1.3831  0.3546 -1.1143
 1996SOL     OW17446   2.634   2.008   0.007 -0.6927 -0.0496 -0.2426
 1996SOL    HW117447   2.617   1.943  17.626  1.7151  0.8938 -1.7252
 1996SOL    HW217448   2.727   1.990   0.019 -0.6290  1.1647  0.9901
 1997SOL     OW17449   4.112   3.923   4.901 -0.4740  0.7468  0.9196
 1997SOL    HW117450   4.180   3.980   4.936 -1.2356  1.2917  1.4974
 1997SOL    HW217451   4.100   3.857   4.970  0.0410  2.9955  3.1418
 1998SOL     OW17452   4.072   3.722   3.318 -0.0297 -0.3007  0.3887
 1998SOL    HW117453   4.028   3.703   3.401 -1.5840  1.5082 -0.0098
 1998SOL    HW217454   4.067   3.636   3.278 -2.2435  0.0145 -0.0208
 1999SOL     OW17455   2.612   2.612   2.118  0.1803  0.2163  0.2956
 1999SOL    HW117456   2.616   2.705   2.143  1.6769 -0.1844  1.5531
 1999SOL    HW217457   2.665   2.574   2.189  1.5015  0.8047 -0.3716
 2000SOL     OW17458   1.979   2.919   2.505 -0.7254 -0.6607 -0.6968
 2000SOL    HW117459   2.031   2.996   2.530  0.1003 -0.9725 -1.4369
 2000SOL    HW217460   1.895   2.946   2.542 -0.0563 -0.0281  0.3918
 2001SOL     OW17461   3.483   0.132   1.293  0.0203 -0.0495 -0.2245
 2001SOL    HW117462   3.444   0.089   1.217  2.6712 -1.2045 -0.9390
 2001SOL    HW217463   3.560   0.077   1.303  1.0840  1.2007 -1.3880
 2002SOL     OW17464   0.565   1.525   5.663 -0.6212  0.5150  0.1105
 2002SOL    HW117465   0.569   1.478   5.746 -2.0487  0.0641 -0.0735
 2002SOL    HW217466   0.484   1.498   5.618 -0.3447  0.1942 -0.2046
 2003SOL     OW17467   0.568   2.820  16.150 -0.1680  0.4512 -0.0893
 2003SOL    HW117468   0.592   2.903  16.109  0.9593  0.5712  0.8227
 2003SOL    HW217469   0.649   2.787  16.189  0.4606  0.7041 -1.1922
 2004SOL     OW17470   0.162   4.457   6.178  0.5956  0.0973 -0.1870
 2004SOL    HW117471   0.111   4.441   6.098  0.3128  0.9996 -0.1841
 2004SOL    HW217472   0.100   4.474   6.248 -1.6687 -1.4702 -1.7951
 2005SOL     OW17473   3.250   3.638   7.034  0.0235 -0.0812  0.2204
 2005SOL    HW117474   3.315   3.697   7.072  1.9505 -1.4327 -1.0300
 2005SOL    HW217475   3.274   3.551   7.066  2.5051  0.5322  0.0291
 2006SOL     OW17476   4.305   2.208   1.998  0.5780 -0.7971 -0.1302
 2006SOL    HW117477   4.248   2.218   2.074 -0.3098  0.3199 -0.9388
 2006SOL    HW217478   4.250   2.224   1.920  2.0451  0.0619 -0.9865
 2007SOL     OW17479   0.590   2.221   0.990 -0.5430  0.1437  0.3174
 2007SOL    HW117480   0.621   2.309   0.972 -1.6699 -0.0033 -2.4038
 2007SOL    HW217481   0.615   2.203   1.081 -2.7187  1.2435  1.1233
 2008SOL     OW17482   1.536   0.398   6.160 -0.0013 -0.1463  0.0020
 2008SOL    HW117483   1.467   0.444   6.113 -1.6450 -0.7600  1.8208
 2008SOL    HW217484   1.586   0.361   6.087  2.6884  0.9315  1.2856
 2009SOL     OW17485   1.635   0.706   7.569 -0.3939  1.0262  0.5799
 2009SOL    HW117486   1.728   0.703   7.594  0.0284 -0.8582 -1.2246
 2009SOL    HW217487   1.602   0.616   7.571  2.3885 -0.0578 -2.4162
 2010SOL     OW17488   2.127   0.292   6.280  0.2484  0.3680  1.0670
 2010SOL    HW117489   2.165   0.213   6.319  1.1660 -0.3232 -1.1963
 2010SOL    HW217490   2.069   0.321   6.350 -0.7486 -2.1760  1.2886
 2011SOL     OW17491   4.160   1.490   7.583 -0.4115  0.1316  0.4716
 2011SOL    HW117492   4.199   1.424   7.640 -0.7128 -1.7571 -1.5077
 2011SOL    HW217493   4.084   1.516   7.635 -0.9731  1.2941 -0.9254
 2012SOL     OW17494   2.923   0.495   5.424  0.0030 -0.1006  0.2144
 2012SOL    HW117495   2.923   0.475   5.330 -2.0059  0.1947  0.1549
 2012SOL    HW217496   2.873   0.416   5.444  0.8038 -0.6804 -0.0611
 2013SOL     OW17497   1.956   4.598   8.202  0.2739 -0.1716  0.0129
 2013SOL    HW117498   1.876   4.646   8.183  0.4395  0.2853  0.4736
 2013SOL    HW217499   2.004   4.655   8.262 -1.2994  1.4835 -0.3136
 2014SOL     OW17500   2.104   0.909  11.163 -0.2529 -0.3039  0.1116
 2014SOL    HW117501   2.123   0.861  11.244  0.1750  0.1158  0.2569
 2014SOL    HW217502   2.036   0.969  11.193 -0.9765 -0.8917 -0.3496
 2015SOL     OW17503   2.471   1.903   3.970 -0.2063  0.1699  0.0378
 2015SOL    HW117504   2.413   1.908   3.894  0.0037  0.5283 -0.0987
 2015SOL    HW217505   2.549   1.860   3.934 -0.0310 -0.3227  1.0089
 2016SOL     OW17506   0.957   4.707   9.221  0.2408 -0.1577 -0.3607
 2016SOL    HW117507   0.930   0.065   9.267  0.6701  0.1727 -0.6856
 2016SOL    HW217508   1.016   4.672   9.288 -0.4576 -0.2381  0.2195
 2017SOL     OW17509   1.411   0.056   6.109 -0.0207 -0.0269  0.4993
 2017SOL    HW117510   1.438   0.062   6.201  0.3038  1.1228  0.3200
 2017SOL    HW217511   1.358   0.133   6.091  0.3899 -0.1587 -1.2577
 2018SOL     OW17512   4.180   0.319   3.634  0.4725 -0.9237  0.0172
 2018SOL    HW117513   4.242   0.374   3.586  0.5694 -0.4668  0.6581
 2018SOL    HW217514   4.234   0.241   3.637  1.1677 -0.4840 -1.0211
 2019SOL     OW17515   4.152   3.855  16.111  0.1528  0.4421 -0.1199
 2019SOL    HW117516   4.166   3.801  16.033  2.2436  0.1770  0.4594
 2019SOL    HW217517   4.105   3.927  16.069  0.5067 -0.8655 -2.8061
 2020SOL     OW17518   2.169   1.623  14.142 -0.1365  0.6147  0.0933
 2020SOL    HW117519   2.178   1.591  14.052 -0.3035  1.7778 -0.3383
 2020SOL    HW217520   2.263   1.612  14.156 -0.3778 -1.7054 -0.0341
 2021SOL     OW17521   2.470   0.453   7.830 -0.0992  0.4841 -0.4586
 2021SOL    HW117522   2.401   0.485   7.887  0.7691 -1.8820  1.9425
 2021SOL    HW217523   2.541   0.515   7.846 -0.5936  0.8619  0.2795
 2022SOL     OW17524   0.155   1.334   4.364  0.4888 -0.1836  0.1199
 2022SOL    HW117525   0.091   1.351   4.295  0.1682  0.8259  0.6649
 2022SOL    HW217526   0.219   1.282   4.316 -1.2751 -0.2977 -2.0759
 2023SOL     OW17527   1.819   4.191   0.439  1.0778  0.2726 -0.7973
 2023SOL    HW117528   1.839   4.284   0.429  2.1986  0.1167  0.0316
 2023SOL    HW217529   1.883   4.149   0.382  0.4220  2.3538 -3.0686
 2024SOL     OW17530   1.477   3.972   4.838  0.4127  0.0125 -0.6668
 2024SOL    HW117531   1.521   3.952   4.920 -0.8422 -2.0899 -0.5026
 2024SOL    HW217532   1.423   4.044   4.872  0.1564  0.3295 -1.7380
 2025SOL     OW17533   2.445   1.783   0.546  0.7537  0.0544  0.2351
 2025SOL    HW117534   2.486   1.834   0.477 -0.8163  0.7079 -0.2116
 2025SOL    HW217535   2.497   1.702   0.544 -0.3380 -0.6351 -0.1973
 2026SOL     OW17536   1.202   3.603   8.263 -0.1397 -0.8183 -0.5572
 2026SOL    HW117537   1.192   3.658   8.185 -0.8941 -0.4909 -0.2349
 2026SOL    HW217538   1.161   3.659   8.330  0.6443  1.0018 -1.5874
 2027SOL     OW17539   4.682   1.016   8.340  0.3766 -0.0364 -0.2405
 2027SOL    HW117540   4.647   0.978   8.260 -2.1604  0.4913  0.6336
 2027SOL    HW217541   0.037   1.060   8.303  0.1437  1.9217  1.6084
 2028SOL     OW17542   1.028   0.535  10.738  0.4044  0.6866 -0.8211
 2028SOL    HW117543   1.054   0.543  10.830 -0.4821  1.2893 -0.6314
 2028SOL    HW217544   0.987   0.620  10.724  0.2204  0.9913  1.5595
 2029SOL     OW17545   2.739   4.327   5.480  0.1204  0.3876 -0.0836
 2029SOL    HW117546   2.761   4.242   5.443  0.3950  1.1351 -1.6669
 2029SOL    HW217547   2.645   4.309   5.480 -0.0868  1.4516  2.0084
 2030SOL     OW17548   1.691   4.639  11.070 -0.2198 -0.6606 -0.1163
 2030SOL    HW117549   1.648   4.608  11.150  0.1297 -0.1855  0.2505
 2030SOL    HW217550   1.621   4.695  11.038  1.1824  1.5307  0.6843
 2031SOL     OW17551   0.277   0.067  13.215  0.0143  0.6086  0.0040
 2031SOL    HW117552   0.362   0.027  13.234 -0.0041  0.4211 -0.2980
 2031SOL    HW217553   0.214   0.048  13.285  2.6707  3.4071  3.1536
 2032SOL     OW17554   1.520   3.350   1.154  0.4832  0.2330 -0.5754
 2032SOL    HW117555   1.601   3.383   1.116  0.8118  2.5947  2.1709
 2032SOL    HW217556   1.478   3.430   1.185  0.0655 -0.4822  0.7146
 2033SOL     OW17557   3.949   1.841   9.484 -0.1323 -0.5198  0.3943
 2033SOL    HW117558   3.957   1.837   9.580 -2.5910  3.3323  0.7488
 2033SOL    HW217559   4.031   1.885   9.460  0.2770 -1.5454 -0.0656
 2034SOL     OW17560   3.072   3.291   3.118  0.2396 -0.6645 -0.1401
 2034SOL    HW117561   3.093   3.212   3.069  1.7878 -0.9753  1.0133
 2034SOL    HW217562   3.126   3.293   3.197  1.6281  1.8242 -1.1622
 2035SOL     OW17563   4.327   4.654   2.395  0.4295 -0.6368 -0.1756
 2035SOL    HW117564   4.387   0.004   2.415  1.4097 -1.0136 -1.7749
 2035SOL    HW217565   4.269   4.694   2.330 -0.0371 -1.2519 -0.1329
 2036SOL     OW17566   1.491   0.022   2.046  0.4468 -0.3956 -0.2257
 2036SOL    HW117567   1.471   0.063   1.962  2.0440  1.4188  0.2835
 2036SOL    HW217568   1.447   0.085   2.103 -1.5041 -2.9973  1.1603
 2037SOL     OW17569   1.500   1.005   0.512 -0.8352 -0.7217  0.4599
 2037SOL    HW117570   1.493   1.031   0.604  0.3274  1.8651 -0.1968
 2037SOL    HW217571   1.499   0.909   0.513  1.3535 -0.7563 -3.6290
 2038SOL     OW17572   2.192   1.380  13.910  0.5824 -0.4062 -0.1485
 2038SOL    HW117573   2.132   1.316  13.949 -0.4996 -0.2884 -1.6369
 2038SOL    HW217574   2.243   1.320  13.856 -0.6249 -0.5155 -1.1728
 2039SOL     OW17575   0.001   1.861  12.076 -0.0776 -0.1833  0.0062
 2039SOL    HW117576   4.687   1.809  12.148  0.6766 -2.8551 -1.5544
 2039SOL    HW217577   4.672   1.822  12.004  0.1319  0.2646 -0.3786
 2040SOL     OW17578   0.304   2.988  15.321 -0.1384  0.0901 -0.1847
 2040SOL    HW117579   0.372   2.921  15.313  0.2775  0.4717  0.1148
 2040SOL    HW217580   0.359   3.064  15.300  0.6902 -1.0227 -2.0750
 2041SOL     OW17581   3.697   2.699   4.810 -0.3000  0.3025  0.1320
 2041SOL    HW117582   3.757   2.644   4.759  1.0682 -0.6345  2.7395
 2041SOL    HW217583   3.754   2.738   4.876 -1.5390  1.0778  0.7312
 2042SOL     OW17584   1.269   1.174   4.996  0.1866 -0.3556  0.3657
 2042SOL    HW117585   1.210   1.217   5.058  3.3003  0.8689  2.4691
 2042SOL    HW217586   1.355   1.192   5.033  1.6690  0.5328 -3.4971
 2043SOL     OW17587   4.570   2.360   9.262 -0.3149 -0.0562  0.1557
 2043SOL    HW117588   4.543   2.272   9.287  0.2439  0.0144  0.9997
 2043SOL    HW217589   4.655   2.351   9.218 -1.3825  1.8694 -2.3526
 2044SOL     OW17590   2.014   4.425   5.599  0.1930  0.6473  0.1457
 2044SOL    HW117591   2.109   4.423   5.589  0.3226  0.3442  1.3313
 2044SOL    HW217592   2.016   4.399   5.692  0.3351  2.5131  0.6680
 2045SOL     OW17593   2.857   3.988   9.986 -0.3070  0.5153 -0.6165
 2045SOL    HW117594   2.929   4.046  10.008 -0.0454  0.1078 -0.3931
 2045SOL    HW217595   2.870   3.925  10.057 -0.1909  1.4006  0.1418
 2046SOL     OW17596   1.542   0.553   4.086  0.1847 -0.0075  0.6077
 2046SOL    HW117597   1.449   0.575   4.089 -0.1872 -1.3980 -0.4375
 2046SOL    HW217598   1.580   0.641   4.078  0.7673 -0.2827  0.3353
 2047SOL     OW17599   0.717   3.715  10.903  0.0136  0.6628  0.3352
 2047SOL    HW117600   0.798   3.690  10.858  0.6933  1.2078  1.2657
 2047SOL    HW217601   0.712   3.810  10.888 -1.2011  0.8513  2.0340
 2048SOL     OW17602   1.816   0.166   7.785 -0.0166 -0.7203  0.0260
 2048SOL    HW117603   1.786   0.200   7.701  1.1966  1.0938  0.3072
 2048SOL    HW217604   1.815   0.072   7.766  0.3607 -0.8867  0.8015
 2049SOL     OW17605   1.902   1.142   2.989 -0.3545 -0.4036 -0.6568
 2049SOL    HW117606   1.935   1.103   2.907  3.2756 -0.1011  0.6782
 2049SOL    HW217607   1.937   1.081   3.054  1.8770  0.8530 -0.6750
 2050SOL     OW17608   2.846   1.030   0.649 -0.1836  0.0510  0.5136
 2050SOL    HW117609   2.793   0.961   0.688  0.7004 -0.2611  1.1611
 2050SOL    HW217610   2.809   1.115   0.675  0.6746  0.9227 -1.0861
 2051SOL     OW17611   2.109   2.387   7.675  0.3161  0.1018  0.2416
 2051SOL    HW117612   2.127   2.379   7.769 -0.9806 -0.6168  0.4274
 2051SOL    HW217613   2.115   2.297   7.642 -0.5409  0.7654 -1.7158
 2052SOL     OW17614   4.177   1.724   3.674  0.5565  0.2428 -0.3100
 2052SOL    HW117615   4.210   1.637   3.655 -1.2959 -0.1340 -1.7303
 2052SOL    HW217616   4.242   1.756   3.738  0.3291  1.1285 -0.5149
 2053SOL     OW17617   3.409   0.921  11.082  0.7711  0.2314  0.7718
 2053SOL    HW117618   3.476   0.987  11.101  1.4020 -0.5205  1.1457
 2053SOL    HW217619   3.373   0.907  11.170 -2.1619  1.3115 -0.2641
 2054SOL     OW17620   0.836   1.517  11.263 -0.7333  0.2128  0.0903
 2054SOL    HW117621   0.835   1.597  11.209  1.6790  0.1577 -0.0397
 2054SOL    HW217622   0.931   1.505  11.255 -0.8374  0.3594 -1.5011
 2055SOL     OW17623   3.525   3.914   8.892  0.0604  0.0551 -0.2703
 2055SOL    HW117624   3.534   3.967   8.971  0.1346  1.3154 -1.1234
 2055SOL    HW217625   3.525   3.824   8.922 -2.0346  0.3850  0.7225
 2056SOL     OW17626   2.157   3.797  16.958  0.4660 -0.0244  0.2521
 2056SOL    HW117627   2.188   3.887  16.962  0.0936  0.0795  0.7305
 2056SOL    HW217628   2.163   3.781  16.864 -0.7812 -0.6133  0.2758
 2057SOL     OW17629   4.149   1.333   5.057  0.6146  0.5862  0.4850
 2057SOL    HW117630   4.164   1.242   5.032  0.7294  0.3157  1.5288
 2057SOL    HW217631   4.079   1.367   5.002 -0.4314  2.2939  2.8867
 2058SOL     OW17632   2.403   2.646   6.840 -0.3743  0.0815 -0.6493
 2058SOL    HW117633   2.409   2.738   6.866  2.6187  0.2739 -2.1404
 2058SOL    HW217634   2.469   2.601   6.893  0.9237  2.0276 -0.6107
 2059SOL     OW17635   1.922   2.070   6.140 -0.4299  0.2579 -0.3366
 2059SOL    HW117636   1.964   2.009   6.079 -1.1772 -1.3902  0.8146
 2059SOL    HW217637   1.844   2.022   6.166 -1.5457  1.7198 -0.9793
 2060SOL     OW17638   0.705   3.278   2.939 -0.4909  0.4909  0.5020
 2060SOL    HW117639   0.666   3.217   2.875 -0.8513  0.4334  0.7763
 2060SOL    HW217640   0.700   3.360   2.891 -1.5075 -0.2817 -0.7359
 2061SOL     OW17641   2.373   1.560  17.521 -0.3958  0.4875  0.0249
 2061SOL    HW117642   2.363   1.495  17.451  1.3186 -1.1609  1.3349
 2061SOL    HW217643   2.360   1.508  17.600  0.5493  0.8494  0.4194
 2062SOL     OW17644   2.474   4.060  17.424  0.0608 -0.3544  0.1127
 2062SOL    HW117645   2.519   4.078  17.341 -0.1091  0.6419  0.2340
 2062SOL    HW217646   2.459   3.967  17.438  1.5448 -0.4401  1.1085
 2063SOL     OW17647   0.196   4.587   6.683  0.1901 -0.1337 -0.1976
 2063SOL    HW117648   0.201   4.580   6.588  0.6302  4.0067 -0.4769
 2063SOL    HW217649   0.262   4.520   6.702 -0.9840 -1.1667  0.1999
 2064SOL     OW17650   0.051   1.925  12.935  0.0037 -0.0788  0.1389
 2064SOL    HW117651   4.712   1.998  12.920 -1.6515 -1.6979 -1.0461
 2064SOL    HW217652   0.068   1.876  12.855 -2.0892 -1.2904  0.4362
 2065SOL     OW17653   1.253   0.103   9.623 -0.9120 -0.3524  0.3742
 2065SOL    HW117654   1.303   0.184   9.618 -0.2559 -0.7784 -0.0705
 2065SOL    HW217655   1.198   0.115   9.700 -0.1388 -2.8110  1.3099
 2066SOL     OW17656   2.046   1.664   8.126  0.2810  0.2027 -0.4293
 2066SOL    HW117657   2.045   1.655   8.221 -0.9183 -1.1011 -0.5668
 2066SOL    HW217658   1.965   1.617   8.104 -0.1474  0.7155  0.0340
 2067SOL     OW17659   4.560   1.398  13.541  0.5309 -0.1529 -0.4836
 2067SOL    HW117660   4.553   1.306  13.519 -0.4920 -0.1180 -0.3026
 2067SOL    HW217661   4.596   1.431  13.458  0.6156 -0.6815 -0.6550
 2068SOL     OW17662   2.646   0.176   9.125 -0.5533  0.2409 -0.0502
 2068SOL    HW117663   2.630   0.256   9.075 -1.7330 -1.0980 -1.8244
 2068SOL    HW217664   2.681   0.116   9.058  0.8503  0.5312  0.4189
 2069SOL     OW17665   0.837   0.909   3.149  0.5383 -0.3753 -0.6059
 2069SOL    HW117666   0.923   0.873   3.171 -0.7937 -2.0439  1.8902
 2069SOL    HW217667   0.769   0.843   3.161 -0.6432  0.8675 -0.3677
 2070SOL     OW17668   2.539   2.674   7.182  0.3713 -0.3317 -0.5020
 2070SOL    HW117669   2.555   2.630   7.099  0.2562  1.7769 -1.6330
 2070SOL    HW217670   2.618   2.661   7.234  0.6653 -0.5763 -1.0152
 2071SOL     OW17671   4.172   4.396   7.404  0.3042 -0.2121 -0.3109
 2071SOL    HW117672   4.255   4.397   7.452  0.0227  1.6567  0.1541
 2071SOL    HW217673   4.200   4.405   7.313 -0.4275 -0.5352 -0.5628
 2072SOL     OW17674   2.023   2.603   1.894  0.1672 -0.2358 -0.5712
 2072SOL    HW117675   2.027   2.673   1.829 -2.5715  1.6657  1.2797
 2072SOL    HW217676   2.007   2.653   1.974  1.5220 -0.6492 -0.0519
 2073SOL     OW17677   4.085   3.623   2.494  0.3589  0.1083  0.3844
 2073SOL    HW117678   4.008   3.574   2.522 -0.9014  0.5750 -2.2455
 2073SOL    HW217679   4.105   3.577   2.412  0.9786  1.4701 -0.2272
 2074SOL     OW17680   2.555   2.454  11.218 -0.1420  0.3478 -0.0551
 2074SOL    HW117681   2.481   2.437  11.159 -1.1227  0.6938  1.0924
 2074SOL    HW217682   2.591   2.367  11.238  0.4099  0.5022 -0.3811
 2075SOL     OW17683   2.311   1.367   4.036  0.0901 -0.0883  0.6066
 2075SOL    HW117684   2.254   1.444   4.049  0.2249  0.0870  0.1336
 2075SOL    HW217685   2.252   1.293   4.055  0.4910 -0.5594 -0.0046
 2076SOL     OW17686   2.966   4.304   7.530  0.2743  0.1398  0.1371
 2076SOL    HW117687   2.888   4.331   7.482  0.4044 -2.8640 -1.8022
 2076SOL    HW217688   2.932   4.312   7.620 -1.0240  0.2285 -0.3557
 2077SOL     OW17689   2.551   0.002   9.316  0.2820  0.2608 -0.2479
 2077SOL    HW117690   2.457   4.713   9.302  0.2428 -0.0489  0.2165
 2077SOL    HW217691   2.573   0.077   9.261  1.6496  0.7256  0.9051
 2078SOL     OW17692   4.300   2.315   4.150 -0.2811  0.0644 -0.2143
 2078SOL    HW117693   4.375   2.316   4.091 -0.4670 -2.7856 -0.4899
 2078SOL    HW217694   4.253   2.392   4.119 -0.6073  0.0197  0.1630
 2079SOL     OW17695   3.599   0.518  14.502  0.4173 -0.3282  0.5547
 2079SOL    HW117696   3.678   0.515  14.447 -0.9096  1.8070 -1.5013
 2079SOL    HW217697   3.552   0.576  14.441  0.2302 -2.5129 -1.3563
 2080SOL     OW17698   4.498   0.470   5.464  0.3786  0.2611  0.0768
 2080SOL    HW117699   4.554   0.545   5.485 -0.6159  1.1791 -0.5497
 2080SOL    HW217700   4.556   0.398   5.489 -0.1484  0.8100  2.8682
 2081SOL     OW17701   0.716   2.059  13.173 -0.0767 -0.6905 -0.7066
 2081SOL    HW117702   0.699   2.148  13.205 -1.6449 -1.1475 -0.2441
 2081SOL    HW217703   0.639   2.019  13.213 -0.8367 -0.6709 -2.1541
 2082SOL     OW17704   4.589   0.848   9.625 -0.0938  0.1146  0.5114
 2082SOL    HW117705   4.639   0.783   9.674  0.1804 -1.5320 -1.9880
 2082SOL    HW217706   4.510   0.795   9.617  1.1101 -2.0019  2.7013
 2083SOL     OW17707   3.416   2.425   2.647  0.1637 -0.3172 -0.3739
 2083SOL    HW117708   3.464   2.440   2.565 -0.2231 -0.6043 -0.6536
 2083SOL    HW217709   3.443   2.491   2.710 -0.6137  0.5555 -0.9453
 2084SOL     OW17710   1.677   0.967   1.881 -0.1691  0.0477 -0.4512
 2084SOL    HW117711   1.605   1.014   1.838  1.2638  1.3792 -1.4080
 2084SOL    HW217712   1.639   0.883   1.856  0.8755 -0.5997  0.1703
 2085SOL     OW17713   2.848   3.983   4.232 -0.1851  0.3851 -0.3830
 2085SOL    HW117714   2.907   4.047   4.272  2.1786 -0.4681 -2.5166
 2085SOL    HW217715   2.843   4.003   4.138  1.4212 -0.7479 -0.6987
 2086SOL     OW17716   3.549   4.517   4.280  0.9204  0.1610 -0.4775
 2086SOL    HW117717   3.643   4.527   4.298  0.5293 -0.5389  1.8709
 2086SOL    HW217718   3.535   4.604   4.242  0.0976 -0.6474 -2.0589
 2087SOL     OW17719   0.969   1.798   1.832  0.1119  0.1850 -1.0842
 2087SOL    HW117720   0.944   1.876   1.882  0.5639 -0.7486  0.6005
 2087SOL    HW217721   0.894   1.739   1.839 -0.1365  0.6501  0.3736
 2088SOL     OW17722   1.347   3.057  14.228  0.4608  0.9573  0.0837
 2088SOL    HW117723   1.375   2.988  14.288 -1.1092 -0.2175 -0.5636
 2088SOL    HW217724   1.297   3.110  14.290  2.5277  0.2849  2.3472
 2089SOL     OW17725   3.125   2.168   4.510 -0.0427 -0.3778  0.3818
 2089SOL    HW117726   3.178   2.101   4.554  1.6272  0.4550 -0.3690
 2089SOL    HW217727   3.057   2.114   4.471  0.8619 -0.5472 -0.9598
 2090SOL     OW17728   0.953   1.949  10.664 -0.0969  0.6696  0.3748
 2090SOL    HW117729   0.928   2.028  10.713 -2.3057  0.1036  0.1452
 2090SOL    HW217730   0.891   1.888  10.704  2.3798 -0.8961  1.7902
 2091SOL     OW17731   1.672   2.123   2.788  0.4027  0.1478 -0.4512
 2091SOL    HW117732   1.759   2.150   2.815  0.6001 -0.7303 -0.1968
 2091SOL    HW217733   1.663   2.169   2.705  1.2492 -0.6339 -0.9806
 2092SOL     OW17734   1.359   1.666   3.689 -0.4415  0.0763  0.5972
 2092SOL    HW117735   1.415   1.694   3.760  1.1212 -1.4419 -0.0400
 2092SOL    HW217736   1.271   1.692   3.717 -1.7106 -1.9945 -1.3853
 2093SOL     OW17737   2.523   1.063   6.029 -0.1324  0.1580  0.6057
 2093SOL    HW117738   2.453   1.071   5.965  1.5876 -0.6966 -1.3770
 2093SOL    HW217739   2.564   0.981   6.004  0.1255  0.8157 -1.1126
 2094SOL     OW17740   0.912   3.486   5.318 -0.3110 -0.4930  0.3140
 2094SOL    HW117741   0.925   3.537   5.238 -0.9917 -0.3446  0.2967
 2094SOL    HW217742   0.831   3.442   5.292 -0.6725 -0.7167  1.8364
 2095SOL     OW17743   0.586   1.998  17.152  0.2038  0.3938  0.0288
 2095SOL    HW117744   0.546   2.069  17.202  0.0239 -0.5469  1.2116
 2095SOL    HW217745   0.601   1.937  17.223  0.2413  1.0105  0.5477
 2096SOL     OW17746   3.235   2.004  11.385  0.1150  0.2603 -0.0662
 2096SOL    HW117747   3.277   1.923  11.414  0.4607 -0.5039 -2.7237
 2096SOL    HW217748   3.151   1.963  11.365  0.8981  0.1397 -3.0159
 2097SOL     OW17749   0.860   3.250   5.934 -0.1385 -0.2643 -0.4890
 2097SOL    HW117750   0.895   3.315   5.995 -0.2749 -0.9149  0.2833
 2097SOL    HW217751   0.768   3.244   5.960  0.5403 -1.5269  1.6830
 2098SOL     OW17752   4.447   2.006  13.332  0.2967 -0.1530 -0.1550
 2098SOL    HW117753   4.364   1.959  13.341  1.7332 -1.8582  3.8642
 2098SOL    HW217754   4.506   1.941  13.369  1.7510  0.5629 -1.2103
 2099SOL     OW17755   2.952   0.595   0.014  0.1708  0.4170 -0.2556
 2099SOL    HW117756   2.871   0.544   0.013  1.5361 -1.8011  0.0881
 2099SOL    HW217757   2.926   0.662   0.077  1.1469 -0.4024  1.0445
 2100SOL     OW17758   1.177   1.193   1.127  0.1626  0.2617 -0.2909
 2100SOL    HW117759   1.176   1.229   1.038 -2.0585  1.5550  0.2708
 2100SOL    HW217760   1.260   1.144   1.119  0.2208  0.5834 -1.7671
 2101SOL     OW17761   2.757   1.166   8.886  0.2956 -0.2880 -0.2677
 2101SOL    HW117762   2.763   1.256   8.917 -1.4629  0.8748 -3.3691
 2101SOL    HW217763   2.745   1.193   8.795 -3.3547 -0.2111  0.2432
 2102SOL     OW17764   0.945   2.620   9.099  0.4578 -0.2433 -0.1496
 2102SOL    HW117765   0.935   2.703   9.146 -2.6114 -0.5491 -0.2514
 2102SOL    HW217766   1.041   2.618   9.100  0.4976  2.2863 -0.5160
 2103SOL     OW17767   3.574   4.404  11.742 -0.4578  0.1203  0.4002
 2103SOL    HW117768   3.498   4.349  11.762 -0.6445  0.0257 -0.5668
 2103SOL    HW217769   3.637   4.333  11.748  2.5541  2.7962  0.5561
 2104SOL     OW17770   2.947   3.300   6.004  0.6142 -0.0887  0.4212
 2104SOL    HW117771   2.985   3.213   5.994 -1.5647 -1.1551  1.3476
 2104SOL    HW217772   2.896   3.293   6.085  0.3944  2.3787  0.4926
 2105SOL     OW17773   1.401   4.408   4.042 -0.1040 -0.2948 -0.0871
 2105SOL    HW117774   1.359   4.491   4.022 -0.3518 -0.6275 -0.9645
 2105SOL    HW217775   1.453   4.403   3.961  0.2225  1.0550  0.0416
 2106SOL     OW17776   3.325   1.379   3.612 -0.0847  0.4117  0.4628
 2106SOL    HW117777   3.234   1.389   3.582 -0.7446 -0.5672  2.1599
 2106SOL    HW217778   3.366   1.355   3.529  0.3855 -0.6252  1.0071
 2107SOL     OW17779   3.711   3.320  12.906 -0.0984 -0.5324  0.6159
 2107SOL    HW117780   3.798   3.356  12.885 -0.6363  0.7888  0.6259
 2107SOL    HW217781   3.740   3.249  12.963 -2.0309 -2.9789 -1.4601
 2108SOL     OW17782   2.235   4.165  16.379  0.0909  0.3310 -0.3237
 2108SOL    HW117783   2.203   4.254  16.396 -0.9323 -1.2015  5.6040
 2108SOL    HW217784   2.209   4.150  16.288  0.6073  0.9746 -0.5773
 2109SOL     OW17785   1.337   1.859   2.587 -0.1310  0.0330 -0.3090
 2109SOL    HW117786   1.430   1.856   2.608 -0.4559  2.4052  1.4853
 2109SOL    HW217787   1.315   1.767   2.577 -0.5453  0.0093  0.7713
 2110SOL     OW17788   1.800   2.159   6.891 -0.1357  0.0815 -0.0166
 2110SOL    HW117789   1.745   2.237   6.884  1.0550  0.7405 -1.7547
 2110SOL    HW217790   1.884   2.178   6.851  0.4150  0.3929  1.2954
 2111SOL     OW17791   3.691   4.532   7.979 -0.1803 -0.3836 -0.4448
 2111SOL    HW117792   3.606   4.510   7.940 -0.5708  1.5597 -0.6942
 2111SOL    HW217793   3.669   4.618   8.014 -0.6506 -1.5765  2.1951
 2112SOL     OW17794   2.335   0.979   4.520 -0.4146  0.1684 -0.2485
 2112SOL    HW117795   2.421   0.953   4.488 -0.8726  1.0012 -2.1059
 2112SOL    HW217796   2.298   0.898   4.555  1.1587 -0.3437  0.2545
 2113SOL     OW17797   3.269   4.450  12.652 -0.2367  0.6113  0.1055
 2113SOL    HW117798   3.344   4.457  12.712  1.2806  0.5251 -1.8084
 2113SOL    HW217799   3.232   4.527  12.695 -0.0453  0.1337  1.1340
 2114SOL     OW17800   1.006   0.424   4.975 -0.7351  0.4107 -0.0968
 2114SOL    HW117801   0.937   0.405   5.039 -1.2563 -1.3267 -1.1627
 2114SOL    HW217802   0.957   0.417   4.893  0.2008 -0.5667 -0.5714
 2115SOL     OW17803   0.668   1.572   3.680 -0.1197  0.3330 -0.5607
 2115SOL    HW117804   0.706   1.601   3.597  0.0687  1.2348 -0.1518
 2115SOL    HW217805   0.623   1.492   3.651  0.1558 -0.6523  1.7356
 2116SOL     OW17806   4.011   1.125   2.372 -0.2941  0.5017  0.0611
 2116SOL    HW117807   3.983   1.034   2.377  0.6516  0.1633 -0.9594
 2116SOL    HW217808   3.946   1.171   2.425  0.8254  0.1560  1.7346
 2117SOL     OW17809   4.215   1.900   2.917 -0.0289  0.2205 -0.3292
 2117SOL    HW117810   4.144   1.849   2.956  0.8810 -1.3516 -0.7239
 2117SOL    HW217811   4.290   1.840   2.921 -0.1079  0.1350 -0.1347
 2118SOL     OW17812   3.903   1.174   3.827  0.0069  0.0586 -0.5335
 2118SOL    HW117813   3.984   1.130   3.801 -0.8836 -0.8247 -1.8382
 2118SOL    HW217814   3.843   1.101   3.807  0.3803 -0.9700  2.1413
 2119SOL     OW17815   3.286   0.882   6.806  0.0971 -0.7012 -0.3303
 2119SOL    HW117816   3.323   0.927   6.731 -0.2777  1.4017  0.7222
 2119SOL    HW217817   3.288   0.958   6.865  3.0525 -1.4706  0.5445
 2120SOL     OW17818   2.327   2.468   1.578 -0.1607  0.1411 -0.5390
 2120SOL    HW117819   2.384   2.395   1.603  2.1272  1.9577 -0.4988
 2120SOL    HW217820   2.309   2.505   1.664  0.0196 -2.2499  0.5194
 2121SOL     OW17821   0.512   2.368   2.601 -0.3750  0.1499 -0.1770
 2121SOL    HW117822   0.455   2.292   2.587  0.2984 -0.6197  1.2127
 2121SOL    HW217823   0.485   2.387   2.691  0.6067 -1.6506  0.4979
 2122SOL     OW17824   2.426   2.150   0.110  0.5031 -0.1263  0.2601
 2122SOL    HW117825   2.506   2.109   0.080 -0.7293 -2.5854  0.3250
 2122SOL    HW217826   2.383   2.173   0.028  0.5142 -0.5567  0.1360
 2123SOL     OW17827   2.136   4.342   1.526 -0.3107  0.3958 -0.6737
 2123SOL    HW117828   2.059   4.328   1.581 -0.5623  0.6168 -0.9641
 2123SOL    HW217829   2.159   4.427   1.562  1.1552 -0.2176 -0.1607
 2124SOL     OW17830   0.879   0.869  13.251 -0.0993  0.6879 -0.1628
 2124SOL    HW117831   0.787   0.867  13.227 -0.1045 -0.3036 -0.0748
 2124SOL    HW217832   0.910   0.789  13.209 -1.6537  1.0971 -2.0533
 2125SOL     OW17833   2.268   2.408   8.385 -0.0426  0.4465  0.0434
 2125SOL    HW117834   2.303   2.386   8.298 -0.2187  0.9214 -0.1475
 2125SOL    HW217835   2.312   2.491   8.404 -1.9031  1.1633  1.1421
 2126SOL     OW17836   3.404   2.396   3.571 -0.3168  0.4003 -0.0364
 2126SOL    HW117837   3.344   2.468   3.552 -0.6094  0.4711  1.1332
 2126SOL    HW217838   3.485   2.425   3.528  0.3589 -2.8209 -0.9290
 2127SOL     OW17839   2.036   2.647   2.498 -0.5030 -0.1735  0.1046
 2127SOL    HW117840   2.002   2.736   2.508 -0.6319 -0.3370  1.0754
 2127SOL    HW217841   1.968   2.603   2.549 -0.0694  0.7529  1.4884
 2128SOL     OW17842   0.659   3.071   8.608  0.0486 -0.3092 -0.1316
 2128SOL    HW117843   0.564   3.078   8.599  0.0798 -1.9415 -1.7980
 2128SOL    HW217844   0.665   3.010   8.682 -0.6943 -1.9928 -1.4475
 2129SOL     OW17845   1.501   0.763   8.734  0.0192  0.3796  0.4596
 2129SOL    HW117846   1.543   0.812   8.805 -3.6822  2.2567  1.3611
 2129SOL    HW217847   1.419   0.812   8.727  0.9278  2.0548  1.3904
 2130SOL     OW17848   2.094   3.262  11.044 -0.0677 -0.4989  0.2695
 2130SOL    HW117849   2.032   3.327  11.078 -0.7816 -1.3918  0.6703
 2130SOL    HW217850   2.180   3.304  11.045 -0.6263  0.6824 -4.3767
 2131SOL     OW17851   0.897   4.643  11.077  0.8103  0.1114 -0.4907
 2131SOL    HW117852   0.826   4.673  11.021 -0.2223  0.1643  0.8500
 2131SOL    HW217853   0.945   4.584  11.018  2.1256 -0.5168  1.1912
 2132SOL     OW17854   1.179   3.100  12.133  0.1442  0.2240 -0.2516
 2132SOL    HW117855   1.169   3.088  12.228 -0.3835 -0.0873 -0.3468
 2132SOL    HW217856   1.119   3.032  12.103 -0.5636  1.5279 -1.7336
 2133SOL     OW17857   1.022   4.190   7.832 -0.2668  0.0095  0.3971
 2133SOL    HW117858   0.966   4.120   7.866 -1.5389  0.9207  0.1791
 2133SOL    HW217859   0.967   4.222   7.761  2.2338 -1.2184 -2.0589
 2134SOL     OW17860   0.790   0.379   8.141  0.2240  0.2689 -0.4650
 2134SOL    HW117861   0.872   0.338   8.115 -0.1496 -0.0488 -1.1148
 2134SOL    HW217862   0.813   0.464   8.179  2.6861 -0.1022 -1.1440
 2135SOL     OW17863   3.170   2.587  11.744 -0.1862  0.1025 -0.6050
 2135SOL    HW117864   3.176   2.574  11.839  0.0010  1.3852 -0.4340
 2135SOL    HW217865   3.095   2.645  11.736 -0.8563 -0.6372  0.3609
 2136SOL     OW17866   1.813   4.397   8.410  0.1140 -0.0772 -0.2063
 2136SOL    HW117867   1.750   4.326   8.397 -0.1096  0.5350 -2.4483
 2136SOL    HW217868   1.769   4.464   8.358  2.1427  1.3580 -0.0633
 2137SOL     OW17869   0.318   3.920   4.311  0.1464 -0.3710 -0.0211
 2137SOL    HW117870   0.344   3.881   4.227 -3.7010  0.8905 -1.8235
 2137SOL    HW217871   0.255   3.861   4.352  1.2275 -1.1650  0.4982
 2138SOL     OW17872   0.750   2.903   1.017  0.4433 -0.1990  0.3454
 2138SOL    HW117873   0.736   2.919   1.110 -0.8155  0.8866 -0.0333
 2138SOL    HW217874   0.779   2.812   1.020 -0.1959 -0.4084  0.3393
 2139SOL     OW17875   2.254   4.647   5.215  0.0911 -0.0756  0.1138
 2139SOL    HW117876   2.297   4.683   5.137 -1.2840  1.7203  0.1873
 2139SOL    HW217877   2.221   0.007   5.252 -0.8473  0.1925 -1.3097
 2140SOL     OW17878   2.632   2.523   2.583 -0.1913  0.0519  0.1804
 2140SOL    HW117879   2.588   2.489   2.660  0.9162  1.1442  1.2942
 2140SOL    HW217880   2.591   2.609   2.585 -0.0716  0.1852 -3.2572
 2141SOL     OW17881   2.278   3.273   0.941  0.1147  0.4632  0.6432
 2141SOL    HW117882   2.282   3.310   1.030 -2.3677  1.2851  0.4077
 2141SOL    HW217883   2.364   3.233   0.926 -2.6058 -4.0334 -2.9961
 2142SOL     OW17884   4.529   2.536   6.037  0.6353 -0.7444  0.0571
 2142SOL    HW117885   4.539   2.523   6.131 -1.6830 -0.3884  0.3499
 2142SOL    HW217886   4.524   2.632   6.031  0.1690 -0.7405  0.4720
 2143SOL     OW17887   0.410   2.337   6.035  0.2059 -1.0719 -0.3862
 2143SOL    HW117888   0.422   2.325   5.941  0.3715  1.5575 -0.6905
 2143SOL    HW217889   0.357   2.417   6.037  1.7576  0.0180 -3.4335
 2144SOL     OW17890   2.094   3.061   1.318 -0.5765  0.4095 -0.4371
 2144SOL    HW117891   2.182   3.085   1.291  0.2234 -1.2832  0.6865
 2144SOL    HW217892   2.032   3.085   1.248  1.1175 -0.5146 -2.2432
 2145SOL     OW17893   1.999   0.619   4.558  0.4362 -0.3789  0.0373
 2145SOL    HW117894   2.005   0.526   4.580 -0.1339  0.0013  1.7965
 2145SOL    HW217895   2.083   0.633   4.514  0.1531  1.2805  0.0390
 2146SOL     OW17896   1.006   4.531  10.834  0.3195 -0.1687  0.3383
 2146SOL    HW117897   0.937   4.539  10.768  1.4540 -1.0866 -0.9547
 2146SOL    HW217898   1.080   4.492  10.788  0.0623 -1.0529  0.6824
 2147SOL     OW17899   4.211   0.593   4.211 -0.6425  0.2249  0.5161
 2147SOL    HW117900   4.177   0.518   4.260  0.6232 -0.1728  0.7792
 2147SOL    HW217901   4.197   0.667   4.269  1.9202  2.3945 -1.5881
 2148SOL     OW17902   3.920   2.195   8.087  0.1883 -0.5682  0.4378
 2148SOL    HW117903   3.987   2.209   8.020  0.6503 -2.6656  0.4802
 2148SOL    HW217904   3.939   2.274   8.139  1.8592 -0.8968  0.3247
 2149SOL     OW17905   3.586   0.790   0.120  0.0149  0.4482  0.1215
 2149SOL    HW117906   3.573   0.727   0.191 -2.7377  0.9792  0.0745
 2149SOL    HW217907   3.681   0.777   0.117 -0.3304 -1.8926 -0.5213
 2150SOL     OW17908   3.530   2.483   7.460 -0.2842  0.4913 -0.0886
 2150SOL    HW117909   3.465   2.479   7.389 -0.9118 -0.3466  0.5308
 2150SOL    HW217910   3.545   2.390   7.476 -0.8950  0.1529 -1.4749
 2151SOL     OW17911   2.173   0.217   1.564  0.0229 -0.2298  0.4834
 2151SOL    HW117912   2.170   0.178   1.476  1.2861  0.7677 -0.0036
 2151SOL    HW217913   2.268   0.218   1.577  0.1256  1.4780 -0.4178
 2152SOL     OW17914   4.425   1.011   3.659 -0.5364 -0.3902 -0.3140
 2152SOL    HW117915   4.519   1.023   3.672 -0.2879 -3.1025  0.4824
 2152SOL    HW217916   4.411   0.932   3.712 -0.6539 -0.1418  0.0207
 2153SOL     OW17917   4.555   4.121   5.427 -0.0664  0.0557 -0.2461
 2153SOL    HW117918   4.518   4.045   5.471  0.1555  0.4626  0.6542
 2153SOL    HW217919   4.643   4.083   5.416 -0.5713 -1.1751  0.0243
 2154SOL     OW17920   2.005   4.075   6.225 -0.0041 -0.1468 -0.1453
 2154SOL    HW117921   1.965   4.140   6.167  1.3313 -0.6417 -1.6163
 2154SOL    HW217922   1.926   4.044   6.270  0.2097 -2.9726 -1.6856
 2155SOL     OW17923   3.077   0.234   5.176  0.5422 -0.3069  0.1176
 2155SOL    HW117924   3.072   0.190   5.091 -0.9373  0.4075 -0.1653
 2155SOL    HW217925   3.087   0.325   5.149 -3.0398 -0.4436 -1.6057
 2156SOL     OW17926   3.805   1.404   9.298  0.1481 -0.2150  0.1045
 2156SOL    HW117927   3.890   1.393   9.255 -0.7215 -1.3019 -1.3323
 2156SOL    HW217928   3.778   1.312   9.299  0.1535 -0.2447 -2.2933
 2157SOL     OW17929   1.592   3.079   7.175  0.2993  0.6113 -0.5731
 2157SOL    HW117930   1.500   3.101   7.190  0.5893  0.4735  1.3733
 2157SOL    HW217931   1.623   3.164   7.146  1.4154  0.9914  1.7278
 2158SOL     OW17932   4.529   3.719   7.057 -0.3526  0.6091  0.2265
 2158SOL    HW117933   4.590   3.784   7.020 -0.8478  1.2187  0.4759
 2158SOL    HW217934   4.554   3.701   7.148 -0.6670  2.7647  0.7374
 2159SOL     OW17935   1.687   2.091   3.660  0.2787 -0.2447 -0.5498
 2159SOL    HW117936   1.641   2.090   3.576 -1.7854 -1.2098  0.5958
 2159SOL    HW217937   1.723   2.179   3.672 -0.9262  0.5012 -2.5728
 2160SOL     OW17938   0.956   2.374   9.300 -0.2020  0.5390 -0.3168
 2160SOL    HW117939   1.022   2.419   9.353  1.0065 -2.3669  0.6198
 2160SOL    HW217940   0.881   2.428   9.324  0.6190  0.9875  1.2364
 2161SOL     OW17941   2.449   0.015   5.511 -0.4852 -0.6052  0.0654
 2161SOL    HW117942   2.496   0.018   5.428 -1.3807 -1.0016 -0.4557
 2161SOL    HW217943   2.523   4.694   5.556 -0.1311  0.8033  0.8032
 2162SOL     OW17944   3.615   2.122   0.484  0.0942 -0.1019 -0.1193
 2162SOL    HW117945   3.683   2.068   0.444 -0.9502 -0.0196 -1.9918
 2162SOL    HW217946   3.574   2.064   0.549  0.1276 -1.1515 -1.0278
 2163SOL     OW17947   0.300   0.924   5.842 -0.2683 -0.3335 -0.5350
 2163SOL    HW117948   0.299   0.828   5.841  1.4256 -0.3273 -1.8700
 2163SOL    HW217949   0.322   0.936   5.934  2.0246  2.9509 -1.5230
 2164SOL     OW17950   0.406   3.491   4.224  0.1799 -0.8140  0.0610
 2164SOL    HW117951   0.486   3.441   4.210  0.4765 -0.6483  1.2157
 2164SOL    HW217952   0.348   3.420   4.251  1.4604 -2.1749 -0.7417
 2165SOL     OW17953   1.926   3.604  11.159  0.1480 -0.4177 -0.7951
 2165SOL    HW117954   1.900   3.512  11.148 -0.7575 -0.4206  1.3613
 2165SOL    HW217955   2.012   3.585  11.197 -1.9004 -0.5951  3.8518
 2166SOL     OW17956   4.216   2.749  11.223  0.4912  0.2691  0.2883
 2166SOL    HW117957   4.258   2.720  11.142 -0.0611  1.6054 -0.4765
 2166SOL    HW217958   4.196   2.842  11.214  1.4633  0.3024 -1.5264
 2167SOL     OW17959   0.593   4.112   0.457 -0.1288 -0.4242  0.1118
 2167SOL    HW117960   0.661   4.173   0.482  1.4371 -1.4219 -1.7334
 2167SOL    HW217961   0.610   4.041   0.519  0.0712 -0.5918 -0.1369
 2168SOL     OW17962   1.566   2.722   2.178  0.0011 -0.1481  0.6423
 2168SOL    HW117963   1.635   2.683   2.230 -0.6676  1.6703  2.8800
 2168SOL    HW217964   1.603   2.811   2.176  0.1824 -0.2197  0.9498
 2169SOL     OW17965   1.362   1.647   2.283 -0.3632  0.0948  0.1029
 2169SOL    HW117966   1.312   1.587   2.338  1.0383 -1.8997 -0.7936
 2169SOL    HW217967   1.386   1.716   2.345  1.7015 -1.2807  0.8196
 2170SOL     OW17968   0.316   4.021   3.012 -0.2119 -0.0576  1.1869
 2170SOL    HW117969   0.238   4.052   2.967  0.5813  0.4731  0.1638
 2170SOL    HW217970   0.294   4.069   3.092  0.6062  1.1056  0.7219
 2171SOL     OW17971   3.524   1.445   6.047  0.0308  0.2128 -0.2114
 2171SOL    HW117972   3.466   1.521   6.046 -2.2223 -1.4611 -0.1583
 2171SOL    HW217973   3.587   1.458   5.977  1.0778 -2.4697  0.2419
 2172SOL     OW17974   3.262   1.039   8.111  0.2804  0.0539  0.1612
 2172SOL    HW117975   3.332   1.055   8.047  0.1918  2.0756  0.5436
 2172SOL    HW217976   3.302   0.976   8.171 -1.4960 -1.0216  0.2118
 2173SOL     OW17977   2.007   2.227   8.242  0.5179  0.0215  0.3299
 2173SOL    HW117978   2.097   2.220   8.273 -0.4241 -2.1100  2.5139
 2173SOL    HW217979   1.966   2.219   8.328 -0.1535 -1.6974 -0.1611
 2174SOL     OW17980   4.616   4.130   7.134 -0.2873  0.8905 -0.1465
 2174SOL    HW117981   4.520   4.127   7.139 -0.2594  2.7732  1.6442
 2174SOL    HW217982   4.626   4.223   7.119  1.0864  0.5482 -1.3201
 2175SOL     OW17983   0.255   2.448  17.634  0.3356 -0.4220  0.1247
 2175SOL    HW117984   0.252   2.422  17.542  0.0544  3.3005 -0.9149
 2175SOL    HW217985   0.167   2.479  17.654  0.2964 -1.5189  1.6646
 2176SOL     OW17986   2.559   4.022   1.389 -0.3821  0.6779  0.6467
 2176SOL    HW117987   2.595   4.011   1.300  0.1490 -1.4319  1.1329
 2176SOL    HW217988   2.465   4.009   1.376  0.1255 -2.9996  0.6719
 2177SOL     OW17989   0.598   1.518   5.030 -0.1795 -0.3502  0.1808
 2177SOL    HW117990   0.648   1.443   5.063  0.2141 -0.9562 -1.7288
 2177SOL    HW217991   0.514   1.473   5.022 -0.7252  0.6242  0.5654
 2178SOL     OW17992   1.761   0.800   0.839 -0.8519 -0.3093  0.7552
 2178SOL    HW117993   1.748   0.784   0.746  0.4781 -0.4061  0.5907
 2178SOL    HW217994   1.856   0.789   0.841 -0.5334  2.3229  0.5999
 2179SOL     OW17995   4.348   2.904   4.406 -0.4939  0.1915 -0.0427
 2179SOL    HW117996   4.267   2.954   4.408 -0.7892 -0.2782 -0.2169
 2179SOL    HW217997   4.355   2.886   4.500 -0.2608 -1.7265 -0.4293
 2180SOL     OW17998   2.641   3.546   0.625  0.2613 -0.8400  0.5434
 2180SOL    HW117999   2.670   3.583   0.542  1.6930 -0.8312  1.0506
 2180SOL    HW218000   2.567   3.602   0.649  0.5461 -0.0307 -0.4647
 2181SOL     OW18001   2.648   0.124   2.264 -0.9939 -0.3586  0.3203
 2181SOL    HW118002   2.630   0.041   2.219 -0.2199 -1.2249  1.5973
 2181SOL    HW218003   2.597   0.190   2.218  2.0487  1.5016 -0.4207
 2182SOL     OW18004   4.301   2.524   8.610  0.5282 -0.1404 -0.2401
 2182SOL    HW118005   4.369   2.483   8.663 -0.5328  0.9619  1.9943
 2182SOL    HW218006   4.227   2.508   8.669  1.4238  0.3779  1.0274
 2183SOL     OW18007   1.075   4.533   3.120  0.6278 -0.0347  0.8573
 2183SOL    HW118008   1.059   4.449   3.077 -1.6856  1.6911 -1.6844
 2183SOL    HW218009   1.100   4.595   3.052  1.2917  0.5620  1.6608
 2184SOL     OW18010   0.848   2.435   2.441 -0.1840  0.2634 -0.0004
 2184SOL    HW118011   0.783   2.476   2.384 -0.4112 -1.0539 -0.6687
 2184SOL    HW218012   0.856   2.351   2.397  0.7998  0.6196 -0.4988
 2185SOL     OW18013   2.605   0.971  17.496 -0.2228  0.3520 -0.2316
 2185SOL    HW118014   2.636   0.921  17.422 -0.1650 -0.8681  0.6186
 2185SOL    HW218015   2.668   0.943  17.562 -0.6746 -1.0456 -0.4046
 2186SOL     OW18016   1.486   4.263   0.721  0.5546  0.3669 -0.1395
 2186SOL    HW118017   1.581   4.266   0.729  0.3852  1.0720  1.6515
 2186SOL    HW218018   1.486   4.236   0.629  0.2605  0.3733 -0.1424
 2187SOL     OW18019   1.575   2.663   3.800  0.1267  0.0610  0.6068
 2187SOL    HW118020   1.554   2.751   3.830  3.1535  0.7747  0.6160
 2187SOL    HW218021   1.507   2.651   3.733  2.0271 -1.2472 -1.0798
 2188SOL     OW18022   1.310   1.822   2.932 -0.3876 -0.3897  0.2965
 2188SOL    HW118023   1.241   1.756   2.927 -0.4756 -0.1985 -0.9347
 2188SOL    HW218024   1.261   1.880   2.991 -0.8899  0.3027 -0.7970
 2189SOL     OW18025   0.448   4.442  11.798 -0.9644 -0.1001  0.1912
 2189SOL    HW118026   0.361   4.471  11.772 -1.3401  0.6361  2.2044
 2189SOL    HW218027   0.503   4.470  11.725  1.8278  1.3160  2.8044
 2190SOL     OW18028   1.739   0.699   2.846 -0.5865  0.7782 -0.2540
 2190SOL    HW118029   1.665   0.690   2.786 -0.5834  2.1347 -0.4665
 2190SOL    HW218030   1.702   0.671   2.930 -0.2781 -0.3151 -0.4791
 2191SOL     OW18031   0.790   4.368   4.353 -0.2601 -0.2319 -0.3842
 2191SOL    HW118032   0.862   4.384   4.415  1.4253  1.8914 -2.8889
 2191SOL    HW218033   0.842   4.361   4.272  0.1867  0.2936 -0.1464
 2192SOL     OW18034   2.613   2.683   0.622 -0.1386 -0.3763  0.3172
 2192SOL    HW118035   2.551   2.731   0.677  1.4146  0.8441  0.9815
 2192SOL    HW218036   2.609   2.739   0.545  0.6040 -1.4381 -0.4985
 2193SOL     OW18037   0.507   3.440  11.203 -0.3269  0.0023 -0.0840
 2193SOL    HW118038   0.496   3.522  11.250  2.7004  0.1413  0.3625
 2193SOL    HW218039   0.455   3.386  11.262  1.1433 -3.1260 -1.6463
 2194SOL     OW18040   0.306   4.301   7.010 -0.2476  0.6392  0.2689
 2194SOL    HW118041   0.328   4.208   7.010  2.3379  1.2475  0.5666
 2194SOL    HW218042   0.245   4.300   7.083  0.8970 -0.2415  1.2151
 2195SOL     OW18043   2.760   1.871   3.085 -0.5527 -0.5120  0.2725
 2195SOL    HW118044   2.752   1.851   2.992  2.4422  0.1342 -0.1180
 2195SOL    HW218045   2.853   1.893   3.086 -0.2049 -1.9866  0.1361
 2196SOL     OW18046   1.675   2.253  10.917 -0.3508  0.6541 -0.3441
 2196SOL    HW118047   1.626   2.309  10.978 -1.2200 -0.7416  0.2366
 2196SOL    HW218048   1.642   2.297  10.839 -0.0444  0.4497 -0.5851
 2197SOL     OW18049   3.184   2.913  17.325  0.0420  0.1722 -0.8180
 2197SOL    HW118050   3.193   2.818  17.317  1.3489  0.2384 -0.1294
 2197SOL    HW218051   3.250   2.937  17.390 -0.3327  0.0469 -0.3939
 2198SOL     OW18052   0.302   0.517   6.574 -0.6151 -0.2902  0.3637
 2198SOL    HW118053   0.220   0.510   6.525  1.6551 -2.6871 -3.1836
 2198SOL    HW218054   0.300   0.439   6.630 -0.4053 -1.1853 -0.8663
 2199SOL     OW18055   2.617   1.379  16.145 -0.3615  0.2079 -0.6499
 2199SOL    HW118056   2.603   1.450  16.208  1.9929  0.9470 -0.9605
 2199SOL    HW218057   2.622   1.302  16.202  1.7543 -0.7442 -2.1245
 2200SOL     OW18058   2.260   2.470   2.940  0.7546 -0.4711  0.3760
 2200SOL    HW118059   2.199   2.440   2.872  0.0843  1.8719 -0.0315
 2200SOL    HW218060   2.307   2.388   2.954 -0.9250 -1.2767  1.3973
 2201SOL     OW18061   0.992   1.458   9.595 -0.1489  0.4456 -0.0548
 2201SOL    HW118062   1.006   1.515   9.671 -0.5015  1.0221 -0.4225
 2201SOL    HW218063   1.013   1.373   9.632  1.9648  0.8796 -0.2155
 2202SOL     OW18064   0.155   4.258   7.236  0.6982 -0.3105 -0.5163
 2202SOL    HW118065   0.101   4.317   7.289 -1.8555 -1.6624 -1.6426
 2202SOL    HW218066   0.148   4.179   7.289 -3.6049  0.5746  0.2740
 2203SOL     OW18067   4.333   2.036   0.175 -0.1405  0.4152 -0.1732
 2203SOL    HW118068   4.354   2.127   0.152  0.4123 -0.2536 -2.3118
 2203SOL    HW218069   4.299   2.042   0.265  0.4003 -1.2374  0.1229
 2204SOL     OW18070   2.237   3.143   5.288  0.2215 -0.0637  0.3080
 2204SOL    HW118071   2.223   3.232   5.319 -1.1935 -0.1133 -0.2086
 2204SOL    HW218072   2.151   3.109   5.266 -0.2338  1.1215  0.2594
 2205SOL     OW18073   0.778   3.219   4.928  0.5653 -0.1356  0.0020
 2205SOL    HW118074   0.758   3.307   4.897  0.8006 -0.1832 -0.2916
 2205SOL    HW218075   0.782   3.170   4.846 -2.0499 -0.6477  0.1773
 2206SOL     OW18076   3.149   2.529  12.015  0.2857 -0.2321  0.1483
 2206SOL    HW118077   3.126   2.615  12.049 -2.6019 -1.0321  0.2016
 2206SOL    HW218078   3.229   2.515  12.066  0.1725  0.9589  0.6453
 2207SOL     OW18079   3.684   3.903  15.593 -0.6463  0.1700  0.2115
 2207SOL    HW118080   3.721   3.889  15.680 -0.8968 -0.7434  0.1769
 2207SOL    HW218081   3.640   3.986  15.614 -0.8316  0.1281 -0.0093
 2208SOL     OW18082   2.357   1.383  16.017  0.2043  0.4973 -0.6218
 2208SOL    HW118083   2.296   1.312  15.999  1.1005 -0.7880  1.3862
 2208SOL    HW218084   2.436   1.338  16.045  0.0410 -0.2076 -1.2951
 2209SOL     OW18085   0.494   4.063  15.276  0.5769 -0.1085 -0.1360
 2209SOL    HW118086   0.580   4.021  15.275  0.5968 -0.0402 -1.4619
 2209SOL    HW218087   0.453   4.021  15.351 -0.9016 -1.6550 -1.8042
 2210SOL     OW18088   2.237   0.533  16.822  0.1540  0.0602  0.7270
 2210SOL    HW118089   2.271   0.490  16.900  2.5548  0.3900 -0.1294
 2210SOL    HW218090   2.194   0.608  16.864  1.5146  1.6360 -0.6804
 2211SOL     OW18091   4.633   0.830  12.542  0.0739 -0.5565  0.3099
 2211SOL    HW118092   4.644   0.771  12.616 -0.4258  1.1847  1.7640
 2211SOL    HW218093   4.617   0.919  12.574  2.5822  0.1563 -0.4274
 2212SOL     OW18094   1.310   0.214   4.166  0.0475 -0.3328 -0.0464
 2212SOL    HW118095   1.241   0.279   4.180 -1.3473 -1.6267 -0.8607
 2212SOL    HW218096   1.277   0.171   4.087  0.7388 -1.4469  0.2720
 2213SOL     OW18097   2.734   2.572   6.285  0.6615 -0.5593 -0.7646
 2213SOL    HW118098   2.672   2.613   6.224  0.0881 -0.2569  0.0253
 2213SOL    HW218099   2.745   2.650   6.339 -2.0216 -1.5707  1.2395
 2214SOL     OW18100   2.349   1.075   0.302 -0.0132  0.0319 -0.3868
 2214SOL    HW118101   2.283   1.031   0.355  1.2858 -1.2213  0.2050
 2214SOL    HW218102   2.407   1.000   0.293 -1.6714 -1.2395 -0.4194
 2215SOL     OW18103   2.845   4.249   1.348 -0.2795 -0.5593  0.1443
 2215SOL    HW118104   2.787   4.235   1.423  2.8406 -1.9431  2.3096
 2215SOL    HW218105   2.857   4.157   1.324 -2.2031 -0.8832  0.4431
 2216SOL     OW18106   3.860   2.619   8.912  0.1829  0.1980 -0.3141
 2216SOL    HW118107   3.803   2.692   8.933 -0.3838 -0.5996  0.9076
 2216SOL    HW218108   3.914   2.609   8.990  1.1515  1.9786 -0.7574
 2217SOL     OW18109   0.448   2.699   6.571 -0.1741  1.1161  0.4997
 2217SOL    HW118110   0.409   2.617   6.603  1.5737 -0.9672 -2.7482
 2217SOL    HW218111   0.433   2.753   6.649  2.6053  3.2366 -0.4722
 2218SOL     OW18112   2.745   4.577   0.585  0.6072 -0.6448  0.4066
 2218SOL    HW118113   2.793   4.525   0.520  0.6416 -1.2420  0.9109
 2218SOL    HW218114   2.809   4.638   0.622  0.2234  0.6942 -1.1485
 2219SOL     OW18115   2.208   3.635   8.463 -0.1241 -0.1612  0.1374
 2219SOL    HW118116   2.216   3.617   8.556  0.7977  1.6298  0.4026
 2219SOL    HW218117   2.290   3.676   8.435  0.5085 -1.0268  0.7497
 2220SOL     OW18118   4.111   0.423   4.669 -0.0119 -0.0509 -0.1528
 2220SOL    HW118119   4.074   0.504   4.634 -0.1293 -0.4054 -0.8641
 2220SOL    HW218120   4.174   0.455   4.733  1.5491 -1.0356 -1.1837
 2221SOL     OW18121   0.401   4.450   2.578  0.4491 -0.7747 -0.2131
 2221SOL    HW118122   0.371   4.491   2.497 -1.1943  0.7245  1.1569
 2221SOL    HW218123   0.481   4.404   2.551 -0.8630 -2.9665 -0.2967
 2222SOL     OW18124   2.703   2.083   4.348 -0.3477  0.1774  0.8051
 2222SOL    HW118125   2.637   2.090   4.280  0.8542  0.9478 -0.2840
 2222SOL    HW218126   2.676   2.011   4.405 -0.6876  0.3775  0.8972
 2223SOL     OW18127   1.368   2.635   3.588  0.4663  0.4607 -0.2596
 2223SOL    HW118128   1.380   2.684   3.507 -1.0399  0.6092 -0.3966
 2223SOL    HW218129   1.289   2.674   3.624  0.1321 -1.7647  1.3855
 2224SOL     OW18130   0.354   2.645   9.004  0.0446  0.1760  0.0097
 2224SOL    HW118131   0.284   2.616   9.063 -1.2242 -0.5949 -1.8755
 2224SOL    HW218132   0.302   2.680   8.932 -1.1877 -2.1145 -0.2282
 2225SOL     OW18133   0.680   3.685   5.113 -0.7876 -0.6605 -0.9663
 2225SOL    HW118134   0.731   3.722   5.042  1.5423  2.7567  2.4670
 2225SOL    HW218135   0.640   3.766   5.144  1.0059 -0.1570  0.0390
 2226SOL     OW18136   4.186   2.265   7.139  0.1522  0.7632 -0.4317
 2226SOL    HW118137   4.111   2.270   7.080 -0.0748  1.0038 -0.1228
 2226SOL    HW218138   4.254   2.288   7.076  0.6374  1.1712  0.2428
 2227SOL     OW18139   1.225   1.240   4.175  0.0669  0.2156 -0.0031
 2227SOL    HW118140   1.224   1.304   4.104  1.1648  1.3192  0.9810
 2227SOL    HW218141   1.237   1.289   4.257  1.0608  0.9913 -0.6212
 2228SOL     OW18142   3.498   0.601   9.007 -0.2912  0.1238 -0.5811
 2228SOL    HW118143   3.415   0.641   8.979 -0.6087 -0.8486 -1.0707
 2228SOL    HW218144   3.519   0.664   9.075 -1.4698  0.4475 -0.5209
 2229SOL     OW18145   0.124   2.434   5.704  0.2766 -0.0242  0.0005
 2229SOL    HW118146   0.129   2.451   5.798 -1.4616 -2.6676  0.5475
 2229SOL    HW218147   0.095   2.343   5.704 -1.2255  0.4665 -0.2343
 2230SOL     OW18148   3.366   0.692   7.876  0.5516  0.3506 -0.1910
 2230SOL    HW118149   3.355   0.598   7.858 -2.4326  0.5887  0.4086
 2230SOL    HW218150   3.284   0.720   7.837  0.9386  0.2272 -1.1073
 2231SOL     OW18151   3.046   2.900  13.477 -0.0632  0.5295 -0.4098
 2231SOL    HW118152   3.024   2.818  13.432 -1.7088  0.2039  0.9633
 2231SOL    HW218153   2.961   2.927  13.512 -1.2532 -1.1506 -1.9331
 2232SOL     OW18154   4.701   1.656  10.018 -0.5955  0.3638 -0.3677
 2232SOL    HW118155   0.008   1.621  10.102 -0.1930  2.6648  0.4464
 2232SOL    HW218156   0.040   1.730  10.015 -0.2592  0.1454  0.7664
 2233SOL     OW18157   0.489   1.760   6.446 -0.1971 -0.0647  0.1607
 2233SOL    HW118158   0.520   1.843   6.409 -0.8514  0.0014 -0.2548
 2233SOL    HW218159   0.424   1.737   6.378 -0.6011  0.7599  0.2628
 2234SOL     OW18160   1.293   3.037   3.660  0.0707 -0.2934  0.0971
 2234SOL    HW118161   1.223   3.004   3.605 -2.0571  2.5205  1.1080
 2234SOL    HW218162   1.325   3.116   3.615 -1.9572 -0.4155 -1.5120
 2235SOL     OW18163   1.273   2.337  15.272  0.4630  0.1146  0.1966
 2235SOL    HW118164   1.304   2.392  15.343  1.4754  0.9360 -0.8905
 2235SOL    HW218165   1.352   2.344  15.219 -0.8376  1.0237 -1.5933
 2236SOL     OW18166   4.520   0.186   6.640  0.0963  0.3969 -0.2883
 2236SOL    HW118167   4.539   0.218   6.728 -3.7340  1.1043  0.3028
 2236SOL    HW218168   4.580   0.112   6.646 -0.2959 -0.1146 -2.5394
 2237SOL     OW18169   2.220   1.393  11.736  0.4428 -0.0376  0.2106
 2237SOL    HW118170   2.254   1.313  11.695 -2.6984 -0.6813 -1.0886
 2237SOL    HW218171   2.189   1.345  11.813 -2.4901  0.9351 -0.3739
 2238SOL     OW18172   3.724   0.221  11.846  0.4346  0.3708  0.3435
 2238SOL    HW118173   3.745   0.149  11.904 -0.6163  0.0577  0.3283
 2238SOL    HW218174   3.806   0.224  11.795 -0.1581  3.2975 -0.4494
 2239SOL     OW18175   2.687   3.607   1.580  0.1387  0.3445 -0.4740
 2239SOL    HW118176   2.746   3.677   1.552  1.2834 -0.2735  0.3778
 2239SOL    HW218177   2.625   3.656   1.633 -0.6713 -1.2607  0.0788
 2240SOL     OW18178   1.427   4.548   2.498  0.0085  0.0923 -0.3525
 2240SOL    HW118179   1.332   4.551   2.502 -0.0856 -0.5202 -2.3637
 2240SOL    HW218180   1.450   4.515   2.585  0.5222  1.0667 -0.1112
 2241SOL     OW18181   1.933   4.533  14.704 -0.3514 -0.5416  0.0265
 2241SOL    HW118182   1.913   4.609  14.649  0.5762 -0.2757  0.0607
 2241SOL    HW218183   2.027   4.538  14.718 -0.2406 -0.5661 -0.7145
 2242SOL     OW18184   1.201   2.936   6.582  0.2417 -0.5486  0.9213
 2242SOL    HW118185   1.181   2.845   6.605  0.7397 -0.4974  1.5466
 2242SOL    HW218186   1.130   2.940   6.517  0.4542 -0.2593  0.7064
 2243SOL     OW18187   1.539   2.544  16.961  0.0788  0.2497  0.9186
 2243SOL    HW118188   1.604   2.477  16.938  1.2442  2.3396 -1.7907
 2243SOL    HW218189   1.568   2.597  17.035  0.8523  0.8444  0.1825
 2244SOL     OW18190   1.551   2.664   5.526 -0.3647 -0.6631  0.0817
 2244SOL    HW118191   1.480   2.681   5.463  0.5734  2.1476 -0.2354
 2244SOL    HW218192   1.607   2.738   5.500  0.8860 -1.6516 -0.0323
 2245SOL     OW18193   0.979   4.320   6.852 -0.1654 -0.2831 -0.0471
 2245SOL    HW118194   0.891   4.337   6.882  0.6546  0.6922  1.7692
 2245SOL    HW218195   1.019   4.406   6.860 -0.8642  0.1609 -1.3206
 2246SOL     OW18196   1.248   2.067   5.538  0.8831 -0.2783 -0.7987
 2246SOL    HW118197   1.176   2.076   5.476  0.3689 -1.1086 -0.3258
 2246SOL    HW218198   1.219   2.004   5.604 -0.2583  1.3392  0.2758
 2247SOL     OW18199   0.280   1.258   8.968  0.2977  0.1217  0.6295
 2247SOL    HW118200   0.236   1.243   8.884 -0.7414 -1.1582  1.4127
 2247SOL    HW218201   0.230   1.210   9.034  0.6959 -0.7490  0.2912
 2248SOL     OW18202   1.237   1.506   4.027 -0.5599 -0.5991  0.1576
 2248SOL    HW118203   1.302   1.566   4.063 -0.9823  0.2470 -0.4695
 2248SOL    HW218204   1.154   1.554   4.027 -0.7704 -0.9691  0.5758
 2249SOL     OW18205   0.080   2.646   3.512 -0.5376 -0.5123 -0.2238
 2249SOL    HW118206   0.008   2.586   3.492  0.3314 -1.1544 -1.3628
 2249SOL    HW218207   0.128   2.599   3.580 -0.0172  2.2959  1.3418
 2250SOL     OW18208   3.445   0.389  17.605  0.4178 -0.3805 -0.0771
 2250SOL    HW118209   3.373   0.413  17.664  1.6141  1.8451  0.5096
 2250SOL    HW218210   3.515   0.406  17.668 -0.0796  0.8326  0.1684
 2251SOL     OW18211   0.181   2.707   6.347 -0.4929  0.2602  0.1990
 2251SOL    HW118212   0.212   2.616   6.351 -0.2071  0.4340  1.8146
 2251SOL    HW218213   0.192   2.738   6.437 -0.0564  2.3106 -0.5758
 2252SOL     OW18214   0.880   0.999   4.325  0.4367 -0.0022  0.2527
 2252SOL    HW118215   0.953   0.938   4.336  0.8205  0.3863 -0.1634
 2252SOL    HW218216   0.835   0.979   4.407  0.8259  1.4736  0.8276
 2253SOL     OW18217   1.782   4.246   3.655  0.4851  0.3789 -0.2610
 2253SOL    HW118218   1.692   4.226   3.683  0.4850  0.0880 -0.4652
 2253SOL    HW218219   1.829   4.177   3.702 -3.2634 -1.1706  1.2299
 2254SOL     OW18220   3.797   0.267   2.995  0.5048 -0.5630  0.2650
 2254SOL    HW118221   3.768   0.358   3.005  2.3215  0.2396 -1.8458
 2254SOL    HW218222   3.716   0.226   3.026 -0.8247  2.5961  1.0298
 2255SOL     OW18223   2.681   1.797   5.157  0.2359 -0.0208  0.0835
 2255SOL    HW118224   2.625   1.720   5.153  0.0366  0.1478 -0.3807
 2255SOL    HW218225   2.721   1.786   5.243  1.7355  3.2129 -0.2108
 2256SOL     OW18226   0.039   0.058   2.394  0.4657 -0.2250 -0.5604
 2256SOL    HW118227   0.024   4.685   2.397  3.2113 -0.6380 -0.2221
 2256SOL    HW218228   0.086   0.069   2.311  0.3781  0.8085 -0.4780
 2257SOL     OW18229   1.873   3.709   9.609  0.0639 -0.1282 -0.3153
 2257SOL    HW118230   1.795   3.762   9.592  0.4108 -0.1861 -2.0930
 2257SOL    HW218231   1.911   3.699   9.522  1.2599  1.4384  0.0130
 2258SOL     OW18232   4.302   1.446   0.741 -0.4814 -0.5785  0.1160
 2258SOL    HW118233   4.366   1.418   0.675 -1.9514 -1.1060 -1.0796
 2258SOL    HW218234   4.223   1.417   0.694  0.7716  0.1961 -2.4422
 2259SOL     OW18235   0.280   4.021   3.585  0.4978 -0.3573  0.9470
 2259SOL    HW118236   0.317   4.027   3.497 -1.5945  0.0259  0.0969
 2259SOL    HW218237   0.194   3.979   3.583  0.0784  0.5695 -0.1369
 2260SOL     OW18238   1.950   1.365   5.343  0.2924  0.7272 -0.3000
 2260SOL    HW118239   1.992   1.448   5.321  1.7529  0.0081 -0.2804
 2260SOL    HW218240   1.991   1.343   5.427  1.1848  2.0825 -0.3861
 2261SOL     OW18241   0.963   1.614   5.025 -0.3299  0.6328  0.2017
 2261SOL    HW118242   0.956   1.532   4.976 -0.5520  0.9237 -0.2458
 2261SOL    HW218243   0.919   1.585   5.105  1.7589 -1.1200  0.7303
 2262SOL     OW18244   3.379   3.842  17.128 -0.5434 -0.0545  0.3772
 2262SOL    HW118245   3.434   3.908  17.085 -0.7981  0.2781  0.5651
 2262SOL    HW218246   3.430   3.809  17.202 -3.2923 -3.1283  0.8597
 2263SOL     OW18247   4.141   4.637   0.283 -0.1042  0.1955  0.0754
 2263SOL    HW118248   4.223   4.658   0.327 -0.1304  0.4999 -0.0182
 2263SOL    HW218249   4.158   4.690   0.204 -2.1634 -1.2953 -1.3725
 2264SOL     OW18250   0.621   1.215   0.611  0.1914 -0.2408 -0.2005
 2264SOL    HW118251   0.681   1.153   0.652  0.6927  2.2059  2.7376
 2264SOL    HW218252   0.652   1.218   0.520  4.1182  0.7517  1.1852
 2265SOL     OW18253   2.121   0.850  16.512 -0.0480  0.8417 -0.1737
 2265SOL    HW118254   2.044   0.840  16.456 -1.5791  0.0750  2.0272
 2265SOL    HW218255   2.085   0.897  16.587  1.9005  1.2368  0.5186
 2266SOL     OW18256   4.501   3.221   8.910 -0.4807 -0.0083 -0.0201
 2266SOL    HW118257   4.585   3.257   8.883 -0.2281  1.2991  2.5486
 2266SOL    HW218258   4.521   3.130   8.932  1.3841  0.9376  2.1444
 2267SOL     OW18259   3.483   1.621   3.739  0.3538  0.3124  0.4785
 2267SOL    HW118260   3.429   1.580   3.672  0.0244  0.3895  0.6918
 2267SOL    HW218261   3.511   1.538   3.778  0.2617  1.1052  2.2623
 2268SOL     OW18262   2.953   2.289   6.333 -0.1539  0.3356 -0.2973
 2268SOL    HW118263   3.017   2.229   6.294 -2.2212 -0.5522 -2.2517
 2268SOL    HW218264   2.870   2.275   6.289 -0.7805  0.3855  0.8548
 2269SOL     OW18265   0.256   1.978  13.124 -0.2986 -0.2386  0.1934
 2269SOL    HW118266   0.209   1.931  13.056  2.0967 -0.8998 -0.9787
 2269SOL    HW218267   0.181   2.033  13.148 -0.4476  0.1285 -1.1459
 2270SOL     OW18268   0.745   1.822  16.431  0.0627 -0.2635  0.4123
 2270SOL    HW118269   0.680   1.892  16.427 -0.6971 -1.0272 -0.6500
 2270SOL    HW218270   0.740   1.789  16.342 -0.9442  0.4783  0.1934
 2271SOL     OW18271   1.437   1.866   8.382 -0.0835 -0.3332 -0.0147
 2271SOL    HW118272   1.368   1.884   8.446 -0.1720 -0.4946 -0.0626
 2271SOL    HW218273   1.408   1.881   8.292 -1.6111 -3.0560  0.0101
 2272SOL     OW18274   2.221   1.020   8.270 -0.4514  0.4590  0.4564
 2272SOL    HW118275   2.260   1.005   8.355 -0.2379 -4.5672 -0.5523
 2272SOL    HW218276   2.258   0.946   8.222 -1.6508 -0.4148  0.8783
 2273SOL     OW18277   3.352   0.308   4.306 -0.1264  0.2300 -0.4317
 2273SOL    HW118278   3.405   0.337   4.380  0.5040 -1.0472 -0.3713
 2273SOL    HW218279   3.400   0.228   4.282  0.4549  0.7340 -0.9272
 2274SOL     OW18280   1.385   0.338   3.145  0.4654  0.3791  0.0176
 2274SOL    HW118281   1.300   0.344   3.101  1.0298  0.1025 -1.1010
 2274SOL    HW218282   1.403   0.421   3.188 -1.1206  1.4399 -1.3905
 2275SOL     OW18283   4.119   0.697  16.893  0.1507  0.4511 -0.2417
 2275SOL    HW118284   4.188   0.739  16.945  1.0275  1.3181 -2.1011
 2275SOL    HW218285   4.062   0.671  16.966 -0.9507  0.7911 -0.9856
 2276SOL     OW18286   1.410   2.714   1.061  0.8026  0.0470 -0.3360
 2276SOL    HW118287   1.492   2.697   1.014  0.5522 -0.5238 -0.5517
 2276SOL    HW218288   1.346   2.662   1.013  0.5056 -0.7295  0.8968
 2277SOL     OW18289   3.100   4.432  14.163  0.6737 -0.5536  0.8724
 2277SOL    HW118290   3.073   4.500  14.225  2.0419  0.2618  0.5712
 2277SOL    HW218291   3.077   4.478  14.083  0.5711 -0.4956  0.9342
 2278SOL     OW18292   2.411   0.612   9.315  0.7327 -0.3372 -0.3566
 2278SOL    HW118293   2.380   0.522   9.329  1.1023  0.0566  2.9785
 2278SOL    HW218294   2.398   0.615   9.220 -0.3763  0.8529 -0.1518
 2279SOL     OW18295   0.700   1.116   3.584  0.6145 -0.2531  0.6141
 2279SOL    HW118296   0.750   1.107   3.503 -1.7255 -0.7031 -0.7542
 2279SOL    HW218297   0.710   1.029   3.624  1.5139 -0.1691  0.5852
 2280SOL     OW18298   4.597   1.644   6.024 -0.2084  0.2726 -0.0182
 2280SOL    HW118299   4.622   1.736   6.026  1.7986 -0.2631 -0.5802
 2280SOL    HW218300   4.610   1.623   6.117  1.8991  2.3483  0.1500
 2281SOL     OW18301   4.546   0.126  11.259  0.7736 -0.6177  0.4325
 2281SOL    HW118302   4.568   0.214  11.229 -1.2227  0.4020  1.8628
 2281SOL    HW218303   4.534   0.131  11.354  1.1531  2.1962  0.3376
 2282SOL     OW18304   4.136   3.670   4.593  0.0530  0.5861  0.0047
 2282SOL    HW118305   4.049   3.644   4.624 -0.3116 -0.0135 -1.5223
 2282SOL    HW218306   4.201   3.611   4.629  0.5669  1.9514  1.3150
 2283SOL     OW18307   0.938   3.798   8.903 -0.3186 -0.1956 -0.2833
 2283SOL    HW118308   0.975   3.886   8.904 -0.5652 -0.1180  1.0051
 2283SOL    HW218309   0.905   3.790   8.814 -1.6713 -0.4932  0.2492
 2284SOL     OW18310   2.628   0.418   6.845 -0.1616  0.2340  0.2102
 2284SOL    HW118311   2.694   0.442   6.779 -0.7062 -2.6922 -1.3985
 2284SOL    HW218312   2.663   0.462   6.922  0.1621  0.2213  0.0718
 2285SOL     OW18313   4.272   4.399   3.646  0.0476  0.5755 -0.5832
 2285SOL    HW118314   4.177   4.404   3.654 -0.0292 -2.8381  0.6604
 2285SOL    HW218315   4.306   4.471   3.700 -0.7279  1.4392 -1.2419
 2286SOL     OW18316   0.491   2.877   8.895  0.1936 -0.0219  0.0530
 2286SOL    HW118317   0.408   2.925   8.904 -0.8314 -1.4772 -1.6912
 2286SOL    HW218318   0.471   2.786   8.919  2.4281 -1.1271 -2.3343
 2287SOL     OW18319   2.193   1.616   7.884  0.1486 -0.0530 -0.1723
 2287SOL    HW118320   2.276   1.612   7.932  0.5554  0.6086 -0.8074
 2287SOL    HW218321   2.132   1.640   7.953  0.8467  0.1293  0.3749
 2288SOL     OW18322   2.886   2.187   4.682 -0.5149 -0.0479  0.3185
 2288SOL    HW118323   2.948   2.156   4.748 -1.6951 -0.6513  1.1487
 2288SOL    HW218324   2.862   2.276   4.709 -1.3331 -0.0074 -0.5669
 2289SOL     OW18325   0.427   3.302  17.159  0.2712 -1.0173 -0.5721
 2289SOL    HW118326   0.457   3.271  17.073  0.3915  0.4292 -1.0490
 2289SOL    HW218327   0.459   3.237  17.221  0.6073  0.1472  0.4859
 2290SOL     OW18328   3.824   2.177   1.404 -0.2925  0.2994 -0.4000
 2290SOL    HW118329   3.911   2.155   1.373  0.0088  0.2797  0.4523
 2290SOL    HW218330   3.785   2.222   1.329 -2.5219  2.6082  2.1226
 2291SOL     OW18331   2.969   2.179  14.791 -0.2909  0.5345 -0.3424
 2291SOL    HW118332   2.936   2.259  14.830 -0.7272  0.2063 -0.0328
 2291SOL    HW218333   2.887   2.134  14.772 -0.0303 -0.0665 -0.0687
 2292SOL     OW18334   0.970   4.527  15.701  0.0424 -0.0070  0.8645
 2292SOL    HW118335   1.037   4.460  15.710  0.1140  0.0170  0.5351
 2292SOL    HW218336   0.953   4.561  15.789  0.3318  0.3913  0.7668
 2293SOL     OW18337   2.888   2.348   8.108 -0.7263 -0.7441  0.1000
 2293SOL    HW118338   2.907   2.278   8.045 -0.5523 -0.4884 -0.1382
 2293SOL    HW218339   2.794   2.365   8.101 -0.3799  1.4377  0.5984
 2294SOL     OW18340   1.992   0.027   5.825 -0.1326  0.2844  0.0645
 2294SOL    HW118341   2.050   4.676   5.801 -0.2089  0.9227 -2.0430
 2294SOL    HW218342   1.973   0.003   5.915 -1.3326  0.1682 -0.2268
 2295SOL     OW18343   3.971   1.948   8.145  0.0338 -0.2584 -0.4003
 2295SOL    HW118344   3.971   2.036   8.108  0.0789  0.2971  0.9219
 2295SOL    HW218345   3.890   1.962   8.195  0.9107  1.2680  0.5894
 2296SOL     OW18346   2.557   0.631   0.188  0.1467  0.4411  1.0226
 2296SOL    HW118347   2.512   0.714   0.202 -0.0105  0.6846 -0.9333
 2296SOL    HW218348   2.597   0.632   0.275  0.4406  2.0114  0.8618
 2297SOL     OW18349   1.110   1.364   9.057 -0.0115 -0.7752 -0.2242
 2297SOL    HW118350   1.031   1.354   9.110 -0.5991 -2.2382 -1.3443
 2297SOL    HW218351   1.173   1.318   9.113 -0.2263 -1.0325 -0.1940
 2298SOL     OW18352   1.249   2.656   6.539  0.2003 -0.2940 -0.6151
 2298SOL    HW118353   1.210   2.622   6.459  0.1346  1.5651 -1.3625
 2298SOL    HW218354   1.325   2.705   6.508 -0.7671  3.3454  2.7276
 2299SOL     OW18355   1.321   0.836  11.336 -0.2199  0.1228 -0.0240
 2299SOL    HW118356   1.281   0.757  11.373 -2.1910  0.9572 -0.3830
 2299SOL    HW218357   1.245   0.888  11.310  0.1542 -0.0123 -1.3812
 2300SOL     OW18358   3.462   4.258  12.415 -0.0538 -0.2498 -0.1886
 2300SOL    HW118359   3.550   4.225  12.436 -1.0115 -2.7129  0.0030
 2300SOL    HW218360   3.490   4.342  12.379  0.3655 -0.0400  0.6418
 2301SOL     OW18361   4.286   1.687   0.918  0.5263 -0.0723  0.1180
 2301SOL    HW118362   4.207   1.729   0.883 -1.1920 -0.9599  2.9348
 2301SOL    HW218363   4.350   1.750   0.885 -0.0650 -0.2455 -1.3899
 2302SOL     OW18364   1.832   2.454   2.935  0.3871  0.6556  0.2192
 2302SOL    HW118365   1.793   2.523   2.881  1.5328  0.6164 -0.6626
 2302SOL    HW218366   1.856   2.496   3.018 -0.5076  1.2316  0.1780
 2303SOL     OW18367   4.516   2.584   9.102  0.9781 -0.3344  0.4967
 2303SOL    HW118368   4.505   2.511   9.163 -2.4224  0.0330  0.3349
 2303SOL    HW218369   4.567   2.650   9.147  1.3529 -0.9414  0.9493
 2304SOL     OW18370   4.332   1.822   7.309  0.0061  0.4268 -0.1827
 2304SOL    HW118371   4.269   1.772   7.360  0.8367  1.3934  1.7781
 2304SOL    HW218372   4.273   1.883   7.265 -0.3315  0.1302 -0.1391
 2305SOL     OW18373   1.883   4.650   4.582  0.0292  0.6056 -0.1455
 2305SOL    HW118374   1.867   4.686   4.495  2.1232 -0.4493 -0.9714
 2305SOL    HW218375   1.796   4.627   4.612  0.5533  0.3970  1.1996
 2306SOL     OW18376   4.398   1.282   8.266  0.3935  0.1924 -0.0717
 2306SOL    HW118377   4.402   1.239   8.352  1.3095  1.0853  0.3254
 2306SOL    HW218378   4.476   1.252   8.221 -0.8522 -1.5696 -1.0689
 2307SOL     OW18379   3.714   2.721  12.091  0.1987  0.0866 -0.4546
 2307SOL    HW118380   3.631   2.673  12.085  1.3992 -1.8349 -1.7115
 2307SOL    HW218381   3.703   2.783  12.019 -1.8688  0.6538  0.3425
 2308SOL     OW18382   3.674   3.582   6.041  0.3368  0.0261 -0.0253
 2308SOL    HW118383   3.725   3.571   6.121 -0.2792 -0.7819  0.2569
 2308SOL    HW218384   3.714   3.663   6.010  0.4089  0.2167  0.5561
 2309SOL     OW18385   1.479   4.271   7.281  0.0902 -0.7502 -0.2580
 2309SOL    HW118386   1.569   4.257   7.254  0.4606  0.7704  0.2006
 2309SOL    HW218387   1.480   4.219   7.362  0.1241 -0.9105 -0.3623
 2310SOL     OW18388   4.610   3.896  15.135 -0.0911  0.1744  0.2283
 2310SOL    HW118389   4.678   3.926  15.074 -1.4304  0.5812 -1.0750
 2310SOL    HW218390   4.527   3.936  15.109  0.0530 -1.5566 -2.9604
 2311SOL     OW18391   0.434   0.816   2.789  0.2083  0.3533 -0.2928
 2311SOL    HW118392   0.436   0.870   2.868  2.0761 -1.2712  0.7633
 2311SOL    HW218393   0.525   0.786   2.800  0.3022  1.4797  1.9467
 2312SOL     OW18394   1.444   3.944   9.966  0.5388  0.0042  0.0740
 2312SOL    HW118395   1.353   3.918   9.951  0.4108  0.8345 -0.5648
 2312SOL    HW218396   1.465   3.953   9.873  0.0667 -0.5234 -0.0879
 2313SOL     OW18397   1.732   2.423   1.002  0.7431  0.3822  0.3722
 2313SOL    HW118398   1.767   2.509   0.980 -0.9231  1.2255  1.0462
 2313SOL    HW218399   1.725   2.440   1.096 -1.6484 -2.2539  0.6718
 2314SOL     OW18400   2.947   1.266  15.536 -0.8403  0.3494  0.1250
 2314SOL    HW118401   2.950   1.362  15.541 -0.9956  0.2796  1.5736
 2314SOL    HW218402   2.924   1.243  15.446  1.0671 -0.1949 -0.2296
 2315SOL     OW18403   1.256   2.899   4.299  0.0487  0.2324 -0.1690
 2315SOL    HW118404   1.269   2.869   4.209  1.2119  0.1184  0.0389
 2315SOL    HW218405   1.229   2.989   4.279  0.7945  0.9128  1.8696
 2316SOL     OW18406   2.089   0.904   7.543  0.0491  0.4394  0.9048
 2316SOL    HW118407   2.052   0.944   7.464 -0.4068 -0.0506  0.8661
 2316SOL    HW218408   2.139   0.981   7.569 -0.4030  2.1001 -3.0463
 2317SOL     OW18409   4.368   2.433  11.069  0.4767 -0.3504 -0.2973
 2317SOL    HW118410   4.425   2.357  11.078 -0.7336 -1.1040  1.2029
 2317SOL    HW218411   4.284   2.392  11.049 -1.1000  2.1373  1.1267
 2318SOL     OW18412   0.754   3.264   7.983  0.1856  0.7836  0.1587
 2318SOL    HW118413   0.764   3.244   8.076 -0.8965  0.7129  0.2582
 2318SOL    HW218414   0.708   3.189   7.946  1.1795 -0.8356  2.2528
 2319SOL     OW18415   0.058   2.520   4.158 -0.1204 -0.2298 -0.1833
 2319SOL    HW118416   0.083   2.545   4.247 -0.4710 -0.9525  0.1093
 2319SOL    HW218417   0.068   2.602   4.108  0.9617  0.5516  1.3120
 2320SOL     OW18418   1.917   1.988  16.066 -0.2742  0.4682  0.0036
 2320SOL    HW118419   1.879   1.971  16.152 -0.0055  0.8071  0.1874
 2320SOL    HW218420   1.971   2.065  16.084  2.0287 -0.7956 -1.3291
 2321SOL     OW18421   2.404   2.329  11.842 -0.5486  0.3904 -0.5032
 2321SOL    HW118422   2.364   2.281  11.770  0.9632  0.6185 -1.4942
 2321SOL    HW218423   2.343   2.311  11.914 -1.1767  2.7307 -0.4410
 2322SOL     OW18424   3.490   0.288  15.498  0.4365 -0.0476  0.1301
 2322SOL    HW118425   3.546   0.359  15.467 -0.4343  0.5038 -0.1722
 2322SOL    HW218426   3.557   0.220  15.488  0.7053  0.0699  1.1406
 2323SOL     OW18427   3.653   2.844   4.577 -0.6899 -0.1662 -0.2833
 2323SOL    HW118428   3.654   2.783   4.650  1.6124  2.1685  1.6316
 2323SOL    HW218429   3.673   2.921   4.631 -1.6708 -1.0401  1.3196
 2324SOL     OW18430   1.789   3.878  16.986 -0.3773 -0.0376  0.2381
 2324SOL    HW118431   1.827   3.964  16.967 -1.3833  0.5528  0.9248
 2324SOL    HW218432   1.700   3.909  17.004 -0.2073  0.6070 -0.0514
 2325SOL     OW18433   2.330   2.134   0.970 -0.0261 -0.4419  0.1503
 2325SOL    HW118434   2.260   2.070   0.985  0.8589 -0.9377  2.2357
 2325SOL    HW218435   2.286   2.199   1.025 -1.9939 -0.4047 -1.4655
 2326SOL     OW18436   2.317   1.967   3.436 -0.4211  0.0700  0.7429
 2326SOL    HW118437   2.257   1.898   3.407  1.9635 -1.2479 -1.0796
 2326SOL    HW218438   2.404   1.928   3.426  0.8988  3.2717 -0.1126
 2327SOL     OW18439   1.067   2.537   2.580 -0.7230  0.8082  0.2272
 2327SOL    HW118440   1.000   2.503   2.520  1.0809 -1.4445 -0.4915
 2327SOL    HW218441   1.059   2.632   2.570  0.1201  1.1656  2.9034
 2328SOL     OW18442   1.049   1.046   4.099 -0.0865 -0.6805  0.2514
 2328SOL    HW118443   0.981   1.070   4.162  2.1261  2.6698  1.3115
 2328SOL    HW218444   1.097   1.128   4.107 -0.1566 -0.6142  0.0047
 2329SOL     OW18445   1.388   3.413   7.849 -0.3383 -0.7404  0.4470
 2329SOL    HW118446   1.417   3.321   7.852  1.5816 -0.0696  2.3298
 2329SOL    HW218447   1.441   3.455   7.916  1.0585  0.7752 -1.6208
 2330SOL     OW18448   1.548   3.136   8.376 -0.2184  0.1320  0.3969
 2330SOL    HW118449   1.618   3.188   8.417  0.8049 -3.0411  2.6551
 2330SOL    HW218450   1.589   3.105   8.295 -0.2993  0.1031  0.3669
 2331SOL     OW18451   2.165   3.551  16.833 -0.1587  0.0121  0.3245
 2331SOL    HW118452   2.118   3.623  16.792  0.0004 -0.5412 -0.8246
 2331SOL    HW218453   2.157   3.570  16.927  0.9257 -0.2916  0.4767
 2332SOL     OW18454   4.048   3.957   6.387 -0.4330 -0.1999  0.5028
 2332SOL    HW118455   3.982   4.023   6.365  0.0404  0.8516  2.2326
 2332SOL    HW218456   4.068   3.991   6.474  0.6378  0.8761 -0.1878
 2333SOL     OW18457   1.750   1.979  12.902  0.5786 -0.0551  0.5146
 2333SOL    HW118458   1.722   1.997  12.991  1.0644 -0.4440  0.7457
 2333SOL    HW218459   1.818   1.916  12.925 -0.3127 -0.3726  2.2318
 2334SOL     OW18460   4.494   3.252   3.958  0.0614 -0.7059  0.0304
 2334SOL    HW118461   4.509   3.172   3.906 -1.3034 -1.3770  0.6495
 2334SOL    HW218462   4.504   3.323   3.895 -1.4302  0.3460  0.9989
 2335SOL     OW18463   3.911   4.465   4.808  0.0077  1.1059 -0.5674
 2335SOL    HW118464   3.918   4.417   4.891 -0.0421  2.9169  0.4966
 2335SOL    HW218465   3.970   4.535   4.836 -0.5604  2.1719 -2.0358
 2336SOL     OW18466   4.688   3.316   4.688 -1.1670 -0.4055 -0.3252
 2336SOL    HW118467   0.055   3.291   4.716 -0.9769  2.0208  1.2925
 2336SOL    HW218468   4.635   3.291   4.763  0.0460  1.5833  1.1919
 2337SOL     OW18469   0.195   3.632   4.386  0.1293  0.0966  0.0085
 2337SOL    HW118470   0.165   3.617   4.475  1.1876 -0.1302  0.3147
 2337SOL    HW218471   0.176   3.545   4.351 -0.6412 -0.8945  2.9270
 2338SOL     OW18472   1.075   1.703  11.721 -0.1675  0.0198  0.5439
 2338SOL    HW118473   1.075   1.684  11.627  0.6484  0.9573  0.3489
 2338SOL    HW218474   1.022   1.783  11.716 -1.6472 -1.0232 -0.3206
 2339SOL     OW18475   2.338   4.403   7.497 -0.0429 -0.5256 -0.3085
 2339SOL    HW118476   2.370   4.315   7.514 -1.7413 -1.0272  0.3095
 2339SOL    HW218477   2.250   4.409   7.533 -0.4553 -0.3537 -1.3281
 2340SOL     OW18478   1.711   2.287   2.093 -0.6143 -0.7037 -0.6488
 2340SOL    HW118479   1.621   2.312   2.073 -0.9768 -0.9871  0.6142
 2340SOL    HW218480   1.682   2.217   2.152  1.5757 -0.0609  1.1666
 2341SOL     OW18481   1.186   4.191   2.720 -0.1258 -0.4156 -0.4737
 2341SOL    HW118482   1.221   4.239   2.645 -1.3628  0.3140 -0.5839
 2341SOL    HW218483   1.107   4.156   2.679 -0.5627 -0.6829  0.5881
 2342SOL     OW18484   2.610   3.035  13.215  0.0876 -0.0252  0.4400
 2342SOL    HW118485   2.564   2.952  13.227  0.9458 -0.2418  2.2624
 2342SOL    HW218486   2.579   3.079  13.295  0.2087  0.0067  0.4685
 2343SOL     OW18487   4.158   4.422   2.458 -0.2793  0.8536  0.5136
 2343SOL    HW118488   4.238   4.475   2.448  1.4157 -1.6015  1.2220
 2343SOL    HW218489   4.148   4.420   2.553 -1.1736  0.9134  0.4209
 2344SOL     OW18490   0.933   2.106   6.294  0.5361 -0.2725  0.2401
 2344SOL    HW118491   1.021   2.093   6.331  0.7009 -2.1964 -0.7955
 2344SOL    HW218492   0.947   2.092   6.200 -3.2172  0.4372 -0.4034
 2345SOL     OW18493   3.327   2.565   3.987 -0.1347  0.7757 -0.0161
 2345SOL    HW118494   3.409   2.556   3.939  0.7115  0.3914  1.4797
 2345SOL    HW218495   3.307   2.473   4.006 -3.3033  1.1370 -1.5352
 2346SOL     OW18496   3.881   4.305   4.007  0.0680  0.2788  0.3453
 2346SOL    HW118497   3.960   4.251   4.017 -1.5082 -1.7871  1.5996
 2346SOL    HW218498   3.878   4.344   4.095  4.1431 -1.9140  1.4779
 2347SOL     OW18499   0.400   0.409  17.609  0.5817 -0.3185 -0.2078
 2347SOL    HW118500   0.365   0.363  17.686 -0.0456 -2.0420 -1.5276
 2347SOL    HW218501   0.494   0.392  17.612  0.8262  1.3609  1.2897
 2348SOL     OW18502   3.531   4.068  17.062  0.6197 -0.1761 -0.1937
 2348SOL    HW118503   3.530   4.163  17.053  0.5543 -0.2639 -1.1576
 2348SOL    HW218504   3.557   4.053  16.971 -1.0163 -1.4102 -0.4467
 2349SOL     OW18505   1.053   1.915  10.952 -0.5989 -0.3160  0.2494
 2349SOL    HW118506   0.988   1.986  10.946  0.4884  0.5416 -1.3056
 2349SOL    HW218507   1.135   1.957  10.928 -1.9270  2.9105  1.2293
 2350SOL     OW18508   4.585   3.347  11.476  0.2594 -0.3484  0.1302
 2350SOL    HW118509   4.538   3.350  11.393 -2.0986 -1.2767  1.4346
 2350SOL    HW218510   4.678   3.340  11.455 -0.3515 -3.1399 -1.6665
 2351SOL     OW18511   1.504   2.695   5.789 -0.1274 -0.4652 -0.4244
 2351SOL    HW118512   1.470   2.694   5.699 -1.5750  0.4323  0.1033
 2351SOL    HW218513   1.530   2.605   5.806 -1.0629 -0.4824  0.9870
 2352SOL     OW18514   0.649   4.432   7.349  0.4638 -0.6929 -0.5851
 2352SOL    HW118515   0.599   4.497   7.301  2.6270  0.9407 -0.6515
 2352SOL    HW218516   0.660   4.474   7.434  0.3935  3.2061 -2.5260
 2353SOL     OW18517   3.985   1.531  10.787 -0.3280 -0.4476 -0.0892
 2353SOL    HW118518   4.019   1.450  10.749  0.3034 -0.7656  1.1253
 2353SOL    HW218519   4.070   1.573  10.803 -0.6206 -0.5304  1.7532
 2354SOL     OW18520   0.351   2.627   4.770  0.1015  0.2693  0.3465
 2354SOL    HW118521   0.269   2.671   4.746  0.3394  1.2338  1.2933
 2354SOL    HW218522   0.350   2.607   4.864  0.1128 -0.6742  0.1445
 2355SOL     OW18523   1.375   0.295   7.960  0.0970  0.6062 -0.4252
 2355SOL    HW118524   1.466   0.322   7.969  0.6766 -1.2923 -0.5449
 2355SOL    HW218525   1.349   0.342   7.881 -1.3506  0.2845 -0.1442
 2356SOL     OW18526   0.095   1.404  16.649  0.5747  0.1288 -0.1885
 2356SOL    HW118527   0.105   1.454  16.568 -0.8911  0.5163 -0.1276
 2356SOL    HW218528   0.093   1.477  16.711  1.1942 -0.0570  0.0502
 2357SOL     OW18529   3.826   1.753   5.700  0.1551 -0.0636  0.1773
 2357SOL    HW118530   3.875   1.733   5.619 -0.8832  1.3813 -0.8089
 2357SOL    HW218531   3.745   1.795   5.672  0.4474  1.0819  1.0410
 2358SOL     OW18532   3.325   1.226  17.420  0.0450 -0.4780 -0.0135
 2358SOL    HW118533   3.259   1.158  17.411 -1.1785  0.8154 -0.7076
 2358SOL    HW218534   3.273   1.269  17.487  1.3594  1.0017  0.0468
 2359SOL     OW18535   4.061   2.701  10.469 -0.1389 -0.1675 -0.4273
 2359SOL    HW118536   4.043   2.747  10.387  0.9269 -0.7002 -0.9650
 2359SOL    HW218537   3.974   2.662  10.479 -0.8340  1.0358 -1.8014
 2360SOL     OW18538   1.528   1.199   8.767 -0.6674 -0.0765  0.1323
 2360SOL    HW118539   1.596   1.144   8.729 -1.6696 -0.0520 -1.6899
 2360SOL    HW218540   1.463   1.183   8.699 -0.1427  0.2323 -0.4462
 2361SOL     OW18541   1.449   0.501   5.501  0.2277 -0.3991  0.2321
 2361SOL    HW118542   1.502   0.465   5.431  3.4750  2.1576  1.3650
 2361SOL    HW218543   1.517   0.529   5.563  0.2622  0.2048 -0.0742
 2362SOL     OW18544   0.977   1.100   8.119 -1.0217  0.4530  0.0648
 2362SOL    HW118545   1.026   1.174   8.155  0.9581 -1.2497  0.8770
 2362SOL    HW218546   0.957   1.056   8.202 -0.3923  0.1902  0.0791
 2363SOL     OW18547   2.033   2.213   0.352 -0.2421 -0.2835  0.4799
 2363SOL    HW118548   2.091   2.146   0.315  0.2116 -0.1171  0.8801
 2363SOL    HW218549   2.008   2.254   0.270  1.5320 -1.3027 -0.5875
 2364SOL     OW18550   1.946   0.729   0.040 -0.3211 -0.0421 -0.1916
 2364SOL    HW118551   2.015   0.782   0.079 -0.5350 -1.0687  1.5479
 2364SOL    HW218552   1.881   0.720   0.109  0.0016 -0.4683  0.0564
 2365SOL     OW18553   1.735   0.782   9.744  0.2227  0.2969  0.5062
 2365SOL    HW118554   1.713   0.862   9.790 -1.4648  0.3481 -0.3582
 2365SOL    HW218555   1.712   0.717   9.810 -0.6253  2.0305  1.9035
 2366SOL     OW18556   1.454   1.792  10.193  0.0606  0.6675 -0.3734
 2366SOL    HW118557   1.537   1.836  10.211  0.3267  0.0128 -0.0019
 2366SOL    HW218558   1.404   1.810  10.272  0.9446 -3.3779  1.0908
 2367SOL     OW18559   2.601   4.266  16.860  0.1386  0.2869  0.7005
 2367SOL    HW118560   2.667   4.208  16.899 -1.2623 -0.3789  2.1090
 2367SOL    HW218561   2.552   4.205  16.804 -0.4503  1.1734  0.2656
 2368SOL     OW18562   4.168   3.734   6.297 -0.7421 -0.0128  0.0339
 2368SOL    HW118563   4.115   3.812   6.314 -1.4064 -0.1807 -1.3149
 2368SOL    HW218564   4.112   3.686   6.236  0.0929 -1.2564  0.2591
 2369SOL     OW18565   4.369   3.241   2.459 -0.2002  0.1666 -0.6866
 2369SOL    HW118566   4.455   3.199   2.452 -0.2184  0.1694 -0.9333
 2369SOL    HW218567   4.350   3.242   2.553  0.1194 -3.4267 -0.5702
 2370SOL     OW18568   1.333   2.866   2.089  0.1565  0.0443 -0.4937
 2370SOL    HW118569   1.391   2.803   2.132 -1.9488 -2.1906 -0.9399
 2370SOL    HW218570   1.394   2.929   2.052  1.2275  0.4526  1.9239
 2371SOL     OW18571   0.310   2.356  17.096  0.0073  0.3643 -0.0988
 2371SOL    HW118572   0.299   2.263  17.075 -0.0452 -0.2047  2.4328
 2371SOL    HW218573   0.263   2.396  17.023  0.1937  0.9751  0.1241
 2372SOL     OW18574   0.412   0.418   4.897  0.1338 -0.1495 -0.0584
 2372SOL    HW118575   0.460   0.401   4.816 -1.3509 -1.4372 -0.6626
 2372SOL    HW218576   0.483   0.405   4.959  0.6961  0.5897 -0.5403
 2373SOL     OW18577   4.137   2.463  11.550 -0.6924  0.6501 -0.1289
 2373SOL    HW118578   4.132   2.486  11.643 -2.3058  2.0301 -0.5640
 2373SOL    HW218579   4.221   2.417  11.551 -1.5115 -0.8601 -0.5530
 2374SOL     OW18580   2.268   4.586  11.286  0.0938  0.3813 -0.0753
 2374SOL    HW118581   2.321   4.506  11.290  0.3208  0.4623 -1.5043
 2374SOL    HW218582   2.258   4.592  11.191 -0.2253  1.8235  0.0435
 2375SOL     OW18583   0.891   2.607   3.198  0.0802  0.3611  0.5471
 2375SOL    HW118584   0.931   2.598   3.112 -0.8876  0.3357  0.0964
 2375SOL    HW218585   0.819   2.669   3.186 -0.0675  0.3498  1.3395
 2376SOL     OW18586   3.322   3.749   3.824  0.2356  0.0709 -0.1080
 2376SOL    HW118587   3.414   3.754   3.798  0.4070  0.1651  0.5063
 2376SOL    HW218588   3.304   3.656   3.811  0.7108  0.0584 -0.6762
 2377SOL     OW18589   4.067   0.502   1.462 -0.0491  0.6113 -0.1341
 2377SOL    HW118590   4.079   0.597   1.470  2.0865  0.3991 -0.8003
 2377SOL    HW218591   4.126   0.478   1.390  1.7821  3.5476  0.3648
 2378SOL     OW18592   2.170   1.726  17.578 -0.1660  0.8003 -0.1138
 2378SOL    HW118593   2.098   1.675  17.541  0.6489 -1.3840  1.2973
 2378SOL    HW218594   2.247   1.677  17.547  0.2593  2.0062 -0.9602
 2379SOL     OW18595   3.841   2.341   3.477  0.7444  0.1849  0.1362
 2379SOL    HW118596   3.778   2.403   3.514 -0.1455 -1.2988  1.1329
 2379SOL    HW218597   3.899   2.327   3.552 -0.4294  0.2028  1.0448
 2380SOL     OW18598   1.223   2.400   1.385 -0.0824 -0.3814  0.0370
 2380SOL    HW118599   1.299   2.342   1.377  0.2244  0.2928 -2.0592
 2380SOL    HW218600   1.148   2.349   1.352 -0.0805  1.1842 -2.3408
 2381SOL     OW18601   0.112   1.010   0.658  0.0639  0.1721  0.5077
 2381SOL    HW118602   0.119   0.990   0.752  0.4702 -0.0213  0.4369
 2381SOL    HW218603   0.204   1.034   0.643  0.7880 -1.8395  1.6628
 2382SOL     OW18604   4.253   4.064   6.590 -0.2276 -0.4492 -0.7285
 2382SOL    HW118605   4.287   4.090   6.676 -1.0880  1.7560 -1.0480
 2382SOL    HW218606   4.292   3.977   6.591 -0.4962 -0.5574  0.4562
 2383SOL     OW18607   0.844   4.262   2.943 -0.5710  0.3891 -0.3791
 2383SOL    HW118608   0.763   4.284   2.989  1.0592 -1.9946  3.6018
 2383SOL    HW218609   0.826   4.293   2.854 -3.7018  2.3772  0.9673
 2384SOL     OW18610   1.154   2.314   6.639  0.0799  0.3308  0.1094
 2384SOL    HW118611   1.187   2.290   6.552 -0.4520  2.5228 -0.7035
 2384SOL    HW218612   1.070   2.357   6.626 -1.5405 -3.5013 -2.0838
 2385SOL     OW18613   1.169   0.204   7.313  0.1154  0.4888  0.1160
 2385SOL    HW118614   1.172   0.279   7.254 -1.6787 -0.4690 -1.1807
 2385SOL    HW218615   1.239   0.224   7.376 -0.4976  1.2967  0.5389
 2386SOL     OW18616   1.378   2.111   2.821  0.1388  0.1899  0.2622
 2386SOL    HW118617   1.374   2.041   2.886 -1.1090  0.2029  0.2120
 2386SOL    HW218618   1.472   2.127   2.815  0.1414  0.5285  1.3446
 2387SOL     OW18619   2.989   0.704   6.776 -0.6245 -0.2532 -0.3803
 2387SOL    HW118620   2.994   0.799   6.763 -2.5859  0.0336  0.9196
 2387SOL    HW218621   2.936   0.679   6.700 -0.5546 -0.8910 -0.2198
 2388SOL     OW18622   0.311   0.482   2.267 -0.2961 -0.6609  0.1659
 2388SOL    HW118623   0.315   0.575   2.246 -0.6310 -0.4698  0.9512
 2388SOL    HW218624   0.248   0.459   2.199  1.6681 -2.4918 -1.0305
 2389SOL     OW18625   0.920   4.067  14.346 -0.0436  0.1647 -0.3050
 2389SOL    HW118626   0.881   4.090  14.262 -3.7268 -2.0293  0.8173
 2389SOL    HW218627   0.954   4.151  14.377 -1.6911  0.8974 -0.4855
 2390SOL     OW18628   4.050   2.223   4.817  0.2154 -0.5911  0.0376
 2390SOL    HW118629   4.032   2.216   4.723  1.4510  0.1868 -0.2669
 2390SOL    HW218630   4.142   2.196   4.807  0.4556 -0.1027  0.9675
 2391SOL     OW18631   0.640   0.541  12.122  0.0445 -0.7652 -0.7725
 2391SOL    HW118632   0.698   0.465  12.126  0.4916 -0.4028 -0.4045
 2391SOL    HW218633   0.642   0.568  12.214 -0.3950  1.4944 -1.4264
 2392SOL     OW18634   2.058   0.961  15.795 -0.2172 -0.0692 -0.1958
 2392SOL    HW118635   2.077   0.882  15.745  0.2174  0.3483 -0.6990
 2392SOL    HW218636   2.000   0.930  15.865 -1.6503  0.5760 -1.0936
 2393SOL     OW18637   3.399   3.117   4.581  0.3187 -0.6872  0.0116
 2393SOL    HW118638   3.393   3.201   4.536  0.0862 -1.0554 -0.6295
 2393SOL    HW218639   3.341   3.070   4.521 -1.4240  0.1326  1.0334
 2394SOL     OW18640   1.580   3.361   4.225  0.0729 -0.3145  1.0475
 2394SOL    HW118641   1.600   3.438   4.278 -2.8934  1.1150  0.1135
 2394SOL    HW218642   1.652   3.302   4.248  0.5857  0.1787  0.6815
 2395SOL     OW18643   2.054   1.714   0.212  0.1175  0.9534 -0.1443
 2395SOL    HW118644   2.052   1.632   0.163 -0.9021 -1.2166  3.5048
 2395SOL    HW218645   1.968   1.741   0.179 -0.4353 -1.6261 -0.8430
 2396SOL     OW18646   1.574   4.658   7.991  0.1524  0.1185 -0.6652
 2396SOL    HW118647   1.564   4.569   7.956 -1.2584 -0.1190  0.3359
 2396SOL    HW218648   1.485   4.673   8.021  0.5406  1.1698 -0.0511
 2397SOL     OW18649   1.342   3.602   4.698 -0.3997  0.0173  0.0005
 2397SOL    HW118650   1.301   3.647   4.624 -2.7435  1.5500  2.2152
 2397SOL    HW218651   1.307   3.653   4.772  1.3698 -2.1859  2.3321
 2398SOL     OW18652   4.178   3.787  12.250 -0.1361  0.4699  0.2573
 2398SOL    HW118653   4.270   3.759  12.244 -0.2994 -0.0593  0.2930
 2398SOL    HW218654   4.142   3.724  12.312  0.8154 -1.6796 -1.3514
 2399SOL     OW18655   1.950   1.770  15.654 -0.5182 -0.6769  0.1374
 2399SOL    HW118656   1.992   1.847  15.691 -0.0519 -1.0199  0.3210
 2399SOL    HW218657   2.001   1.753  15.575 -2.3322 -2.4494 -0.6689
 2400SOL     OW18658   2.003   2.283  10.185 -0.5079 -0.0712  0.4316
 2400SOL    HW118659   1.998   2.232  10.266 -0.0781 -1.5229 -0.4605
 2400SOL    HW218660   1.989   2.216  10.119  0.5943  0.7535 -0.6200
 2401SOL     OW18661   2.785   3.227   6.200 -0.4520  0.3765  0.1056
 2401SOL    HW118662   2.764   3.133   6.195  1.6089  0.0902 -3.2232
 2401SOL    HW218663   2.782   3.235   6.295 -0.7985  1.7544 -0.0283
 2402SOL     OW18664   3.727   2.872   2.621  0.0443 -0.3677 -0.4396
 2402SOL    HW118665   3.697   2.834   2.538  1.5820 -0.2081 -1.0663
 2402SOL    HW218666   3.643   2.901   2.656  0.1857  3.4299 -3.2529
 2403SOL     OW18667   2.410   2.902   7.997 -0.2436  0.1497  0.0702
 2403SOL    HW118668   2.401   2.981   8.051 -0.4642 -1.0446  1.7479
 2403SOL    HW218669   2.490   2.863   8.031  0.1489  0.3039 -0.6882
 2404SOL     OW18670   2.103   2.518   9.382 -0.0506  0.0573  0.3113
 2404SOL    HW118671   2.065   2.499   9.467  1.3578 -0.7362  0.7720
 2404SOL    HW218672   2.111   2.428   9.352 -0.7957  0.1522 -0.1724
 2405SOL     OW18673   2.446   0.153  16.180  0.1444  0.4544  0.3592
 2405SOL    HW118674   2.356   0.163  16.149  0.4838 -1.3989 -1.2366
 2405SOL    HW218675   2.432   0.131  16.272 -1.9018  2.5087  0.5403
 2406SOL     OW18676   4.577   3.920  12.256  0.2520 -0.0119  0.4331
 2406SOL    HW118677   4.510   3.852  12.255 -0.8435  1.0498 -0.2810
 2406SOL    HW218678   4.553   3.982  12.324 -2.0116 -0.9536  0.4858
 2407SOL     OW18679   4.289   0.235   5.817 -0.1941 -0.4651  0.4457
 2407SOL    HW118680   4.241   0.235   5.900 -1.2077  0.0039 -0.1376
 2407SOL    HW218681   4.360   0.298   5.829  1.6635 -2.2441 -1.2652
 2408SOL     OW18682   2.928   1.361   4.689  0.0446  0.2781 -0.5373
 2408SOL    HW118683   2.845   1.360   4.642  0.4586 -0.7263 -1.2551
 2408SOL    HW218684   2.895   1.388   4.774  2.5904 -0.5552  0.7249
 2409SOL     OW18685   0.943   3.900   6.651  0.6188  0.7187 -0.5148
 2409SOL    HW118686   0.982   3.988   6.648  2.1782  0.1480  3.1890
 2409SOL    HW218687   0.984   3.857   6.576  0.0118 -0.4368 -0.1879
 2410SOL     OW18688   3.178   2.485   4.315 -0.0174  0.3685 -0.0208
 2410SOL    HW118689   3.178   2.443   4.228 -1.7730  0.4483 -0.0652
 2410SOL    HW218690   3.242   2.437   4.368 -0.1048 -0.6110 -0.7894
 2411SOL     OW18691   3.445   0.041   7.854  0.0377  0.0343 -0.3200
 2411SOL    HW118692   3.440   0.099   7.930  1.5249 -0.3555  0.0790
 2411SOL    HW218693   3.422   4.683   7.902 -0.0842 -1.0764 -2.2335
 2412SOL     OW18694   2.216   2.583  11.736 -0.0989  0.2276  0.0692
 2412SOL    HW118695   2.191   2.507  11.683 -1.8382 -0.0621  1.3208
 2412SOL    HW218696   2.140   2.600  11.791  1.5444  0.6549  2.2121
 2413SOL     OW18697   2.717   2.255   6.207 -0.6709 -0.1187  0.4663
 2413SOL    HW118698   2.657   2.310   6.257  0.0757 -0.7952  2.1220
 2413SOL    HW218699   2.665   2.229   6.131  0.1081 -1.4203  0.3831
 2414SOL     OW18700   2.160   2.756   4.688 -0.1616  0.2165  0.4963
 2414SOL    HW118701   2.154   2.829   4.625  0.1284  0.3366  0.6077
 2414SOL    HW218702   2.252   2.758   4.713 -0.2072  0.0599  0.6679
 2415SOL     OW18703   1.145   2.727   4.897  0.0176 -0.9193  0.5642
 2415SOL    HW118704   1.209   2.742   4.967 -0.5676 -1.0198  1.1264
 2415SOL    HW218705   1.199   2.678   4.834  1.7907  0.7091  0.8146
 2416SOL     OW18706   0.838   3.502   2.726 -0.4477 -0.5505 -0.2513
 2416SOL    HW118707   0.743   3.506   2.738 -0.1042  1.7775  1.6273
 2416SOL    HW218708   0.871   3.582   2.767  0.0982 -1.3521  0.8662
 2417SOL     OW18709   3.054   0.182  14.829 -0.5277  0.2544  0.3464
 2417SOL    HW118710   3.096   0.267  14.841 -1.0208  0.7415 -1.4696
 2417SOL    HW218711   3.115   0.154  14.762  0.1412  0.9783  0.6567
 2418SOL     OW18712   0.119   2.084   8.977  0.5469 -0.1739 -0.0116
 2418SOL    HW118713   0.100   2.009   9.033  0.3729  0.0397  0.2172
 2418SOL    HW218714   0.112   2.158   9.038  0.1801 -0.5084  0.3481
 2419SOL     OW18715   1.303   0.045   3.204  0.0365 -0.5581  0.6206
 2419SOL    HW118716   1.219   0.001   3.217 -0.9731  1.6630  1.5775
 2419SOL    HW218717   1.299   0.123   3.260  0.7788  0.1521 -0.3126
 2420SOL     OW18718   2.668   4.006   7.346 -0.5943  0.3177 -0.7746
 2420SOL    HW118719   2.699   3.991   7.436 -1.2859  0.8904 -0.4360
 2420SOL    HW218720   2.620   3.930   7.313 -0.0359 -0.6474  0.6156
 2421SOL     OW18721   4.294   3.262   0.339 -0.3322 -0.2040  0.1646
 2421SOL    HW118722   4.362   3.276   0.406 -1.5354 -1.4125  1.6395
 2421SOL    HW218723   4.229   3.328   0.364  1.2274  0.5409  2.2535
 2422SOL     OW18724   0.087   3.722   7.564 -0.0666 -0.2271  0.0656
 2422SOL    HW118725   0.153   3.715   7.495  0.7557  2.6564  0.5754
 2422SOL    HW218726   0.061   3.631   7.578 -2.5248  0.5066  0.3492
 2423SOL     OW18727   0.230   1.475   8.576 -0.4235  0.0821  0.1618
 2423SOL    HW118728   0.173   1.473   8.500 -0.1030  1.1934 -0.0961
 2423SOL    HW218729   0.275   1.552   8.543  2.2230 -0.8714  1.4925
 2424SOL     OW18730   2.083   4.126   7.738 -0.0002  0.0942  0.4463
 2424SOL    HW118731   2.035   4.205   7.765  1.1740  0.4576  1.4485
 2424SOL    HW218732   2.171   4.141   7.772  0.1330 -1.1768  0.6915
 2425SOL     OW18733   1.924   1.315   8.494  0.6827  0.2630  0.0348
 2425SOL    HW118734   1.944   1.245   8.433  0.5625  2.2095 -2.2203
 2425SOL    HW218735   1.941   1.260   8.571  0.8165 -2.3621 -1.8658
 2426SOL     OW18736   3.778   1.064   5.213 -0.1520  0.3076 -0.4630
 2426SOL    HW118737   3.838   1.068   5.287  0.7322 -2.1925 -1.0159
 2426SOL    HW218738   3.836   1.073   5.137  0.9239 -1.3664  0.1571
 2427SOL     OW18739   4.161   3.900   2.466  0.1542  0.3887 -0.2960
 2427SOL    HW118740   4.130   3.810   2.473  1.0180  0.1985  1.0826
 2427SOL    HW218741   4.076   3.944   2.473 -0.4291 -0.5769 -1.4424
 2428SOL     OW18742   3.792   4.678  16.889  0.2272  0.2364  0.8614
 2428SOL    HW118743   3.860   4.690  16.956  1.7344 -0.8046 -0.4819
 2428SOL    HW218744   3.825   4.596  16.854 -2.5924 -0.2597 -0.6145
 2429SOL     OW18745   2.498   4.197   6.304 -0.0922 -0.2533  0.3748
 2429SOL    HW118746   2.526   4.204   6.212 -1.0734  0.5941  0.1341
 2429SOL    HW218747   2.576   4.161   6.346 -0.3532 -2.3617 -0.9365
 2430SOL     OW18748   2.473   3.190   5.885  0.1721  0.3696 -0.6380
 2430SOL    HW118749   2.542   3.155   5.829  0.5085  2.6359 -1.6191
 2430SOL    HW218750   2.413   3.229   5.821 -0.8291  0.3244  0.2826
 2431SOL     OW18751   0.160   2.486   9.971 -0.0599  0.3418 -0.3977
 2431SOL    HW118752   0.068   2.459   9.973  0.2514 -0.7771 -0.7678
 2431SOL    HW218753   0.179   2.435  10.050  1.4111  1.1761 -0.2096
 2432SOL     OW18754   1.252   3.285   3.958  0.4002  0.2920  0.0319
 2432SOL    HW118755   1.338   3.255   3.985  0.1651 -2.0554 -1.8340
 2432SOL    HW218756   1.231   3.202   3.916  1.9593  0.4983 -1.1321
 2433SOL     OW18757   1.479   0.045  11.248  0.1409  1.0858  0.1732
 2433SOL    HW118758   1.406   0.038  11.310  0.2231  2.9805  0.4654
 2433SOL    HW218759   1.551   4.719  11.289  1.0850  2.6210  0.2856
 2434SOL     OW18760   0.182   0.990   8.834  0.1573  0.1906  0.3945
 2434SOL    HW118761   0.259   0.984   8.891  0.2889  0.3436  0.2347
 2434SOL    HW218762   0.218   0.948   8.756 -0.2622  0.9217 -0.1954
 2435SOL     OW18763   0.648   3.049   2.151 -0.7492 -0.1082 -0.4745
 2435SOL    HW118764   0.671   3.056   2.059 -0.1859 -1.9758 -0.4687
 2435SOL    HW218765   0.575   2.988   2.151  0.0108 -1.0106 -1.0113
 2436SOL     OW18766   3.075   2.310   3.467 -0.0502  0.3713  0.2581
 2436SOL    HW118767   3.064   2.311   3.562 -0.9075  1.2705  0.1470
 2436SOL    HW218768   3.013   2.243   3.439 -1.8357  2.4391 -0.7806
 2437SOL     OW18769   2.798   2.788   1.875  0.1200  0.3230  0.2243
 2437SOL    HW118770   2.743   2.860   1.905 -0.5434 -0.0037 -0.2185
 2437SOL    HW218771   2.728   2.734   1.840 -0.2197  0.8729  0.0608
 2438SOL     OW18772   1.459   0.611   4.417  0.1699 -0.4979  0.3755
 2438SOL    HW118773   1.545   0.632   4.454  0.7097 -0.0329 -1.1265
 2438SOL    HW218774   1.415   0.695   4.428  0.0714 -0.5194  0.1391
 2439SOL     OW18775   0.585   2.910  17.506 -0.3192  0.0676 -0.0782
 2439SOL    HW118776   0.650   2.841  17.491 -1.3556 -0.7206 -0.9408
 2439SOL    HW218777   0.507   2.857  17.523 -0.8530  1.7470  2.7656
 2440SOL     OW18778   3.177   0.014   0.796 -0.7442  0.0467 -0.1457
 2440SOL    HW118779   3.189   4.706   0.886  1.3367 -0.4352 -0.5876
 2440SOL    HW218780   3.201   4.656   0.748  0.6445  0.5050 -0.2162
 2441SOL     OW18781   2.008   0.525  14.985  0.0333 -0.5322 -0.7398
 2441SOL    HW118782   1.946   0.535  15.056  0.4206  0.8286 -0.5866
 2441SOL    HW218783   1.953   0.524  14.907 -0.1757  1.5030 -0.6147
 2442SOL     OW18784   0.492   1.524  11.455 -0.5472 -0.1620  0.0888
 2442SOL    HW118785   0.445   1.462  11.399  0.2742 -1.0227  0.3615
 2442SOL    HW218786   0.498   1.605  11.405 -0.0991  0.1433  0.6494
 2443SOL     OW18787   1.436   3.646   0.545 -0.5289 -0.1322 -0.0369
 2443SOL    HW118788   1.527   3.672   0.560 -0.4064 -1.2440  1.1681
 2443SOL    HW218789   1.439   3.555   0.574  1.0736 -0.6451 -1.8383
 2444SOL     OW18790   1.836   0.283   6.897  0.1414 -0.0339 -0.3229
 2444SOL    HW118791   1.755   0.319   6.861  0.3346 -0.9528 -1.6619
 2444SOL    HW218792   1.805   0.193   6.903  0.4636 -0.1025  0.2923
 2445SOL     OW18793   2.692   2.288   7.142  0.3268  0.2287  0.0525
 2445SOL    HW118794   2.689   2.197   7.113  0.3055  0.4022 -0.4771
 2445SOL    HW218795   2.787   2.297   7.143  0.4687 -1.6662  3.6152
 2446SOL     OW18796   1.271   4.074   6.752  0.1125  0.1001 -0.6239
 2446SOL    HW118797   1.187   4.111   6.725  0.1565  0.7113  0.0885
 2446SOL    HW218798   1.236   3.989   6.781 -0.2792  0.1282 -1.0107
 2447SOL     OW18799   3.717   1.810   0.408 -0.6119 -0.2339  0.7421
 2447SOL    HW118800   3.668   1.739   0.450 -1.6320 -0.5173 -0.9214
 2447SOL    HW218801   3.683   1.784   0.322 -1.5878  0.0528  1.0331
 2448SOL     OW18802   1.235   2.407   2.768 -0.1697 -0.3777  0.1419
 2448SOL    HW118803   1.164   2.462   2.737 -0.6486 -1.9510 -1.4935
 2448SOL    HW218804   1.219   2.331   2.713 -1.6906  0.6922 -0.8757
 2449SOL     OW18805   1.464   2.716   2.735 -0.2343 -0.1607  0.0602
 2449SOL    HW118806   1.435   2.786   2.793 -0.9461 -1.7113  1.5926
 2449SOL    HW218807   1.411   2.733   2.657  0.3170 -0.6747 -0.4323
 2450SOL     OW18808   3.778   4.322   4.625 -0.5671 -0.0875 -0.1990
 2450SOL    HW118809   3.814   4.384   4.688 -1.8089  0.0583  0.3753
 2450SOL    HW218810   3.802   4.236   4.662  0.1994 -0.4532 -1.5516
 2451SOL     OW18811   1.186   1.971  12.277  0.3424  0.2909  0.2746
 2451SOL    HW118812   1.217   2.019  12.200 -0.9931 -0.3561 -0.6638
 2451SOL    HW218813   1.184   2.035  12.347 -1.3288  1.8103 -1.1597
 2452SOL     OW18814   0.335   1.100   4.990 -0.3370  0.3220  0.1415
 2452SOL    HW118815   0.356   1.029   4.929 -0.4350  0.0134  0.4640
 2452SOL    HW218816   0.423   1.136   4.998 -0.8098  1.2008  1.4255
 2453SOL     OW18817   1.779   2.706   7.542  0.3675 -0.1673  0.6264
 2453SOL    HW118818   1.849   2.664   7.592  1.0649 -2.2878 -2.2127
 2453SOL    HW218819   1.818   2.733   7.459  0.7696 -0.0928  0.8368
 2454SOL     OW18820   1.835   0.675   8.237  0.1829 -0.0349  0.0891
 2454SOL    HW118821   1.801   0.595   8.195  1.3462 -0.3236 -0.3151
 2454SOL    HW218822   1.853   0.646   8.326 -3.1841 -1.1969  0.4146
 2455SOL     OW18823   2.954   0.643   2.592 -0.1664 -0.6269  0.3788
 2455SOL    HW118824   2.900   0.609   2.663  1.8374 -0.2650  2.0619
 2455SOL    HW218825   2.896   0.717   2.574  0.4863 -0.2387 -0.1287
 2456SOL     OW18826   0.846   1.828   7.568 -0.0221 -0.1103 -0.2888
 2456SOL    HW118827   0.817   1.856   7.655 -1.0290 -3.7483  0.5629
 2456SOL    HW218828   0.940   1.817   7.578  0.0791  1.3229  0.2654
 2457SOL     OW18829   1.811   2.230  11.594  0.1640  0.4991 -0.0624
 2457SOL    HW118830   1.734   2.180  11.566  1.1548  0.1389 -2.1800
 2457SOL    HW218831   1.857   2.232  11.510  0.8409  1.7105  0.3336
 2458SOL     OW18832   1.381   0.205   9.154  0.1135 -0.1097  0.7971
 2458SOL    HW118833   1.468   0.227   9.121  0.6713  0.5791  2.7433
 2458SOL    HW218834   1.411   0.143   9.220 -0.5136 -1.1422  0.1221
 2459SOL     OW18835   1.533   3.415   7.377 -0.6401 -0.2326 -0.0734
 2459SOL    HW118836   1.491   3.367   7.305  0.0202 -1.0967  0.1152
 2459SOL    HW218837   1.481   3.377   7.448  1.0790  1.2526  1.9690
 2460SOL     OW18838   2.007   1.639   6.384 -0.1368  0.1524 -0.1064
 2460SOL    HW118839   2.045   1.721   6.350 -0.5029  1.1361  1.9015
 2460SOL    HW218840   1.941   1.619   6.318 -0.4157  2.2001 -0.4593
 2461SOL     OW18841   0.693   4.185   3.578  0.2862 -0.3880  0.0198
 2461SOL    HW118842   0.775   4.214   3.618  0.3219  1.1015 -1.1366
 2461SOL    HW218843   0.702   4.235   3.497  0.2425  0.3065  0.4386
 2462SOL     OW18844   0.148   2.673   7.072  0.3684  0.3955 -0.0055
 2462SOL    HW118845   0.155   2.602   7.135  0.0605 -0.2639 -0.7085
 2462SOL    HW218846   0.056   2.696   7.090  0.3401  0.6022 -0.4045
 2463SOL     OW18847   2.965   1.256   7.907  0.4099  0.6109 -0.2176
 2463SOL    HW118848   2.906   1.319   7.865  1.8302  0.9269 -1.7360
 2463SOL    HW218849   2.971   1.291   7.996  1.6771  0.6498 -0.3253
 2464SOL     OW18850   0.578   1.656   7.929 -0.2917 -0.2413  0.4226
 2464SOL    HW118851   0.561   1.750   7.924  1.5351  0.0380 -0.4331
 2464SOL    HW218852   0.489   1.620   7.925 -0.3989  0.1716 -0.8308
 2465SOL     OW18853   1.091   3.554   8.890  0.4332 -0.0675 -0.1739
 2465SOL    HW118854   1.021   3.619   8.895  1.5934  1.0003  1.9731
 2465SOL    HW218855   1.117   3.558   8.798  0.0050  1.6170 -0.2224
 2466SOL     OW18856   3.526   2.392   8.311 -0.0497 -0.0522 -0.1840
 2466SOL    HW118857   3.530   2.305   8.271  0.0035 -0.6132  1.0319
 2466SOL    HW218858   3.483   2.373   8.395 -2.2974 -1.3977 -1.6501
 2467SOL     OW18859   2.615   4.012  16.317  0.0440  0.1985 -0.4781
 2467SOL    HW118860   2.680   3.984  16.381  0.8257  3.4130  0.1109
 2467SOL    HW218861   2.549   3.943  16.326  0.0818  0.4958  2.0469
 2468SOL     OW18862   4.451   0.885   2.992 -0.2840 -0.9042  0.0016
 2468SOL    HW118863   4.387   0.914   2.927  2.2428 -1.2958 -2.6609
 2468SOL    HW218864   4.534   0.906   2.949  0.1137 -1.8672  0.3081
 2469SOL     OW18865   3.777   1.190   6.398  0.1179 -0.9747  0.3362
 2469SOL    HW118866   3.709   1.174   6.333 -0.8210  0.8360  0.8882
 2469SOL    HW218867   3.773   1.284   6.410  0.4721 -1.0580  1.0967
 2470SOL     OW18868   0.321   3.743   9.606 -0.0554  0.1094  0.3426
 2470SOL    HW118869   0.385   3.710   9.542  1.9212 -0.1440  2.4735
 2470SOL    HW218870   0.374   3.739   9.685  1.9428 -0.1373 -1.0031
 2471SOL     OW18871   0.653   2.402   4.018  0.1910 -0.3585 -0.4439
 2471SOL    HW118872   0.706   2.450   3.955 -0.2054  1.2418  0.4579
 2471SOL    HW218873   0.671   2.438   4.105  1.5090 -1.8228 -0.1036
 2472SOL     OW18874   3.288   3.138   5.835 -0.8343 -0.2359 -0.1595
 2472SOL    HW118875   3.370   3.110   5.795 -1.4033  2.9325 -3.4973
 2472SOL    HW218876   3.247   3.052   5.843  0.7947 -0.9470  0.5683
 2473SOL     OW18877   4.706   4.619   0.444 -0.4818 -0.2518  0.6416
 2473SOL    HW118878   4.695   4.710   0.417 -1.4643 -0.4430  0.3902
 2473SOL    HW218879   0.070   4.634   0.484 -0.4695  2.8354 -0.5166
 2474SOL     OW18880   3.854   4.063   6.799 -0.2649 -0.4181  0.2548
 2474SOL    HW118881   3.843   4.157   6.793  2.8213  0.0461  1.8434
 2474SOL    HW218882   3.847   4.051   6.893  1.1698  0.0376  0.4223
 2475SOL     OW18883   2.740   4.025   7.677  0.0082  0.0464 -0.1527
 2475SOL    HW118884   2.798   3.949   7.679 -0.8856 -0.6039  1.0365
 2475SOL    HW218885   2.674   3.989   7.737  1.1917 -3.0438 -0.7185
 2476SOL     OW18886   1.374   1.408   4.783  0.3335  0.4629  0.0466
 2476SOL    HW118887   1.458   1.426   4.741  0.4265 -1.2360 -0.5111
 2476SOL    HW218888   1.385   1.442   4.872 -1.5390 -0.4314  0.6257
 2477SOL     OW18889   4.531   2.863   9.500  1.5452  0.6063 -0.1480
 2477SOL    HW118890   4.565   2.848   9.588  0.6778  2.2387  0.4608
 2477SOL    HW218891   4.515   2.957   9.501 -1.3172  0.1145  0.0891
 2478SOL     OW18892   3.434   3.433  12.936 -0.0340  0.1728  0.1466
 2478SOL    HW118893   3.516   3.417  12.889 -0.8839  2.5136 -2.1208
 2478SOL    HW218894   3.468   3.456  13.022 -1.0645 -0.1542  0.6350
 2479SOL     OW18895   3.451   3.984   8.104  0.5206  0.1954 -0.3921
 2479SOL    HW118896   3.428   3.896   8.134  3.1113 -0.5845 -0.7182
 2479SOL    HW218897   3.545   3.971   8.095  0.4336 -0.4516 -0.3661
 2480SOL     OW18898   0.323   4.647   4.578 -0.4984 -0.5919 -0.0528
 2480SOL    HW118899   0.315   0.000   4.638  1.8730 -1.9285  1.9025
 2480SOL    HW218900   0.414   4.620   4.585 -0.5776 -0.6563  0.6840
 2481SOL     OW18901   2.403   3.854   9.432  0.1492  0.1459  0.1646
 2481SOL    HW118902   2.447   3.818   9.355  1.6149  3.4976 -0.5847
 2481SOL    HW218903   2.453   3.934   9.449  1.1622  0.0075 -2.2645
 2482SOL     OW18904   3.639   1.792  11.009 -0.2537 -0.4809  0.1337
 2482SOL    HW118905   3.630   1.738  11.088 -0.5511 -1.0703 -0.3019
 2482SOL    HW218906   3.553   1.830  10.993 -0.8102 -1.4990  0.6787
 2483SOL     OW18907   1.961   0.106   3.574 -0.4393 -0.0729  0.8219
 2483SOL    HW118908   1.866   0.117   3.574 -0.3450  0.8131 -1.8875
 2483SOL    HW218909   1.982   0.036   3.512  0.9563  1.3073 -0.2670
 2484SOL     OW18910   2.311   1.938   3.711 -0.0344 -0.2565 -0.4802
 2484SOL    HW118911   2.346   1.936   3.622  0.3386 -0.9708 -0.3199
 2484SOL    HW218912   2.270   2.024   3.723  3.1024  1.2971 -0.9856
 2485SOL     OW18913   0.368   3.891  16.053  0.5785 -0.2384 -0.3889
 2485SOL    HW118914   0.352   3.800  16.075 -0.3218 -0.0138 -0.1203
 2485SOL    HW218915   0.285   3.931  16.078  1.1158  0.2982  0.5563
 2486SOL     OW18916   2.037   3.240   2.205 -0.4254  0.5783 -0.0217
 2486SOL    HW118917   2.025   3.295   2.127  1.8944 -0.3905 -1.0753
 2486SOL    HW218918   2.040   3.310   2.269 -0.7998  1.2861 -0.7815
 2487SOL     OW18919   4.218   4.490   1.173  0.0225 -0.6025 -0.2139
 2487SOL    HW118920   4.209   4.475   1.267 -0.9808 -0.4508 -0.2823
 2487SOL    HW218921   4.129   4.515   1.148 -0.3521  0.2961  1.9960
 2488SOL     OW18922   0.783   3.721   9.771  0.5599  0.2318  0.2361
 2488SOL    HW118923   0.835   3.698   9.694  1.7924  0.1963  1.0680
 2488SOL    HW218924   0.817   3.661   9.838  1.0582 -1.0930 -1.2113
 2489SOL     OW18925   3.910   1.229  15.236 -0.0691  0.6839  0.3688
 2489SOL    HW118926   3.942   1.301  15.182  0.2167  0.7185  0.5800
 2489SOL    HW218927   3.902   1.168  15.163  0.4157 -1.7843  2.3775
 2490SOL     OW18928   1.879   2.880   3.231  0.2335  0.6088  0.1078
 2490SOL    HW118929   1.886   2.908   3.140  0.2321  0.1210 -0.0440
 2490SOL    HW218930   1.813   2.812   3.220 -0.3832  1.1968  0.2360
 2491SOL     OW18931   2.068   0.042  15.324  0.1295 -0.7107 -0.1338
 2491SOL    HW118932   1.996   0.056  15.262 -0.7838  2.6700  1.6808
 2491SOL    HW218933   2.062   4.670  15.342 -0.2433 -0.7413 -0.4135
 2492SOL     OW18934   3.702   1.465   6.454 -0.6229  0.5070 -0.7138
 2492SOL    HW118935   3.610   1.488   6.461 -0.5679  1.2379 -2.4541
 2492SOL    HW218936   3.731   1.537   6.398  0.4997 -0.9159 -1.9628
 2493SOL     OW18937   1.314   1.642  12.164  0.5344 -0.0836 -0.1807
 2493SOL    HW118938   1.250   1.662  12.232 -1.0356  0.8933 -1.9381
 2493SOL    HW218939   1.329   1.547  12.170 -1.2096 -0.4456 -1.5812
 2494SOL     OW18940   1.396   0.265   2.171  0.4368  0.0039  0.3968
 2494SOL    HW118941   1.339   0.300   2.102 -0.4457 -4.0816 -0.9928
 2494SOL    HW218942   1.333   0.265   2.243  0.1171  0.1879  0.1150
 2495SOL     OW18943   0.885   2.946  16.122  0.2225 -0.0995 -0.0677
 2495SOL    HW118944   0.877   2.851  16.133 -0.2164  0.1313  1.6379
 2495SOL    HW218945   0.822   2.958  16.052  0.7141  0.1523 -0.4684
 2496SOL     OW18946   3.615   0.132   7.640 -0.1255  0.1957  0.0493
 2496SOL    HW118947   3.534   0.094   7.674  0.7984 -1.1432  0.7358
 2496SOL    HW218948   3.590   0.222   7.621 -0.7603  0.4482  2.1364
 2497SOL     OW18949   3.225   2.001   8.459  0.0078 -0.3121 -1.0712
 2497SOL    HW118950   3.134   1.986   8.433 -0.0705  1.9541 -2.0663
 2497SOL    HW218951   3.258   1.912   8.449  1.2541 -0.2436  2.3441
 2498SOL     OW18952   2.930   4.570   1.567 -0.2133 -0.3276  0.6845
 2498SOL    HW118953   2.911   4.564   1.473  0.4131  0.9774  0.4665
 2498SOL    HW218954   3.000   4.509   1.592  0.1379 -1.3175 -2.7157
 2499SOL     OW18955   4.131   2.004  13.241  0.3433 -0.2912  0.6022
 2499SOL    HW118956   4.122   1.921  13.288 -0.1038 -0.6901 -0.1846
 2499SOL    HW218957   4.187   1.975  13.170  0.4395 -0.6333  0.8204
 2500SOL     OW18958   0.294   0.336   7.631 -0.0965 -0.0926 -0.7188
 2500SOL    HW118959   0.242   0.256   7.629  0.1400 -0.2444 -0.7535
 2500SOL    HW218960   0.325   0.341   7.541 -1.0715 -1.4348 -1.1246
 2501SOL     OW18961   2.144   4.338   3.465  0.0099 -0.2658  0.5972
 2501SOL    HW118962   2.126   4.257   3.416  0.7554 -0.7648  1.1511
 2501SOL    HW218963   2.118   4.315   3.554  1.2197 -0.6574  0.8442
 2502SOL     OW18964   3.450   4.135   2.067 -0.0363 -0.0665  0.2529
 2502SOL    HW118965   3.494   4.113   1.985 -1.8220  0.8629 -0.9588
 2502SOL    HW218966   3.525   4.129   2.126  1.1356 -1.7540 -1.4023
 2503SOL     OW18967   1.852   2.519   5.163  0.3890  0.2393 -0.2813
 2503SOL    HW118968   1.825   2.427   5.164 -0.4355  0.4765  0.0993
 2503SOL    HW218969   1.940   2.515   5.128  0.8554  0.9954  0.8150
 2504SOL     OW18970   3.397   2.932   9.656 -0.3549 -0.1048 -0.3851
 2504SOL    HW118971   3.362   2.989   9.724  0.9533 -0.0488  0.2303
 2504SOL    HW218972   3.353   2.966   9.578 -1.1358 -1.1804 -0.4175
 2505SOL     OW18973   1.173   1.407   2.374  0.8011 -0.2346 -0.0223
 2505SOL    HW118974   1.091   1.361   2.361 -1.0244  2.3195  2.6366
 2505SOL    HW218975   1.218   1.343   2.429  0.0181 -1.3828 -0.7354
 2506SOL     OW18976   1.259   2.361   8.480  0.3044 -0.2500  0.2867
 2506SOL    HW118977   1.309   2.429   8.525  1.6845 -2.4481  2.0330
 2506SOL    HW218978   1.307   2.284   8.508  1.6191  1.2105  1.9987
 2507SOL     OW18979   1.823   4.576   5.473  0.4903 -0.0311  0.0683
 2507SOL    HW118980   1.893   4.525   5.514 -1.2497 -1.8291  0.8202
 2507SOL    HW218981   1.858   4.665   5.471 -0.4736  0.3821  1.1304
 2508SOL     OW18982   0.948   1.364  17.000  0.0876  0.7410 -0.2457
 2508SOL    HW118983   1.041   1.374  17.019 -0.4288  2.3373  1.4436
 2508SOL    HW218984   0.932   1.406  16.915  0.8988 -1.1338 -1.3048
 2509SOL     OW18985   3.895   3.836   2.465 -0.0638  0.1424  0.1128
 2509SOL    HW118986   3.902   3.789   2.382 -0.1183  1.5568 -0.6971
 2509SOL    HW218987   3.806   3.873   2.460 -0.5588 -0.8368  1.6202
 2510SOL     OW18988   0.126   1.652   5.566  0.4576  0.0888  1.1641
 2510SOL    HW118989   0.134   1.634   5.660 -0.6294  1.4414  1.5251
 2510SOL    HW218990   0.038   1.622   5.543  0.7183  0.2154  0.0324
 2511SOL     OW18991   0.010   1.176   4.836 -0.2356  0.2279  0.1017
 2511SOL    HW118992   0.080   1.241   4.844  0.8383 -0.8998 -0.1017
 2511SOL    HW218993   4.706   1.203   4.747  0.4723  2.0189  0.4385
 2512SOL     OW18994   3.679   3.021   6.551  0.0610 -0.3957  0.7258
 2512SOL    HW118995   3.737   3.069   6.491  0.4176 -0.8448  0.7100
 2512SOL    HW218996   3.616   2.989   6.486  0.3165 -2.6677  1.6204
 2513SOL     OW18997   2.771   1.757   7.756 -1.0159 -0.4255  0.4574
 2513SOL    HW118998   2.739   1.792   7.839  0.2922 -0.3376  0.9247
 2513SOL    HW218999   2.755   1.820   7.686  0.3451  1.0744  1.5039
 2514SOL     OW19000   0.849   2.717  10.151 -0.2048  0.1492  0.6372
 2514SOL    HW119001   0.804   2.785  10.101 -0.3826 -0.7182 -0.3886
 2514SOL    HW219002   0.837   2.637  10.101 -2.0577  0.6411  0.3235
 2515SOL     OW19003   2.638   1.461   5.466  0.4160  0.1725 -0.6447
 2515SOL    HW119004   2.567   1.402   5.439  0.9934 -0.9854  0.3404
 2515SOL    HW219005   2.677   1.411   5.537  0.3844  0.8221 -0.1717
 2516SOL     OW19006   2.649   1.465   3.810 -0.3505  0.1736 -0.2588
 2516SOL    HW119007   2.671   1.390   3.754  1.8918 -0.7939  1.9286
 2516SOL    HW219008   2.735   1.507   3.811  0.0285 -0.6028 -0.2304
 2517SOL     OW19009   1.368   1.481   6.866 -0.3540  0.3824  0.2964
 2517SOL    HW119010   1.273   1.483   6.859 -0.2803  0.7187 -0.6484
 2517SOL    HW219011   1.380   1.459   6.958  1.3404  2.2591  0.5281
 2518SOL     OW19012   4.336   4.036   4.014  0.1963  0.3151  0.0433
 2518SOL    HW119013   4.335   3.968   3.946 -0.5223  0.3529  0.0120
 2518SOL    HW219014   4.242   4.043   4.031 -0.3436 -2.6303 -1.6462
 2519SOL     OW19015   2.411   0.830  10.423 -0.4106 -0.1755  0.3107
 2519SOL    HW119016   2.359   0.908  10.443  0.3951  0.3557  0.3542
 2519SOL    HW219017   2.344   0.763  10.409  0.6008 -1.1676  0.2218
 2520SOL     OW19018   1.282   3.989   1.931  0.0060  0.2747 -0.9010
 2520SOL    HW119019   1.259   4.038   2.010  0.7227  0.6842 -0.9528
 2520SOL    HW219020   1.359   4.039   1.902 -0.3275  0.9652 -0.5853
 2521SOL     OW19021   0.377   4.111   4.029  0.2762  0.1366  0.4880
 2521SOL    HW119022   0.325   4.064   4.095 -0.8500 -0.8152 -1.0499
 2521SOL    HW219023   0.465   4.096   4.063  1.3023 -0.9091 -2.6109
 2522SOL     OW19024   0.004   0.728  14.753 -0.6415 -0.0034  0.2727
 2522SOL    HW119025   4.661   0.664  14.784 -1.0168  0.4653  0.4428
 2522SOL    HW219026   0.044   0.675  14.684 -1.7627  1.9020 -1.8170
 2523SOL     OW19027   0.448   2.914   1.557 -0.1055 -0.0919  0.5497
 2523SOL    HW119028   0.395   2.912   1.477 -1.2732 -3.5698  1.4301
 2523SOL    HW219029   0.439   3.005   1.587 -0.0422  0.0848  0.0292
 2524SOL     OW19030   0.203   2.513   8.424 -0.5327 -0.5445  0.4225
 2524SOL    HW119031   0.164   2.467   8.498 -0.6805 -0.7488  0.2173
 2524SOL    HW219032   0.147   2.591   8.419  2.4309  1.5045 -0.5178
 2525SOL     OW19033   2.472   4.695   6.501  0.2730 -0.2192 -0.1510
 2525SOL    HW119034   2.520   0.045   6.542 -0.2787 -0.3621  0.7643
 2525SOL    HW219035   2.444   4.634   6.569  1.1798  0.7531  1.1019
 2526SOL     OW19036   0.766   0.809   6.449 -0.7567 -0.0219  0.0372
 2526SOL    HW119037   0.693   0.866   6.471  0.6388  0.8849  2.2450
 2526SOL    HW219038   0.766   0.754   6.527  2.1258  1.4185  1.0476
 2527SOL     OW19039   3.503   1.999   3.573  0.1938  0.3344 -0.0946
 2527SOL    HW119040   3.535   2.020   3.486 -0.0409 -2.3199 -0.8016
 2527SOL    HW219041   3.567   1.946   3.621 -0.5859 -0.6670 -0.1689
 2528SOL     OW19042   0.587   0.817   5.955  0.1538 -0.2236 -0.8523
 2528SOL    HW119043   0.492   0.803   5.956 -0.1091  1.5792  0.5368
 2528SOL    HW219044   0.617   0.732   5.924 -1.5322 -2.5259  3.7483
 2529SOL     OW19045   1.009   0.257  10.774  0.3196  0.0452 -0.1713
 2529SOL    HW119046   0.995   0.349  10.752  1.9575 -0.0860 -1.7115
 2529SOL    HW219047   0.962   0.217  10.701  0.8071  1.8719 -1.4963
 2530SOL     OW19048   3.532   0.442   6.578  0.5281  0.4960  0.0768
 2530SOL    HW119049   3.474   0.421   6.505 -0.7263  0.5111  1.0664
 2530SOL    HW219050   3.470   0.447   6.651  0.3891 -2.6728  0.1845
 2531SOL     OW19051   4.463   2.423  16.417  0.3403 -0.5842  0.4069
 2531SOL    HW119052   4.449   2.449  16.508  2.7426  1.0183  0.3012
 2531SOL    HW219053   4.498   2.502  16.376  1.5920 -0.9991  0.6736
 2532SOL     OW19054   0.274   2.037   0.543 -0.4872  0.3064  0.0433
 2532SOL    HW119055   0.185   2.038   0.507 -0.8530  0.3067  0.9204
 2532SOL    HW219056   0.257   1.996   0.628 -0.0321 -0.8446 -0.4268
 2533SOL     OW19057   4.533   1.583  16.821  0.1610  0.5283 -0.0996
 2533SOL    HW119058   4.455   1.615  16.865  1.2307  2.1026  0.6302
 2533SOL    HW219059   4.493   1.552  16.739 -1.3320 -0.5435  1.0511
 2534SOL     OW19060   4.131   4.698   8.398  0.5377 -0.6803 -0.0359
 2534SOL    HW119061   4.085   4.692   8.482 -0.6997  2.6258 -0.4691
 2534SOL    HW219062   4.071   4.642   8.350  1.1229 -1.0837 -0.2858
 2535SOL     OW19063   3.634   2.447   7.891  0.7779 -0.2784 -0.1908
 2535SOL    HW119064   3.652   2.483   7.978 -0.3559 -0.0660 -0.0470
 2535SOL    HW219065   3.641   2.352   7.901  1.3292 -0.4638 -2.1756
 2536SOL     OW19066   3.789   3.834   7.581  0.0388  0.2388  0.1430
 2536SOL    HW119067   3.879   3.805   7.592 -0.4154 -0.6059  1.5385
 2536SOL    HW219068   3.736   3.755   7.572 -1.3690  1.1978 -0.0397
 2537SOL     OW19069   1.200   1.208   3.161  0.4287 -0.1618 -0.1713
 2537SOL    HW119070   1.190   1.182   3.069 -0.6500 -1.6086  0.3696
 2537SOL    HW219071   1.268   1.276   3.157 -0.3463  0.6511  0.2799
 2538SOL     OW19072   2.196   0.285  11.950 -0.4653 -0.4037 -0.6156
 2538SOL    HW119073   2.249   0.280  12.029  1.3889  0.6668 -1.7983
 2538SOL    HW219074   2.271   0.290  11.891  0.9051 -2.0257  1.0121
 2539SOL     OW19075   0.686   4.392   9.812 -0.4813  0.3802  0.3062
 2539SOL    HW119076   0.691   4.319   9.874 -0.1922  0.3726  0.2707
 2539SOL    HW219077   0.765   4.384   9.758 -0.5053  0.6917  0.2225
 2540SOL     OW19078   1.860   2.221   1.876 -0.1998  0.2305 -0.5933
 2540SOL    HW119079   1.814   2.242   1.958  1.4889 -2.8094  1.1520
 2540SOL    HW219080   1.886   2.129   1.887  0.5710  0.2961 -1.9048
 2541SOL     OW19081   2.229   2.919   6.838 -0.4174  0.3999 -0.4915
 2541SOL    HW119082   2.261   2.968   6.913  1.3132  0.9938 -1.6028
 2541SOL    HW219083   2.153   2.881   6.881 -1.0679  0.5369 -1.5101
 2542SOL     OW19084   3.587   1.631  13.730  0.1846  0.4247  0.4137
 2542SOL    HW119085   3.648   1.675  13.787  1.0607  1.4826 -1.3455
 2542SOL    HW219086   3.592   1.537  13.748 -0.7326  0.4909  1.0180
 2543SOL     OW19087   4.689   0.088   4.369 -0.9060 -0.5311 -0.2587
 2543SOL    HW119088   4.624   0.149   4.402  1.4412  1.4299  0.6758
 2543SOL    HW219089   0.034   0.099   4.437  1.9166 -1.6066 -2.8363
 2544SOL     OW19090   2.166   0.242   2.953 -0.0012 -0.4105 -0.3081
 2544SOL    HW119091   2.174   0.311   2.887  0.6270 -1.0824 -0.9328
 2544SOL    HW219092   2.071   0.234   2.946 -0.3291  0.9589  2.5203
 2545SOL     OW19093   3.707   2.953  10.751  0.3015 -0.0309  0.1708
 2545SOL    HW119094   3.778   3.015  10.764  1.6144 -1.7856  1.3747
 2545SOL    HW219095   3.758   2.872  10.762  1.7668  1.0054  0.9502
 2546SOL     OW19096   4.125   0.424   1.977  0.0258 -0.3338  0.5815
 2546SOL    HW119097   4.152   0.414   1.885  1.0346 -1.8483  1.0494
 2546SOL    HW219098   4.030   0.419   1.967  0.2964 -1.8819 -1.2252
 2547SOL     OW19099   0.994   1.373   1.826 -0.2404 -0.0708  0.0223
 2547SOL    HW119100   0.960   1.284   1.818 -1.7863  0.5051  0.2981
 2547SOL    HW219101   0.915   1.423   1.808 -1.3933 -2.3308 -1.1926
 2548SOL     OW19102   4.201   4.229   5.695  0.4201 -0.3436  0.5673
 2548SOL    HW119103   4.268   4.161   5.698  0.5240 -0.1515  2.4571
 2548SOL    HW219104   4.260   4.301   5.674 -1.1421 -0.1790 -3.2282
 2549SOL     OW19105   3.134   3.176  13.584  0.2554  0.0822  0.0609
 2549SOL    HW119106   3.090   3.244  13.636  1.3949 -2.4939  4.4429
 2549SOL    HW219107   3.123   3.105  13.648  1.4228 -0.2673 -0.1196
 2550SOL     OW19108   4.357   2.479  12.792 -0.6019 -0.0691  0.3137
 2550SOL    HW119109   4.317   2.515  12.870 -0.3813 -2.8880  1.7453
 2550SOL    HW219110   4.343   2.542  12.722  2.7679  0.4088  0.0392
 2551SOL     OW19111   1.941   2.961  17.628  0.0356 -0.1245  0.1380
 2551SOL    HW119112   1.898   2.959   0.026  1.3878 -1.9824  0.7769
 2551SOL    HW219113   1.957   3.054  17.616  3.3728 -0.3018  3.2052
 2552SOL     OW19114   3.637   4.018  16.535  1.2232  0.3132  0.5681
 2552SOL    HW119115   3.667   3.944  16.482 -0.3040 -0.9754  1.5069
 2552SOL    HW219116   3.613   4.071  16.459  1.4765 -0.9665 -0.4204
 2553SOL     OW19117   1.526   2.925   8.003 -0.0625  0.3541 -0.3275
 2553SOL    HW119118   1.506   2.881   7.920 -0.4743 -1.1570  0.5715
 2553SOL    HW219119   1.460   2.881   8.057  1.0970  0.7460  1.3902
 2554SOL     OW19120   1.622   3.849   5.020 -0.6050  0.7386  0.6623
 2554SOL    HW119121   1.549   3.836   5.080 -0.8575 -0.7989  0.0219
 2554SOL    HW219122   1.689   3.794   5.059 -0.4666 -0.1516 -0.8371
 2555SOL     OW19123   2.189   2.478   4.652  0.1935 -0.6554 -0.1247
 2555SOL    HW119124   2.214   2.479   4.559  0.0773  2.7772 -0.1488
 2555SOL    HW219125   2.143   2.562   4.662  0.1391 -0.7092  0.0790
 2556SOL     OW19126   1.484   4.471  16.711 -0.0473 -0.0368  0.0079
 2556SOL    HW119127   1.578   4.484  16.705  0.0825 -1.0350 -0.1557
 2556SOL    HW219128   1.470   4.427  16.627 -0.2184  2.1093 -1.1041
 2557SOL     OW19129   4.527   2.435   6.286 -0.3733 -0.2205  0.2898
 2557SOL    HW119130   4.515   2.340   6.295  0.6757 -0.6000 -2.3585
 2557SOL    HW219131   4.564   2.463   6.370  1.0022 -1.2665  0.0393
 2558SOL     OW19132   2.115   2.203   1.764  0.2396  0.3933  0.2767
 2558SOL    HW119133   2.045   2.138   1.770  0.1711  0.4572  0.1687
 2558SOL    HW219134   2.079   2.261   1.697 -2.0973  0.2807  1.4612
 2559SOL     OW19135   1.550   1.704   2.940 -0.0952  0.1445  0.1233
 2559SOL    HW119136   1.464   1.744   2.928 -1.1205 -2.1388 -0.1451
 2559SOL    HW219137   1.605   1.777   2.968 -0.4206  0.9380 -1.3052
 2560SOL     OW19138   0.485   4.450  17.055  0.3275  0.3265 -0.6751
 2560SOL    HW119139   0.559   4.418  17.003 -0.0755 -0.9144 -0.4612
 2560SOL    HW219140   0.544   4.450  17.131  0.0736  1.1777 -0.4704
 2561SOL     OW19141   3.731   2.182   6.525  0.0046  0.1927 -0.1393
 2561SOL    HW119142   3.746   2.182   6.430 -2.7699  1.3128 -0.5583
 2561SOL    HW219143   3.637   2.189   6.537  0.2257  0.6959  1.2539
 2562SOL     OW19144   2.598   4.311   0.199 -0.4342  0.1795  0.0710
 2562SOL    HW119145   2.660   4.239   0.210  1.6430  2.6466  4.3707
 2562SOL    HW219146   2.516   4.261   0.192  0.2607 -0.7413 -1.5595
 2563SOL     OW19147   1.918   1.139   5.088 -0.6757 -0.5237 -0.4317
 2563SOL    HW119148   2.004   1.167   5.057 -2.0767  3.4875 -0.7402
 2563SOL    HW219149   1.856   1.200   5.046  1.1261  1.6723  0.1147
 2564SOL     OW19150   4.720   2.341   4.533  0.1884  0.0190 -0.2062
 2564SOL    HW119151   4.636   2.295   4.544  0.6817 -0.5829  1.0582
 2564SOL    HW219152   4.683   2.421   4.498 -1.9040  0.0931  2.0994
 2565SOL     OW19153   3.201   0.908   4.727  0.3611  0.3364 -0.7292
 2565SOL    HW119154   3.187   0.934   4.636 -0.8912 -4.0446 -1.8088
 2565SOL    HW219155   3.206   0.993   4.770  2.0158 -0.0256 -0.1953
 2566SOL     OW19156   2.835   1.244   4.107 -0.0622 -0.5212 -0.5825
 2566SOL    HW119157   2.745   1.273   4.095 -0.5226 -1.6519  0.2347
 2566SOL    HW219158   2.860   1.308   4.174 -2.4975 -0.5824  0.3787
 2567SOL     OW19159   3.949   2.304   2.213  0.4504 -0.9632  0.4288
 2567SOL    HW119160   3.918   2.387   2.249  1.5425 -0.7222  0.8401
 2567SOL    HW219161   3.924   2.311   2.121 -1.5490 -1.3769  0.9565
 2568SOL     OW19162   3.267   0.765   1.549 -0.5063  0.0404  0.0517
 2568SOL    HW119163   3.334   0.793   1.611  1.0488 -1.8880 -0.7554
 2568SOL    HW219164   3.309   0.696   1.497 -2.5750  0.5269 -2.2965
 2569SOL     OW19165   3.725   0.396   8.531  0.0525  0.2270 -0.2567
 2569SOL    HW119166   3.784   0.431   8.465  0.3654 -0.7676 -0.5073
 2569SOL    HW219167   3.675   0.331   8.482 -1.5647  1.2965 -0.0127
 2570SOL     OW19168   1.277   1.415   7.928  0.3230  0.4865  0.0143
 2570SOL    HW119169   1.254   1.502   7.962 -2.5676 -0.0910 -0.4791
 2570SOL    HW219170   1.355   1.382   7.972  0.4735  1.8956  0.8315
 2571SOL     OW19171   1.021   2.390   4.369  0.2626 -0.3245  0.0594
 2571SOL    HW119172   1.043   2.386   4.462 -0.8923  0.1931  0.3472
 2571SOL    HW219173   1.062   2.471   4.338  0.6810 -0.5028  0.1488
 2572SOL     OW19174   2.339   2.526   1.874  0.7757  0.5441 -0.0028
 2572SOL    HW119175   2.320   2.582   1.949  0.8105 -1.2935  1.3926
 2572SOL    HW219176   2.281   2.451   1.884  0.1638  0.8528 -1.2877
 2573SOL     OW19177   2.722   1.438  17.392  0.4709  0.3848 -0.5452
 2573SOL    HW119178   2.803   1.388  17.395  2.2032  2.9407 -3.7078
 2573SOL    HW219179   2.672   1.370  17.436  2.6813 -1.0960 -0.3446
 2574SOL     OW19180   3.333   2.600   4.658  0.0480 -0.9519  0.3566
 2574SOL    HW119181   3.305   2.529   4.600  1.9497 -2.1109  0.8506
 2574SOL    HW219182   3.349   2.675   4.601 -0.9356  0.0423  1.4031
 2575SOL     OW19183   1.479   3.330   4.592 -0.3028  0.2903  0.5600
 2575SOL    HW119184   1.460   3.362   4.680 -1.2894 -0.5888  0.6653
 2575SOL    HW219185   1.388   3.308   4.574  0.0499 -0.8573  0.1695
 2576SOL     OW19186   3.814   1.427   3.038 -0.3131  0.7999  0.2535
 2576SOL    HW119187   3.899   1.384   3.050 -1.0032 -0.5476  0.3183
 2576SOL    HW219188   3.849   1.507   3.000 -1.0015 -0.1616 -2.4517
 2577SOL     OW19189   2.061   0.019   2.650  0.7479  0.2528  0.2435
 2577SOL    HW119190   2.059   0.115   2.651  2.2931  0.2955 -1.5651
 2577SOL    HW219191   2.030   4.716   2.737  1.2351  0.2958  0.4294
 2578SOL     OW19192   3.592   4.314  14.119  0.0189 -0.1794 -0.3670
 2578SOL    HW119193   3.622   4.223  14.124  0.7630  0.1185  0.5725
 2578SOL    HW219194   3.498   4.298  14.108 -0.4089  1.5239  0.8554
 2579SOL     OW19195   2.918   1.653   1.953 -0.9220 -0.2884 -0.1917
 2579SOL    HW119196   2.996   1.606   1.983 -1.3757 -1.0785 -0.2443
 2579SOL    HW219197   2.879   1.593   1.889 -0.0237 -0.9487 -0.1232
 2580SOL     OW19198   2.094   2.347   7.968 -0.1682 -0.1525 -0.7036
 2580SOL    HW119199   2.049   2.283   8.024 -0.1690 -0.5528 -1.1567
 2580SOL    HW219200   2.151   2.391   8.030 -0.1534  0.9643 -1.5141
 2581SOL     OW19201   4.336   4.453   0.864 -0.3632 -0.4139  0.0026
 2581SOL    HW119202   4.421   4.421   0.894 -0.2977 -1.2792 -1.0932
 2581SOL    HW219203   4.338   4.548   0.864 -1.2347 -0.4000 -1.6079
 2582SOL     OW19204   0.952   4.346   7.469  0.0941  0.0233 -1.0183
 2582SOL    HW119205   0.968   4.342   7.375  0.3768  0.8207 -1.0116
 2582SOL    HW219206   0.883   4.284   7.490  0.1315  0.4864  0.4765
 2583SOL     OW19207   0.974   1.814   8.484 -0.0647  0.2932 -0.5822
 2583SOL    HW119208   0.974   1.718   8.492  1.0379  0.1945 -1.8850
 2583SOL    HW219209   1.035   1.834   8.555  0.9000 -1.4487 -0.9180
 2584SOL     OW19210   3.300   3.530   6.741  0.1148 -0.7803 -0.0422
 2584SOL    HW119211   3.390   3.522   6.710  0.3262 -0.3895  0.4622
 2584SOL    HW219212   3.314   3.590   6.814 -1.7132  0.4621 -0.7131
 2585SOL     OW19213   1.225   0.673   4.678  0.1959  0.4035 -0.2646
 2585SOL    HW119214   1.155   0.708   4.733  1.2597  2.2316 -0.0829
 2585SOL    HW219215   1.284   0.748   4.673 -1.4474  1.6833 -0.4742
 2586SOL     OW19216   4.415   2.954  12.688 -0.0546 -0.8216  0.3399
 2586SOL    HW119217   4.471   3.031  12.698 -0.9599  0.0685 -1.3585
 2586SOL    HW219218   4.469   2.878  12.712  1.8723  0.0166 -1.3498
 2587SOL     OW19219   3.274   3.668  14.571  0.4773 -0.0555  0.1731
 2587SOL    HW119220   3.279   3.684  14.665 -0.3467 -0.6068  0.3078
 2587SOL    HW219221   3.256   3.574  14.574 -0.0611  0.0305 -0.3915
 2588SOL     OW19222   0.779   2.066  12.906 -0.5721 -0.1452 -0.1330
 2588SOL    HW119223   0.748   2.064  12.997 -1.9510  3.4387 -0.5182
 2588SOL    HW219224   0.863   2.112  12.910  0.4081 -2.0817  1.6427
 2589SOL     OW19225   1.656   2.837   6.090 -0.5907 -0.2138  0.0466
 2589SOL    HW119226   1.654   2.933   6.085  1.9372 -0.1909 -0.4193
 2589SOL    HW219227   1.665   2.809   5.999 -1.4480  0.9446 -0.4028
 2590SOL     OW19228   0.322   2.017   6.760  0.6398 -0.7001 -0.0389
 2590SOL    HW119229   0.343   1.934   6.719  0.7778  0.4090 -2.2362
 2590SOL    HW219230   0.239   2.031   6.713  0.0994 -1.4126  0.6927
 2591SOL     OW19231   4.016   3.574   6.986 -0.1212  0.0339  0.2926
 2591SOL    HW119232   3.923   3.551   6.980 -0.2564  0.3908  1.1303
 2591SOL    HW219233   4.010   3.653   6.933  1.0717 -0.8564 -1.1794
 2592SOL     OW19234   2.648   1.808  14.628  0.0527 -0.2700  0.5994
 2592SOL    HW119235   2.653   1.756  14.708  1.1843  0.4965  1.0254
 2592SOL    HW219236   2.716   1.765  14.575  1.0316  2.2109 -0.1362
 2593SOL     OW19237   3.283   3.795   7.771 -0.1331  0.2449 -0.8606
 2593SOL    HW119238   3.188   3.803   7.770 -0.3025 -1.6399 -0.3077
 2593SOL    HW219239   3.312   3.886   7.779 -0.3011  0.1432  1.0072
 2594SOL     OW19240   1.235   2.289   6.384  0.2616 -0.2060  0.1933
 2594SOL    HW119241   1.271   2.220   6.328 -0.2510  0.7915 -1.3630
 2594SOL    HW219242   1.230   2.357   6.317  0.8149  0.3016  0.6718
 2595SOL     OW19243   4.198   1.492   2.197 -0.1135 -0.1213 -0.0413
 2595SOL    HW119244   4.215   1.492   2.103  1.1403 -0.7780  0.1858
 2595SOL    HW219245   4.225   1.408   2.233 -1.2925 -0.4135  0.1519
 2596SOL     OW19246   3.102   1.280   6.494  0.0299 -0.4687  0.2882
 2596SOL    HW119247   3.129   1.238   6.413  0.1907  1.1759 -0.5050
 2596SOL    HW219248   3.007   1.286   6.480  0.0090 -2.2832 -0.3286
 2597SOL     OW19249   2.389   3.483  17.531 -0.1984 -0.3465 -0.1384
 2597SOL    HW119250   2.330   3.487  17.455 -1.0098 -0.7324  0.4774
 2597SOL    HW219251   2.442   3.408  17.503  0.8323  0.5116 -0.4701
 2598SOL     OW19252   3.331   1.772   8.292  0.7269  0.6713 -0.0597
 2598SOL    HW119253   3.313   1.682   8.317 -0.3482  1.0421  0.4977
 2598SOL    HW219254   3.255   1.772   8.233  1.3339 -1.1480 -0.8407
 2599SOL     OW19255   4.359   1.024  16.500 -0.1273  0.3618  0.3776
 2599SOL    HW119256   4.350   1.100  16.442  3.8787  0.9635  0.5161
 2599SOL    HW219257   4.269   1.006  16.525  1.2321 -1.2986  4.0863
 2600SOL     OW19258   3.688   1.034  10.829  0.3129  0.2451 -0.7571
 2600SOL    HW119259   3.609   0.982  10.813 -0.7480  1.8063 -0.6788
 2600SOL    HW219260   3.726   1.077  10.753 -0.9940  0.3439 -1.3544
 2601SOL     OW19261   1.465   0.821   5.795 -0.1582  0.3495  1.1756
 2601SOL    HW119262   1.541   0.815   5.852 -1.4367  0.7523  2.9153
 2601SOL    HW219263   1.500   0.790   5.712 -1.5025 -1.1192  1.1657
 2602SOL     OW19264   0.133   2.317  11.497 -0.5850  0.3988  0.2483
 2602SOL    HW119265   0.126   2.225  11.525  2.2036 -0.4519 -1.8487
 2602SOL    HW219266   0.224   2.338  11.477 -0.3293  0.5124  1.5805
 2603SOL     OW19267   2.173   2.427  11.273  0.4211 -0.4851  0.0652
 2603SOL    HW119268   2.145   2.435  11.182 -3.3110  0.5589  1.3158
 2603SOL    HW219269   2.210   2.339  11.268 -1.4585 -1.3380  1.1303
 2604SOL     OW19270   4.157   0.497   2.446  0.2947 -0.5525 -0.2733
 2604SOL    HW119271   4.099   0.465   2.376  2.9304 -0.3435 -2.5541
 2604SOL    HW219272   4.152   0.592   2.434  2.6327 -0.4778 -0.5158
 2605SOL     OW19273   1.349   0.470   1.875  0.1699  0.3883 -0.3623
 2605SOL    HW119274   1.429   0.478   1.822  0.8041  0.1366  0.5483
 2605SOL    HW219275   1.290   0.521   1.820 -0.8547 -0.0438  0.3413
 2606SOL     OW19276   2.619   1.726   5.459  0.8652  0.8877 -0.2242
 2606SOL    HW119277   2.535   1.747   5.500  0.4829 -0.0524 -0.5106
 2606SOL    HW219278   2.619   1.630   5.459  1.6906  0.8816 -0.5987
 2607SOL     OW19279   0.515   3.757   3.231 -0.1217 -0.2826 -0.2442
 2607SOL    HW119280   0.575   3.766   3.157 -1.5166  0.0878 -1.3215
 2607SOL    HW219281   0.501   3.844   3.267 -0.5799 -0.2017 -0.6190
 2608SOL     OW19282   1.003   3.882   4.170  0.5809  0.6478 -0.0916
 2608SOL    HW119283   0.976   3.795   4.198 -2.1499  0.8515 -2.0022
 2608SOL    HW219284   1.017   3.873   4.075  3.1307 -0.8718  0.4274
 2609SOL     OW19285   1.473   3.189   5.026  0.3321 -0.3119 -0.8207
 2609SOL    HW119286   1.428   3.138   5.094 -1.5871  0.1359 -1.7498
 2609SOL    HW219287   1.454   3.278   5.057 -0.7054 -1.5270  2.0829
 2610SOL     OW19288   4.166   2.583   3.025  0.1888 -0.1515  0.4052
 2610SOL    HW119289   4.251   2.592   3.068  0.4243  0.6582 -0.2377
 2610SOL    HW219290   4.194   2.534   2.947  2.3421  1.2036  0.3381
 2611SOL     OW19291   3.330   1.382   4.615 -0.1806 -1.1837  0.1321
 2611SOL    HW119292   3.323   1.458   4.674 -2.2056  0.5563 -2.3507
 2611SOL    HW219293   3.289   1.431   4.544 -0.9821  1.1631  2.2208
 2612SOL     OW19294   2.696   2.606  10.912  0.3673 -0.0228  0.5771
 2612SOL    HW119295   2.678   2.696  10.883 -1.3906 -0.3008  0.8013
 2612SOL    HW219296   2.606   2.581  10.931 -0.0996  0.1884 -1.3919
 2613SOL     OW19297   4.505   1.355   5.880  0.7003  0.7365  0.1730
 2613SOL    HW119298   4.507   1.434   5.934  1.0171  0.5059  0.5008
 2613SOL    HW219299   4.417   1.320   5.886  0.0926  1.9941 -1.3937
 2614SOL     OW19300   4.454   0.955   3.367 -0.0925 -0.3412  0.2802
 2614SOL    HW119301   4.422   0.989   3.450 -0.5827  0.3132 -0.1763
 2614SOL    HW219302   4.527   0.902   3.399 -0.8967 -1.4080  0.3262
 2615SOL     OW19303   1.039   2.639   5.983  0.0829  0.5824  0.3159
 2615SOL    HW119304   1.017   2.595   5.901  1.0935  1.9965 -0.7090
 2615SOL    HW219305   0.964   2.612   6.036  0.4293  0.1764  0.5976
 2616SOL     OW19306   0.396   1.761   5.773 -0.6982 -0.0251 -0.3442
 2616SOL    HW119307   0.469   1.733   5.717 -1.7141 -1.2426 -1.0397
 2616SOL    HW219308   0.375   1.676   5.809 -2.9934 -0.1953 -2.1207
 2617SOL     OW19309   4.632   4.371  16.695 -0.4477  0.3053 -0.4413
 2617SOL    HW119310   4.545   4.384  16.732  0.8061  2.1512  1.9103
 2617SOL    HW219311   4.618   4.295  16.640 -1.5866 -0.3862  0.8091
 2618SOL     OW19312   1.448   3.574   3.998 -0.0519 -0.6750 -0.1537
 2618SOL    HW119313   1.499   3.530   4.066 -0.8402  0.3511  1.1243
 2618SOL    HW219314   1.399   3.641   4.046  1.9706 -0.7025  1.9405
 2619SOL     OW19315   1.829   4.622   7.805 -0.3666 -0.4997 -0.6347
 2619SOL    HW119316   1.901   4.613   7.867 -2.0404 -2.8535  0.9457
 2619SOL    HW219317   1.761   4.567   7.843 -0.1826  0.1403  0.6271
 2620SOL     OW19318   2.938   0.981   0.354  0.0362  0.0887  0.2927
 2620SOL    HW119319   2.908   1.008   0.441  0.9416  1.9193  0.0361
 2620SOL    HW219320   2.924   1.052   0.291  0.1156  0.8335  1.1250
 2621SOL     OW19321   1.878   3.495   6.768 -0.2331 -0.2406  0.5459
 2621SOL    HW119322   1.929   3.513   6.846  1.3201 -2.3995  0.0321
 2621SOL    HW219323   1.794   3.532   6.796 -1.9025 -2.2972 -1.7293
 2622SOL     OW19324   1.759   3.151   1.624  0.5634 -0.3553 -0.3523
 2622SOL    HW119325   1.666   3.166   1.606  1.0382  1.7574 -1.0900
 2622SOL    HW219326   1.792   3.122   1.539  0.3564 -1.1857 -0.1453
 2623SOL     OW19327   2.527   0.813   7.627  0.0639 -0.0323 -0.3855
 2623SOL    HW119328   2.486   0.895   7.600 -0.3974  0.2841  1.2504
 2623SOL    HW219329   2.452   0.777   7.674  0.4591  0.9405  1.0015
 2624SOL     OW19330   3.118   3.546  15.550  0.0690 -0.2252  0.0313
 2624SOL    HW119331   3.038   3.535  15.602  0.7036  0.8145  1.2286
 2624SOL    HW219332   3.174   3.537  15.628  1.3990  1.9673 -0.6681
 2625SOL     OW19333   2.987   4.411   3.264  0.3450  0.0601  0.0100
 2625SOL    HW119334   3.023   4.499   3.249  1.4567 -0.7975 -2.3818
 2625SOL    HW219335   3.058   4.380   3.321 -0.7355  0.0310  1.3252
 2626SOL     OW19336   1.306   0.634   6.393 -0.0336 -0.2291  0.2457
 2626SOL    HW119337   1.319   0.539   6.395 -2.4679 -0.6106 -1.8346
 2626SOL    HW219338   1.212   0.640   6.409 -0.4800  0.0945 -2.5907
 2627SOL     OW19339   1.626   4.622   8.318 -0.2871  0.3343 -0.1473
 2627SOL    HW119340   1.680   4.685   8.271 -0.3863  0.4783 -0.0643
 2627SOL    HW219341   1.543   4.666   8.304 -1.4347 -0.4618  4.2462
 2628SOL     OW19342   1.086   0.745  12.263 -0.1865 -0.1984  0.0719
 2628SOL    HW119343   1.138   0.666  12.249  0.2280  0.0251  0.3290
 2628SOL    HW219344   1.161   0.805  12.257 -0.7498  0.4771 -0.2752
 2629SOL     OW19345   1.515   2.873   8.523 -0.2947 -0.2028 -0.4142
 2629SOL    HW119346   1.421   2.869   8.541 -0.0625 -2.4678  0.3684
 2629SOL    HW219347   1.522   2.966   8.501  2.7125 -0.8884 -2.4231
 2630SOL     OW19348   2.483   0.890   5.121  0.1328  0.5179 -0.1903
 2630SOL    HW119349   2.426   0.856   5.190  1.0433 -0.0323  0.2894
 2630SOL    HW219350   2.431   0.916   5.045 -0.8599 -0.4301  0.1682
 2631SOL     OW19351   1.888   0.397  14.427 -0.4923 -0.0048  0.0136
 2631SOL    HW119352   1.851   0.470  14.477 -0.6572  0.1051 -0.2638
 2631SOL    HW219353   1.821   0.330  14.437 -1.3846  1.1056  1.5544
 2632SOL     OW19354   4.353   0.038   0.380 -0.0697  0.0652 -0.2361
 2632SOL    HW119355   4.421   0.060   0.316  0.4570  2.1901  1.0797
 2632SOL    HW219356   4.354   0.117   0.433 -0.6495 -1.4443  2.0433
 2633SOL     OW19357   4.101   2.512   4.075 -0.0116  0.6256 -0.4562
 2633SOL    HW119358   4.020   2.526   4.026 -1.0274 -1.2792  0.6918
 2633SOL    HW219359   4.104   2.594   4.124  1.5321  0.8898 -0.9862
 2634SOL     OW19360   4.479   4.408   1.221  0.4870  0.3762  0.2810
 2634SOL    HW119361   4.392   4.435   1.189  1.0116  1.3141 -0.3615
 2634SOL    HW219362   4.527   4.394   1.139  0.2889  2.9752 -0.2886
 2635SOL     OW19363   2.911   1.032   4.924 -0.1978  0.1761  0.6411
 2635SOL    HW119364   2.969   0.957   4.912 -0.4413  0.0835  0.0213
 2635SOL    HW219365   2.845   1.022   4.855 -0.2286 -0.1836  0.7221
 2636SOL     OW19366   1.820   3.386   7.430 -0.1375 -0.2936  0.0760
 2636SOL    HW119367   1.730   3.407   7.409  0.0128 -0.2483 -0.5200
 2636SOL    HW219368   1.834   3.305   7.380 -0.4661  0.1890 -0.7821
 2637SOL     OW19369   2.128   1.310   6.904 -0.3835 -0.2285  0.0075
 2637SOL    HW119370   2.062   1.259   6.951  0.6614 -0.4215  1.2964
 2637SOL    HW219371   2.115   1.277   6.816  1.2023 -0.6224 -0.0896
 2638SOL     OW19372   3.559   1.417   2.575 -0.3691  0.3218 -0.0455
 2638SOL    HW119373   3.580   1.503   2.540  0.9039  0.6189  1.4238
 2638SOL    HW219374   3.556   1.364   2.495 -1.1621  0.1444  0.1005
 2639SOL     OW19375   1.799   3.153   0.730 -0.4235 -0.0124 -0.5051
 2639SOL    HW119376   1.852   3.129   0.655 -0.0285  0.0978 -0.2583
 2639SOL    HW219377   1.865   3.205   0.776  0.0974 -0.9494 -0.1902
 2640SOL     OW19378   1.540   0.989   6.153 -0.0678 -0.0884  0.7462
 2640SOL    HW119379   1.583   0.947   6.228 -0.8732 -1.7127  0.3167
 2640SOL    HW219380   1.449   0.975   6.180 -1.2548  1.7178 -2.3348
 2641SOL     OW19381   3.538   3.005   6.785  0.2507  0.2570  0.4483
 2641SOL    HW119382   3.601   3.012   6.713 -0.2702  0.0944 -0.0308
 2641SOL    HW219383   3.465   3.031   6.728  0.7746 -1.2477 -0.9268
 2642SOL     OW19384   4.476   0.528   4.338 -0.2648  0.0419 -0.3061
 2642SOL    HW119385   4.414   0.557   4.271 -1.0111 -0.3361  0.2166
 2642SOL    HW219386   4.439   0.449   4.380 -0.3885  0.5794  0.6050
 2643SOL     OW19387   3.920   0.097  16.418 -0.0396 -0.1707  0.2985
 2643SOL    HW119388   3.906   0.177  16.469 -1.2126 -0.8339  1.0368
 2643SOL    HW219389   3.844   0.079  16.363  1.1302 -0.0428 -1.3457
 2644SOL     OW19390   0.548   2.039   5.737  0.3634  0.4411  0.1190
 2644SOL    HW119391   0.499   2.078   5.664 -0.0643  0.5208  0.4509
 2644SOL    HW219392   0.504   1.955   5.744 -0.1274  0.8188  1.5939
 2645SOL     OW19393   0.776   2.487   6.000 -0.1863  0.4927  0.6102
 2645SOL    HW119394   0.771   2.413   5.940 -0.3949  0.4877  0.6339
 2645SOL    HW219395   0.715   2.462   6.070  0.5524  0.5093  1.2599
 2646SOL     OW19396   0.032   2.841   7.849 -0.3571 -0.3110  0.0671
 2646SOL    HW119397   0.086   2.896   7.905  2.4103 -0.1375 -2.7487
 2646SOL    HW219398   4.690   2.796   7.904  1.5537 -2.0585  0.8144
 2647SOL     OW19399   4.144   4.466  17.048  0.5604  0.4078  0.3378
 2647SOL    HW119400   4.048   4.465  17.053  0.5189  1.4157 -0.3210
 2647SOL    HW219401   4.154   4.512  16.965  1.8014 -2.2781 -1.0096
 2648SOL     OW19402   4.540   0.377   6.454  0.0657  0.4604  1.0358
 2648SOL    HW119403   4.520   0.438   6.525  0.2702  1.9868 -0.2305
 2648SOL    HW219404   4.536   0.294   6.502  0.1761 -0.1594 -0.0358
 2649SOL     OW19405   1.015   1.238   9.314  0.5366 -0.4210  0.0347
 2649SOL    HW119406   1.090   1.226   9.371  0.3888 -1.9038 -0.0892
 2649SOL    HW219407   0.994   1.147   9.295 -0.4667 -0.1231 -0.3366
 2650SOL     OW19408   2.811   3.690   5.803 -0.1567 -0.6899  0.1679
 2650SOL    HW119409   2.883   3.690   5.866  1.1002  0.9846 -1.3182
 2650SOL    HW219410   2.767   3.605   5.809  1.1560 -1.3027  1.0003
 2651SOL     OW19411   3.703   3.216   8.973  0.1502  0.0808 -0.2806
 2651SOL    HW119412   3.669   3.141   9.021  0.3393 -0.4971 -1.0502
 2651SOL    HW219413   3.797   3.198   8.975  0.1619  0.2878  0.8505
 2652SOL     OW19414   1.361   1.608   1.538  0.5476  0.1119 -0.6088
 2652SOL    HW119415   1.287   1.665   1.557  2.4380  2.0636  0.8478
 2652SOL    HW219416   1.325   1.537   1.591  0.6095 -0.6243 -1.5447
 2653SOL     OW19417   2.841   1.453   4.929 -0.5128  0.3762 -0.2561
 2653SOL    HW119418   2.788   1.458   5.008  1.3130  2.0300  0.8611
 2653SOL    HW219419   2.913   1.397   4.958  0.9787  0.7595 -3.1967
 2654SOL     OW19420   2.381   2.341  11.517 -0.9847 -0.1865  0.0118
 2654SOL    HW119421   2.471   2.319  11.496 -0.9681  0.2225 -0.3448
 2654SOL    HW219422   2.397   2.429  11.552  1.3606  0.7659 -3.3994
 2655SOL     OW19423   0.360   0.688   4.612 -0.1196  0.3091 -0.6641
 2655SOL    HW119424   0.266   0.700   4.622 -0.1377 -0.5983  0.2680
 2655SOL    HW219425   0.398   0.704   4.699 -2.1634 -1.7628  0.6019
 2656SOL     OW19426   2.768   2.461  10.331  0.2833  0.5832 -0.6631
 2656SOL    HW119427   2.855   2.465  10.371  0.3973  0.4097 -0.8971
 2656SOL    HW219428   2.716   2.515  10.391  1.0995  2.0172 -1.2562
 2657SOL     OW19429   1.756   4.653   4.972 -0.1715  0.2428  0.2027
 2657SOL    HW119430   1.744   4.612   5.058  0.3858 -0.0619  0.1362
 2657SOL    HW219431   1.704   4.598   4.914  0.7217  0.8889 -1.2171
 2658SOL     OW19432   0.431   3.992  16.428 -0.3305 -0.0388 -0.3954
 2658SOL    HW119433   0.497   4.012  16.362  0.5486 -0.0835  0.4772
 2658SOL    HW219434   0.414   3.900  16.407 -0.6291 -0.2718  0.8473
 2659SOL     OW19435   4.070   2.684   4.293  0.0149  0.4428  0.1957
 2659SOL    HW119436   4.104   2.772   4.309 -1.4465  1.4249 -2.1035
 2659SOL    HW219437   4.010   2.668   4.366 -2.1197 -1.4714 -1.9738
 2660SOL     OW19438   1.805   0.518  14.799 -0.0804  0.0333 -0.3925
 2660SOL    HW119439   1.751   0.447  14.764 -3.4168  1.9966  0.7161
 2660SOL    HW219440   1.731   0.558  14.845 -0.5312  0.7614 -1.7199
 2661SOL     OW19441   2.203   4.130   3.702 -0.0481 -0.2588  0.5109
 2661SOL    HW119442   2.235   4.176   3.779 -1.9835 -0.6933  1.5747
 2661SOL    HW219443   2.128   4.081   3.736 -1.7345  0.2525 -2.4189
 2662SOL     OW19444   0.851   1.224   1.038  0.1312 -0.7041 -0.9421
 2662SOL    HW119445   0.813   1.307   1.012 -0.5884 -0.2696  1.4728
 2662SOL    HW219446   0.932   1.228   0.987  1.1982  1.9138  0.9687
 2663SOL     OW19447   1.625   2.253   6.684  0.2953  0.6115  0.1603
 2663SOL    HW119448   1.667   2.336   6.706  2.2336 -0.3330 -0.0510
 2663SOL    HW219449   1.548   2.294   6.645 -1.2023 -1.2221  1.1555
 2664SOL     OW19450   3.221   2.345   8.021 -0.2556 -0.0301 -0.1549
 2664SOL    HW119451   3.244   2.411   8.086 -0.2866  0.1020 -0.2779
 2664SOL    HW219452   3.297   2.288   8.013 -0.6429 -0.3619 -1.5441
 2665SOL     OW19453   2.095   4.512   8.599  0.4943 -0.0834  0.5589
 2665SOL    HW119454   2.092   4.605   8.621 -1.1370 -0.2452  1.0619
 2665SOL    HW219455   2.023   4.472   8.649  0.2785 -1.4538 -0.8545
 2666SOL     OW19456   0.231   1.216   3.592 -0.0549 -0.1372  0.6700
 2666SOL    HW119457   0.203   1.306   3.605  3.3943  1.0041  0.0588
 2666SOL    HW219458   0.210   1.207   3.499 -1.7259  0.0109  1.0175
 2667SOL     OW19459   1.782   2.527   2.222  0.2008 -0.4009 -0.0053
 2667SOL    HW119460   1.779   2.446   2.172  1.5191 -1.5276  1.7570
 2667SOL    HW219461   1.872   2.519   2.254 -0.1886 -2.9759  0.4041
 2668SOL     OW19462   2.369   3.125   8.166  0.0183 -0.4801  0.2879
 2668SOL    HW119463   2.409   3.092   8.246  1.1274 -0.1001 -0.1056
 2668SOL    HW219464   2.276   3.112   8.187 -0.3508  1.1382 -0.3383
 2669SOL     OW19465   0.619   2.682   3.301 -0.3777  0.8001 -0.8821
 2669SOL    HW119466   0.558   2.626   3.252 -1.4097  2.8927 -1.9991
 2669SOL    HW219467   0.584   2.765   3.269 -0.7713  1.4664  1.2828
 2670SOL     OW19468   1.837   2.624   7.218  0.7013 -0.1405  0.2380
 2670SOL    HW119469   1.783   2.550   7.190  0.2045 -0.2647  1.5374
 2670SOL    HW219470   1.784   2.700   7.192 -2.3313 -1.8146  1.5885
 2671SOL     OW19471   3.590   2.467   6.084 -0.2257 -0.5439  0.0578
 2671SOL    HW119472   3.635   2.542   6.124 -1.4557 -0.9330  2.1435
 2671SOL    HW219473   3.657   2.415   6.041 -0.2784 -0.4836 -0.0976
 2672SOL     OW19474   0.849   3.480   7.011  0.0302  0.3339 -0.0891
 2672SOL    HW119475   0.807   3.413   6.957 -0.4173  1.1454 -0.7632
 2672SOL    HW219476   0.814   3.557   6.966  1.5258  1.9716  1.5787
 2673SOL     OW19477   2.550   0.368   4.099 -0.0624 -0.0904  0.9587
 2673SOL    HW119478   2.522   0.318   4.176 -0.6465 -0.8032  0.2784
 2673SOL    HW219479   2.621   0.423   4.134  0.7626 -0.1741 -0.6153
 2674SOL     OW19480   1.249   1.192   6.648  0.8721 -0.1147  0.2060
 2674SOL    HW119481   1.179   1.256   6.636  1.4981  0.8169  1.4861
 2674SOL    HW219482   1.192   1.115   6.655  0.4025  0.2748  0.7409
 2675SOL     OW19483   1.325   4.125  14.365  0.2497 -0.1872 -0.1665
 2675SOL    HW119484   1.271   4.134  14.286 -1.2739  1.2690  1.0397
 2675SOL    HW219485   1.360   4.038  14.347  0.2422 -0.2953  0.3387
 2676SOL     OW19486   1.655   4.241  15.924 -0.2310 -0.1821  0.2543
 2676SOL    HW119487   1.585   4.284  15.875  0.3378 -0.4741 -0.8215
 2676SOL    HW219488   1.706   4.204  15.852 -1.5694 -0.0093 -0.7943
 2677SOL     OW19489   1.866   3.779   1.492  0.6269  0.2883 -0.4483
 2677SOL    HW119490   1.942   3.828   1.524  0.2121 -0.7556  2.1444
 2677SOL    HW219491   1.845   3.819   1.408  0.9986 -1.9446 -1.6233
 2678SOL     OW19492   2.423   1.688   9.096  0.0942 -0.9047 -0.1553
 2678SOL    HW119493   2.496   1.697   9.034  0.4834  0.6409  0.5429
 2678SOL    HW219494   2.356   1.705   9.031 -0.6506 -1.9774  0.3211
 2679SOL     OW19495   3.730   0.818  11.071  0.1634 -0.1891 -0.1784
 2679SOL    HW119496   3.765   0.788  10.987  1.8470  0.5594  0.2383
 2679SOL    HW219497   3.760   0.909  11.063 -1.5351  0.5366  1.6471
 2680SOL     OW19498   2.314   1.508   5.482  1.3728 -0.2431  0.4414
 2680SOL    HW119499   2.355   1.440   5.430  2.1089  1.4947 -1.2331
 2680SOL    HW219500   2.252   1.454   5.532  1.1177 -0.0143  0.3716
 2681SOL     OW19501   0.270   1.169  11.451  0.0524  0.0561  0.1817
 2681SOL    HW119502   0.300   1.238  11.392  0.8706 -1.4133 -1.1277
 2681SOL    HW219503   0.204   1.212  11.505  0.1559  0.9972 -0.4465
 2682SOL     OW19504   4.288   0.619   0.666  0.1053 -0.9855 -0.1812
 2682SOL    HW119505   4.283   0.526   0.644  1.7448 -0.9042 -0.8581
 2682SOL    HW219506   4.373   0.643   0.629 -0.4042  0.8469 -0.1811
 2683SOL     OW19507   1.836   1.297   4.894 -0.5775  0.5070 -0.3424
 2683SOL    HW119508   1.856   1.285   4.802 -0.0824  0.4890 -0.2320
 2683SOL    HW219509   1.891   1.375   4.900  0.7695 -0.4369 -0.4659
 2684SOL     OW19510   2.565   0.251   4.586 -0.0195 -0.1369 -0.5939
 2684SOL    HW119511   2.507   0.267   4.660  2.7648  3.2000  0.8560
 2684SOL    HW219512   2.647   0.282   4.624 -0.4801  0.7235 -0.3065
 2685SOL     OW19513   2.797   0.212  13.607 -0.4125 -0.1814  0.4102
 2685SOL    HW119514   2.863   0.260  13.658 -1.2031 -0.7530  1.9637
 2685SOL    HW219515   2.832   0.128  13.578  0.9144 -0.5351  3.0191
 2686SOL     OW19516   2.044   3.392  15.157 -0.3351 -0.5189  0.0528
 2686SOL    HW119517   1.964   3.428  15.196 -0.5432 -1.2119  0.2564
 2686SOL    HW219518   2.116   3.439  15.199 -0.1204 -2.3772  1.7818
 2687SOL     OW19519   2.839   3.875   8.134  0.0092  0.0487 -0.3456
 2687SOL    HW119520   2.800   3.961   8.150  0.9296  0.5738 -0.9480
 2687SOL    HW219521   2.777   3.822   8.184 -1.6139  2.3136  0.0268
 2688SOL     OW19522   4.347   1.530  15.036 -0.7378 -0.2043 -0.0064
 2688SOL    HW119523   4.281   1.486  14.982  2.2812 -4.0423 -0.5306
 2688SOL    HW219524   4.384   1.462  15.092  1.3015 -0.8671 -2.1619
 2689SOL     OW19525   1.022   0.997   6.475 -0.3742 -0.2898 -0.2856
 2689SOL    HW119526   1.026   1.064   6.407 -3.2845  1.5732  1.3965
 2689SOL    HW219527   0.929   0.980   6.493 -0.5296  0.3803 -0.4567
 2690SOL     OW19528   2.939   0.214   3.874 -0.5704  0.1550  0.1437
 2690SOL    HW119529   3.027   0.248   3.890 -0.5859  0.3847 -0.2783
 2690SOL    HW219530   2.882   0.290   3.861 -0.0633  0.5695  0.3276
 2691SOL     OW19531   4.503   2.368  13.802  0.3797 -0.2715  0.0066
 2691SOL    HW119532   4.492   2.294  13.742  1.8884 -0.3910 -0.1262
 2691SOL    HW219533   4.410   2.374  13.824  0.6318 -3.3959  2.0416
 2692SOL     OW19534   4.354   4.172   7.113  0.8707  0.1370 -0.6225
 2692SOL    HW119535   4.295   4.132   7.177  0.0535 -0.9805 -2.0797
 2692SOL    HW219536   4.291   4.241   7.095 -1.9392 -2.0304  0.9143
 2693SOL     OW19537   2.249   2.869   7.780  0.0888 -0.3287  0.1229
 2693SOL    HW119538   2.166   2.895   7.820  0.5703  0.7310  0.4200
 2693SOL    HW219539   2.313   2.867   7.851  0.8957 -4.0177 -0.6998
 2694SOL     OW19540   4.664   2.078   4.281  0.1172 -0.1117  0.3434
 2694SOL    HW119541   0.001   2.151   4.298 -1.4144  1.4764 -1.1610
 2694SOL    HW219542   4.686   2.048   4.193 -0.9175 -0.4410  0.1966
 2695SOL     OW19543   1.505   1.424  11.256 -0.3554  0.1017  0.3289
 2695SOL    HW119544   1.430   1.383  11.214  1.4389 -0.9866 -1.7542
 2695SOL    HW219545   1.554   1.454  11.180 -1.3815  1.7682  0.3055
 2696SOL     OW19546   2.241   1.970  16.001  0.5538 -0.7067  0.1201
 2696SOL    HW119547   2.223   1.887  15.956  0.6361 -0.3305 -0.6057
 2696SOL    HW219548   2.167   1.992  16.058  0.8946 -0.0652  0.3078
 2697SOL     OW19549   0.163   4.402   4.442 -0.3352  0.2407  0.2736
 2697SOL    HW119550   0.220   4.473   4.474  1.5772 -1.8206  1.4259
 2697SOL    HW219551   0.224   4.328   4.445 -1.1700 -0.3761  1.9762
 2698SOL     OW19552   1.906   1.631  10.278  0.0968 -0.0838 -0.4080
 2698SOL    HW119553   1.958   1.582  10.215  1.2581 -0.6099  0.9579
 2698SOL    HW219554   1.915   1.722  10.248  2.7792  0.0702  0.8121
 2699SOL     OW19555   4.376   2.840   8.123 -0.3301 -0.2356 -0.1956
 2699SOL    HW119556   4.402   2.763   8.173 -1.1875  0.0882  0.7411
 2699SOL    HW219557   4.287   2.861   8.153  0.1690  0.0166  1.1290
 2700SOL     OW19558   3.230   4.125  17.503 -0.3025 -0.4257 -0.4944
 2700SOL    HW119559   3.306   4.066  17.505 -0.2371 -0.3917 -2.2877
 2700SOL    HW219560   3.201   4.109  17.413 -0.2423  0.4911 -0.6736
 2701SOL     OW19561   1.287   1.570  15.024 -0.1358 -0.1880 -0.3203
 2701SOL    HW119562   1.285   1.665  15.032 -1.6989 -0.1824 -0.8357
 2701SOL    HW219563   1.269   1.534  15.112  0.8048  2.3739  0.9092
 2702SOL     OW19564   0.491   3.603   9.960 -0.1397  0.0319  0.4183
 2702SOL    HW119565   0.401   3.595   9.990  0.1081 -4.1068  0.0035
 2702SOL    HW219566   0.514   3.511   9.964 -1.0013 -0.1510  1.1284
 2703SOL     OW19567   3.275   3.719   6.063 -0.0677  0.6395  0.2335
 2703SOL    HW119568   3.236   3.634   6.084  2.9415 -0.8496 -0.2601
 2703SOL    HW219569   3.341   3.746   6.127  1.9185 -1.4629 -0.9431
 2704SOL     OW19570   0.604   3.248   8.959  0.6340  0.0911  0.2063
 2704SOL    HW119571   0.530   3.232   8.901  1.0346  2.2745 -0.9164
 2704SOL    HW219572   0.563   3.258   9.045  0.0543  1.5436 -0.2415
 2705SOL     OW19573   0.400   2.225   8.984  0.0197 -0.1680  0.9257
 2705SOL    HW119574   0.436   2.162   9.046 -0.4222  0.5155  1.8718
 2705SOL    HW219575   0.318   2.177   8.971 -0.1338  0.9686 -2.3162
 2706SOL     OW19576   4.542   2.842   3.459  0.4322  0.3239  0.1836
 2706SOL    HW119577   4.507   2.923   3.421  2.4491  1.0714 -0.0686
 2706SOL    HW219578   4.601   2.814   3.389  0.5879 -0.4149  0.6065
 2707SOL     OW19579   0.300   1.308   6.440 -0.0384 -0.2443  0.2357
 2707SOL    HW119580   0.326   1.237   6.499 -2.3143 -1.1409  0.1617
 2707SOL    HW219581   0.377   1.364   6.426 -1.3322  1.6963  0.8511
 2708SOL     OW19582   2.786   3.305   7.255 -0.2263  0.7529 -0.4310
 2708SOL    HW119583   2.722   3.317   7.324  0.4640 -2.1787  0.7218
 2708SOL    HW219584   2.755   3.228   7.206  0.7925 -1.2549  2.0358
 2709SOL     OW19585   2.182   2.014   8.301 -0.7743 -0.0752 -0.5211
 2709SOL    HW119586   2.215   1.993   8.213 -0.6248  0.0556 -0.4972
 2709SOL    HW219587   2.252   1.977   8.354 -1.5011  0.4563  0.7919
 2710SOL     OW19588   4.130   3.937  14.280 -0.9515  0.1926 -0.3402
 2710SOL    HW119589   4.139   3.843  14.266 -0.7794  0.3619 -1.3963
 2710SOL    HW219590   4.044   3.958  14.243 -1.9458  1.3746  2.6260
 2711SOL     OW19591   4.171   3.427  16.317 -0.4562  0.1210  0.0271
 2711SOL    HW119592   4.168   3.348  16.371  0.1461  0.6468  0.8365
 2711SOL    HW219593   4.156   3.395  16.228 -0.9082  0.8864 -0.1753
 2712SOL     OW19594   3.646   0.663   5.571  0.4323  0.4110  0.0620
 2712SOL    HW119595   3.560   0.660   5.613 -1.2307 -0.0119 -3.3351
 2712SOL    HW219596   3.679   0.583   5.612 -1.7004 -0.7448 -0.4694
 2713SOL     OW19597   1.552   4.436   1.074  0.0882 -0.4794  0.0441
 2713SOL    HW119598   1.458   4.451   1.074 -0.1584 -1.9337 -0.8471
 2713SOL    HW219599   1.573   4.510   1.131  0.6439 -0.1442 -0.5854
 2714SOL     OW19600   1.122   3.239  15.740  0.0472  0.2725  0.8291
 2714SOL    HW119601   1.135   3.234  15.645 -3.0373  0.5378  0.4184
 2714SOL    HW219602   1.211   3.268  15.760 -0.8271  2.6043  1.2226
 2715SOL     OW19603   1.524   2.617   6.895 -0.1208 -0.2891 -0.2719
 2715SOL    HW119604   1.443   2.598   6.847 -1.0178 -2.0306  1.9543
 2715SOL    HW219605   1.503   2.580   6.981  1.0326 -1.1003 -0.3408
 2716SOL     OW19606   4.010   3.958   7.225  0.0384 -0.4966 -0.6911
 2716SOL    HW119607   4.051   4.035   7.266  2.1003 -1.2039 -1.4523
 2716SOL    HW219608   4.084   3.897   7.221 -0.0063 -0.6099  0.1994
 2717SOL     OW19609   2.776   2.565   8.946 -0.1812  0.1402 -0.0598
 2717SOL    HW119610   2.858   2.517   8.934 -0.4197 -0.3928  0.4887
 2717SOL    HW219611   2.767   2.578   9.040  0.7514 -2.4454  0.3661
 2718SOL     OW19612   1.677   3.025   9.469  0.3309  0.3295  0.1933
 2718SOL    HW119613   1.642   3.063   9.389  0.2253 -1.0378 -0.4031
 2718SOL    HW219614   1.771   3.041   9.460  0.0341  1.8021 -0.2050
 2719SOL     OW19615   3.898   0.159   8.210 -0.7286 -0.0301  0.2713
 2719SOL    HW119616   3.943   0.075   8.201  0.9452  0.7799  1.0820
 2719SOL    HW219617   3.951   0.207   8.274 -2.4380  1.3890  0.6249
 2720SOL     OW19618   1.211   3.575   2.581 -0.1472 -0.4603  0.6336
 2720SOL    HW119619   1.127   3.620   2.594  0.7092  1.4031 -0.2652
 2720SOL    HW219620   1.281   3.620   2.628 -1.4261 -0.3005  2.4366
 2721SOL     OW19621   3.277   3.447   7.700 -0.0840 -0.2025 -0.1675
 2721SOL    HW119622   3.224   3.487   7.631  2.0625  2.8602 -0.0416
 2721SOL    HW219623   3.258   3.353   7.703  2.2385 -0.7309 -1.1036
 2722SOL     OW19624   0.262   0.385   2.525 -0.3369 -0.3075 -0.5720
 2722SOL    HW119625   0.203   0.455   2.552 -1.2951 -1.1602 -0.4708
 2722SOL    HW219626   0.281   0.420   2.438  2.0005 -0.6680 -0.2051
 2723SOL     OW19627   2.118   3.536   3.477 -0.1583 -0.0385  0.0927
 2723SOL    HW119628   2.153   3.591   3.406 -1.1063  0.6520  0.1680
 2723SOL    HW219629   2.024   3.553   3.471 -0.1017 -0.2945 -1.7384
 2724SOL     OW19630   0.394   1.896   2.735 -0.2018  0.0430  0.0281
 2724SOL    HW119631   0.345   1.948   2.799 -2.3342  2.4638 -3.5355
 2724SOL    HW219632   0.339   1.818   2.743 -0.7478  0.3891 -0.3768
 2725SOL     OW19633   3.839   3.538  10.556  0.2473  0.5192 -0.4117
 2725SOL    HW119634   3.824   3.590  10.634 -2.4912  0.1538 -0.7087
 2725SOL    HW219635   3.772   3.471  10.569  0.9114 -0.1865 -0.5569
 2726SOL     OW19636   4.109   2.973   2.070  0.6140  0.2257 -0.0739
 2726SOL    HW119637   4.166   2.999   1.998  3.7601 -0.6254  2.1305
 2726SOL    HW219638   4.155   2.893   2.096  0.4822 -0.1724 -1.0636
 2727SOL     OW19639   0.301   1.560   9.953 -0.3557 -0.1179 -0.8623
 2727SOL    HW119640   0.240   1.537   9.883 -1.7621 -1.6189  0.8713
 2727SOL    HW219641   0.290   1.495  10.021 -1.0669  0.9712  0.0610
 2728SOL     OW19642   3.100   2.985  11.609  0.2070  0.3917  0.7576
 2728SOL    HW119643   3.060   3.069  11.630 -1.8301 -0.4685  0.3316
 2728SOL    HW219644   3.184   3.003  11.651  0.9993 -0.9503 -0.2645
 2729SOL     OW19645   2.821   1.389  14.447 -0.1404  0.0643 -0.0183
 2729SOL    HW119646   2.773   1.332  14.507 -0.4046 -2.4708 -2.5884
 2729SOL    HW219647   2.869   1.316  14.407  0.4116  0.4952 -0.1383
 2730SOL     OW19648   3.303   2.561  15.024  0.9453 -0.0578  0.1020
 2730SOL    HW119649   3.225   2.551  14.971 -0.0592 -1.6195  1.8781
 2730SOL    HW219650   3.365   2.592  14.957 -1.2532  1.8219 -1.0568
 2731SOL     OW19651   2.646   4.527   9.464  0.2137  0.3988 -0.0718
 2731SOL    HW119652   2.647   4.607   9.412 -1.0209 -0.1578 -0.9691
 2731SOL    HW219653   2.692   4.473   9.399 -0.8415 -0.0095 -0.4834
 2732SOL     OW19654   3.339   1.750   7.814 -0.3807  0.2045  0.1944
 2732SOL    HW119655   3.368   1.841   7.800  0.9748 -0.0046  1.5410
 2732SOL    HW219656   3.248   1.761   7.844 -0.1120 -0.6838  1.3478
 2733SOL     OW19657   1.017   2.003   7.275 -0.3718 -0.3536  0.1233
 2733SOL    HW119658   0.953   2.064   7.240 -0.5822 -1.0483 -0.7094
 2733SOL    HW219659   0.980   1.977   7.360 -0.5874 -1.1165 -0.2027
 2734SOL     OW19660   2.692   1.968   2.285  0.2017 -0.2922  0.2078
 2734SOL    HW119661   2.778   2.008   2.271  0.2686 -0.8350 -0.9425
 2734SOL    HW219662   2.705   1.876   2.260 -1.2285 -0.9817  1.9928
 2735SOL     OW19663   0.026   0.910   4.844 -0.0473  0.0587 -0.2556
 2735SOL    HW119664   0.044   1.004   4.848 -0.1779  0.0868 -0.3111
 2735SOL    HW219665   0.100   0.880   4.791  0.2987  1.6964 -0.7272
 2736SOL     OW19666   0.181   0.922   4.368 -0.3931 -0.2176  0.3956
 2736SOL    HW119667   0.157   0.869   4.292 -0.9865  0.2218  0.2805
 2736SOL    HW219668   0.093   0.939   4.402 -0.5864 -1.9194  0.7303
 2737SOL     OW19669   3.012   3.834  10.179 -0.1238  0.3983 -0.5933
 2737SOL    HW119670   2.957   3.809  10.252  1.5419  6.0529  2.5436
 2737SOL    HW219671   3.068   3.902  10.216 -1.6236  1.3442 -0.0683
 2738SOL     OW19672   3.399   0.352   6.342  0.0064 -0.0020 -0.5112
 2738SOL    HW119673   3.458   0.326   6.271 -0.0417  0.8179 -0.8392
 2738SOL    HW219674   3.367   0.269   6.378 -0.1132 -0.0802 -0.8043
 2739SOL     OW19675   0.157   3.562   3.848  0.3965 -0.1592 -0.6815
 2739SOL    HW119676   0.194   3.566   3.759  2.2867  1.2699  0.1683
 2739SOL    HW219677   0.149   3.657   3.848 -0.6081 -0.2415  0.5311
 2740SOL     OW19678   3.333   0.862   5.029  0.5378 -0.0174 -0.2922
 2740SOL    HW119679   3.382   0.926   4.977  1.1399 -0.0202  0.2633
 2740SOL    HW219680   3.279   0.828   4.958 -0.5511 -1.1256  1.0810
 2741SOL     OW19681   1.023   2.683   2.263 -0.1754 -0.4474 -0.2324
 2741SOL    HW119682   1.101   2.737   2.254 -0.4062 -0.2529 -1.1424
 2741SOL    HW219683   0.953   2.747   2.250  1.3749  1.6528  1.8622
 2742SOL     OW19684   1.515   3.092   9.984  0.1566  0.0111  0.3590
 2742SOL    HW119685   1.563   3.166   9.945 -1.6847  0.3816 -1.1739
 2742SOL    HW219686   1.508   3.043   9.902  0.6757  1.2211 -0.4116
 2743SOL     OW19687   4.595   2.501   3.461  0.1818  0.0133 -0.0442
 2743SOL    HW119688   4.503   2.506   3.433 -0.1156 -1.1540  0.6968
 2743SOL    HW219689   4.640   2.471   3.382 -3.7843 -0.3073 -2.2188
 2744SOL     OW19690   2.859   4.718   9.403  0.8947  0.0474 -0.7547
 2744SOL    HW119691   2.946   0.025   9.374  2.3236 -3.3975  0.2072
 2744SOL    HW219692   2.867   4.630   9.368  2.3458  0.1965 -0.8038
 2745SOL     OW19693   3.211   4.686   9.622 -0.2975  0.0812  0.0585
 2745SOL    HW119694   3.125   4.711   9.654 -0.4846  1.1483 -1.2818
 2745SOL    HW219695   3.189   4.708   9.531  0.2732 -3.8259 -1.0554
 2746SOL     OW19696   3.998   1.477   4.458  0.3256 -0.8146 -0.0625
 2746SOL    HW119697   3.961   1.486   4.370 -0.3870  1.3438  0.4618
 2746SOL    HW219698   3.965   1.557   4.499  1.6388  0.1444 -0.8704
 2747SOL     OW19699   2.722   4.452   4.553  0.0378  0.1079 -0.1209
 2747SOL    HW119700   2.645   4.490   4.596  0.2100 -0.0437  0.3229
 2747SOL    HW219701   2.784   4.519   4.582  0.9630 -0.4011 -0.9435
 2748SOL     OW19702   0.073   2.933   7.369  0.0004 -0.2497 -0.4538
 2748SOL    HW119703   0.052   2.973   7.453  0.9230  1.4631 -1.0402
 2748SOL    HW219704   0.073   2.840   7.391  0.3201 -0.7459 -2.5265
 2749SOL     OW19705   3.226   0.132   4.717 -0.5629 -0.0452  0.1234
 2749SOL    HW119706   3.183   0.131   4.802 -1.3219  0.7157 -0.2482
 2749SOL    HW219707   3.276   0.213   4.705  0.4080 -0.3429  2.1158
 2750SOL     OW19708   3.777   1.859   8.739 -0.1026 -0.6924  0.1456
 2750SOL    HW119709   3.850   1.917   8.721 -0.3404 -0.4192  0.0662
 2750SOL    HW219710   3.823   1.790   8.787 -1.3504 -1.1105  0.7539
 2751SOL     OW19711   2.802   3.357   5.798  0.3176 -0.0605  0.0468
 2751SOL    HW119712   2.804   3.265   5.772  0.3221 -0.1044  0.2034
 2751SOL    HW219713   2.872   3.365   5.863  0.2705 -0.1387  0.1070
 2752SOL     OW19714   1.862   4.680   8.782 -0.0917 -0.1328 -0.2998
 2752SOL    HW119715   1.856   4.619   8.856  2.2415 -0.7614 -0.6264
 2752SOL    HW219716   1.776   4.664   8.744  0.7857 -0.8403 -1.9662
 2753SOL     OW19717   0.902   3.777   6.961 -0.1020  0.3313 -0.6769
 2753SOL    HW119718   0.980   3.723   6.975 -0.3699  0.1080 -0.0693
 2753SOL    HW219719   0.947   3.856   6.932 -0.4067  1.2499  1.3303
 2754SOL     OW19720   2.653   1.853   8.015  0.0288  0.0116  0.0379
 2754SOL    HW119721   2.652   1.877   8.108  1.7858  0.3871 -0.0501
 2754SOL    HW219722   2.574   1.897   7.982 -0.3926 -1.3864 -0.8296
 2755SOL     OW19723   0.204   2.345  17.367 -0.3324 -0.6990  0.5949
 2755SOL    HW119724   0.243   2.358  17.281  0.6895  0.1067  1.1818
 2755SOL    HW219725   0.187   2.251  17.372  0.1667 -1.0416 -4.5026
 2756SOL     OW19726   0.610   2.245  12.516 -0.2931 -0.5933  0.1529
 2756SOL    HW119727   0.533   2.280  12.472  0.2853 -1.4471 -1.5792
 2756SOL    HW219728   0.565   2.207  12.591  0.7087 -0.2422  0.9207
 2757SOL     OW19729   3.710   1.769   9.327  0.2903  0.1713 -0.0596
 2757SOL    HW119730   3.673   1.855   9.305 -1.0242 -0.3281  0.1698
 2757SOL    HW219731   3.799   1.787   9.357 -0.7720  2.8666  1.5033
 2758SOL     OW19732   3.754   3.771  16.922 -0.0417  0.1319  0.3284
 2758SOL    HW119733   3.721   3.687  16.890  0.2807 -0.3309  1.1913
 2758SOL    HW219734   3.757   3.745  17.014 -0.4454 -0.4778  0.1687
 2759SOL     OW19735   0.760   3.463   7.273  0.6765  0.7387  0.1307
 2759SOL    HW119736   0.806   3.467   7.190  2.8840 -2.1460  1.2179
 2759SOL    HW219737   0.831   3.489   7.331  0.7899 -2.2261  1.2834
 2760SOL     OW19738   1.148   4.336   5.131 -0.6120 -0.8163 -0.2542
 2760SOL    HW119739   1.189   4.392   5.065 -1.0599  1.9023  1.7934
 2760SOL    HW219740   1.187   4.374   5.210  1.6605  2.2397 -2.8342
 2761SOL     OW19741   4.072   2.405   3.253  0.1955 -0.0232  0.2910
 2761SOL    HW119742   4.021   2.332   3.217  0.2210  0.8182 -1.4508
 2761SOL    HW219743   4.106   2.447   3.174  0.9642 -1.7408 -0.2982
 2762SOL     OW19744   2.948   2.205   0.241  0.4018 -0.4402 -0.5179
 2762SOL    HW119745   2.937   2.239   0.152 -0.1984 -2.0470 -1.0687
 2762SOL    HW219746   3.031   2.239   0.274  1.0044 -2.7543  0.3568
 2763SOL     OW19747   1.032   1.336   6.594  0.4374 -0.0492 -0.3559
 2763SOL    HW119748   0.973   1.261   6.588 -1.4201  1.5542 -2.5172
 2763SOL    HW219749   0.976   1.412   6.606  0.3493 -0.2030  0.1870
 2764SOL     OW19750   2.258   2.564  17.038 -0.2353  0.0303 -0.2019
 2764SOL    HW119751   2.196   2.635  17.051  0.3645  0.5166  0.0130
 2764SOL    HW219752   2.208   2.483  17.049  2.2317 -0.9571  3.8457
 2765SOL     OW19753   0.375   0.633   7.985  0.1391  0.0434 -0.5995
 2765SOL    HW119754   0.469   0.645   7.999 -0.0268  0.3834  0.2054
 2765SOL    HW219755   0.389   0.552   7.935 -0.3857 -0.2854 -0.2160
 2766SOL     OW19756   4.573   4.053   0.409  0.1324 -0.2273  0.0591
 2766SOL    HW119757   4.658   4.047   0.452 -0.4938  1.2010  1.4933
 2766SOL    HW219758   4.519   4.023   0.483 -0.1073 -0.1456 -0.0814
 2767SOL     OW19759   1.351   1.591   6.239 -0.6840  0.0816  0.1701
 2767SOL    HW119760   1.286   1.660   6.247 -1.3477 -0.6403  0.9578
 2767SOL    HW219761   1.341   1.530   6.312 -0.8109  0.0161  0.0977
 2768SOL     OW19762   1.189   0.244   1.960 -0.2707  0.0849  0.2773
 2768SOL    HW119763   1.215   0.333   1.936  0.7293 -0.6045 -1.2611
 2768SOL    HW219764   1.142   0.226   1.878  1.4676 -1.4737 -0.3723
 2769SOL     OW19765   3.165   4.531   7.977 -0.3542 -0.1349  0.3134
 2769SOL    HW119766   3.140   4.450   7.933 -2.0576  0.0232  0.9646
 2769SOL    HW219767   3.088   4.589   7.975 -0.4547 -0.2229  1.3704
 2770SOL     OW19768   0.401   4.383   6.090 -0.0369  0.1082 -0.0734
 2770SOL    HW119769   0.440   4.340   6.166  0.8217 -0.3611 -0.7845
 2770SOL    HW219770   0.315   4.390   6.133  0.0327 -0.4577  0.1565
 2771SOL     OW19771   1.338   0.754   6.157  0.0407  0.1083  0.0324
 2771SOL    HW119772   1.324   0.716   6.244 -0.9251 -0.7216 -0.4774
 2771SOL    HW219773   1.288   0.834   6.171  0.5952  0.8340 -2.0216
 2772SOL     OW19774   3.240   2.620  11.358  0.0816  0.0242  0.2731
 2772SOL    HW119775   3.266   2.658  11.442 -0.5776  2.6501 -0.7273
 2772SOL    HW219776   3.240   2.531  11.394 -0.2140  0.1168  0.5005
 2773SOL     OW19777   2.283   2.023   7.141  0.1487  0.7599 -0.0017
 2773SOL    HW119778   2.275   2.117   7.127  0.8337  0.5906 -1.6361
 2773SOL    HW219779   2.332   2.015   7.223 -0.8793 -1.0016  0.4266
 2774SOL     OW19780   2.157   0.578   4.054  0.3850  0.0300  0.5182
 2774SOL    HW119781   2.110   0.517   4.111 -1.6975 -0.8040 -2.0710
 2774SOL    HW219782   2.103   0.558   3.977  0.5929  0.6200  0.2171
 2775SOL     OW19783   0.851   3.135   4.689 -0.2777  0.2579 -0.2896
 2775SOL    HW119784   0.906   3.062   4.720 -1.8471 -1.4041 -1.3869
 2775SOL    HW219785   0.914   3.198   4.657  0.9326 -0.0912  1.3736
 2776SOL     OW19786   4.055   2.394   6.178 -0.6783 -0.2129  0.0325
 2776SOL    HW119787   4.071   2.300   6.181  0.4619 -0.0245 -0.3028
 2776SOL    HW219788   4.028   2.413   6.088 -0.8031 -0.7096 -0.0349
 2777SOL     OW19789   0.485   0.928   7.306  0.0892 -0.1210  0.0604
 2777SOL    HW119790   0.489   0.960   7.216 -3.0012  1.1985  0.3945
 2777SOL    HW219791   0.572   0.958   7.331  0.8484 -1.8700 -0.4501
 2778SOL     OW19792   1.694   4.548   5.204  0.0679 -0.6604  0.0409
 2778SOL    HW119793   1.635   4.473   5.216  1.0119 -1.8480 -2.8088
 2778SOL    HW219794   1.745   4.542   5.285 -0.8720 -0.9627  0.6160
 2779SOL     OW19795   0.800   0.148  11.754  0.1268  0.3774  0.3948
 2779SOL    HW119796   0.755   0.170  11.672  0.9264 -0.6656 -0.3323
 2779SOL    HW219797   0.730   0.127  11.816  0.1122  1.4636  0.7499
 2780SOL     OW19798   1.484   4.247   4.659  0.6434  0.0575  0.2224
 2780SOL    HW119799   1.486   4.223   4.752  0.4691 -3.3251 -0.6646
 2780SOL    HW219800   1.454   4.338   4.656  2.3330  0.5620 -1.8334
 2781SOL     OW19801   1.940   0.754   7.697  0.4205 -0.0040 -0.1314
 2781SOL    HW119802   1.984   0.765   7.613 -2.6228  1.6648 -1.5021
 2781SOL    HW219803   1.969   0.836   7.736 -0.5631  1.1780 -1.9210
 2782SOL     OW19804   0.947   3.686   4.359 -0.2304  0.1590 -0.2747
 2782SOL    HW119805   0.959   3.593   4.339  0.8819  0.1277  0.5803
 2782SOL    HW219806   0.886   3.680   4.433  0.1718 -0.2067  0.0285
 2783SOL     OW19807   4.355   1.899   6.972  0.0245 -0.0190 -0.0458
 2783SOL    HW119808   4.294   1.833   6.938 -0.5491 -0.0945  1.1285
 2783SOL    HW219809   4.310   1.914   7.055  2.7307  0.7636  1.2633
 2784SOL     OW19810   3.828   2.870  13.908 -0.5438  0.4097  0.1239
 2784SOL    HW119811   3.880   2.823  13.974  0.9409  2.1917  0.2388
 2784SOL    HW219812   3.828   2.959  13.944  0.9230 -1.2125  4.1341
 2785SOL     OW19813   0.891   4.369   9.603  0.4454 -0.9068 -0.3656
 2785SOL    HW119814   0.920   4.366   9.512  0.1725 -0.9540 -0.4505
 2785SOL    HW219815   0.905   4.463   9.614  1.2581 -1.0739  0.0056
 2786SOL     OW19816   4.233   2.317   9.767 -0.0563 -0.0792  0.1870
 2786SOL    HW119817   4.274   2.262   9.833  0.1532 -0.8324 -0.5797
 2786SOL    HW219818   4.139   2.296   9.769 -0.3883  1.2418 -1.5089
 2787SOL     OW19819   0.406   1.260   7.139 -0.1349 -0.0592  0.4602
 2787SOL    HW119820   0.313   1.279   7.152 -0.8191 -3.4910  0.3835
 2787SOL    HW219821   0.449   1.321   7.200 -2.9088  2.1385  0.2455
 2788SOL     OW19822   4.555   4.337   4.226 -0.3474  0.4749  0.1967
 2788SOL    HW119823   4.477   4.312   4.275 -0.8885  1.4051 -0.1682
 2788SOL    HW219824   4.538   4.432   4.220 -1.2535  0.1845 -1.9788
 2789SOL     OW19825   1.497   2.453  16.635  0.6440 -0.1315 -0.4435
 2789SOL    HW119826   1.493   2.466  16.729 -1.8345  0.0218 -0.5600
 2789SOL    HW219827   1.592   2.452  16.622  0.7252  1.6118 -0.0392
 2790SOL     OW19828   3.294   1.979  10.130  0.1729  0.2168  0.2262
 2790SOL    HW119829   3.216   2.023  10.097 -1.9417 -2.5405  1.4804
 2790SOL    HW219830   3.345   2.052  10.163  1.3847 -1.3546  1.8448
 2791SOL     OW19831   2.681   4.643  10.664  0.2091  0.2401 -0.2263
 2791SOL    HW119832   2.631   4.685  10.734  0.0063  0.8443 -0.7378
 2791SOL    HW219833   2.730   4.583  10.721  0.4254  1.1554  0.5532
 2792SOL     OW19834   0.834   2.257  13.706 -0.3444 -0.2427 -0.1364
 2792SOL    HW119835   0.878   2.220  13.783 -0.3777 -1.9871 -0.9662
 2792SOL    HW219836   0.870   2.200  13.638 -1.7294  0.4661 -1.4534
 2793SOL     OW19837   4.232   2.552   6.308 -0.4747 -0.3309 -0.3085
 2793SOL    HW119838   4.186   2.472   6.284  1.3690 -1.3188 -0.5917
 2793SOL    HW219839   4.325   2.528   6.316  0.1030  2.9655  2.8066
 2794SOL     OW19840   0.862   1.576   4.284  0.7639 -0.1211  0.4838
 2794SOL    HW119841   0.872   1.485   4.313  1.2443 -0.3525 -0.4216
 2794SOL    HW219842   0.876   1.626   4.365  0.0572  0.3245  0.3265
 2795SOL     OW19843   2.330   0.812   7.290 -0.1057  0.0288 -0.6137
 2795SOL    HW119844   2.344   0.897   7.249  0.0761  0.3729  0.1759
 2795SOL    HW219845   2.293   0.845   7.372 -1.8306 -0.8225 -1.0384
 2796SOL     OW19846   0.918   0.957  12.362 -0.2078 -0.1760 -0.3923
 2796SOL    HW119847   0.949   0.962  12.453  2.9116 -2.4057 -1.3427
 2796SOL    HW219848   0.987   0.915  12.312  0.5324  0.0061  0.4770
 2797SOL     OW19849   4.536   1.273   3.456 -0.2318 -0.0043  0.2727
 2797SOL    HW119850   4.566   1.265   3.547  0.8927 -0.7243 -0.1560
 2797SOL    HW219851   4.592   1.204   3.419  1.3435  0.9174  0.9169
 2798SOL     OW19852   1.476   3.598   8.292  0.3756  0.2009  0.3590
 2798SOL    HW119853   1.383   3.585   8.275  0.3814  0.4863  0.1048
 2798SOL    HW219854   1.519   3.587   8.207 -0.1775 -0.2869  0.1469
 2799SOL     OW19855   1.934   4.621   7.256 -0.1408  0.2835 -0.3075
 2799SOL    HW119856   1.988   4.686   7.209 -0.9832  2.7233  2.0991
 2799SOL    HW219857   1.847   4.656   7.237  0.2315  2.0485  1.2297
 2800SOL     OW19858   0.016   3.079  10.706  0.3624 -0.3413  0.0901
 2800SOL    HW119859   4.676   3.047  10.640  1.5316  0.4061 -1.3715
 2800SOL    HW219860   0.100   3.105  10.668  1.1609  1.1003  2.7994
 2801SOL     OW19861   0.348   3.112  12.038 -0.1009 -0.1352  0.7816
 2801SOL    HW119862   0.278   3.172  12.014 -0.8423 -1.3391 -0.0821
 2801SOL    HW219863   0.391   3.170  12.101 -0.3672  2.1360 -1.1105
 2802SOL     OW19864   2.981   4.385  10.332 -0.4935  0.0509 -0.1878
 2802SOL    HW119865   2.975   4.464  10.278  0.9285  1.1475  1.2390
 2802SOL    HW219866   3.070   4.362  10.307 -0.6402  0.3666 -1.0053
 2803SOL     OW19867   2.530   1.608  10.773  0.2271  0.2073 -0.5136
 2803SOL    HW119868   2.515   1.666  10.847  0.8086  1.0764 -1.0715
 2803SOL    HW219869   2.488   1.530  10.808  2.1578 -0.6034 -0.0411
 2804SOL     OW19870   0.022   2.828  13.847 -0.2766 -0.0318  0.3689
 2804SOL    HW119871   4.677   2.769  13.885  1.8054 -2.8069 -0.3055
 2804SOL    HW219872   4.688   2.871  13.782 -0.6322 -0.8018  0.1534
 2805SOL     OW19873   3.604   0.457  10.884  0.0730 -0.1696 -0.3302
 2805SOL    HW119874   3.516   0.481  10.855  0.8336  1.1289 -1.5734
 2805SOL    HW219875   3.603   0.498  10.970  2.2756  1.6572 -1.1686
 2806SOL     OW19876   3.222   2.748   4.352 -0.1171  0.2595  0.1315
 2806SOL    HW119877   3.282   2.732   4.279  1.2419  1.3737  1.0245
 2806SOL    HW219878   3.189   2.658   4.362 -1.3115  0.8381  1.3377
 2807SOL     OW19879   4.589   3.084  17.588  0.2695 -0.0618 -0.4415
 2807SOL    HW119880   4.631   3.168  17.611 -1.0990  0.6094 -0.4114
 2807SOL    HW219881   4.508   3.113  17.547  1.5879  1.1166 -2.2168
 2808SOL     OW19882   0.226   2.023   4.813 -0.0798  0.2342  0.1888
 2808SOL    HW119883   0.253   2.046   4.724 -1.7780  1.4399 -0.0193
 2808SOL    HW219884   0.270   1.938   4.820 -0.8917  0.0650  3.1476
 2809SOL     OW19885   0.280   1.507   1.807 -0.5643 -0.0920 -0.4208
 2809SOL    HW119886   0.277   1.570   1.735 -1.5163  0.3391 -0.0001
 2809SOL    HW219887   0.229   1.558   1.870  0.6112  1.4009 -0.6824
 2810SOL     OW19888   4.447   4.476   6.507  0.2836  0.2440  0.0236
 2810SOL    HW119889   4.424   4.397   6.459 -0.1580  0.8540 -0.7612
 2810SOL    HW219890   4.442   4.450   6.599  2.2056  0.7183  0.2798
 2811SOL     OW19891   3.237   4.141  12.793  0.0541 -0.4061 -0.1859
 2811SOL    HW119892   3.184   4.065  12.769 -0.4363  0.1417 -0.8470
 2811SOL    HW219893   3.185   4.180  12.863  0.8556 -0.0361  0.2079
 2812SOL     OW19894   1.040   3.776   8.478 -0.3426 -0.2993 -0.0287
 2812SOL    HW119895   1.085   3.854   8.511 -0.3761 -0.1971 -0.2246
 2812SOL    HW219896   1.058   3.713   8.548 -0.2187 -1.6382 -1.2626
 2813SOL     OW19897   0.458   3.338   6.664  0.1596 -0.4415 -0.0323
 2813SOL    HW119898   0.435   3.394   6.738 -1.4848 -0.8096 -0.2504
 2813SOL    HW219899   0.544   3.307   6.692  0.5536 -1.0457 -1.9320
 2814SOL     OW19900   2.728   3.055   0.566  0.2351 -0.5183 -0.0915
 2814SOL    HW119901   2.706   2.965   0.542  0.2358 -0.3269 -0.8162
 2814SOL    HW219902   2.784   3.083   0.494  1.5613  1.8335  1.8248
 2815SOL     OW19903   4.217   3.047   5.433  0.2466  0.3364  0.2441
 2815SOL    HW119904   4.273   3.119   5.462 -0.5834  1.4180 -0.8467
 2815SOL    HW219905   4.162   3.086   5.364  1.9607  0.7859 -0.8639
 2816SOL     OW19906   3.907   3.695   3.562  0.3298 -0.7134  0.2631
 2816SOL    HW119907   3.835   3.746   3.526 -0.1461 -0.7891  1.1055
 2816SOL    HW219908   3.860   3.633   3.618 -0.5955 -0.8408 -0.6574
 2817SOL     OW19909   0.292   2.781   1.238 -0.2628  0.1147 -0.0048
 2817SOL    HW119910   0.210   2.792   1.286 -1.3571  1.5197 -2.2166
 2817SOL    HW219911   0.266   2.743   1.155  0.5767  1.9217 -1.1024
 2818SOL     OW19912   3.117   0.962   4.478 -0.1295  0.3653 -0.2870
 2818SOL    HW119913   3.076   0.888   4.432  0.2379 -0.1526  0.2222
 2818SOL    HW219914   3.042   1.021   4.466 -1.6109 -1.7903 -1.7061
 2819SOL     OW19915   1.796   3.298   5.143  0.2571 -0.1939 -0.3419
 2819SOL    HW119916   1.879   3.345   5.153 -0.2726  1.0191 -1.7563
 2819SOL    HW219917   1.754   3.307   5.229  2.0199  0.7853  0.4266
 2820SOL     OW19918   3.361   0.881   2.637 -0.1403  0.1400 -0.7447
 2820SOL    HW119919   3.289   0.927   2.682  1.3916  2.9499 -1.1369
 2820SOL    HW219920   3.409   0.850   2.714 -0.7101 -0.0924 -0.4839
 2821SOL     OW19921   2.297   2.996  17.248 -0.5724  0.1815  0.4489
 2821SOL    HW119922   2.314   3.083  17.211  2.2435 -1.4511 -2.0491
 2821SOL    HW219923   2.202   2.995  17.259 -0.4472 -0.2483  1.4586
 2822SOL     OW19924   3.634   0.189   5.035  0.1433 -0.3454 -0.1016
 2822SOL    HW119925   3.587   0.107   5.020  1.3973 -0.8834 -1.1694
 2822SOL    HW219926   3.722   0.165   5.065  0.2329 -0.9551 -0.8463
 2823SOL     OW19927   0.808   0.165   9.672 -0.0301 -0.2220 -0.1401
 2823SOL    HW119928   0.723   0.180   9.713 -0.6952 -1.0219 -1.2230
 2823SOL    HW219929   0.846   0.249   9.697  0.8850 -0.8163  0.4938
 2824SOL     OW19930   2.913   0.330  12.368  0.2708  0.2328  0.4924
 2824SOL    HW119931   2.951   0.266  12.308  1.4772 -1.0038  2.5992
 2824SOL    HW219932   2.986   0.333  12.429  0.8788 -0.6848 -0.2024
 2825SOL     OW19933   2.808   4.629  15.227  0.4563 -0.5579 -0.4237
 2825SOL    HW119934   2.870   4.682  15.177  0.2593 -0.6175 -0.7281
 2825SOL    HW219935   2.821   4.665  15.315 -0.9106 -1.1925  0.0326
 2826SOL     OW19936   1.523   4.573   5.799 -0.0485 -0.3845 -0.4537
 2826SOL    HW119937   1.550   4.664   5.786  1.4065 -0.4643  2.0064
 2826SOL    HW219938   1.526   4.554   5.893  0.3205  0.0357 -0.3826
 2827SOL     OW19939   3.310   1.512   8.379  0.3446 -0.1586 -0.7346
 2827SOL    HW119940   3.319   1.455   8.456  3.7351 -1.3299 -2.0141
 2827SOL    HW219941   3.218   1.512   8.354  0.2384  0.6545 -0.3632
 2828SOL     OW19942   4.345   4.062  14.739 -0.2388  0.0257  0.1837
 2828SOL    HW119943   4.400   4.086  14.814 -1.5785  2.0912  0.5166
 2828SOL    HW219944   4.406   4.052  14.667 -0.5916 -1.7664  0.1542
 2829SOL     OW19945   1.737   1.507  17.632  0.1352 -0.0016 -0.1580
 2829SOL    HW119946   1.688   1.565   0.002  0.2769  1.2296 -1.2713
 2829SOL    HW219947   1.669   1.451  17.596 -0.4424 -0.1226  1.1022
 2830SOL     OW19948   2.823   1.743   0.135  0.4399  0.2785 -0.6372
 2830SOL    HW119949   2.868   1.826   0.118  1.0609  0.0511 -0.0952
 2830SOL    HW219950   2.734   1.760   0.104  0.1885  1.9920  0.9742
 2831SOL     OW19951   1.740   1.888   7.235 -0.1312 -0.3018 -0.0165
 2831SOL    HW119952   1.775   1.803   7.208  0.0529 -0.2176 -0.0429
 2831SOL    HW219953   1.751   1.879   7.330 -2.5660 -1.6368  0.1340
 2832SOL     OW19954   2.705   4.173   1.554  0.3439 -0.7877 -0.4325
 2832SOL    HW119955   2.633   4.114   1.530 -0.0005 -0.7815  0.5970
 2832SOL    HW219956   2.651   4.252   1.563  1.0842 -0.3466  0.1111
 2833SOL     OW19957   0.748   0.467   1.879 -0.3922  0.2138 -0.1000
 2833SOL    HW119958   0.715   0.521   1.808 -0.1727  0.7640  0.2201
 2833SOL    HW219959   0.726   0.527   1.950  0.3129 -0.6473  0.8438
 2834SOL     OW19960   0.954   0.707   5.742  0.5977  0.5777 -0.3836
 2834SOL    HW119961   1.045   0.722   5.766  0.7366  1.7486 -1.6190
 2834SOL    HW219962   0.930   0.799   5.729 -1.3481 -0.0631 -1.4484
 2835SOL     OW19963   1.851   3.557  15.269  0.1191  0.2303 -0.4579
 2835SOL    HW119964   1.757   3.550  15.253  0.0223 -2.3849  1.2474
 2835SOL    HW219965   1.854   3.648  15.298 -0.2759 -0.2989  1.2468
 2836SOL     OW19966   1.106   1.519  10.083  0.0376  0.0459 -0.1370
 2836SOL    HW119967   1.019   1.557  10.069  0.3186  0.2867 -1.2355
 2836SOL    HW219968   1.107   1.500  10.177  0.8913  0.2313 -0.1052
 2837SOL     OW19969   2.631   1.994   5.775  0.4937 -0.3022 -0.6248
 2837SOL    HW119970   2.585   2.009   5.857  3.0941 -1.1604  1.0012
 2837SOL    HW219971   2.718   2.024   5.801  0.2401 -0.2663  0.1697
 2838SOL     OW19972   2.858   1.768  16.551  0.4209  0.0740 -0.3157
 2838SOL    HW119973   2.861   1.764  16.456 -0.6001 -0.9306 -0.3016
 2838SOL    HW219974   2.946   1.747  16.583  0.5243  0.1404 -0.5611
 2839SOL     OW19975   1.726   3.151   9.794  0.2389  0.1591  0.5370
 2839SOL    HW119976   1.774   3.069   9.792  0.7706  0.4761  0.3028
 2839SOL    HW219977   1.785   3.199   9.852  2.1563 -1.4177 -0.0970
 2840SOL     OW19978   1.209   0.981   2.235 -0.0190 -0.2320 -0.1203
 2840SOL    HW119979   1.156   1.022   2.167  0.2823  0.9512  0.3541
 2840SOL    HW219980   1.298   0.968   2.202  0.8480  0.1811  2.1057
 2841SOL     OW19981   4.436   0.816   6.505 -0.0309  0.5349 -0.1579
 2841SOL    HW119982   4.346   0.834   6.479  0.6870  0.2910 -2.8106
 2841SOL    HW219983   4.418   0.744   6.566 -0.5358 -0.6476 -1.7029
 2842SOL     OW19984   3.186   4.581   9.871 -0.5309  0.2298 -0.2552
 2842SOL    HW119985   3.144   4.666   9.882 -0.7334  0.3643 -2.1557
 2842SOL    HW219986   3.247   4.596   9.799 -1.6812  0.8434 -1.1033
 2843SOL     OW19987   2.268   0.076   6.317 -0.1858  0.8299 -0.1255
 2843SOL    HW119988   2.349   0.042   6.355  0.6837  1.4534 -1.4121
 2843SOL    HW219989   2.264   0.008   6.250  1.9221  0.0759  0.5062
 2844SOL     OW19990   3.984   1.167   6.837  0.2364 -0.5524 -0.0667
 2844SOL    HW119991   4.050   1.168   6.768 -1.1499 -1.9456 -1.3983
 2844SOL    HW219992   3.923   1.221   6.787 -0.0862 -0.5343  0.3418
 2845SOL     OW19993   3.788   0.648   1.855 -0.1895  0.2403  0.2692
 2845SOL    HW119994   3.772   0.667   1.948 -0.9167 -0.0596  0.2101
 2845SOL    HW219995   3.865   0.700   1.833 -0.2638  1.6984  3.4763
 2846SOL     OW19996   2.806   0.053   5.719 -0.0980  0.1856  0.2622
 2846SOL    HW119997   2.741   4.710   5.691  0.9534  0.0583 -1.9062
 2846SOL    HW219998   2.802   0.068   5.814 -1.7644 -0.3793  0.2885
 2847SOL     OW19999   3.737   3.907   3.501  0.1952  0.0418 -0.6227
 2847SOL    HW120000   3.794   3.983   3.491 -1.9052  1.9956  2.2776
 2847SOL    HW220001   3.656   3.955   3.483 -0.0327 -0.7659 -1.6981
 2848SOL     OW20002   3.171   3.759   4.615 -0.1297  0.6829  0.0477
 2848SOL    HW120003   3.121   3.840   4.602  0.8954  1.4546  0.9047
 2848SOL    HW220004   3.155   3.728   4.704 -2.0816 -0.1292 -0.5932
 2849SOL     OW20005   3.523   1.619   5.110  0.0733 -0.1669  0.3603
 2849SOL    HW120006   3.602   1.581   5.070  0.3238 -0.9160  1.5441
 2849SOL    HW220007   3.464   1.547   5.131 -1.5182  0.9942 -0.2002
 2850SOL     OW20008   0.319   4.601   3.451  0.6305  0.3181  0.2176
 2850SOL    HW120009   0.322   4.521   3.503 -1.0085  1.0995  1.5210
 2850SOL    HW220010   0.281   4.666   3.510  0.1700 -0.3401  0.6401
 2851SOL     OW20011   3.533   3.965  11.875  0.0151  0.7394 -0.6984
 2851SOL    HW120012   3.439   3.956  11.857  0.1563  0.5945 -1.3507
 2851SOL    HW220013   3.538   4.047  11.924  1.8954 -0.5912  1.3372
 2852SOL     OW20014   3.031   1.221  11.145 -0.4401  0.1303  0.3833
 2852SOL    HW120015   3.068   1.238  11.232  0.3866 -0.8333  0.2193
 2852SOL    HW220016   3.053   1.128  11.135  1.9360  0.6728  0.5533
 2853SOL     OW20017   1.219   2.856  10.202  0.5678  0.4151  0.0776
 2853SOL    HW120018   1.270   2.789  10.157 -0.2845  2.6278 -4.2598
 2853SOL    HW220019   1.277   2.932  10.191  0.5578  0.5730  1.1383
 2854SOL     OW20020   0.118   1.001   0.245  0.2289 -0.4601  0.8228
 2854SOL    HW120021   0.196   0.946   0.250 -0.1536 -1.0990 -0.2186
 2854SOL    HW220022   0.148   1.090   0.223 -0.5553 -0.2628  0.5279
 2855SOL     OW20023   2.332   0.400  17.351 -0.0630 -0.5185 -0.0706
 2855SOL    HW120024   2.427   0.408  17.354 -0.1475  0.0403  1.2004
 2855SOL    HW220025   2.297   0.370  17.435  1.0689 -1.3916  0.0931
 2856SOL     OW20026   1.105   4.147   5.870 -0.5315  0.9334 -0.0965
 2856SOL    HW120027   1.190   4.185   5.848 -0.7660  1.5546  0.0380
 2856SOL    HW220028   1.133   4.087   5.939  1.2414  3.0462  1.0599
 2857SOL     OW20029   2.498   1.980  11.922 -0.0956  0.5603 -0.1052
 2857SOL    HW120030   2.455   2.032  11.990  1.8322 -2.1916  3.1938
 2857SOL    HW220031   2.435   1.914  11.895  0.8181 -0.1444 -0.5226
 2858SOL     OW20032   2.966   0.685   4.102 -0.3131 -0.1388 -0.1033
 2858SOL    HW120033   3.005   0.598   4.109  2.7128  1.4142  2.5742
 2858SOL    HW220034   3.042   0.728   4.062 -0.4474  0.6876  0.5222
 2859SOL     OW20035   4.232   0.839   2.777 -0.1473  0.5325  0.1911
 2859SOL    HW120036   4.161   0.846   2.714  0.3993  0.7159 -0.4034
 2859SOL    HW220037   4.265   0.751   2.760 -1.5747  0.3023 -1.3399
 2860SOL     OW20038   4.236   3.218   8.955  0.1594  0.3598 -0.1667
 2860SOL    HW120039   4.325   3.242   8.931  0.9306 -1.7629  0.5928
 2860SOL    HW220040   4.259   3.143   9.010  2.0633  0.3215 -1.0330
 2861SOL     OW20041   2.036   2.713   4.925  0.7954 -0.6844  0.4793
 2861SOL    HW120042   1.962   2.664   4.889 -0.9892  2.5253 -0.1593
 2861SOL    HW220043   2.091   2.719   4.847  2.2031 -0.5819  1.4711
 2862SOL     OW20044   3.122   4.231   1.879  0.3244  0.3435  0.1834
 2862SOL    HW120045   3.173   4.310   1.895 -0.8007  0.8788  1.1275
 2862SOL    HW220046   3.034   4.267   1.889 -0.0598 -1.0092  1.5603
 2863SOL     OW20047   2.701   1.547  16.785  0.4703 -0.0918 -0.2361
 2863SOL    HW120048   2.649   1.528  16.707 -0.0437  0.9691 -0.1435
 2863SOL    HW220049   2.782   1.591  16.760  1.1288 -1.1822 -0.0477
 2864SOL     OW20050   3.926   0.318   7.994 -0.1176  0.7462 -0.4778
 2864SOL    HW120051   3.850   0.375   8.005  0.1967  0.9220  0.8269
 2864SOL    HW220052   3.939   0.282   8.082 -2.1132  0.0011 -0.4905
 2865SOL     OW20053   3.325   0.427   7.441 -0.0119  0.2955 -0.6882
 2865SOL    HW120054   3.350   0.444   7.350  1.4041  1.0624 -0.1616
 2865SOL    HW220055   3.254   0.365   7.424 -2.0135  2.7260 -1.1521
 2866SOL     OW20056   4.605   3.176   2.034 -0.0355 -0.1930  0.1201
 2866SOL    HW120057   4.556   3.105   2.075 -0.0519 -0.6239 -0.6606
 2866SOL    HW220058   4.539   3.240   2.061 -0.1435  1.5901 -4.3956
 2867SOL     OW20059   0.415   2.609  17.298  0.0676  0.2526  0.5842
 2867SOL    HW120060   0.353   2.671  17.336 -1.2230 -0.1480 -0.9048
 2867SOL    HW220061   0.355   2.540  17.270  1.2685 -0.3296 -0.5676
 2868SOL     OW20062   2.750   1.564   6.177 -0.1739 -0.1974  0.0868
 2868SOL    HW120063   2.771   1.556   6.270  3.1529 -0.8658 -0.7077
 2868SOL    HW220064   2.657   1.545   6.172  0.1940 -2.1909  0.8771
 2869SOL     OW20065   2.886   2.068  13.628  0.2947  0.1638 -0.5687
 2869SOL    HW120066   2.938   1.993  13.654  0.8401  1.3642  1.7738
 2869SOL    HW220067   2.819   2.080  13.696  0.9854 -0.4322  0.2200
 2870SOL     OW20068   3.589   0.327   4.477  0.1348 -0.4977 -0.4684
 2870SOL    HW120069   3.583   0.316   4.572 -2.1439 -2.2700 -0.8114
 2870SOL    HW220070   3.613   0.236   4.461  2.0437  0.2160 -1.6751
 2871SOL     OW20071   0.311   2.254  12.993 -0.2578  0.0942  0.0390
 2871SOL    HW120072   0.367   2.239  12.916 -1.4297  1.3382 -1.0463
 2871SOL    HW220073   0.273   2.167  13.002  1.7407 -0.6607  1.1148
 2872SOL     OW20074   3.132   2.737   8.258  0.2351  0.6526 -0.0524
 2872SOL    HW120075   3.180   2.756   8.339  0.3872 -0.4047  0.1129
 2872SOL    HW220076   3.168   2.651   8.235  0.4026  0.8105 -0.3773
 2873SOL     OW20077   2.002   0.339  11.739 -0.3252 -0.0727 -0.0880
 2873SOL    HW120078   2.050   0.319  11.819 -1.6462  0.9107  0.9330
 2873SOL    HW220079   1.913   0.306  11.752  0.1593 -1.2664  0.1958
 2874SOL     OW20080   0.156   3.292  11.982  0.2108 -0.0851  0.3835
 2874SOL    HW120081   0.063   3.300  11.960  1.4030  1.0604 -4.1407
 2874SOL    HW220082   0.197   3.317  11.900 -0.8367  0.5336  0.0466
 2875SOL     OW20083   1.333   4.300   5.796 -0.2841  0.7167 -0.1015
 2875SOL    HW120084   1.420   4.285   5.831 -0.0253  0.7237 -0.7432
 2875SOL    HW220085   1.328   4.396   5.788  0.9607  0.9736  2.1221
 2876SOL     OW20086   4.385   3.098  16.976 -0.3622  0.2193  0.4462
 2876SOL    HW120087   4.382   3.022  16.918 -3.5270  0.9524 -0.3492
 2876SOL    HW220088   4.312   3.150  16.942 -1.5450 -1.5030  0.3319
 2877SOL     OW20089   0.574   3.343  10.002 -0.3848 -0.4092 -0.3715
 2877SOL    HW120090   0.634   3.287   9.954 -0.5297 -0.6078 -0.3183
 2877SOL    HW220091   0.506   3.283  10.032 -1.8270  1.0897 -0.6264
 2878SOL     OW20092   2.386   2.892  11.263  0.5421 -0.6258  1.0793
 2878SOL    HW120093   2.479   2.898  11.283  1.0307  0.8003 -1.5560
 2878SOL    HW220094   2.370   2.799  11.274 -1.9614 -0.3036  0.2148
 2879SOL     OW20095   1.114   1.305   5.182  0.1087 -0.4493 -0.0613
 2879SOL    HW120096   1.060   1.365   5.131 -0.5301 -0.8456  0.1530
 2879SOL    HW220097   1.153   1.365   5.246  0.5199 -0.3277 -0.4239
 2880SOL     OW20098   3.056   4.440   7.279 -0.4651 -0.3470 -0.5189
 2880SOL    HW120099   3.064   4.345   7.290  0.9506  0.1535  2.7264
 2880SOL    HW220100   3.102   4.459   7.361 -0.5664 -0.8446 -0.3498
 2881SOL     OW20101   0.980   2.803   4.305  0.1618 -0.5015  0.2639
 2881SOL    HW120102   1.074   2.818   4.302 -0.0635  0.7457 -0.5447
 2881SOL    HW220103   0.982   2.736   4.237 -0.5321 -1.3165  1.0459
 2882SOL     OW20104   0.764   3.764   4.860  1.0233 -0.0450  0.0367
 2882SOL    HW120105   0.747   3.854   4.888 -0.6652  0.1020 -1.4362
 2882SOL    HW220106   0.801   3.785   4.774 -0.6679 -0.6138 -0.8220
 2883SOL     OW20107   2.486   0.635   6.487 -0.6585 -0.0163 -0.0814
 2883SOL    HW120108   2.402   0.682   6.488  0.6593  2.3159 -1.0002
 2883SOL    HW220109   2.474   0.550   6.530 -1.7366  0.6611  0.9671
 2884SOL     OW20110   2.466   3.042   4.767  0.4295  0.9515  0.0869
 2884SOL    HW120111   2.373   3.046   4.788  0.2956 -1.9335  0.0746
 2884SOL    HW220112   2.451   3.007   4.678 -2.0631 -1.2736  1.3663
 2885SOL     OW20113   3.187   1.553   6.319  0.0740  0.0915 -0.4294
 2885SOL    HW120114   3.191   1.464   6.284 -2.8761 -0.3950  0.4453
 2885SOL    HW220115   3.131   1.596   6.255  0.3308 -1.2489 -1.5569
 2886SOL     OW20116   0.112   4.397   2.246  0.2561 -0.2942 -0.2098
 2886SOL    HW120117   0.050   4.426   2.312 -0.6801 -0.1965 -1.1238
 2886SOL    HW220118   0.092   4.303   2.242  2.2271 -0.7376  0.5622
 2887SOL     OW20119   2.893   3.969   5.136  0.1540  0.1388  0.3086
 2887SOL    HW120120   2.985   3.957   5.111  0.2790 -0.2042  0.9379
 2887SOL    HW220121   2.850   3.986   5.053 -1.4217  1.9511  1.5001
 2888SOL     OW20122   1.589   2.387   2.612 -0.4381  0.3363 -0.4434
 2888SOL    HW120123   1.651   2.460   2.609 -0.0791  0.0468 -0.0904
 2888SOL    HW220124   1.508   2.429   2.580 -0.6191  0.8942  0.7294
 2889SOL     OW20125   3.509   4.705  10.561  0.6442 -0.5856 -0.4924
 2889SOL    HW120126   3.581   0.046  10.569  0.5991 -0.7814  1.5108
 2889SOL    HW220127   3.488   4.688  10.653  1.3153  0.8325 -0.0871
 2890SOL     OW20128   1.683   0.196   8.659  0.2695 -0.2888 -0.1045
 2890SOL    HW120129   1.691   0.288   8.631 -0.5608  0.0364  0.7336
 2890SOL    HW220130   1.744   0.171   8.589  1.5111 -0.1066  0.8944
 2891SOL     OW20131   0.138   3.295   3.826 -0.1200 -0.0166  0.3974
 2891SOL    HW120132   0.120   3.388   3.817 -1.0495 -0.2968 -0.7041
 2891SOL    HW220133   0.228   3.289   3.858 -1.0627  0.7163  3.2304
 2892SOL     OW20134   3.363   2.070   6.068  0.4711  0.4575 -0.0376
 2892SOL    HW120135   3.325   2.122   6.139  0.8223 -0.7149  0.9832
 2892SOL    HW220136   3.444   2.040   6.108  0.4560  0.1733 -0.2239
 2893SOL     OW20137   1.596   0.394   5.308 -0.2427  0.4816 -0.1333
 2893SOL    HW120138   1.612   0.431   5.222 -1.2500 -1.1298 -1.0027
 2893SOL    HW220139   1.643   0.311   5.307 -0.1147  0.5180  1.6985
 2894SOL     OW20140   1.254   0.585  14.074  0.0424 -0.4448  0.1464
 2894SOL    HW120141   1.223   0.498  14.048 -2.7781  1.1837 -1.9817
 2894SOL    HW220142   1.165   0.617  14.088  0.1896  0.5615 -1.1925
 2895SOL     OW20143   2.514   0.359   5.464  0.5887  0.8481 -0.3365
 2895SOL    HW120144   2.467   0.297   5.519  3.1462  0.5149  1.4587
 2895SOL    HW220145   2.603   0.334   5.487  0.3167 -0.7159 -0.9617
 2896SOL     OW20146   3.093   3.295   3.903 -0.3494  0.5298 -0.0924
 2896SOL    HW120147   3.071   3.374   3.855  4.5360  1.2388 -1.2193
 2896SOL    HW220148   3.165   3.318   3.963 -0.4366 -1.6329  0.8727
 2897SOL     OW20149   2.210   4.147   6.856 -0.2278 -0.3416 -0.3815
 2897SOL    HW120150   2.189   4.113   6.943 -1.5393  1.0936 -0.1347
 2897SOL    HW220151   2.224   4.238   6.881  0.5075 -0.4886 -0.2566
 2898SOL     OW20152   1.736   3.310   7.098  0.8454 -0.0737  0.0335
 2898SOL    HW120153   1.668   3.359   7.053  0.5096 -1.3202 -0.8206
 2898SOL    HW220154   1.786   3.387   7.127  3.0375 -0.4253 -2.7948
 2899SOL     OW20155   1.147   4.591   2.536 -0.0011  0.4788  0.8039
 2899SOL    HW120156   1.118   4.653   2.469  0.3248  0.2754  0.4702
 2899SOL    HW220157   1.084   4.606   2.607 -2.2360  0.7070 -1.2389
 2900SOL     OW20158   2.842   2.615  12.195 -0.2643 -0.2616  0.7328
 2900SOL    HW120159   2.765   2.559  12.184 -0.8247  0.8131 -0.8342
 2900SOL    HW220160   2.871   2.583  12.280 -1.3537  0.7010  1.4636
 2901SOL     OW20161   4.684   1.402  13.791  0.4495 -0.6028 -0.1565
 2901SOL    HW120162   4.650   1.387  13.703  0.9358  1.5811 -0.7342
 2901SOL    HW220163   4.622   1.351  13.843 -0.0690 -0.0737 -0.2471
 2902SOL     OW20164   1.525   0.019   7.444  0.3469 -0.3321 -0.2268
 2902SOL    HW120165   1.500   0.106   7.411 -0.6479 -1.2223 -1.8494
 2902SOL    HW220166   1.469   4.719   7.518  1.7817 -0.5938  0.7771
 2903SOL     OW20167   4.534   3.721   2.864 -0.0392  0.0451 -0.6675
 2903SOL    HW120168   4.555   3.778   2.938 -1.1796  1.9920 -1.8461
 2903SOL    HW220169   4.442   3.744   2.847 -0.8230 -1.4757  1.4956
 2904SOL     OW20170   1.620   2.945   0.851  0.4899 -0.0674  0.8361
 2904SOL    HW120171   1.665   3.012   0.799  0.0996 -1.1732 -0.9045
 2904SOL    HW220172   1.584   3.007   0.915 -0.4028 -0.3302  0.5792
 2905SOL     OW20173   1.267   3.845   9.697  0.1838  0.1196  0.3752
 2905SOL    HW120174   1.358   3.875   9.690 -0.6674  2.2957 -1.4213
 2905SOL    HW220175   1.220   3.926   9.717  0.2458  0.2422  0.0161
 2906SOL     OW20176   1.011   1.997   6.832 -0.7255  0.0359  0.0594
 2906SOL    HW120177   0.959   1.992   6.912  0.5150  3.6917  1.1254
 2906SOL    HW220178   1.055   2.081   6.844  0.6952 -0.8666  1.1489
 2907SOL     OW20179   3.949   3.703   2.239 -0.1366 -0.7243 -0.1764
 2907SOL    HW120180   4.003   3.750   2.176  0.0580 -0.7878 -0.0579
 2907SOL    HW220181   3.988   3.616   2.247  1.5043  0.0828  0.6804
 2908SOL     OW20182   1.550   3.833   4.624  0.2870 -0.0125 -0.1761
 2908SOL    HW120183   1.623   3.776   4.647  0.0050  0.0184  0.8172
 2908SOL    HW220184   1.536   3.872   4.711  0.3985  1.5443 -0.8474
 2909SOL     OW20185   1.056   3.050   2.481  0.1976 -0.0480  0.4118
 2909SOL    HW120186   0.969   3.084   2.458 -0.1025 -0.6259  0.6907
 2909SOL    HW220187   1.107   3.056   2.400 -1.6024 -2.2158 -0.8607
 2910SOL     OW20188   2.441   0.281  13.457  0.6333  0.1085 -0.1237
 2910SOL    HW120189   2.431   0.347  13.389 -0.2538 -0.4797 -0.5678
 2910SOL    HW220190   2.502   0.327  13.515  1.1839 -1.4697  0.5563
 2911SOL     OW20191   1.756   3.777   2.403  0.1305  0.0452  0.0706
 2911SOL    HW120192   1.699   3.808   2.332  0.0819 -0.9174 -0.3155
 2911SOL    HW220193   1.690   3.725   2.449 -2.0338  0.8154 -2.1408
 2912SOL     OW20194   2.013   3.645  14.761  0.1034  0.3434 -0.1152
 2912SOL    HW120195   1.984   3.576  14.702  0.9195 -1.7046  1.9051
 2912SOL    HW220196   2.090   3.678  14.715  1.8511 -2.8142  0.5816
 2913SOL     OW20197   2.250   2.652   5.156  0.4509 -0.0430  0.1526
 2913SOL    HW120198   2.332   2.659   5.108  0.6499  1.9778  0.7704
 2913SOL    HW220199   2.201   2.726   5.120 -0.0359 -1.8480 -2.9228
 2914SOL     OW20200   3.125   3.401   2.509  0.6464 -0.0961  0.7677
 2914SOL    HW120201   3.122   3.473   2.571  0.9372  2.3025 -2.0044
 2914SOL    HW220202   3.050   3.344   2.525  2.2166 -3.0766 -2.3482
 2915SOL     OW20203   3.040   4.224  17.228  0.2821 -0.0367 -0.6553
 2915SOL    HW120204   3.109   4.159  17.225  1.4456  1.1475  0.4261
 2915SOL    HW220205   3.094   4.291  17.268 -1.1617  0.3763  0.6186
 2916SOL     OW20206   1.867   1.739   5.022 -0.6007  0.6585  0.0107
 2916SOL    HW120207   1.930   1.811   5.015 -0.6695  0.6593 -0.5585
 2916SOL    HW220208   1.861   1.731   5.118 -0.7033  0.4953 -0.0105
 2917SOL     OW20209   3.696   0.568   7.768 -0.0031 -1.1220  0.4600
 2917SOL    HW120210   3.765   0.611   7.717  1.1776 -1.8838  1.4186
 2917SOL    HW220211   3.642   0.523   7.703 -1.5837  0.2843  0.7978
 2918SOL     OW20212   1.175   4.384  10.480  0.1686  0.8474 -0.1233
 2918SOL    HW120213   1.206   4.458  10.428 -0.0679  1.8047  1.0818
 2918SOL    HW220214   1.095   4.413  10.523 -0.3171 -1.0349  0.2366
 2919SOL     OW20215   3.751   1.205   8.248 -0.2506 -0.1841  0.0541
 2919SOL    HW120216   3.830   1.205   8.301  0.1691 -0.6142 -0.5698
 2919SOL    HW220217   3.689   1.225   8.318  0.1698 -0.1385  0.4115
 2920SOL     OW20218   3.602   4.221   7.862 -0.2923  0.0074  0.0062
 2920SOL    HW120219   3.648   4.240   7.944  1.4267 -1.3282 -0.6397
 2920SOL    HW220220   3.662   4.185   7.796  0.1389  0.4633  0.1466
 2921SOL     OW20221   2.069   2.780   9.646 -0.6171  0.6867  0.5208
 2921SOL    HW120222   2.152   2.779   9.598 -0.6450  2.6222  0.4540
 2921SOL    HW220223   2.095   2.796   9.737 -0.3144  0.5507  0.4577
 2922SOL     OW20224   3.722   2.006   4.239  0.0141  0.7009 -0.0400
 2922SOL    HW120225   3.706   1.991   4.146 -1.1048 -0.7798  0.3956
 2922SOL    HW220226   3.815   2.031   4.241  0.4194 -0.9328  1.3910
 2923SOL     OW20227   3.841   2.973  14.452  0.1413 -0.6504  0.0419
 2923SOL    HW120228   3.855   3.055  14.498 -0.1338  0.3271 -1.5975
 2923SOL    HW220229   3.893   2.987  14.373  0.1455  0.8316  0.3076
 2924SOL     OW20230   1.570   0.612   6.499  0.0235  0.0559 -0.5284
 2924SOL    HW120231   1.527   0.596   6.583  2.2360  0.3067  0.6750
 2924SOL    HW220232   1.508   0.578   6.435  0.1462  1.7147 -1.5419
 2925SOL     OW20233   2.843   3.006  11.731 -0.6050  0.0922  0.0109
 2925SOL    HW120234   2.876   3.038  11.815  0.0019  0.5603 -0.3975
 2925SOL    HW220235   2.889   3.058  11.665  0.3352 -1.3203 -0.4306
 2926SOL     OW20236   3.645   1.072   3.913 -0.0048 -0.0542  0.6032
 2926SOL    HW120237   3.717   1.023   3.952 -0.2194 -1.2321 -0.4787
 2926SOL    HW220238   3.575   1.062   3.978  0.9958  1.3206  1.8802
 2927SOL     OW20239   4.406   3.703  13.739 -0.1253  0.0256  0.3645
 2927SOL    HW120240   4.465   3.727  13.809 -0.2722  0.3735  0.3669
 2927SOL    HW220241   4.384   3.619  13.780  0.0570 -0.2349 -0.0704
 2928SOL     OW20242   1.257   3.595   9.803 -0.4638  0.2244 -0.9188
 2928SOL    HW120243   1.280   3.569   9.714  1.5674 -0.5288 -0.1768
 2928SOL    HW220244   1.266   3.689   9.788  0.4941  0.3327  0.3676
 2929SOL     OW20245   0.916   3.636   2.508  0.0612 -0.0072  0.8927
 2929SOL    HW120246   0.879   3.600   2.589  0.1032 -1.3599  0.3088
 2929SOL    HW220247   0.943   3.550   2.477 -0.8026  0.4325 -1.0873
 2930SOL     OW20248   1.676   2.903   6.353 -0.0844 -0.4682 -0.2604
 2930SOL    HW120249   1.695   2.990   6.318  0.2161 -0.2823  0.3786
 2930SOL    HW220250   1.649   2.859   6.273  0.6966 -1.1022 -0.1747
 2931SOL     OW20251   4.670   0.842   7.654  0.0635  0.0713 -0.0063
 2931SOL    HW120252   4.581   0.825   7.625 -0.3190  1.4785  0.3709
 2931SOL    HW220253   4.660   0.842   7.749  0.1659  0.5443  0.0042
 2932SOL     OW20254   1.320   2.039   0.342 -0.2195 -0.1592 -0.0058
 2932SOL    HW120255   1.385   1.977   0.307  0.6481 -0.0080  1.3369
 2932SOL    HW220256   1.262   1.973   0.380 -1.0041  0.0109 -0.9105
 2933SOL     OW20257   2.089   1.052   7.303  0.1552  0.0340  0.5573
 2933SOL    HW120258   2.052   1.138   7.322  1.4639  0.2915  1.9335
 2933SOL    HW220259   2.180   1.080   7.316 -0.0219  1.9390 -2.1241
 2934SOL     OW20260   0.726   2.303   5.765  0.0130 -0.2969  0.1797
 2934SOL    HW120261   0.794   2.236   5.763  1.0047  0.6136  2.7504
 2934SOL    HW220262   0.775   2.377   5.729 -1.1588  1.4574  2.2147
 2935SOL     OW20263   3.441   1.097   5.351 -0.2361 -0.3437  0.4135
 2935SOL    HW120264   3.361   1.066   5.308  0.1441  0.8982 -1.1907
 2935SOL    HW220265   3.503   1.115   5.280  1.6325  0.1185  2.1515
 2936SOL     OW20266   2.836   4.229   4.421 -0.4296  0.3575 -0.2306
 2936SOL    HW120267   2.835   4.268   4.333  3.1147 -1.2193 -0.9944
 2936SOL    HW220268   2.791   4.295   4.473 -1.6974  0.4563 -1.4482
 2937SOL     OW20269   3.834   3.963  16.198  0.3328  0.4858  0.0269
 2937SOL    HW120270   3.854   3.879  16.239 -0.2389  0.3101 -0.0568
 2937SOL    HW220271   3.753   3.984  16.244  1.3284  0.8582  1.5984
 2938SOL     OW20272   2.954   2.831   4.907  0.0788 -0.5272 -0.4282
 2938SOL    HW120273   2.868   2.841   4.867  1.2567  0.9371 -2.6018
 2938SOL    HW220274   2.967   2.738   4.889 -1.7263 -0.6650 -1.0489
 2939SOL     OW20275   1.927   4.276   1.929 -0.0082 -0.2347 -0.5850
 2939SOL    HW120276   1.968   4.201   1.972 -0.1270  0.4856  0.7945
 2939SOL    HW220277   1.991   4.346   1.942 -2.3702  1.8907 -0.3634
 2940SOL     OW20278   4.419   3.938   2.354 -0.2905  0.0145 -0.1239
 2940SOL    HW120279   4.335   3.908   2.391 -0.0220 -0.7630 -0.1365
 2940SOL    HW220280   4.455   3.859   2.314 -0.5351  0.6363 -1.5527
 2941SOL     OW20281   3.782   2.695   0.412  0.3354  0.0879  0.3432
 2941SOL    HW120282   3.858   2.638   0.425  0.8724  0.6987 -0.0498
 2941SOL    HW220283   3.721   2.653   0.472 -1.1917  1.2285 -0.4223
 2942SOL     OW20284   4.080   1.099  16.258  0.7591  0.2149 -0.2538
 2942SOL    HW120285   3.989   1.073  16.244 -0.0542  1.3606  2.9351
 2942SOL    HW220286   4.101   1.128  16.170 -0.1592 -0.4383 -0.6870
 2943SOL     OW20287   1.247   2.781   0.505  0.2822  0.0133  0.0612
 2943SOL    HW120288   1.284   2.866   0.480  0.5216 -0.1258 -0.0526
 2943SOL    HW220289   1.186   2.755   0.437  0.7880 -0.5777 -0.1634
 2944SOL     OW20290   4.436   0.198   2.615 -0.3503 -0.0025  0.0994
 2944SOL    HW120291   4.419   0.292   2.606 -1.5817 -0.3562 -1.3709
 2944SOL    HW220292   4.472   0.175   2.530 -2.7840  0.6256 -1.0992
 2945SOL     OW20293   2.617   2.720   1.045 -0.3420 -0.2618  0.2135
 2945SOL    HW120294   2.703   2.761   1.035 -0.2264 -0.7515 -0.7712
 2945SOL    HW220295   2.648   2.630   1.035  1.9906  0.3467  1.9866
 2946SOL     OW20296   3.526   3.243   8.687  0.2002  0.3555 -0.5045
 2946SOL    HW120297   3.578   3.181   8.636  0.3947  0.5275 -0.5129
 2946SOL    HW220298   3.583   3.244   8.763 -1.8982 -2.4732  1.1148
 2947SOL     OW20299   0.156   1.821   8.383  0.0737  0.1816 -0.2105
 2947SOL    HW120300   0.239   1.864   8.403 -0.0098 -0.6057  1.7510
 2947SOL    HW220301   0.117   1.894   8.334 -2.0654  0.8918  2.5583
 2948SOL     OW20302   0.213   4.603   5.724  0.8034  0.0311  0.1009
 2948SOL    HW120303   0.123   4.585   5.699  1.2671  1.9697 -2.9863
 2948SOL    HW220304   0.257   4.528   5.684 -0.1245 -0.6870  0.4262
 2949SOL     OW20305   2.065   1.268   7.464  0.0374 -0.0598  0.8383
 2949SOL    HW120306   2.144   1.320   7.480 -0.0834  0.4098 -0.1058
 2949SOL    HW220307   2.048   1.223   7.546  1.1178 -1.5332  0.2415
 2950SOL     OW20308   4.633   0.664   0.754 -0.4350 -0.3665 -0.3075
 2950SOL    HW120309   4.653   0.590   0.812 -1.1058  0.4642  0.9763
 2950SOL    HW220310   4.623   0.733   0.819 -1.5467 -0.1276 -0.7301
 2951SOL     OW20311   3.856   1.231   9.031 -0.8262 -0.4386 -0.7540
 2951SOL    HW120312   3.796   1.286   8.980 -0.7307  1.3580  1.0690
 2951SOL    HW220313   3.920   1.299   9.052 -0.5636 -0.6353 -0.9054
 2952SOL     OW20314   0.107   3.519   7.872 -0.7369  0.6326 -0.1843
 2952SOL    HW120315   0.047   3.572   7.923  1.3601  1.5498  1.3516
 2952SOL    HW220316   0.186   3.570   7.890  1.0218 -1.6620 -1.3693
 2953SOL     OW20317   1.746   1.452   8.669 -0.4411 -0.4988 -0.1536
 2953SOL    HW120318   1.657   1.459   8.635 -0.6783 -2.3703  0.0567
 2953SOL    HW220319   1.786   1.403   8.597 -1.2639  0.0638 -0.9981
 2954SOL     OW20320   1.983   1.929   7.076  0.1683 -1.0496  0.1145
 2954SOL    HW120321   1.919   1.909   7.144  0.9718  0.8825  1.4483
 2954SOL    HW220322   1.968   1.855   7.016 -1.9811  0.5603 -1.3286
 2955SOL     OW20323   0.363   2.402   1.712  0.0065 -0.3585  0.0059
 2955SOL    HW120324   0.325   2.472   1.659  0.3761 -0.2587 -0.1292
 2955SOL    HW220325   0.293   2.337   1.704  0.3104 -0.5977 -0.7670
 2956SOL     OW20326   3.558   1.122   6.719 -0.0552 -0.3037  0.1960
 2956SOL    HW120327   3.490   1.131   6.653 -1.7734 -1.0265  1.8884
 2956SOL    HW220328   3.636   1.102   6.667  0.7094 -0.6888  1.4763
 2957SOL     OW20329   0.209   0.812   3.808 -0.3787 -0.1270 -0.1235
 2957SOL    HW120330   0.172   0.740   3.757 -0.8894  0.2224 -0.2551
 2957SOL    HW220331   0.298   0.821   3.776 -0.7391  2.0844 -0.5472
 2958SOL     OW20332   1.906   2.685  16.659 -0.1975 -0.0181 -0.3037
 2958SOL    HW120333   1.985   2.677  16.605 -0.4303 -3.3768 -0.1862
 2958SOL    HW220334   1.858   2.623  16.605  1.2553 -2.2103  0.8914
 2959SOL     OW20335   1.868   3.186   6.526  0.2604 -0.0287  0.3902
 2959SOL    HW120336   1.884   3.135   6.605 -1.7689 -2.5562 -0.8310
 2959SOL    HW220337   1.777   3.213   6.536  0.4012  0.4538  0.3424
 2960SOL     OW20338   2.652   3.009   5.703 -0.3023 -0.4004 -0.3095
 2960SOL    HW120339   2.624   3.069   5.634 -0.1290 -0.2170 -0.2202
 2960SOL    HW220340   2.587   2.939   5.706  2.3019 -2.7422  1.8033
 2961SOL     OW20341   2.150   1.942   6.345 -0.4585 -0.3314 -0.5271
 2961SOL    HW120342   2.081   1.975   6.402  0.4953 -1.3727  1.2122
 2961SOL    HW220343   2.173   2.015   6.287  2.5791 -0.5772  0.3254
 2962SOL     OW20344   4.186   4.446  12.793  0.3801  0.5312 -0.4971
 2962SOL    HW120345   4.277   4.473  12.787 -0.1196  2.1405 -0.9075
 2962SOL    HW220346   4.145   4.524  12.831 -1.9967 -1.3081  0.7423
 2963SOL     OW20347   0.367   4.328   7.933 -0.6040  0.1854  0.3138
 2963SOL    HW120348   0.276   4.323   7.902 -0.7111  0.9059  0.5138
 2963SOL    HW220349   0.366   4.417   7.967 -1.6934  0.2944  0.0101
 2964SOL     OW20350   1.847   3.062   4.112 -0.5424 -0.2702 -0.3229
 2964SOL    HW120351   1.841   3.071   4.017 -1.1049 -1.1705 -0.3689
 2964SOL    HW220352   1.777   2.999   4.128 -1.0723  0.6558  0.9983
 2965SOL     OW20353   3.260   2.583   5.831 -0.1044  0.1153  0.1847
 2965SOL    HW120354   3.292   2.532   5.907 -2.4237 -0.9044  0.4764
 2965SOL    HW220355   3.195   2.521   5.798 -1.2295 -0.4860  3.5334
 2966SOL     OW20356   2.873   3.048   0.804  0.0973  0.2172  0.1202
 2966SOL    HW120357   2.844   3.035   0.713  1.1136  0.5009 -0.2465
 2966SOL    HW220358   2.958   3.004   0.795  1.5815  2.5813  2.8811
 2967SOL     OW20359   1.971   1.574   8.378  0.5343 -0.4848  0.2150
 2967SOL    HW120360   1.961   1.485   8.412  0.3064  0.2103  1.9807
 2967SOL    HW220361   1.885   1.605   8.405  0.1966 -1.2054 -0.0191
 2968SOL     OW20362   2.315   3.595   3.311  0.1587  0.3107  0.4139
 2968SOL    HW120363   2.379   3.535   3.274 -0.3457  0.0866 -0.0938
 2968SOL    HW220364   2.361   3.630   3.387 -0.1369  3.5718 -0.9003
 2969SOL     OW20365   1.168   2.280  14.617 -0.5660  0.8009  0.1208
 2969SOL    HW120366   1.151   2.252  14.708 -1.9080 -0.9405 -0.6555
 2969SOL    HW220367   1.078   2.294  14.587 -0.7933 -1.5777 -0.3653
 2970SOL     OW20368   0.086   2.692   8.991 -0.0118 -0.4203  0.6741
 2970SOL    HW120369   0.119   2.605   9.014  0.1621 -0.8564 -1.1717
 2970SOL    HW220370   0.017   2.700   9.057 -0.7269 -4.3641  0.4134
 2971SOL     OW20371   1.912   3.711   3.386  0.4876 -0.7373  0.0383
 2971SOL    HW120372   1.889   3.797   3.353 -0.4376 -1.1806 -0.4948
 2971SOL    HW220373   1.824   3.696   3.423  0.3575 -0.5527 -0.1987
 2972SOL     OW20374   3.379   4.395   0.487  0.0649  0.0272 -0.0691
 2972SOL    HW120375   3.453   4.448   0.458 -0.2545  0.3933 -0.2109
 2972SOL    HW220376   3.338   4.389   0.401 -2.8200 -2.8275  1.4848
 2973SOL     OW20377   2.672   0.377  15.123 -0.1915  0.0517 -0.4073
 2973SOL    HW120378   2.764   0.396  15.103  0.1293 -0.6120  0.4840
 2973SOL    HW220379   2.639   0.431  15.051 -1.0251  0.5964  0.3837
 2974SOL     OW20380   2.131   3.813  14.949  0.8034 -0.2306 -0.3442
 2974SOL    HW120381   2.073   3.757  14.898 -1.1067  0.9094  0.5586
 2974SOL    HW220382   2.192   3.829  14.878  0.6483  2.4747  0.1287
 2975SOL     OW20383   3.710   4.080   7.657  0.4607  0.1282  0.1512
 2975SOL    HW120384   3.750   4.000   7.624 -0.3462  0.3753 -1.4119
 2975SOL    HW220385   3.621   4.062   7.628  1.0727 -1.3606 -0.7899
 2976SOL     OW20386   2.685   4.203   0.619 -0.3017 -0.2034 -0.2115
 2976SOL    HW120387   2.673   4.297   0.602 -1.4020  0.0868  2.1329
 2976SOL    HW220388   2.658   4.189   0.710  1.4551  0.2256  0.3890
 2977SOL     OW20389   3.857   2.509   4.661 -0.7617  0.0611  0.0645
 2977SOL    HW120390   3.947   2.523   4.693 -0.6567 -0.5615  0.0580
 2977SOL    HW220391   3.856   2.413   4.663 -0.4430  0.0340 -1.0053
 2978SOL     OW20392   1.160   4.161   7.536 -0.2816 -0.1152 -0.3092
 2978SOL    HW120393   1.095   4.229   7.521 -0.8436 -0.5405  0.1998
 2978SOL    HW220394   1.120   4.087   7.492  0.7066  0.1294 -1.6013
 2979SOL     OW20395   3.342   0.696   7.529 -0.3777  0.3764  0.1822
 2979SOL    HW120396   3.373   0.606   7.535 -1.2854 -0.0063 -0.6883
 2979SOL    HW220397   3.264   0.684   7.584 -0.0991  2.0369  0.9453
 2980SOL     OW20398   4.261   2.697   3.583 -0.4109  0.3629  0.0328
 2980SOL    HW120399   4.322   2.728   3.517 -1.2341 -1.0256 -1.3935
 2980SOL    HW220400   4.188   2.756   3.567  0.4209  1.4757  0.3796
 2981SOL     OW20401   2.401   1.382   2.076 -0.6069  0.4614  0.6504
 2981SOL    HW120402   2.443   1.385   2.163  0.2781  0.3393  0.2302
 2981SOL    HW220403   2.330   1.444   2.093  0.5348  1.6131  1.2454
 2982SOL     OW20404   2.644   3.977  12.418  0.6260 -0.3807  0.7380
 2982SOL    HW120405   2.603   3.896  12.386  0.0001 -1.1269  3.4512
 2982SOL    HW220406   2.568   4.033  12.433  0.3816 -0.0999 -1.5542
 2983SOL     OW20407   1.288   4.500   1.059  0.7776 -0.1814 -0.4281
 2983SOL    HW120408   1.317   4.589   1.035  2.5272 -0.8051 -0.5949
 2983SOL    HW220409   1.268   4.458   0.975  0.2968 -1.2624  0.2324
 2984SOL     OW20410   3.924   0.896  10.250  0.1289  0.4966  0.3620
 2984SOL    HW120411   3.883   0.979  10.273 -1.0935  0.1619 -0.5720
 2984SOL    HW220412   3.849   0.837  10.264  2.4441 -2.1167  1.7288
 2985SOL     OW20413   2.074   0.027   7.665 -0.4892  0.4502  0.3090
 2985SOL    HW120414   2.080   0.094   7.596 -0.5682  1.1713  0.9968
 2985SOL    HW220415   2.028   4.675   7.625  2.1887 -1.3070  0.4865
 2986SOL     OW20416   0.702   4.506   4.762  0.1647 -0.4443 -0.1489
 2986SOL    HW120417   0.700   4.479   4.671  0.1137  0.6978 -0.4903
 2986SOL    HW220418   0.740   4.594   4.755 -1.0011  0.0668  0.0067
 2987SOL     OW20419   3.343   1.930  12.261  0.1090 -0.4728 -0.4686
 2987SOL    HW120420   3.337   1.977  12.344  1.2695 -2.0754  0.5199
 2987SOL    HW220421   3.284   1.854  12.260 -0.8825  0.2830  0.1640
 2988SOL     OW20422   4.645   1.574   6.300  0.3847 -0.2116  0.2295
 2988SOL    HW120423   4.691   1.545   6.379  1.2457  0.0914 -0.1543
 2988SOL    HW220424   4.584   1.502   6.285 -0.2230  0.6648 -1.3936
 2989SOL     OW20425   2.308   3.443   9.024  0.5978 -0.6273 -0.0682
 2989SOL    HW120426   2.360   3.369   8.993  2.9033 -0.1306  2.5939
 2989SOL    HW220427   2.233   3.389   9.052 -0.0571 -0.2087 -1.0306
 2990SOL     OW20428   3.161   4.128   6.885 -0.5517  0.1108  0.2636
 2990SOL    HW120429   3.238   4.103   6.937 -1.2256 -1.7828  0.3530
 2990SOL    HW220430   3.098   4.143   6.956  1.4114 -0.0244  2.0475
 2991SOL     OW20431   4.083   0.287   9.202  0.1364  0.1956 -0.0026
 2991SOL    HW120432   4.127   0.223   9.258 -1.0719 -0.2818  0.4041
 2991SOL    HW220433   4.068   0.234   9.124 -1.1914 -0.5233  0.7415
 2992SOL     OW20434   0.749   0.744   9.774  0.8034  0.1168  0.2227
 2992SOL    HW120435   0.713   0.705   9.854 -1.2251  0.9429 -0.2889
 2992SOL    HW220436   0.686   0.717   9.706  1.6428 -1.1607 -0.0377
 2993SOL     OW20437   1.756   0.405   8.170  0.7829 -0.6651 -0.3624
 2993SOL    HW120438   1.816   0.393   8.097  0.3487 -1.2781 -0.6196
 2993SOL    HW220439   1.674   0.368   8.137 -0.4309  0.4158  1.4052
 2994SOL     OW20440   3.537   4.626  12.767 -0.0417  0.6086  0.5684
 2994SOL    HW120441   3.592   4.612  12.690 -0.9088 -0.4014  0.1391
 2994SOL    HW220442   3.577   4.563  12.827 -1.3900 -1.0050 -0.2381
 2995SOL     OW20443   3.724   0.531   7.337 -0.1414 -0.7777 -0.1090
 2995SOL    HW120444   3.631   0.510   7.326 -0.8647  1.4921  1.6946
 2995SOL    HW220445   3.716   0.626   7.328  0.1184 -0.5355  2.2174
 2996SOL     OW20446   3.595   3.407   6.613 -0.1766  0.1557 -0.3073
 2996SOL    HW120447   3.626   3.493   6.585  0.1498 -0.9414 -3.3771
 2996SOL    HW220448   3.534   3.386   6.543 -1.7167  2.9941  0.1781
 2997SOL     OW20449   1.072   0.914   4.806  0.1416  0.3052 -0.2752
 2997SOL    HW120450   1.107   0.986   4.753  0.4917 -1.1633 -2.0591
 2997SOL    HW220451   1.112   0.939   4.889 -2.1963 -0.0411  0.9497
 2998SOL     OW20452   3.754   3.055   4.128  0.0166 -0.0156  0.2892
 2998SOL    HW120453   3.683   3.040   4.191  0.1428  0.2790  0.5007
 2998SOL    HW220454   3.829   3.078   4.183  0.4554 -0.7135 -0.0154
 2999SOL     OW20455   4.631   1.455   7.532  0.6439 -0.0295  0.2461
 2999SOL    HW120456   4.608   1.371   7.492  0.9496  0.8373 -1.7520
 2999SOL    HW220457   4.548   1.501   7.540  1.7273  1.9301  0.2821
 3000SOL     OW20458   3.367   3.942   9.931  0.2139  0.0351  0.3814
 3000SOL    HW120459   3.295   3.997   9.961  0.2665 -0.4563  1.3877
 3000SOL    HW220460   3.396   3.982   9.849  2.6850 -1.5530  0.4610
 3001SOL     OW20461   3.363   0.555  10.950 -0.5590 -0.0866 -0.1632
 3001SOL    HW120462   3.426   0.563  11.022  0.7048 -1.0026 -1.1707
 3001SOL    HW220463   3.277   0.556  10.991 -0.5967 -0.5650 -0.2357
 3002SOL     OW20464   2.813   3.234   4.753 -0.1238  0.1825  0.7722
 3002SOL    HW120465   2.771   3.202   4.673 -1.6609 -1.7198  2.3488
 3002SOL    HW220466   2.901   3.201   4.737 -0.1022  0.3489  0.5414
 3003SOL     OW20467   0.536   4.620  11.581 -0.7936 -0.5324  0.4812
 3003SOL    HW120468   0.537   4.683  11.654 -1.4511 -0.5371  0.5006
 3003SOL    HW220469   0.631   4.622  11.569 -0.8884  1.4556 -0.0806
 3004SOL     OW20470   0.261   4.229   0.597  0.6156  0.5522  0.3816
 3004SOL    HW120471   0.312   4.242   0.677  0.3746 -2.5255  1.0165
 3004SOL    HW220472   0.268   4.313   0.552  3.1981 -0.5504 -1.3067
 3005SOL     OW20473   2.260   0.420   4.586  0.4543 -0.4125 -0.2155
 3005SOL    HW120474   2.211   0.407   4.505 -0.6677 -0.2075  0.4186
 3005SOL    HW220475   2.341   0.453   4.548  0.3102 -1.2904 -1.2707
 3006SOL     OW20476   4.485   3.809  13.073 -0.5845  0.0763 -0.5751
 3006SOL    HW120477   4.557   3.746  13.083  0.8004  1.7878  0.3661
 3006SOL    HW220478   4.500   3.850  12.989  0.0488  1.2974  0.1329
 3007SOL     OW20479   1.414   4.683   9.450 -0.5358 -0.2086 -0.7376
 3007SOL    HW120480   1.466   4.631   9.511 -0.6617 -0.3601 -0.7604
 3007SOL    HW220481   1.362   0.010   9.514  0.8040 -1.8630  1.6219
 3008SOL     OW20482   3.363   3.695   6.445 -0.1318 -0.1860 -0.1778
 3008SOL    HW120483   3.275   3.679   6.411 -0.3329 -0.2142  0.3514
 3008SOL    HW220484   3.403   3.720   6.362  0.2385 -0.0128  0.0538
 3009SOL     OW20485   3.596   1.626   6.775  0.0137  0.0245 -0.3260
 3009SOL    HW120486   3.537   1.559   6.809 -2.6238  3.1220  1.2972
 3009SOL    HW220487   3.540   1.703   6.761  0.5206  0.1185 -1.8806
 3010SOL     OW20488   3.210   2.708   5.139  0.0167 -0.2597 -0.3196
 3010SOL    HW120489   3.239   2.652   5.066 -0.5633 -0.7014 -0.2059
 3010SOL    HW220490   3.161   2.651   5.197  0.0764 -1.0027 -0.9884
 3011SOL     OW20491   1.129   1.331   8.509  0.1582 -0.0834  0.1731
 3011SOL    HW120492   1.093   1.394   8.446 -1.1405 -0.9016  0.0952
 3011SOL    HW220493   1.098   1.359   8.595  0.7882 -1.1057  0.7324
 3012SOL     OW20494   2.229   2.911  14.226 -0.1992 -0.5214 -0.1066
 3012SOL    HW120495   2.323   2.893  14.224  0.0149  0.5137  0.9568
 3012SOL    HW220496   2.218   2.919  14.131 -1.1475  0.0862  0.0520
 3013SOL     OW20497   2.897   0.734   7.044  0.3865  0.1921  0.4121
 3013SOL    HW120498   2.967   0.687   7.089  2.9757  1.9083 -1.7768
 3013SOL    HW220499   2.926   0.708   6.957  0.7135 -0.0189  0.5844
 3014SOL     OW20500   3.751   1.107   7.199 -0.3601 -0.1587 -0.4454
 3014SOL    HW120501   3.676   1.080   7.145  0.2812 -1.3957 -0.7202
 3014SOL    HW220502   3.712   1.158   7.270  1.6595  1.1619 -0.2965
 3015SOL     OW20503   0.636   0.234  11.014  0.0718  0.2422 -0.0680
 3015SOL    HW120504   0.632   0.237  10.918 -0.8408 -1.1980 -0.0805
 3015SOL    HW220505   0.728   0.256  11.026  0.6944 -1.8533 -1.0379
 3016SOL     OW20506   4.376   2.164  15.907  0.5527  0.4060  0.2095
 3016SOL    HW120507   4.423   2.112  15.842  2.9631  0.0380  2.2309
 3016SOL    HW220508   4.437   2.222  15.953 -0.3672  1.8976 -0.4190
 3017SOL     OW20509   1.615   1.317   9.569  0.2836 -0.1299  0.3774
 3017SOL    HW120510   1.523   1.330   9.591  0.2018 -0.7922  0.4523
 3017SOL    HW220511   1.633   1.405   9.538 -0.7733 -0.3694 -0.9031
 3018SOL     OW20512   4.534   1.279   1.435 -0.0014 -0.2558  0.3301
 3018SOL    HW120513   4.478   1.353   1.458 -0.7273 -0.6142 -0.3042
 3018SOL    HW220514   4.495   1.239   1.358  0.0450 -1.7706  1.0717
 3019SOL     OW20515   2.478   3.412   0.331 -0.1898  0.2000 -0.2361
 3019SOL    HW120516   2.448   3.438   0.243  2.4948 -1.6801 -1.6898
 3019SOL    HW220517   2.456   3.488   0.386  1.8623  0.3211  0.4285
 3020SOL     OW20518   1.177   1.985   9.857 -0.1429 -0.0393  0.0482
 3020SOL    HW120519   1.259   2.026   9.883 -1.6016  2.2338  1.0805
 3020SOL    HW220520   1.184   1.907   9.913  0.8362  1.0272  1.3968
 3021SOL     OW20521   1.659   4.386   6.496 -0.4721 -0.1937 -0.5140
 3021SOL    HW120522   1.584   4.379   6.437 -0.8083  0.5601 -0.1810
 3021SOL    HW220523   1.710   4.447   6.443 -0.2881  0.2921  0.2214
 3022SOL     OW20524   1.407   1.360   4.421 -0.5750 -0.0408 -0.4237
 3022SOL    HW120525   1.316   1.343   4.448 -0.4892  0.1703 -0.0072
 3022SOL    HW220526   1.394   1.451   4.395  0.9425  0.0211 -0.9214
 3023SOL     OW20527   2.285   4.604   9.968  0.4678 -0.3601  0.0203
 3023SOL    HW120528   2.198   4.619   9.931  0.5245 -1.8854 -0.7138
 3023SOL    HW220529   2.340   4.598   9.889 -2.0430 -0.6034 -1.7104
 3024SOL     OW20530   2.207   3.788   1.938  0.4447 -0.5036  0.0769
 3024SOL    HW120531   2.214   3.745   1.853  2.7316 -1.5467  0.7920
 3024SOL    HW220532   2.268   3.734   1.989 -0.5497 -0.8643  0.8720
 3025SOL     OW20533   3.981   1.434   3.318 -0.1979  0.2614  0.3717
 3025SOL    HW120534   4.048   1.418   3.385 -2.5937 -2.4025  2.1123
 3025SOL    HW220535   4.035   1.420   3.240 -0.8173  1.1388 -0.2118
 3026SOL     OW20536   1.664   3.355   8.148  0.0213 -0.0762  0.3530
 3026SOL    HW120537   1.657   3.446   8.118 -0.8104 -0.2081  0.1522
 3026SOL    HW220538   1.594   3.306   8.107 -0.6216 -0.9355  2.4714
 3027SOL     OW20539   1.028   2.603   7.281 -0.3208 -0.2471 -0.3576
 3027SOL    HW120540   1.005   2.518   7.319  1.4652 -0.0643  1.1043
 3027SOL    HW220541   0.963   2.654   7.329 -1.4829 -0.9097 -1.2161
 3028SOL     OW20542   3.278   4.103  15.658 -0.4379  0.0495 -0.2729
 3028SOL    HW120543   3.373   4.107  15.650 -0.5337  1.9776 -0.5817
 3028SOL    HW220544   3.252   4.156  15.734 -1.6281 -1.4710  0.3889
 3029SOL     OW20545   3.901   3.645   8.426 -0.2200  0.2068  0.3958
 3029SOL    HW120546   3.933   3.703   8.356 -1.9259 -1.8906 -2.0956
 3029SOL    HW220547   3.817   3.685   8.448  0.2208 -0.6530  3.5863
 3030SOL     OW20548   2.605   2.950  11.806 -0.2200 -0.3334  0.2953
 3030SOL    HW120549   2.631   2.859  11.819  0.5500 -0.2150 -0.4106
 3030SOL    HW220550   2.694   2.978  11.784 -1.8128  4.2978 -0.4453
 3031SOL     OW20551   3.572   1.208   6.198 -0.6776  0.1315 -0.3475
 3031SOL    HW120552   3.505   1.159   6.150  1.5268 -2.9790 -0.2469
 3031SOL    HW220553   3.576   1.286   6.143 -0.6414  0.1191 -0.3622
 3032SOL     OW20554   2.976   1.191   1.981 -0.2577  0.0296 -0.5369
 3032SOL    HW120555   3.032   1.250   2.031  0.4979  0.5477 -1.9995
 3032SOL    HW220556   2.962   1.126   2.050  1.3969  0.1769 -0.0697
 3033SOL     OW20557   0.568   0.612   3.786  0.8446 -0.2237  0.3873
 3033SOL    HW120558   0.479   0.607   3.753  1.0431 -2.0743  0.1102
 3033SOL    HW220559   0.560   0.577   3.875 -0.2486 -0.2473  0.2712
 3034SOL     OW20560   3.283   1.110  15.197  0.0478  0.5279  0.0070
 3034SOL    HW120561   3.307   1.051  15.126 -0.7735  1.8891 -1.4011
 3034SOL    HW220562   3.221   1.169  15.153  0.5239 -1.0537 -2.7744
 3035SOL     OW20563   1.791   1.359   7.712 -0.1345  0.4569  0.2542
 3035SOL    HW120564   1.847   1.432   7.688  0.8224 -0.6770 -1.0041
 3035SOL    HW220565   1.710   1.399   7.745 -1.8000 -1.2175 -1.7705
 3036SOL     OW20566   1.507   3.935  10.932  0.2056 -0.0716 -0.2177
 3036SOL    HW120567   1.485   3.879  10.858 -1.1662  0.2952 -0.0817
 3036SOL    HW220568   1.423   3.971  10.962 -0.3766 -2.0518  0.5241
 3037SOL     OW20569   0.120   1.556   7.642 -0.0949  0.2391  0.0681
 3037SOL    HW120570   0.075   1.621   7.697 -1.8507 -0.5523 -0.4155
 3037SOL    HW220571   0.041   1.528   7.595 -0.2766  1.6115 -0.4402
 3038SOL     OW20572   0.182   3.472   6.108 -0.4389  0.0743 -0.3974
 3038SOL    HW120573   0.097   3.429   6.117  1.8496 -3.9696  1.8539
 3038SOL    HW220574   0.157   3.557   6.144 -1.7557 -0.9192  1.0220
 3039SOL     OW20575   2.585   0.825   4.540 -0.6163 -0.5953  0.0974
 3039SOL    HW120576   2.626   0.738   4.549 -0.2387 -0.3040  1.2743
 3039SOL    HW220577   2.549   0.833   4.629 -0.7622 -3.8499  0.3488
 3040SOL     OW20578   0.963   2.581   1.874 -0.3079  0.0307  0.4581
 3040SOL    HW120579   1.041   2.634   1.860 -0.5078  0.4032  0.7474
 3040SOL    HW220580   0.958   2.539   1.788  0.6308  0.4403  0.2054
 3041SOL     OW20581   0.461   0.899   4.336 -0.0094  0.1687 -0.9221
 3041SOL    HW120582   0.375   0.914   4.375 -0.4927 -2.3229 -1.0315
 3041SOL    HW220583   0.509   0.979   4.356  3.4249 -2.2315  0.4752
 3042SOL     OW20584   1.083   2.681  12.762 -0.2447 -0.1714  0.2386
 3042SOL    HW120585   1.054   2.637  12.842 -0.3696 -0.2232  0.1652
 3042SOL    HW220586   1.147   2.748  12.786 -0.2639  0.2287 -0.8458
 3043SOL     OW20587   2.867   3.787   2.429 -0.7884 -0.5099 -0.2724
 3043SOL    HW120588   2.862   3.865   2.485 -0.1306  0.3763 -1.4580
 3043SOL    HW220589   2.856   3.842   2.352 -2.7793  0.6555  0.8116
 3044SOL     OW20590   1.077   4.226  15.863 -0.2303  1.0019  0.0449
 3044SOL    HW120591   1.094   4.287  15.935  0.6337  2.4540 -1.3723
 3044SOL    HW220592   1.157   4.235  15.811  0.2825  0.7487  0.7886
 3045SOL     OW20593   1.320   2.767   6.084  0.3566  0.0364 -0.4138
 3045SOL    HW120594   1.399   2.767   6.030 -0.3905 -1.7477 -1.5148
 3045SOL    HW220595   1.272   2.836   6.038 -1.5041 -0.9476  0.0503
 3046SOL     OW20596   3.762   4.645   8.590 -0.0207 -0.2482 -0.1981
 3046SOL    HW120597   3.811   0.002   8.613 -1.2354  1.0736 -2.1322
 3046SOL    HW220598   3.831   4.582   8.568  0.2712  0.1288 -0.3474
 3047SOL     OW20599   3.353   0.834   8.440 -0.0543 -1.1130 -0.3610
 3047SOL    HW120600   3.414   0.765   8.466  0.4632 -0.3631  0.4029
 3047SOL    HW220601   3.292   0.790   8.381 -1.1671 -0.7812  0.5403
 3048SOL     OW20602   2.847   1.479   7.786 -0.0170 -0.5300  0.8446
 3048SOL    HW120603   2.824   1.487   7.879 -0.5212  0.2878  0.6524
 3048SOL    HW220604   2.825   1.569   7.762  1.3378 -0.0357  1.4265
 3049SOL     OW20605   0.575   3.579   2.792 -0.3546  0.0369 -0.9023
 3049SOL    HW120606   0.536   3.644   2.850  0.0215 -0.5869  0.0598
 3049SOL    HW220607   0.499   3.534   2.755 -1.1114 -0.1340  0.8857
 3050SOL     OW20608   1.279   2.852   2.516  0.9564 -0.1188 -0.3190
 3050SOL    HW120609   1.199   2.801   2.526  0.8878 -0.1724 -1.1624
 3050SOL    HW220610   1.245   2.931   2.474 -0.1352  0.3715  1.4910
 3051SOL     OW20611   2.208   3.453  17.303  0.1927 -0.3441 -0.0655
 3051SOL    HW120612   2.154   3.520  17.345  2.1959  1.1188  0.1873
 3051SOL    HW220613   2.153   3.377  17.323  0.5431 -1.5202 -3.5939
 3052SOL     OW20614   1.454   2.269   3.895 -0.9122  0.4084 -0.2165
 3052SOL    HW120615   1.444   2.183   3.854  0.2417 -0.2061  0.7963
 3052SOL    HW220616   1.374   2.311   3.863  0.1222  2.3434 -0.2919
 3053SOL     OW20617   3.304   4.700   2.673  0.0733 -0.0437 -0.2774
 3053SOL    HW120618   3.264   0.037   2.608 -0.6021  2.2468  2.1744
 3053SOL    HW220619   3.227   4.679   2.726 -0.4442  0.3401 -0.8707
 3054SOL     OW20620   0.360   2.362   5.439 -0.1440 -0.3204 -0.2473
 3054SOL    HW120621   0.450   2.352   5.470 -0.0760  1.2475  0.0614
 3054SOL    HW220622   0.379   2.394   5.350 -1.3428  0.2041 -0.3119
 3055SOL     OW20623   2.932   1.973   8.898 -0.4608 -0.2751 -0.5519
 3055SOL    HW120624   2.908   1.963   8.806 -0.4089  0.1595 -0.6101
 3055SOL    HW220625   2.938   2.067   8.915  1.0265 -0.2836 -1.0342
 3056SOL     OW20626   0.848   3.180   7.526  0.6259  0.1321 -0.0244
 3056SOL    HW120627   0.913   3.197   7.594 -1.9113  1.0283  2.1827
 3056SOL    HW220628   0.767   3.190   7.576  0.0872  2.2551 -1.3373
 3057SOL     OW20629   4.363   3.644   6.587 -0.3030 -0.6201 -1.0839
 3057SOL    HW120630   4.379   3.717   6.527 -0.6907  1.2036  1.0394
 3057SOL    HW220631   4.399   3.683   6.666 -2.5825  0.4728 -0.6026
 3058SOL     OW20632   2.424   0.586   8.290 -0.7764  0.2756  0.6111
 3058SOL    HW120633   2.372   0.638   8.229 -0.8206 -1.3423 -0.7563
 3058SOL    HW220634   2.380   0.501   8.282 -0.2703  0.3142 -2.7251
 3059SOL     OW20635   3.480   4.331   2.347 -0.1024 -0.5514 -0.0383
 3059SOL    HW120636   3.453   4.415   2.385 -0.7769 -0.8488  0.1384
 3059SOL    HW220637   3.396   4.287   2.337 -1.1808  1.1855  1.1764
 3060SOL     OW20638   2.959   0.080  11.226  0.1979  0.3150  0.2640
 3060SOL    HW120639   3.008   0.162  11.237  0.0706  0.2172  1.6188
 3060SOL    HW220640   2.971   0.053  11.317  2.2431  0.2815 -0.0139
 3061SOL     OW20641   4.390   2.644   2.774 -0.4702 -0.0737 -0.4804
 3061SOL    HW120642   4.460   2.618   2.833  0.1413  1.5335 -0.5236
 3061SOL    HW220643   4.336   2.566   2.790  0.6653 -0.5962  0.7958
 3062SOL     OW20644   4.320   1.127   7.210 -0.0115  0.3796  0.2738
 3062SOL    HW120645   4.342   1.201   7.153  0.3634  0.0541 -0.0027
 3062SOL    HW220646   4.265   1.158   7.282 -2.2750 -0.3809 -1.1652
 3063SOL     OW20647   2.456   4.062   0.794  0.2026 -0.6075 -0.0157
 3063SOL    HW120648   2.397   4.072   0.869  1.8356 -3.8935  1.7324
 3063SOL    HW220649   2.416   4.116   0.727  0.3086 -1.3878 -0.7041
 3064SOL     OW20650   4.527   1.441   1.863 -0.2143  0.3820  0.1961
 3064SOL    HW120651   4.517   1.521   1.810  2.0612  0.0753 -0.7231
 3064SOL    HW220652   4.593   1.387   1.819 -1.2188 -2.5967  2.3443
 3065SOL     OW20653   4.513   1.186   7.567 -0.1786  0.1760  0.5711
 3065SOL    HW120654   4.458   1.250   7.521 -1.3840 -0.9015  0.5277
 3065SOL    HW220655   4.518   1.233   7.650 -4.1239 -0.2998  1.0656
 3066SOL     OW20656   0.034   4.472   7.368 -0.7383 -0.5084 -0.0676
 3066SOL    HW120657   0.007   4.444   7.455 -1.1475 -0.3993 -0.1561
 3066SOL    HW220658   0.007   4.564   7.372  1.7071  0.2323 -1.1661
 3067SOL     OW20659   4.174   3.842  11.826 -0.4560 -0.3413  0.7819
 3067SOL    HW120660   4.106   3.780  11.853  1.8537 -2.8005  1.0503
 3067SOL    HW220661   4.172   3.918  11.884  0.0395  0.0047  0.3460
 3068SOL     OW20662   4.706   4.699   8.579 -0.4244  0.0294  0.0013
 3068SOL    HW120663   4.654   0.038   8.632 -2.7840 -1.1287 -0.9845
 3068SOL    HW220664   4.637   4.647   8.538 -0.0321 -1.6943  1.5473
 3069SOL     OW20665   4.135   2.295   1.299  0.0666  0.5234  0.3184
 3069SOL    HW120666   4.094   2.210   1.285 -1.6420  1.1157  1.6878
 3069SOL    HW220667   4.142   2.300   1.394 -0.0804  2.6962  0.2261
 3070SOL     OW20668   3.472   2.281   6.518 -0.2222  0.0364 -0.4722
 3070SOL    HW120669   3.381   2.277   6.545  0.1243  0.9788  0.8319
 3070SOL    HW220670   3.492   2.362   6.565  2.1755 -1.3837  0.9344
 3071SOL     OW20671   3.895   3.861  13.222 -0.1212  0.6243  0.1780
 3071SOL    HW120672   3.868   3.944  13.263 -0.2654  1.6954 -2.1007
 3071SOL    HW220673   3.967   3.840  13.283  0.1441  1.4697  0.1534
 3072SOL     OW20674   3.452   2.528  15.238 -0.4945 -0.2038 -0.6506
 3072SOL    HW120675   3.404   2.538  15.156 -1.0253 -0.6209 -0.3908
 3072SOL    HW220676   3.508   2.606  15.240  1.0844 -1.4192  2.4058
 3073SOL     OW20677   4.165   0.557   3.013 -0.2449 -0.3771 -0.4286
 3073SOL    HW120678   4.076   0.563   2.979 -0.8110 -0.8465  0.9818
 3073SOL    HW220679   4.197   0.490   2.952 -0.2539 -0.7117 -0.0636
 3074SOL     OW20680   1.752   4.497   9.370  0.0513  0.2978 -0.7692
 3074SOL    HW120681   1.794   4.445   9.301 -0.0926  2.1402 -2.2527
 3074SOL    HW220682   1.698   4.556   9.317  0.6539  0.5032 -1.1594
 3075SOL     OW20683   2.693   4.376   7.149 -0.1162  0.5695 -0.1592
 3075SOL    HW120684   2.780   4.360   7.114  0.0903 -0.8887  1.0260
 3075SOL    HW220685   2.709   4.389   7.243 -1.8748  2.6646 -0.1533
 3076SOL     OW20686   2.603   0.374  13.674  0.1926  0.1450 -0.2273
 3076SOL    HW120687   2.657   0.303  13.638 -0.5424 -1.3162  1.5268
 3076SOL    HW220688   2.573   0.334  13.756  2.5851 -0.1060  0.5318
 3077SOL     OW20689   1.969   3.662   8.171  0.2524  0.3910 -0.2635
 3077SOL    HW120690   1.888   3.708   8.150 -2.3430 -4.5371 -0.9526
 3077SOL    HW220691   1.987   3.605   8.096 -1.0509  1.3270 -1.2928
 3078SOL     OW20692   3.980   1.777   7.223  0.4618 -0.2877 -0.4275
 3078SOL    HW120693   3.962   1.736   7.139  4.3871 -1.4279 -0.7277
 3078SOL    HW220694   3.902   1.832   7.226  0.6462  0.0843 -2.1151
 3079SOL     OW20695   4.326   2.550  13.097 -0.0935  0.4200 -0.0813
 3079SOL    HW120696   4.275   2.629  13.079  2.6918  2.2658  0.0275
 3079SOL    HW220697   4.272   2.480  13.062  2.3972 -1.1162 -0.8733
 3080SOL     OW20698   0.960   0.614   6.155  0.0386 -0.2318  0.0389
 3080SOL    HW120699   0.902   0.544   6.125  0.7043 -1.8377  2.4867
 3080SOL    HW220700   1.046   0.596   6.118 -0.3943 -2.3848  0.0834
 3081SOL     OW20701   2.265   2.992  15.486  0.3943  0.1580 -0.2134
 3081SOL    HW120702   2.210   3.036  15.422  1.6885 -0.6934 -1.9185
 3081SOL    HW220703   2.313   3.068  15.520  0.0161 -0.3988  1.5355
 3082SOL     OW20704   1.954   4.702  10.997  0.4736  0.1000  0.3200
 3082SOL    HW120705   1.917   0.040  10.932 -1.8239 -1.9032 -0.1588
 3082SOL    HW220706   1.878   4.655  11.031 -0.6957  0.7632 -1.4264
 3083SOL     OW20707   3.145   0.540   3.676  0.2819 -0.2294  0.5768
 3083SOL    HW120708   3.088   0.617   3.679  1.0236  0.2715  1.9269
 3083SOL    HW220709   3.080   0.470   3.672  0.1902 -0.1378  0.4656
 3084SOL     OW20710   0.319   3.283   3.038 -0.5536 -0.1136 -0.3929
 3084SOL    HW120711   0.268   3.323   2.967  1.7529  0.7155 -1.5722
 3084SOL    HW220712   0.343   3.364   3.083  2.3585 -0.5267 -1.1851
 3085SOL     OW20713   1.638   4.346  17.605 -0.3108  0.0464  0.2089
 3085SOL    HW120714   1.562   4.363  17.661 -3.0701 -1.4448 -3.0808
 3085SOL    HW220715   1.710   4.371  17.663  0.3624 -1.1952 -0.0882
 3086SOL     OW20716   2.605   4.533   8.461 -0.3100 -0.1922  0.7602
 3086SOL    HW120717   2.678   4.477   8.433 -1.9011 -2.2433  0.6948
 3086SOL    HW220718   2.529   4.475   8.460  0.1615 -0.8187  0.9723
 3087SOL     OW20719   3.319   0.374   1.306 -0.3128 -0.5138 -0.4940
 3087SOL    HW120720   3.381   0.302   1.292  0.8328  0.4530 -0.4182
 3087SOL    HW220721   3.240   0.330   1.275  0.2046 -1.2118 -0.8195
 3088SOL     OW20722   4.331   0.709   9.689  0.3846 -0.4800 -0.3358
 3088SOL    HW120723   4.257   0.754   9.730  1.8365  0.5839  1.1804
 3088SOL    HW220724   4.380   0.684   9.768 -2.0746  1.3690  1.7818
 3089SOL     OW20725   1.537   2.266  14.134 -0.3168  0.7473 -0.2867
 3089SOL    HW120726   1.502   2.185  14.097 -4.9100  1.8538  1.5750
 3089SOL    HW220727   1.577   2.234  14.216  0.5328  1.1172 -0.5577
 3090SOL     OW20728   0.967   3.243   2.779 -0.0208  0.1638  0.6251
 3090SOL    HW120729   0.874   3.233   2.758  0.5867  0.2875 -2.0835
 3090SOL    HW220730   0.979   3.336   2.795  0.8214  0.4666 -1.7973
 3091SOL     OW20731   4.192   0.396   4.401 -0.0889  0.3380  0.0333
 3091SOL    HW120732   4.211   0.304   4.385  1.4083  0.8420 -1.1185
 3091SOL    HW220733   4.186   0.396   4.497  1.5123  0.3234  0.1243
 3092SOL     OW20734   3.337   0.652  16.961  0.3254 -0.4039  0.5398
 3092SOL    HW120735   3.285   0.677  17.038 -0.8802 -1.5188  0.0913
 3092SOL    HW220736   3.269   0.631  16.896 -0.5679 -0.5173  1.4997
 3093SOL     OW20737   0.079   1.520   3.937 -0.3928  0.9542  0.2788
 3093SOL    HW120738   0.046   1.455   3.999 -0.0685  2.0988  1.6277
 3093SOL    HW220739   0.103   1.586   4.002 -1.7188  0.1822  1.5508
 3094SOL     OW20740   2.668   3.435  17.212 -0.1590 -0.0291 -0.0720
 3094SOL    HW120741   2.595   3.497  17.209  0.2417  0.4803  0.4787
 3094SOL    HW220742   2.628   3.357  17.174 -2.0847 -0.8188  3.6700
 3095SOL     OW20743   4.369   1.423   5.223  0.3817 -0.7669  0.0838
 3095SOL    HW120744   4.436   1.435   5.156 -0.1746  0.9192 -0.1664
 3095SOL    HW220745   4.297   1.385   5.171 -1.6737  2.0837  0.8075
 3096SOL     OW20746   3.997   3.093   7.338  0.6603 -0.6111 -0.1922
 3096SOL    HW120747   3.940   3.107   7.263  0.2475 -0.3162  0.1740
 3096SOL    HW220748   4.062   3.160   7.318 -1.0099  0.9769 -0.2791
 3097SOL     OW20749   3.026   0.333   1.486 -0.0169 -0.2529 -1.0134
 3097SOL    HW120750   2.964   0.387   1.534  2.9958  3.0309 -0.8048
 3097SOL    HW220751   3.094   0.400   1.479 -0.7798  0.4566 -1.5265
 3098SOL     OW20752   4.197   4.564  13.668 -0.1182 -0.2482 -0.0474
 3098SOL    HW120753   4.245   4.518  13.600 -0.1522  0.3828 -0.4939
 3098SOL    HW220754   4.135   4.617  13.618  0.0616  0.5754  0.6035
 3099SOL     OW20755   1.449   0.143   1.235  0.2114 -0.3446 -0.4533
 3099SOL    HW120756   1.443   0.132   1.140 -1.3849 -1.9942 -0.1661
 3099SOL    HW220757   1.500   0.065   1.256 -1.1700 -0.9078  0.8337
 3100SOL     OW20758   3.019   1.038  15.996 -0.6338  0.2374 -0.0252
 3100SOL    HW120759   2.982   1.125  16.002  1.3361  0.9706  1.4546
 3100SOL    HW220760   2.936   0.993  15.983 -1.9346  2.3878  0.9252
 3101SOL     OW20761   0.793   4.116  14.109  0.4125 -0.2234 -0.5472
 3101SOL    HW120762   0.730   4.165  14.056  0.2595 -0.0878 -0.2380
 3101SOL    HW220763   0.867   4.120  14.048 -0.0850 -0.9031 -1.2072
 3102SOL     OW20764   1.650   3.342  10.119  0.1515  0.2369  0.0195
 3102SOL    HW120765   1.582   3.324  10.183 -0.1181  1.2373  0.0086
 3102SOL    HW220766   1.718   3.280  10.148 -0.2135  1.1076  2.7295
 3103SOL     OW20767   1.590   1.510   4.644  0.4554 -0.2813 -0.0827
 3103SOL    HW120768   1.627   1.426   4.619 -1.6015 -0.9584 -0.8475
 3103SOL    HW220769   1.552   1.542   4.562 -0.8894 -0.5029  0.4621
 3104SOL     OW20770   0.865   4.329   5.412 -0.0282  0.4710 -0.0143
 3104SOL    HW120771   0.900   4.282   5.488 -1.3235 -0.5642 -0.0574
 3104SOL    HW220772   0.871   4.421   5.439  0.8180 -0.1535  1.9248
 3105SOL     OW20773   3.932   2.267   1.894 -0.1797  0.0590 -0.1448
 3105SOL    HW120774   3.883   2.196   1.851  1.5036 -0.3401 -1.4172
 3105SOL    HW220775   4.019   2.227   1.887  1.0343  2.6709  0.3015
 3106SOL     OW20776   3.883   3.510   2.653  0.3110  0.3936  0.3244
 3106SOL    HW120777   3.849   3.488   2.739 -0.0487  2.3761  0.6889
 3106SOL    HW220778   3.804   3.510   2.599 -0.2587  0.7542  1.1598
 3107SOL     OW20779   0.345   3.564   7.143  0.1203 -0.4122 -0.8304
 3107SOL    HW120780   0.391   3.499   7.089  1.7015 -1.2982  1.5434
 3107SOL    HW220781   0.256   3.531   7.139 -0.2624  0.6972 -1.4136
 3108SOL     OW20782   3.444   2.157   4.157  0.0462  0.0955 -0.1167
 3108SOL    HW120783   3.515   2.122   4.104 -0.8989 -0.4092 -1.0604
 3108SOL    HW220784   3.423   2.072   4.196 -1.0494  1.4157  2.1975
 3109SOL     OW20785   2.169   0.050   0.905 -0.5244  0.2896  0.4183
 3109SOL    HW120786   2.183   0.012   0.992  1.2325 -0.1055 -0.0260
 3109SOL    HW220787   2.207   0.137   0.919 -2.0576  1.1738 -0.9794
 3110SOL     OW20788   0.340   0.341   9.020 -0.1712 -0.0267  0.3823
 3110SOL    HW120789   0.329   0.247   9.033  1.7505 -0.4077 -0.7679
 3110SOL    HW220790   0.315   0.350   8.928  1.7408 -0.6145 -0.2065
 3111SOL     OW20791   1.899   1.496  15.579 -0.4178  0.3731  0.6999
 3111SOL    HW120792   1.898   1.582  15.623 -1.6434  0.1077  1.1722
 3111SOL    HW220793   1.986   1.468  15.606 -0.4901 -0.9643 -0.4719
 3112SOL     OW20794   3.733   0.221   5.306 -0.4073 -0.4440  0.4111
 3112SOL    HW120795   3.699   0.245   5.392 -1.2651 -2.7249  0.7172
 3112SOL    HW220796   3.785   0.297   5.279  0.1844 -0.9537  0.1030
 3113SOL     OW20797   2.891   3.696   2.742 -0.1369 -0.0894  0.2987
 3113SOL    HW120798   2.986   3.701   2.740 -0.0795 -1.3458 -0.2441
 3113SOL    HW220799   2.878   3.678   2.649 -1.0061  1.6253  0.0925
 3114SOL     OW20800   3.606   0.398   0.174 -0.3575  0.0531  0.4133
 3114SOL    HW120801   3.612   0.454   0.251  2.4095 -0.3617  0.4891
 3114SOL    HW220802   3.696   0.401   0.142  0.0306  0.1483  1.5050
 3115SOL     OW20803   2.836   2.856   1.020  0.5138 -0.7773 -0.2505
 3115SOL    HW120804   2.839   2.946   0.988 -1.4244 -0.3580  0.7607
 3115SOL    HW220805   2.873   2.804   0.948 -0.4279 -0.7870 -0.7206
 3116SOL     OW20806   0.835   2.191   2.324 -0.2263  0.3070  0.3988
 3116SOL    HW120807   0.917   2.142   2.314 -0.5706 -0.1685 -0.1072
 3116SOL    HW220808   0.781   2.164   2.251  0.2206 -2.7003  1.1669
 3117SOL     OW20809   0.639   2.139   8.627  0.1957  0.3941 -0.3934
 3117SOL    HW120810   0.655   2.070   8.562 -0.4412 -0.7673  0.6843
 3117SOL    HW220811   0.641   2.212   8.565  0.1476 -0.0082 -0.8690
 3118SOL     OW20812   1.713   1.282   2.416  0.7795  0.2100 -0.5872
 3118SOL    HW120813   1.648   1.234   2.366  0.3205  1.5810 -1.2774
 3118SOL    HW220814   1.693   1.248   2.503  1.3434 -0.1041 -0.5781
 3119SOL     OW20815   0.642   1.228   7.470  0.2768 -0.3360  0.4562
 3119SOL    HW120816   0.657   1.154   7.410  0.6461  0.7641 -0.8114
 3119SOL    HW220817   0.549   1.219   7.491  0.4816 -0.4834  1.2786
 3120SOL     OW20818   0.849   0.074   8.135  0.0518 -0.2119  0.2666
 3120SOL    HW120819   0.891   0.153   8.169  4.0017 -1.6100 -1.3304
 3120SOL    HW220820   0.900   0.003   8.175  0.5339  0.4630  0.8540
 3121SOL     OW20821   2.604   3.345  11.740 -0.2283 -0.1527 -0.0933
 3121SOL    HW120822   2.579   3.432  11.710 -0.5475 -0.3916 -0.5240
 3121SOL    HW220823   2.573   3.349  11.830  0.5212  1.3274  0.0898
 3122SOL     OW20824   0.116   0.308  13.460  0.3244 -0.3014  0.6680
 3122SOL    HW120825   0.094   0.382  13.516 -0.5615 -0.8130  0.9835
 3122SOL    HW220826   0.112   0.337  13.369  2.9468 -1.9480  0.0313
 3123SOL     OW20827   1.276   2.707   7.299 -0.8162  0.3793 -0.4786
 3123SOL    HW120828   1.316   2.623   7.322  1.3101  1.5248  0.1169
 3123SOL    HW220829   1.187   2.691   7.270 -1.4587 -1.3838  2.4431
 3124SOL     OW20830   3.080   0.872   1.743 -0.5925  0.0133  0.4064
 3124SOL    HW120831   3.055   0.963   1.728  1.0002  0.6304  1.4550
 3124SOL    HW220832   3.130   0.877   1.824 -0.6256  2.6285  0.2773
 3125SOL     OW20833   1.542   2.037   5.043  0.1970  0.0106 -0.2889
 3125SOL    HW120834   1.610   2.067   4.983 -2.4113  4.0043 -1.2600
 3125SOL    HW220835   1.592   1.994   5.113 -1.8432 -0.5291  0.8436
 3126SOL     OW20836   3.777   2.132   3.691  0.1828  0.4046  0.1686
 3126SOL    HW120837   3.761   2.129   3.597 -0.3132  1.0284  0.2367
 3126SOL    HW220838   3.827   2.213   3.703 -2.8863  2.2750  0.3611
 3127SOL     OW20839   3.976   0.950   9.362 -0.4170  0.4843  0.5318
 3127SOL    HW120840   3.924   0.874   9.388 -0.6805  0.0100 -1.3442
 3127SOL    HW220841   4.026   0.961   9.443  0.2073  0.8019  0.0986
 3128SOL     OW20842   2.655   3.137   2.988 -0.0919 -0.0824 -0.0337
 3128SOL    HW120843   2.741   3.100   2.969  0.4627  1.4112 -0.4771
 3128SOL    HW220844   2.667   3.232   2.983 -0.5701 -0.0880 -1.5758
 3129SOL     OW20845   2.900   2.939  17.376 -0.2887 -0.0087 -0.2057
 3129SOL    HW120846   2.863   3.025  17.358  0.3703  0.3657  0.2558
 3129SOL    HW220847   2.981   2.933  17.326 -1.4010 -3.4840 -1.6589
 3130SOL     OW20848   3.739   3.928  15.882 -0.0462 -0.2534 -0.0604
 3130SOL    HW120849   3.823   3.909  15.840 -0.6289 -0.6480 -1.0507
 3130SOL    HW220850   3.762   3.952  15.972 -3.1920 -0.4888  0.8250
 3131SOL     OW20851   2.023   0.037   5.006  0.0162 -0.1830  0.1346
 3131SOL    HW120852   2.084   4.694   4.972 -1.7459 -0.8390 -1.7604
 3131SOL    HW220853   1.938   0.012   4.971  0.1480 -1.5922  0.8261
 3132SOL     OW20854   1.537   3.237  14.895 -0.2879  0.9365  0.4436
 3132SOL    HW120855   1.468   3.179  14.926  1.3703 -1.8589 -1.0112
 3132SOL    HW220856   1.494   3.318  14.869 -0.9567 -0.1393 -1.7932
 3133SOL     OW20857   3.758   2.552   9.350 -0.1735 -0.1887  0.3020
 3133SOL    HW120858   3.671   2.562   9.388 -0.0412 -0.5701  0.7085
 3133SOL    HW220859   3.789   2.473   9.395  0.5411 -2.0057 -3.4499
 3134SOL     OW20860   3.648   3.924   2.391  0.7050  0.9177 -0.1897
 3134SOL    HW120861   3.620   3.987   2.325 -0.2931  0.4833 -0.1874
 3134SOL    HW220862   3.577   3.938   2.453 -0.4990 -2.3684 -0.7835
 3135SOL     OW20863   2.895   0.491   3.517  0.0773 -0.0109 -0.1344
 3135SOL    HW120864   2.918   0.401   3.495 -1.6349 -0.7310  1.0518
 3135SOL    HW220865   2.956   0.547   3.469  0.1978 -0.0948 -0.0796
 3136SOL     OW20866   0.937   0.904  10.388 -0.1506 -0.0259  0.1137
 3136SOL    HW120867   0.920   0.997  10.403  1.0242  0.2649 -0.3816
 3136SOL    HW220868   1.032   0.895  10.386 -0.2450 -1.3922  1.2199
 3137SOL     OW20869   4.422   4.443   2.577  0.7446 -0.7133  0.9041
 3137SOL    HW120870   4.401   4.529   2.613 -1.0540 -0.5479 -0.5717
 3137SOL    HW220871   4.433   4.383   2.651  2.0182 -0.3635  1.0108
 3138SOL     OW20872   1.384   4.304  12.897  0.5264 -0.3094 -0.4278
 3138SOL    HW120873   1.370   4.210  12.880  0.8457 -0.3640 -0.3880
 3138SOL    HW220874   1.402   4.301  12.991 -0.2754 -1.4129 -0.3082
 3139SOL     OW20875   3.489   3.060  16.260 -0.7326  0.5800  0.0756
 3139SOL    HW120876   3.581   3.069  16.234 -0.8906 -2.7680 -1.5602
 3139SOL    HW220877   3.456   3.028  16.176 -0.5749 -1.5347  0.8314
 3140SOL     OW20878   3.083   3.194   3.626  0.1277 -0.0155 -0.8191
 3140SOL    HW120879   3.129   3.218   3.706  0.4653  0.0616 -1.0307
 3140SOL    HW220880   3.001   3.243   3.628  2.1068  3.2466  1.5289
 3141SOL     OW20881   0.289   0.141   6.999 -0.2876 -0.0867 -0.1881
 3141SOL    HW120882   0.373   0.171   6.964 -0.4992 -1.2705 -1.6925
 3141SOL    HW220883   0.301   0.052   7.033  2.1031 -0.1819 -1.2788
 3142SOL     OW20884   0.410   0.711  13.105  0.1587  0.2152 -0.2410
 3142SOL    HW120885   0.423   0.617  13.109  2.7983  0.6063  0.3074
 3142SOL    HW220886   0.389   0.724  13.012  0.7464  1.8357 -0.1525
 3143SOL     OW20887   3.404   0.920  11.391 -0.0187  0.2098  0.2242
 3143SOL    HW120888   3.493   0.884  11.394 -0.2233 -0.2501  0.7874
 3143SOL    HW220889   3.386   0.952  11.479 -0.0265  3.7804 -1.0810
 3144SOL     OW20890   4.449   3.302   8.034  0.0922  0.5055  0.2564
 3144SOL    HW120891   4.450   3.345   7.949  0.0919  1.6314  0.8329
 3144SOL    HW220892   4.375   3.347   8.074 -0.0750 -0.3074  0.8664
 3145SOL     OW20893   2.704   3.182  11.273  0.4236  0.1504 -0.1691
 3145SOL    HW120894   2.609   3.182  11.263  0.4774  1.0531 -0.6703
 3145SOL    HW220895   2.714   3.175  11.368  0.5136 -1.2724 -0.2838
 3146SOL     OW20896   2.701   2.467  13.249 -0.2150 -0.1931  0.2649
 3146SOL    HW120897   2.690   2.549  13.202  0.5649 -0.0958  0.2389
 3146SOL    HW220898   2.631   2.407  13.224  1.8085 -1.7288 -1.7253
 3147SOL     OW20899   0.840   2.196   7.214  0.6726  0.2266  0.5613
 3147SOL    HW120900   0.776   2.125   7.212  2.2358 -1.1420 -1.3692
 3147SOL    HW220901   0.809   2.245   7.138 -0.0322 -1.0209  0.0286
 3148SOL     OW20902   3.123   2.991  15.693 -0.6045 -0.2677 -0.1081
 3148SOL    HW120903   3.138   2.914  15.639 -0.5129 -0.3951  0.1002
 3148SOL    HW220904   3.110   3.063  15.631 -0.3082  0.2662  0.4478
 3149SOL     OW20905   3.918   2.767   9.240 -0.1753  0.1233 -0.2758
 3149SOL    HW120906   3.946   2.801   9.325  0.9995  0.1590 -0.6782
 3149SOL    HW220907   3.865   2.696   9.277  1.6674 -1.8588 -1.4299
 3150SOL     OW20908   1.002   1.273   6.917  0.1506  0.0750 -0.9113
 3150SOL    HW120909   1.004   1.246   7.009  0.8817  0.1706 -0.8927
 3150SOL    HW220910   0.912   1.258   6.888 -0.0164  0.0009 -0.3499
 3151SOL     OW20911   2.385   0.009   8.019  0.1758  0.2399  0.1215
 3151SOL    HW120912   2.391   4.669   8.092 -2.7077  1.6963  1.5928
 3151SOL    HW220913   2.356   4.677   7.946  2.0612 -0.1184 -0.3587
 3152SOL     OW20914   0.380   4.030   0.313 -0.4127 -0.4517 -0.6962
 3152SOL    HW120915   0.336   3.973   0.377  0.6748 -0.2687  0.1996
 3152SOL    HW220916   0.445   4.075   0.366 -0.6438  0.4788 -1.2133
 3153SOL     OW20917   4.665   1.155  16.590 -0.7787 -0.1424  0.0185
 3153SOL    HW120918   4.613   1.209  16.650  0.7144  0.6954  0.5619
 3153SOL    HW220919   0.017   1.216  16.586  0.6166 -1.9201 -1.2181
 3154SOL     OW20920   4.094   1.754   7.498 -0.1904  0.1474 -0.1666
 3154SOL    HW120921   4.043   1.741   7.419  1.1105 -0.8935 -0.8458
 3154SOL    HW220922   4.137   1.668   7.505  1.3335  0.7598 -1.9684
 3155SOL     OW20923   3.919   2.602   5.937 -0.2417  0.4233  0.2225
 3155SOL    HW120924   3.945   2.683   5.894  0.8600 -1.1514 -2.0995
 3155SOL    HW220925   3.890   2.557   5.858 -1.1633  2.9384 -0.8646
 3156SOL     OW20926   1.987   0.065   5.411  0.3118 -0.3823  0.2316
 3156SOL    HW120927   2.053   0.054   5.479 -0.8085  0.3788  1.4481
 3156SOL    HW220928   2.028   0.119   5.344  0.7407  1.3616  1.8883
 3157SOL     OW20929   0.052   3.386  10.654  0.1661 -0.0477 -0.4485
 3157SOL    HW120930   0.069   3.383  10.560  0.2350  0.7156 -0.4591
 3157SOL    HW220931   0.144   3.381  10.683 -0.2040 -2.3375  0.3521
 3158SOL     OW20932   4.323   0.677  10.055  0.1918  0.4719  0.4066
 3158SOL    HW120933   4.399   0.665   9.998  0.1895  1.2917  0.2192
 3158SOL    HW220934   4.252   0.686   9.991  1.2726 -0.2842 -0.8921
 3159SOL     OW20935   2.802   3.898   0.791 -0.0694  0.0922 -0.3251
 3159SOL    HW120936   2.761   3.984   0.802  0.2158  0.1006  0.6673
 3159SOL    HW220937   2.729   3.846   0.756 -1.3528  1.6205  0.0733
 3160SOL     OW20938   2.535   1.902   0.847 -0.2708  0.0193  0.3598
 3160SOL    HW120939   2.605   1.842   0.820 -0.3272  0.4804 -0.8561
 3160SOL    HW220940   2.459   1.848   0.831 -0.3322 -0.1152  1.1258
 3161SOL     OW20941   2.314   1.325   0.746  0.0943 -0.4380  0.2003
 3161SOL    HW120942   2.226   1.293   0.727 -0.3837  0.7504  0.4275
 3161SOL    HW220943   2.290   1.412   0.777 -1.4609 -0.8164  0.0712
 3162SOL     OW20944   2.111   3.644   6.101 -0.8916 -0.0659 -0.5407
 3162SOL    HW120945   2.072   3.617   6.184  1.0729 -0.5354  0.2151
 3162SOL    HW220946   2.179   3.577   6.102  0.3997  1.2699 -0.4723
 3163SOL     OW20947   0.347   3.269  13.571 -0.2910 -0.7040  0.7700
 3163SOL    HW120948   0.402   3.214  13.515 -1.2090 -0.1162 -0.7278
 3163SOL    HW220949   0.263   3.224  13.564 -1.3889  1.1231  2.3434
 3164SOL     OW20950   2.154   0.410   7.089 -0.3004  0.0654 -0.1849
 3164SOL    HW120951   2.146   0.485   7.030  2.2153  0.3865 -0.1439
 3164SOL    HW220952   2.187   0.462   7.162  1.6227 -0.1420 -0.8911
 3165SOL     OW20953   2.202   2.730   8.807 -0.0555  0.4337  0.2014
 3165SOL    HW120954   2.245   2.757   8.888 -2.1065  1.5350  0.9185
 3165SOL    HW220955   2.139   2.802   8.803 -1.8801 -1.1316  0.3531
 3166SOL     OW20956   4.375   2.328  15.092  0.0628  0.8178 -0.0697
 3166SOL    HW120957   4.454   2.293  15.132  0.2825  1.6802  0.2559
 3166SOL    HW220958   4.349   2.389  15.161 -2.2094  0.1745 -0.3649
 3167SOL     OW20959   1.535   2.010   7.942  0.0194  0.1338  0.4435
 3167SOL    HW120960   1.630   2.012   7.958  0.2663 -0.7127 -0.8997
 3167SOL    HW220961   1.529   2.091   7.893  0.5093  0.2888  0.6354
 3168SOL     OW20962   3.433   4.490   7.966  0.0133 -0.2267 -0.7242
 3168SOL    HW120963   3.447   4.413   8.020  0.7387  1.0592  0.9067
 3168SOL    HW220964   3.340   4.507   7.979 -0.0055 -1.7194  1.1152
 3169SOL     OW20965   2.714   3.105   4.518 -0.5899 -0.2182 -0.0761
 3169SOL    HW120966   2.649   3.126   4.450  1.1376 -1.5138 -2.1367
 3169SOL    HW220967   2.769   3.039   4.474  0.1388  1.0126 -1.0110
 3170SOL     OW20968   0.181   3.967  17.018 -0.0181 -0.1909  0.0393
 3170SOL    HW120969   0.113   4.020  17.060 -0.5982 -0.3194 -0.7492
 3170SOL    HW220970   0.187   3.891  17.076 -1.2981 -0.7053 -0.5049
 3171SOL     OW20971   3.049   0.496   9.609  0.1504 -0.3015 -0.4636
 3171SOL    HW120972   3.039   0.552   9.687 -0.5878 -0.9003 -0.1250
 3171SOL    HW220973   2.976   0.435   9.613  0.9353 -1.1670  0.7765
 3172SOL     OW20974   1.755   2.132   8.131  0.4455 -0.1922 -0.1967
 3172SOL    HW120975   1.830   2.192   8.138  0.2038  0.1046 -0.1387
 3172SOL    HW220976   1.674   2.181   8.144  1.3696  1.3396 -0.1989
 3173SOL     OW20977   2.647   2.305  11.997 -0.5925  0.0656  0.1269
 3173SOL    HW120978   2.654   2.369  12.068 -3.2016  0.4639  0.0167
 3173SOL    HW220979   2.569   2.337  11.952 -0.8029  1.7441  1.6613
 3174SOL     OW20980   4.419   2.460   3.906 -0.1585 -0.2473  0.1272
 3174SOL    HW120981   4.456   2.504   3.830 -1.3298  1.8552  0.7681
 3174SOL    HW220982   4.474   2.382   3.904 -1.1704 -1.0029  1.2257
 3175SOL     OW20983   3.333   2.353  17.098 -0.7881  0.0867  0.2401
 3175SOL    HW120984   3.367   2.313  17.178 -0.2631  1.0792  0.5185
 3175SOL    HW220985   3.400   2.418  17.077 -1.5002 -0.0213 -2.2906
 3176SOL     OW20986   1.915   0.631   6.383  1.0325  0.2358 -0.0125
 3176SOL    HW120987   1.907   0.625   6.478  0.4793  1.9040  0.0552
 3176SOL    HW220988   1.884   0.546   6.351  0.7787  0.8360 -1.3732
 3177SOL     OW20989   1.379   3.332   6.828 -0.0184  0.1118 -0.3034
 3177SOL    HW120990   1.417   3.386   6.897 -0.9813 -0.1781  0.4745
 3177SOL    HW220991   1.433   3.253   6.823  1.5553  1.1538  0.5441
 3178SOL     OW20992   3.917   1.858   5.183 -0.1059 -0.6789 -0.1880
 3178SOL    HW120993   3.877   1.792   5.126  0.9834 -1.0277 -0.5331
 3178SOL    HW220994   3.854   1.878   5.253  0.7477 -0.2290  0.4507
 3179SOL     OW20995   2.196   1.360  10.335  0.6505  0.3318  0.2890
 3179SOL    HW120996   2.260   1.310  10.284  0.4886 -1.2580  1.6512
 3179SOL    HW220997   2.232   1.448  10.326  0.1503  0.4968 -0.1153
 3180SOL     OW20998   1.741   0.633   1.996 -0.2045  0.0700 -0.4931
 3180SOL    HW120999   1.686   0.604   1.924 -0.8974 -0.2621  0.1617
 3180SOL    HW221000   1.793   0.696   1.946  0.0436  0.9214  0.8308
 3181SOL     OW21001   2.295   3.879   6.485  0.1155  0.4968  0.3762
 3181SOL    HW121002   2.233   3.928   6.430 -0.2174  1.1753  1.3620
 3181SOL    HW221003   2.379   3.915   6.457  0.1732 -1.1789 -1.6960
 3182SOL     OW21004   3.560   1.316   2.337  0.3291  0.4800  0.3292
 3182SOL    HW121005   3.548   1.386   2.272  1.5322  2.0027  1.7561
 3182SOL    HW221006   3.607   1.252   2.284  0.7270 -0.6684  2.0836
 3183SOL     OW21007   2.183   1.557   2.133  0.1397  0.1924 -0.1033
 3183SOL    HW121008   2.133   1.633   2.105 -0.6629  0.1784  1.2758
 3183SOL    HW221009   2.124   1.515   2.196 -1.9847  1.7542 -1.0365
 3184SOL     OW21010   2.161   4.094   3.313 -0.3654 -0.1508 -0.2448
 3184SOL    HW121011   2.160   4.133   3.226  1.3340  0.0359 -0.1758
 3184SOL    HW221012   2.074   4.054   3.320 -1.3406  1.9326 -0.5407
 3185SOL     OW21013   0.608   1.857   7.432 -0.2237  0.1689 -0.1070
 3185SOL    HW121014   0.652   1.772   7.422 -0.1810  0.1781  0.0026
 3185SOL    HW221015   0.541   1.839   7.499  0.8990  0.3529  1.0783
 3186SOL     OW21016   0.067   4.648  11.349 -0.5840 -0.1161  0.3260
 3186SOL    HW121017   0.147   4.689  11.383 -1.6513  2.1920  0.0349
 3186SOL    HW221018   0.106   4.575  11.301  1.1339  0.7354  0.3959
 3187SOL     OW21019   1.177   3.768  10.856  0.3580  0.3501  0.4057
 3187SOL    HW121020   1.145   3.855  10.831 -0.3090  0.0567  0.2280
 3187SOL    HW221021   1.128   3.761  10.939  1.8985  1.4603  1.4146
 3188SOL     OW21022   4.215   1.864  11.703  0.3488 -0.6108 -0.0693
 3188SOL    HW121023   4.276   1.878  11.630 -3.3548  0.9004 -2.8556
 3188SOL    HW221024   4.174   1.783  11.672 -1.6513  0.4857 -0.2961
 3189SOL     OW21025   2.370   0.923   4.848 -0.8469 -0.6797 -0.5145
 3189SOL    HW121026   2.279   0.921   4.819 -1.2241  2.3219  0.4811
 3189SOL    HW221027   2.416   0.841   4.830  2.4927  0.7098  1.6572
 3190SOL     OW21028   3.854   0.829   8.378  0.0954 -0.1124 -0.0224
 3190SOL    HW121029   3.915   0.787   8.439 -0.4991  0.2962  0.8492
 3190SOL    HW221030   3.794   0.865   8.443  0.2357  2.0769 -1.0990
 3191SOL     OW21031   4.404   3.762   8.077  0.0046  0.1395 -0.1297
 3191SOL    HW121032   4.333   3.738   8.137  2.5230 -2.3050  1.8655
 3191SOL    HW221033   4.356   3.783   7.997  0.2972 -0.8045 -0.5529
 3192SOL     OW21034   2.535   1.062  15.262 -0.4840 -0.3915  0.3401
 3192SOL    HW121035   2.595   1.031  15.194  0.7767 -0.2115  1.3511
 3192SOL    HW221036   2.451   1.033  15.226  1.1457 -3.9148 -0.6201
 3193SOL     OW21037   1.502   1.312   6.210 -0.6487  0.1413  0.1885
 3193SOL    HW121038   1.447   1.321   6.287 -3.4258 -1.1182 -1.6346
 3193SOL    HW221039   1.431   1.311   6.146  1.2874 -2.8460 -1.9126
 3194SOL     OW21040   1.169   3.557   1.687  0.0124 -0.0123 -0.1844
 3194SOL    HW121041   1.210   3.473   1.668  0.0449 -0.1636  0.5512
 3194SOL    HW221042   1.221   3.583   1.763  0.1329 -1.7273  0.3186
 3195SOL     OW21043   3.816   3.433   2.935 -0.2283  0.4117  0.1196
 3195SOL    HW121044   3.852   3.353   2.898  0.2495  0.4746  0.4460
 3195SOL    HW221045   3.731   3.398   2.963 -0.7027  1.6743  0.2616
 3196SOL     OW21046   2.630   4.286  15.338 -0.4850 -0.1091  0.6103
 3196SOL    HW121047   2.700   4.338  15.378  0.4977 -0.9004 -0.0746
 3196SOL    HW221048   2.682   4.246  15.269 -2.5550 -1.0478 -0.3842
 3197SOL     OW21049   2.761   4.152  12.260 -0.0990 -0.6303 -0.3243
 3197SOL    HW121050   2.724   4.091  12.324 -0.8237  0.0746 -0.0788
 3197SOL    HW221051   2.708   4.230  12.273  1.1983 -0.0766  1.6852
 3198SOL     OW21052   0.054   4.148  14.627  0.0986  0.1664  0.3070
 3198SOL    HW121053   0.023   4.217  14.569  1.4514  0.3843 -0.1470
 3198SOL    HW221054   4.702   4.134  14.687 -1.0017  2.3471 -0.5325
 3199SOL     OW21055   4.339   0.822   0.337 -0.5797  0.3487 -0.2429
 3199SOL    HW121056   4.328   0.917   0.330 -1.3754  0.2403 -0.4541
 3199SOL    HW221057   4.434   0.816   0.349 -0.4745  0.2735 -1.1491
 3200SOL     OW21058   2.706   2.909  10.228  0.0710  0.0917 -0.4976
 3200SOL    HW121059   2.786   2.946  10.193  0.3638 -0.1115 -0.0467
 3200SOL    HW221060   2.661   2.913  10.144 -0.4609  1.3868 -0.1643
 3201SOL     OW21061   2.088   3.291  12.176  0.2930  0.6561 -0.5725
 3201SOL    HW121062   2.007   3.261  12.136  0.9046 -0.5202 -0.9225
 3201SOL    HW221063   2.159   3.259  12.120  1.9061 -0.5545  2.1835
 3202SOL     OW21064   2.763   4.103   0.224 -0.2472  0.7618  0.3446
 3202SOL    HW121065   2.795   4.019   0.190 -1.2165  1.0321 -1.2308
 3202SOL    HW221066   2.718   4.064   0.300 -1.3018  1.5025  0.1004
 3203SOL     OW21067   1.543   4.502  13.419  0.2785  0.5526  0.5943
 3203SOL    HW121068   1.464   4.453  13.397  1.4116 -1.6049  1.3111
 3203SOL    HW221069   1.566   4.542  13.335  0.0877 -1.8350 -0.5904
 3204SOL     OW21070   4.595   1.532  13.313  0.0848 -0.3505 -0.1666
 3204SOL    HW121071   4.628   1.586  13.240  0.1172  0.0718  0.1603
 3204SOL    HW221072   4.533   1.592  13.354  0.4175  1.2694 -2.0189
 3205SOL     OW21073   4.186   3.633  14.494  0.4750  0.6659 -0.0254
 3205SOL    HW121074   4.229   3.628  14.409 -1.9651 -0.3456 -1.2289
 3205SOL    HW221075   4.099   3.599  14.469  1.3904 -0.3958 -1.7563
 3206SOL     OW21076   0.883   2.099  13.928  0.0030 -0.0677 -0.7574
 3206SOL    HW121077   0.911   2.170  13.986  0.1454 -1.7506  1.2627
 3206SOL    HW221078   0.812   2.058  13.978 -0.2125  2.0667  0.7127
 3207SOL     OW21079   3.466   0.773   3.364  0.5941  0.0174  0.0720
 3207SOL    HW121080   3.443   0.839   3.429  0.2858  0.2604 -0.2808
 3207SOL    HW221081   3.409   0.707   3.403  0.3488 -1.3370 -2.5860
 3208SOL     OW21082   3.417   2.185  11.371 -0.3978  0.3941 -1.0114
 3208SOL    HW121083   3.493   2.129  11.354 -0.8769 -1.2288  2.0766
 3208SOL    HW221084   3.357   2.113  11.390  0.5368  0.1143  0.9359
 3209SOL     OW21085   4.242   4.362  15.953  0.5757 -0.9000 -0.3744
 3209SOL    HW121086   4.312   4.383  15.891  0.3961 -1.0562 -0.6265
 3209SOL    HW221087   4.204   4.450  15.958 -0.9801 -1.8280  3.5280
 3210SOL     OW21088   0.047   0.006   5.057  0.0982 -0.0073  0.5785
 3210SOL    HW121089   0.085   4.687   4.979 -1.1540  1.9686 -1.0540
 3210SOL    HW221090   0.006   0.080   5.012 -1.0606 -0.9095  0.1473
 3211SOL     OW21091   1.868   0.798  15.573  0.6268  0.4463 -0.6563
 3211SOL    HW121092   1.783   0.840  15.585  1.2641  1.5910 -0.0703
 3211SOL    HW221093   1.910   0.842  15.499  1.2042 -0.7703 -1.0578
 3212SOL     OW21094   3.387   3.303   5.023  0.2932  0.1282 -0.5378
 3212SOL    HW121095   3.352   3.265   5.104  1.8342  1.6008  0.8172
 3212SOL    HW221096   3.375   3.225   4.969  2.9025  0.5935 -1.7608
 3213SOL     OW21097   2.314   3.561   4.409  0.9407  0.0371  0.4617
 3213SOL    HW121098   2.330   3.644   4.454  0.1527 -0.4942  1.7297
 3213SOL    HW221099   2.257   3.575   4.334  0.6667 -1.0139  0.4751
 3214SOL     OW21100   0.345   3.242   2.617 -0.3067  0.5237  0.3734
 3214SOL    HW121101   0.331   3.318   2.673 -0.0196 -0.0504  1.2257
 3214SOL    HW221102   0.309   3.283   2.538  0.8827  0.7721 -0.0483
 3215SOL     OW21103   2.655   3.295   3.431  0.2094 -0.0637 -0.2224
 3215SOL    HW121104   2.630   3.365   3.372 -1.7815 -0.8383 -0.3119
 3215SOL    HW221105   2.732   3.270   3.381 -0.5263 -2.9532  0.0368
 3216SOL     OW21106   4.381   0.254  17.665 -0.1575  0.1322 -0.2993
 3216SOL    HW121107   4.447   0.211  17.610 -0.2649  0.7461 -0.9079
 3216SOL    HW221108   4.430   0.327   0.013  0.2275  0.2152 -0.9787
 3217SOL     OW21109   0.985   0.714   8.612 -0.0394  0.5002  0.0929
 3217SOL    HW121110   1.077   0.731   8.592  0.2914  0.1077  1.2340
 3217SOL    HW221111   1.000   0.622   8.636 -2.5133  0.2420  0.6444
 3218SOL     OW21112   1.721   3.796  11.220  0.0906 -0.1963  0.2485
 3218SOL    HW121113   1.775   3.862  11.176  0.7747 -0.4040  0.7790
 3218SOL    HW221114   1.787   3.727  11.223  2.4763  2.1368  1.2945
 3219SOL     OW21115   4.281   2.466   3.436 -0.6317 -0.1843 -0.0891
 3219SOL    HW121116   4.209   2.436   3.381 -0.7624  0.3726 -0.2203
 3219SOL    HW221117   4.248   2.549   3.468 -3.8363 -1.9061  1.0719
 3220SOL     OW21118   1.222   1.944   1.418  0.3575 -0.2101 -0.0922
 3220SOL    HW121119   1.201   1.858   1.381 -2.3269  0.3317  0.1499
 3220SOL    HW221120   1.211   1.914   1.508  3.4929  1.4656  0.8264
 3221SOL     OW21121   3.823   2.119   9.341  0.5248 -0.6598  0.5107
 3221SOL    HW121122   3.870   2.187   9.388 -4.0794 -0.3850  4.7359
 3221SOL    HW221123   3.869   2.114   9.257  0.9271  1.0476  0.6259
 3222SOL     OW21124   2.954   0.076   9.664 -0.8559 -0.0331  0.4742
 3222SOL    HW121125   2.879   0.104   9.716 -2.8413  0.3267 -2.6134
 3222SOL    HW221126   2.915   0.063   9.577  2.3321 -2.3151 -0.5992
 3223SOL     OW21127   3.209   0.733   8.194 -0.0969  0.3429  0.6173
 3223SOL    HW121128   3.116   0.709   8.193  0.1108 -0.6313  2.5251
 3223SOL    HW221129   3.230   0.795   8.125 -0.5368 -0.2070 -0.0099
 3224SOL     OW21130   1.266   4.658   8.982 -0.0418 -0.4592  0.0260
 3224SOL    HW121131   1.222   0.021   8.992  1.7078  0.4238  0.2983
 3224SOL    HW221132   1.328   4.660   9.054 -0.6481 -0.9723  0.5732
 3225SOL     OW21133   0.496   0.166   9.499  0.5375  0.1023  0.0867
 3225SOL    HW121134   0.422   0.169   9.438 -1.0248  0.2652  2.0267
 3225SOL    HW221135   0.547   0.090   9.469 -0.5238  0.0943 -1.7600
 3226SOL     OW21136   0.645   2.694   0.705 -0.0091  0.3795 -0.0394
 3226SOL    HW121137   0.669   2.763   0.767 -2.4503  2.3713 -1.2940
 3226SOL    HW221138   0.623   2.745   0.626  0.8245  0.0110 -0.5126
 3227SOL     OW21139   3.979   3.667  15.031  0.1592  0.1616 -0.5064
 3227SOL    HW121140   3.939   3.619  14.959  0.1650  2.2127 -1.8912
 3227SOL    HW221141   3.968   3.755  14.994  2.1018  0.8190  0.4807
 3228SOL     OW21142   4.037   3.107  13.425 -0.5524  0.1601  0.1662
 3228SOL    HW121143   4.091   3.184  13.407  0.5492 -0.4611  0.8577
 3228SOL    HW221144   3.950   3.133  13.393 -0.7182  1.2738  1.5142
 3229SOL     OW21145   0.614   0.501   7.384  0.3142  0.4972  0.0166
 3229SOL    HW121146   0.546   0.561   7.412 -1.3523 -2.1763  1.7438
 3229SOL    HW221147   0.606   0.511   7.289 -4.1283 -0.2465  0.3065
 3230SOL     OW21148   2.382   3.721   9.660 -0.5686  0.2750 -0.3242
 3230SOL    HW121149   2.397   3.746   9.568  0.2812 -1.8165 -0.7539
 3230SOL    HW221150   2.446   3.778   9.702  0.3968 -0.8666 -0.2286
 3231SOL     OW21151   4.365   0.397   5.086  0.7356 -0.1394  0.0293
 3231SOL    HW121152   4.342   0.380   5.177 -0.1928  1.8569  0.1547
 3231SOL    HW221153   4.442   0.454   5.085 -0.6401  1.7343  3.0719
 3232SOL     OW21154   3.644   2.546   8.511  0.0271 -0.3487 -0.2044
 3232SOL    HW121155   3.566   2.597   8.488  1.1573  0.4067 -2.3596
 3232SOL    HW221156   3.641   2.492   8.432  1.6648 -1.0370  0.2006
 3233SOL     OW21157   3.106   3.233   9.645 -0.1996 -0.2701  0.1153
 3233SOL    HW121158   3.196   3.221   9.618 -0.0886  0.9776 -0.0593
 3233SOL    HW221159   3.112   3.219   9.740 -2.2268 -0.8500  0.1637
 3234SOL     OW21160   1.300   4.035   7.242  0.2605 -0.4185  0.4176
 3234SOL    HW121161   1.321   4.123   7.212  0.4931  0.5745  3.4990
 3234SOL    HW221162   1.334   4.051   7.330 -0.9187  0.7751  0.6541
 3235SOL     OW21163   0.930   0.400  10.410  0.9247 -0.4476  0.3162
 3235SOL    HW121164   0.937   0.319  10.462  0.6165  0.8296  2.3543
 3235SOL    HW221165   1.017   0.436  10.427  0.3108  1.5454 -0.7920
 3236SOL     OW21166   2.695   2.880  11.384 -0.0142 -0.1340 -0.0732
 3236SOL    HW121167   2.722   2.972  11.383 -0.2765 -0.0464  0.8989
 3236SOL    HW221168   2.776   2.831  11.387  1.2909  1.9067 -1.7310
 3237SOL     OW21169   2.306   3.049  10.529  0.4280  0.3385  0.2961
 3237SOL    HW121170   2.274   3.115  10.468  0.1481 -0.5950 -0.5766
 3237SOL    HW221171   2.352   3.110  10.587 -0.7486  0.0835  1.4988
 3238SOL     OW21172   2.748   4.618   1.775 -0.0252  0.9457  0.1677
 3238SOL    HW121173   2.807   4.602   1.849  0.4255  0.5548 -0.2724
 3238SOL    HW221174   2.805   4.652   1.706  0.1391  1.9078  0.7858
 3239SOL     OW21175   0.853   4.597   4.544  0.1600 -0.2731  0.1083
 3239SOL    HW121176   0.788   4.595   4.473 -1.1399 -0.5903  1.2975
 3239SOL    HW221177   0.929   4.628   4.495  1.1739 -0.8412  1.3477
 3240SOL     OW21178   1.116   1.354   2.663 -0.2392  0.8217 -0.0388
 3240SOL    HW121179   1.031   1.397   2.654 -0.1738  1.0090  0.2454
 3240SOL    HW221180   1.110   1.277   2.607  1.5538 -0.7633  1.9476
 3241SOL     OW21181   1.470   4.276  11.817  0.3759 -0.1822  0.4328
 3241SOL    HW121182   1.565   4.278  11.817  0.3687  0.2336 -2.5198
 3241SOL    HW221183   1.454   4.200  11.761 -0.8755  0.0660  0.4400
 3242SOL     OW21184   0.659   4.642   3.629  0.1946  0.4400  0.0119
 3242SOL    HW121185   0.743   4.600   3.612 -1.6408 -1.6712 -3.7603
 3242SOL    HW221186   0.609   4.576   3.677  0.1138  0.5098  0.0237
 3243SOL     OW21187   2.167   3.283   9.895 -0.1869  0.1918 -0.4574
 3243SOL    HW121188   2.179   3.281   9.990  0.8916 -0.0680 -0.5974
 3243SOL    HW221189   2.219   3.357   9.864 -0.7701  1.4900  1.7243
 3244SOL     OW21190   4.250   2.266   6.606  0.7621  0.3349  0.4412
 3244SOL    HW121191   4.299   2.188   6.633 -1.2865 -1.1292 -0.0884
 3244SOL    HW221192   4.178   2.227   6.557  2.3409  3.7664 -4.6464
 3245SOL     OW21193   4.193   2.917   1.716  0.2240 -0.0717 -0.2689
 3245SOL    HW121194   4.098   2.918   1.710  0.1893 -2.2365 -0.0157
 3245SOL    HW221195   4.200   2.994   1.773 -2.1463  0.4787 -0.7127
 3246SOL     OW21196   0.063   0.742   0.527 -0.4113  0.2445 -0.7897
 3246SOL    HW121197   0.092   0.816   0.581 -0.2589 -0.0707 -0.4308
 3246SOL    HW221198   0.011   0.695   0.593  1.1556  1.2557  1.1857
 3247SOL     OW21199   2.471   0.180  17.652 -0.0193 -0.4502  0.2220
 3247SOL    HW121200   2.542   0.236  17.620  0.9389 -1.8874 -0.1966
 3247SOL    HW221201   2.523   0.131   0.027 -1.1807 -0.2575  1.3226
 3248SOL     OW21202   1.110   2.213  14.307  0.0381 -0.4493 -0.0093
 3248SOL    HW121203   1.089   2.233  14.215 -1.1944 -2.2808 -0.1229
 3248SOL    HW221204   1.042   2.250  14.363 -0.1657 -0.1261 -0.4687
 3249SOL     OW21205   2.103   1.274   0.344  0.0934  0.4685  0.1863
 3249SOL    HW121206   2.107   1.234   0.257 -1.4233  1.2847 -0.2658
 3249SOL    HW221207   2.035   1.225   0.389  1.4987  0.3982  2.2151
 3250SOL     OW21208   0.681   3.541   5.919 -0.1575  0.2174 -0.3216
 3250SOL    HW121209   0.591   3.512   5.936 -0.0514  0.8430  1.3585
 3250SOL    HW221210   0.685   3.526   5.825 -2.2679  0.0778 -0.3882
 3251SOL     OW21211   4.370   3.316   4.861  0.1627 -0.5395 -0.2149
 3251SOL    HW121212   4.453   3.280   4.892  1.3193  0.4995 -2.0851
 3251SOL    HW221213   4.342   3.240   4.809  0.3243  0.3089 -1.5508
 3252SOL     OW21214   2.440   3.105   7.306  0.3263 -0.1800  0.1127
 3252SOL    HW121215   2.496   3.170   7.349  1.7047 -0.2979 -1.5040
 3252SOL    HW221216   2.386   3.073   7.379 -0.4375  0.0873 -0.3369
 3253SOL     OW21217   3.321   1.592  16.552  0.7498  0.4605 -0.4628
 3253SOL    HW121218   3.292   1.500  16.554 -2.1024  1.4114  1.2048
 3253SOL    HW221219   3.410   1.592  16.588 -0.3152 -1.9004  2.2665
 3254SOL     OW21220   1.907   3.919  10.758  0.6065 -0.0594 -0.2772
 3254SOL    HW121221   1.874   3.830  10.772 -0.9319  0.6986  0.8566
 3254SOL    HW221222   1.826   3.967  10.742  0.6059  0.0779  0.1380
 3255SOL     OW21223   1.486   0.464  13.360  0.3857  0.3544  0.0942
 3255SOL    HW121224   1.511   0.419  13.279 -1.1771 -0.8921  0.3198
 3255SOL    HW221225   1.418   0.401  13.381  0.9431 -0.0906  0.5486
 3256SOL     OW21226   1.681   0.696   8.534 -0.7300  0.4882  0.0820
 3256SOL    HW121227   1.633   0.728   8.610  0.9878 -0.8593  1.7614
 3256SOL    HW221228   1.677   0.775   8.480 -0.9336  0.1877 -0.3434
 3257SOL     OW21229   2.181   4.649   0.394  0.3876 -0.0556  0.5580
 3257SOL    HW121230   2.205   4.691   0.476  0.8871  2.5275 -0.8774
 3257SOL    HW221231   2.211   4.716   0.332  1.9645 -0.6068  0.7344
 3258SOL     OW21232   2.538   4.020  13.211  0.1110 -0.1688  0.3295
 3258SOL    HW121233   2.526   4.030  13.305 -3.3772 -1.7585  0.0478
 3258SOL    HW221234   2.615   3.964  13.222  0.9351  0.7559 -0.6971
 3259SOL     OW21235   1.679   1.794  10.459 -0.6748 -0.1275  0.1393
 3259SOL    HW121236   1.685   1.845  10.378 -0.4968 -0.8336 -0.2854
 3259SOL    HW221237   1.734   1.846  10.518  0.2464 -1.7951  0.7197
 3260SOL     OW21238   3.820   2.093  10.306 -0.6950  0.3386 -0.4590
 3260SOL    HW121239   3.857   2.175  10.340 -1.8787  0.3623  0.7548
 3260SOL    HW221240   3.735   2.128  10.280 -1.3740 -1.5489 -0.7435
 3261SOL     OW21241   2.511   3.697   3.476  0.0936  0.3047  0.7190
 3261SOL    HW121242   2.598   3.695   3.437 -0.6170  1.2531 -0.9317
 3261SOL    HW221243   2.496   3.790   3.496 -0.5462  0.2217  0.6300
 3262SOL     OW21244   2.307   3.628   3.674 -0.3416 -0.4191  0.3333
 3262SOL    HW121245   2.283   3.552   3.726 -0.2861  0.0708  1.0831
 3262SOL    HW221246   2.328   3.593   3.588 -1.2438 -1.1408  0.4160
 3263SOL     OW21247   3.458   2.796   5.532  0.2490 -0.0524  0.2957
 3263SOL    HW121248   3.445   2.798   5.627  0.0885 -1.3605  0.3012
 3263SOL    HW221249   3.423   2.883   5.513  0.6689 -0.2401 -1.3306
 3264SOL     OW21250   3.877   0.910   6.855 -0.2178  1.0945 -0.3553
 3264SOL    HW121251   3.851   0.940   6.768  0.6807  2.0933 -0.2884
 3264SOL    HW221252   3.913   0.993   6.887 -0.7740  2.3440 -3.0063
 3265SOL     OW21253   0.154   4.583   8.291 -0.6705  0.1610 -0.0634
 3265SOL    HW121254   0.177   4.664   8.337 -1.8418 -0.4021  1.5314
 3265SOL    HW221255   0.081   4.537   8.333 -0.4950  1.9241  2.2010
 3266SOL     OW21256   2.405   1.153   0.031  0.5691  0.0257  0.1894
 3266SOL    HW121257   2.376   1.244   0.022 -1.5890 -0.6120  0.9262
 3266SOL    HW221258   2.393   1.130   0.123  0.9719  1.0547  0.5033
 3267SOL     OW21259   2.326   2.600  16.784  0.0029 -0.7476 -0.3089
 3267SOL    HW121260   2.308   2.595  16.878 -0.0114  1.6479 -0.1937
 3267SOL    HW221261   2.314   2.693  16.765  0.5529 -0.4622  0.7258
 3268SOL     OW21262   2.535   2.331   4.053 -0.2698 -0.2991 -0.3192
 3268SOL    HW121263   2.467   2.397   4.038 -0.5245 -0.2734  0.9870
 3268SOL    HW221264   2.594   2.386   4.104  0.4820 -0.3543 -1.1161
 3269SOL     OW21265   0.243   1.480   4.591 -0.3173  0.2643 -0.1206
 3269SOL    HW121266   0.181   1.553   4.593 -0.7600 -0.1985  2.5213
 3269SOL    HW221267   0.211   1.441   4.509 -1.4768  1.5930 -0.3035
 3270SOL     OW21268   2.245   4.266   6.024  0.0599 -0.4516 -0.3014
 3270SOL    HW121269   2.297   4.347   6.024  2.4898 -2.0177  1.0293
 3270SOL    HW221270   2.309   4.201   5.995  1.4964  1.5025 -1.5952
 3271SOL     OW21271   3.846   2.158   5.014 -0.1484 -0.1851  0.1583
 3271SOL    HW121272   3.806   2.245   5.012 -0.2654 -0.2308  0.4632
 3271SOL    HW221273   3.907   2.170   4.941  1.8279  0.4981  1.9373
 3272SOL     OW21274   1.170   3.982   9.986  0.1786 -0.0423 -0.2885
 3272SOL    HW121275   1.100   3.971  10.051 -0.2688 -2.6977 -1.2495
 3272SOL    HW221276   1.169   4.077   9.971 -1.0352 -0.2093 -1.2539
 3273SOL     OW21277   0.994   0.971   9.288  0.3520 -0.1575  0.5060
 3273SOL    HW121278   0.971   0.898   9.231  0.2884  0.9465 -0.8934
 3273SOL    HW221279   1.074   0.942   9.332 -0.8190 -4.1155  0.0345
 3274SOL     OW21280   1.634   1.218  13.622  0.2182 -0.2561 -0.1031
 3274SOL    HW121281   1.638   1.148  13.687  0.8175  1.1949  1.4467
 3274SOL    HW221282   1.701   1.278  13.657  0.0891 -0.1818  0.0182
 3275SOL     OW21283   4.196   0.891  10.434 -0.8362  0.3950 -0.0134
 3275SOL    HW121284   4.183   0.806  10.392  0.5232  1.7316 -3.1281
 3275SOL    HW221285   4.161   0.875  10.521 -0.3994 -0.9791 -0.0797
 3276SOL     OW21286   0.297   4.028  11.006 -0.3217 -0.1838  0.7012
 3276SOL    HW121287   0.361   4.019  11.077  1.9393 -1.6303 -1.4965
 3276SOL    HW221288   0.218   4.055  11.053 -0.1173  0.8249  0.4739
 3277SOL     OW21289   1.580   1.881   2.452 -0.4887 -0.0927 -0.4752
 3277SOL    HW121290   1.616   1.811   2.397 -0.4886 -0.2432 -0.2824
 3277SOL    HW221291   1.640   1.886   2.527 -0.0859  0.2922 -0.8246
 3278SOL     OW21292   3.695   3.011   2.120  0.0353 -0.7679 -0.3803
 3278SOL    HW121293   3.669   3.097   2.154  0.5080 -0.8764  0.2434
 3278SOL    HW221294   3.675   2.946   2.186  1.1933 -0.7326 -0.0001
 3279SOL     OW21295   3.505   1.391   7.093  0.1954 -0.4340  0.2307
 3279SOL    HW121296   3.477   1.362   7.180  0.8106  0.6312  0.7913
 3279SOL    HW221297   3.436   1.456   7.080  1.3843 -0.4446 -6.1685
 3280SOL     OW21298   1.237   3.275   3.361  0.0815  0.4760 -0.6282
 3280SOL    HW121299   1.214   3.192   3.321  1.8671 -1.3075  1.9979
 3280SOL    HW221300   1.156   3.325   3.349 -1.7781 -1.9125  2.0663
 3281SOL     OW21301   4.575   0.449  15.256 -0.3023 -0.3291 -0.6983
 3281SOL    HW121302   4.649   0.449  15.316  0.1052 -1.1408 -1.1946
 3281SOL    HW221303   4.507   0.400  15.303  1.1741 -0.2915  1.4535
 3282SOL     OW21304   1.076   3.533   6.373  0.5787 -0.1111 -0.3868
 3282SOL    HW121305   1.124   3.502   6.450  3.3760  1.0185 -1.6849
 3282SOL    HW221306   0.992   3.526   6.418 -0.4262 -0.9724 -2.3760
 3283SOL     OW21307   3.224   0.561  17.677 -0.3615  0.1949 -0.1529
 3283SOL    HW121308   3.140   0.606  17.685 -0.7202 -0.9247  2.3063
 3283SOL    HW221309   3.274   0.641  17.658  1.8508 -1.3662 -0.8216
 3284SOL     OW21310   1.268   1.102   1.750  0.2548  0.1050  0.4988
 3284SOL    HW121311   1.357   1.136   1.743 -0.0017  0.8528  0.9552
 3284SOL    HW221312   1.240   1.137   1.834 -1.0453 -0.5897  0.3667
 3285SOL     OW21313   3.594   0.444   1.752  0.3920  0.4381 -0.0536
 3285SOL    HW121314   3.630   0.531   1.733 -1.2115  1.3651  1.1225
 3285SOL    HW221315   3.515   0.447   1.699 -0.8474  1.3396  1.8177
 3286SOL     OW21316   0.348   0.991   6.111  0.6839  0.0517 -0.0186
 3286SOL    HW121317   0.266   0.959   6.151 -0.0181  1.8565 -0.0390
 3286SOL    HW221318   0.408   0.970   6.183  0.0717 -0.9453  0.2113
 3287SOL     OW21319   0.746   0.388   6.752 -0.0822  0.2918 -0.5993
 3287SOL    HW121320   0.735   0.302   6.711  1.7753 -0.7851  1.0879
 3287SOL    HW221321   0.736   0.454   6.684  1.7642  1.3744  0.1551
 3288SOL     OW21322   3.060   0.667   1.345  0.2992 -0.4391 -0.2478
 3288SOL    HW121323   3.146   0.663   1.303  0.3304  0.7996 -0.3038
 3288SOL    HW221324   3.004   0.630   1.277 -0.2109 -1.3205  0.6483
 3289SOL     OW21325   0.338   3.213   8.863 -0.5690  0.3983  0.3966
 3289SOL    HW121326   0.303   3.129   8.892 -0.4797  1.0403  2.3709
 3289SOL    HW221327   0.296   3.271   8.927 -2.5196  1.5519 -1.9555
 3290SOL     OW21328   0.384   3.348  14.978  0.0502  0.3715 -0.3416
 3290SOL    HW121329   0.310   3.388  14.932  0.6757 -0.1448 -1.8146
 3290SOL    HW221330   0.454   3.390  14.929 -0.2223 -0.3661 -1.3733
 3291SOL     OW21331   1.610   4.062  12.854  0.3071 -0.7152  0.3219
 3291SOL    HW121332   1.618   4.095  12.943  1.3482 -1.6814  0.5876
 3291SOL    HW221333   1.653   3.976  12.862 -0.2776 -0.8838  1.5561
 3292SOL     OW21334   2.306   1.826  11.782  0.0449  0.0867 -0.3111
 3292SOL    HW121335   2.217   1.803  11.753 -0.5068  1.7552  0.0359
 3292SOL    HW221336   2.352   1.762  11.728 -2.2925 -0.9009 -1.1586
 3293SOL     OW21337   0.812   0.034   8.984  0.2211  0.0168 -0.6408
 3293SOL    HW121338   0.831   0.004   9.073  1.3406 -0.6015 -1.0870
 3293SOL    HW221339   0.854   0.120   8.988  0.5949 -0.1658 -0.5941
 3294SOL     OW21340   0.458   1.602   8.499 -0.2902  0.1285 -0.3750
 3294SOL    HW121341   0.496   1.525   8.456  1.3598  1.3046 -1.0448
 3294SOL    HW221342   0.498   1.594   8.585  0.9684 -1.9774 -1.1471
 3295SOL     OW21343   4.258   1.448   6.247  0.3616  0.2913  0.2443
 3295SOL    HW121344   4.297   1.361   6.253 -1.3968 -0.4340  1.0881
 3295SOL    HW221345   4.277   1.492   6.330 -1.9466  0.0054  0.9084
 3296SOL     OW21346   1.310   1.826  15.180 -0.1145 -0.2629 -0.5572
 3296SOL    HW121347   1.232   1.827  15.235 -1.4433 -1.3537 -2.4352
 3296SOL    HW221348   1.326   1.919  15.161 -0.8740  0.0975  0.5522
 3297SOL     OW21349   0.672   2.555   5.229  0.0639  0.3735 -0.4289
 3297SOL    HW121350   0.649   2.467   5.261  1.3295  0.1095 -0.2414
 3297SOL    HW221351   0.735   2.534   5.159 -0.9087 -0.7722 -0.9638
 3298SOL     OW21352   0.706   3.780  13.268  0.1374 -0.1562  0.6430
 3298SOL    HW121353   0.786   3.759  13.220 -0.6635  0.9176 -1.1729
 3298SOL    HW221354   0.724   3.737  13.351  0.9462 -1.9971 -0.4909
 3299SOL     OW21355   1.402   2.177   4.832  0.5573 -0.1346 -0.1031
 3299SOL    HW121356   1.421   2.084   4.843  1.2974  0.1886  1.4430
 3299SOL    HW221357   1.479   2.223   4.867  1.0956 -3.0791  2.6091
 3300SOL     OW21358   3.650   2.975  15.098  0.5696  0.3143  0.1590
 3300SOL    HW121359   3.669   3.058  15.142 -2.5833  1.4232 -0.5928
 3300SOL    HW221360   3.692   2.986  15.013 -0.9620  2.4587 -0.3186
 3301SOL     OW21361   1.652   4.614   6.649 -0.5264 -0.3241 -0.3224
 3301SOL    HW121362   1.596   4.655   6.582 -2.7229 -1.5950  0.7176
 3301SOL    HW221363   1.643   4.522   6.623  0.3836 -0.7306  0.8091
 3302SOL     OW21364   4.152   1.906   6.588 -0.4610 -0.0159 -0.4843
 3302SOL    HW121365   4.210   1.970   6.629 -2.4930  2.6236 -1.7381
 3302SOL    HW221366   4.096   1.964   6.536 -1.7404 -1.6887 -0.9975
 3303SOL     OW21367   4.055   3.329   0.439  0.0353  0.9242 -0.7539
 3303SOL    HW121368   3.984   3.286   0.392  0.2609  0.2873 -0.5238
 3303SOL    HW221369   4.065   3.415   0.398  2.1619 -0.6216 -3.4888
 3304SOL     OW21370   2.487   2.684  13.590 -0.0338  0.1902 -0.0580
 3304SOL    HW121371   2.501   2.778  13.601  0.4899 -0.1259  1.9783
 3304SOL    HW221372   2.434   2.669  13.668  0.0003  0.9819  0.1183
 3305SOL     OW21373   4.537   0.657   9.141  0.1722 -0.6461  0.2778
 3305SOL    HW121374   4.489   0.737   9.125  0.6796 -0.5386 -0.6764
 3305SOL    HW221375   4.477   0.613   9.201 -0.4569  0.8637  0.7502
 3306SOL     OW21376   1.151   2.079  10.520  0.1594  0.1400  0.3569
 3306SOL    HW121377   1.080   2.027  10.556  0.2546 -0.7936 -0.8085
 3306SOL    HW221378   1.141   2.164  10.563  1.4906  0.3506  0.2733
 3307SOL     OW21379   2.617   3.497   5.378 -0.0664 -0.2847 -0.4959
 3307SOL    HW121380   2.618   3.572   5.437  0.3074 -0.7618  0.0974
 3307SOL    HW221381   2.703   3.506   5.338 -0.3125  1.2374 -0.6767
 3308SOL     OW21382   0.997   1.900   4.225  0.3646  0.5343  0.0027
 3308SOL    HW121383   0.902   1.905   4.235  0.5343  1.3164  1.1704
 3308SOL    HW221384   1.016   1.928   4.314 -0.3270 -0.6283  0.5049
 3309SOL     OW21385   2.236   3.459   8.715 -0.0063  0.1352  0.4702
 3309SOL    HW121386   2.264   3.464   8.806  1.4421 -0.4592  0.0539
 3309SOL    HW221387   2.297   3.393   8.683 -0.6507  0.7066 -1.9302
 3310SOL     OW21388   3.965   0.430   6.172 -0.6403 -0.9219 -0.0276
 3310SOL    HW121389   3.899   0.490   6.205  1.9390  1.1955  1.2954
 3310SOL    HW221390   4.043   0.462   6.218 -0.1746 -0.1241 -1.3821
 3311SOL     OW21391   4.660   2.530   1.231 -0.2105 -0.2495 -0.0404
 3311SOL    HW121392   4.588   2.502   1.175 -1.4067 -0.9656  1.8510
 3311SOL    HW221393   4.721   2.543   1.159 -0.2697 -0.3264 -0.1044
 3312SOL     OW21394   4.418   3.608   0.925  0.7111  0.1329 -0.2586
 3312SOL    HW121395   4.416   3.555   1.004 -0.2136  1.0286  0.3205
 3312SOL    HW221396   4.499   3.566   0.895  0.0956 -1.2906  0.0570
 3313SOL     OW21397   1.703   3.239   8.719  0.0135  0.2078 -0.1512
 3313SOL    HW121398   1.664   3.289   8.647  1.8483  1.9308  0.0296
 3313SOL    HW221399   1.633   3.187   8.758  0.0787 -0.3453 -0.7844
 3314SOL     OW21400   3.627   4.302   6.651 -0.2715 -0.8522  0.3686
 3314SOL    HW121401   3.645   4.381   6.702  1.1772 -0.4592 -0.7447
 3314SOL    HW221402   3.559   4.268   6.709 -0.7031  1.4135  1.2128
 3315SOL     OW21403   4.706   3.077   6.182  0.3100 -0.1608  0.2996
 3315SOL    HW121404   4.611   3.069   6.191  0.4330 -0.9491  0.9099
 3315SOL    HW221405   0.014   3.107   6.268  1.5090 -0.6411  0.0650
 3316SOL     OW21406   0.762   4.645  10.653  0.4871 -0.0699 -0.3779
 3316SOL    HW121407   0.743   4.637  10.747 -0.5047 -1.5725 -0.6951
 3316SOL    HW221408   0.672   4.667  10.630  0.6087  0.5120 -0.2825
 3317SOL     OW21409   4.690   2.496   7.586  0.4017 -0.5152  0.5762
 3317SOL    HW121410   4.614   2.440   7.571  0.4072 -0.2989 -0.2854
 3317SOL    HW221411   4.648   2.574   7.622  0.8058  1.0791 -2.4048
 3318SOL     OW21412   2.848   0.689   1.893 -0.2973  0.3444 -0.3063
 3318SOL    HW121413   2.915   0.755   1.878  0.8299 -0.6163  0.5508
 3318SOL    HW221414   2.774   0.734   1.852 -0.6776 -0.3714 -0.3975
 3319SOL     OW21415   3.080   1.418   8.157 -0.0917 -0.0074 -0.2636
 3319SOL    HW121416   3.094   1.512   8.141  0.3536 -0.0553 -0.1623
 3319SOL    HW221417   3.009   1.413   8.221  0.1745 -0.3816 -0.0031
 3320SOL     OW21418   4.671   4.538   2.025 -0.6449 -0.1691 -0.0186
 3320SOL    HW121419   4.708   4.489   2.098 -1.4735 -0.6253  0.0981
 3320SOL    HW221420   4.713   4.495   1.951  0.6376  0.9649  0.0561
 3321SOL     OW21421   1.540   4.272  13.137 -0.1539  0.1039  0.3188
 3321SOL    HW121422   1.555   4.184  13.173 -0.9928 -0.5347 -0.9004
 3321SOL    HW221423   1.629   4.284  13.103 -0.1943 -4.5998 -1.3888
 3322SOL     OW21424   3.376   2.384   8.585  0.0649  0.3320  0.0668
 3322SOL    HW121425   3.346   2.451   8.646  0.3953 -0.8631  1.5343
 3322SOL    HW221426   3.289   2.355   8.558  0.7295 -1.9022  0.3304
 3323SOL     OW21427   2.719   1.403   4.517 -0.0219  0.4086  0.3697
 3323SOL    HW121428   2.694   1.494   4.527 -0.8747  0.0522  1.4260
 3323SOL    HW221429   2.638   1.364   4.548  0.2584 -1.0841 -0.7552
 3324SOL     OW21430   1.408   0.329   3.629 -0.1573 -0.0653  0.3857
 3324SOL    HW121431   1.348   0.284   3.570 -1.4907 -1.0970  2.5387
 3324SOL    HW221432   1.481   0.269   3.642  0.3894  0.8937  1.6897
 3325SOL     OW21433   3.598   0.456   7.000  0.3032  0.4470  0.0218
 3325SOL    HW121434   3.685   0.415   7.001 -0.4392 -1.1153 -0.3231
 3325SOL    HW221435   3.614   0.547   6.976 -0.4539  0.3167 -0.9497
 3326SOL     OW21436   4.269   1.254  10.846 -0.3357 -0.3931  0.0031
 3326SOL    HW121437   4.239   1.278  10.758  0.0592 -2.3443 -0.6631
 3326SOL    HW221438   4.189   1.265  10.897  0.5458  1.2471  1.0186
 3327SOL     OW21439   1.342   0.757  11.075  0.7779 -0.2074  0.7143
 3327SOL    HW121440   1.364   0.781  11.165  2.0351  2.1748 -0.2227
 3327SOL    HW221441   1.416   0.799  11.032 -0.4173 -0.0600 -1.1780
 3328SOL     OW21442   2.231   2.865  16.754  0.0177  0.0531  0.7125
 3328SOL    HW121443   2.309   2.911  16.785 -1.3923  3.4753 -0.8242
 3328SOL    HW221444   2.161   2.897  16.810  0.1075 -0.8963  1.3698
 3329SOL     OW21445   2.087   2.427  11.546 -0.7279 -0.2349 -0.0338
 3329SOL    HW121446   2.149   2.368  11.504 -0.0383  1.2999 -1.1993
 3329SOL    HW221447   2.057   2.459  11.460 -0.1847 -3.7746 -1.5229
 3330SOL     OW21448   1.888   4.510   2.209 -0.2075 -0.0665 -0.0273
 3330SOL    HW121449   1.807   4.516   2.157  0.2475  1.4184 -0.5707
 3330SOL    HW221450   1.851   4.516   2.297 -0.9075  0.8103 -0.3814
 3331SOL     OW21451   0.528   0.226   6.922  0.5407 -0.3656  0.0437
 3331SOL    HW121452   0.595   0.161   6.943  1.0117 -0.8086 -2.7873
 3331SOL    HW221453   0.554   0.257   6.835 -1.7951 -1.2058 -0.9525
 3332SOL     OW21454   3.853   2.192  17.117 -0.0372 -0.2208  0.3122
 3332SOL    HW121455   3.841   2.170  17.209  1.9462 -1.5497  0.2609
 3332SOL    HW221456   3.943   2.223  17.117 -0.4392  0.9336 -0.5604
 3333SOL     OW21457   4.115   4.011  16.652 -0.1231  0.6097 -0.7854
 3333SOL    HW121458   4.089   3.962  16.574 -1.4720  1.4398 -0.8604
 3333SOL    HW221459   4.030   4.036  16.688  0.0080 -1.1867  0.7357
 3334SOL     OW21460   1.796   3.452   1.460 -0.0256 -0.0496 -0.5969
 3334SOL    HW121461   1.787   3.515   1.388 -3.6994  0.1318  0.0412
 3334SOL    HW221462   1.732   3.490   1.519 -2.5467 -2.0148 -2.0502
 3335SOL     OW21463   0.929   0.577   2.638  0.2973  0.2244 -0.3660
 3335SOL    HW121464   1.017   0.570   2.601  0.1749 -1.6517 -0.3227
 3335SOL    HW221465   0.882   0.556   2.557 -0.1412  0.2952 -0.1261
 3336SOL     OW21466   3.650   4.649   5.856 -0.2712 -0.3416  0.5178
 3336SOL    HW121467   3.625   4.702   5.780 -2.5181 -0.8904  0.8655
 3336SOL    HW221468   3.692   4.575   5.813  1.6388  1.7519 -1.2460
 3337SOL     OW21469   2.479   2.799  13.267  0.8057  0.5551 -0.1028
 3337SOL    HW121470   2.398   2.848  13.274  0.2063 -0.1781 -1.8867
 3337SOL    HW221471   2.471   2.749  13.349 -0.5124  0.6908 -0.1504
 3338SOL     OW21472   1.731   2.397   7.887 -0.8487 -0.6573  0.3034
 3338SOL    HW121473   1.802   2.437   7.938 -0.3189 -0.7818 -0.3389
 3338SOL    HW221474   1.787   2.330   7.849 -1.1454  1.0071 -3.0697
 3339SOL     OW21475   4.304   3.619   5.645  0.2636  0.7118 -0.0723
 3339SOL    HW121476   4.289   3.561   5.720 -1.4160 -0.0048 -0.9533
 3339SOL    HW221477   4.220   3.657   5.621 -0.4765  0.4325  2.0833
 3340SOL     OW21478   2.028   2.253   6.754  0.7834  0.8252  0.0791
 3340SOL    HW121479   2.058   2.293   6.672  0.1286  0.8820 -0.1327
 3340SOL    HW221480   2.094   2.268   6.821 -0.0254 -1.8853  1.4895
 3341SOL     OW21481   0.213   2.860  14.099  0.3626 -0.0592  0.2725
 3341SOL    HW121482   0.253   2.785  14.143 -0.0399  0.1782  1.0541
 3341SOL    HW221483   0.232   2.930  14.162  0.3432 -0.9664  1.2963
 3342SOL     OW21484   0.709   4.720   3.114  0.0471  0.0965 -0.3073
 3342SOL    HW121485   0.687   0.090   3.094 -0.1062  0.3310  0.9056
 3342SOL    HW221486   0.678   4.719   3.205 -1.3923 -0.5515 -0.7995
 3343SOL     OW21487   3.736   1.367   6.697  0.6354 -0.1999 -0.3025
 3343SOL    HW121488   3.687   1.439   6.736  1.4021  0.2482 -0.1875
 3343SOL    HW221489   3.696   1.365   6.610 -0.7254 -0.2339  0.3259
 3344SOL     OW21490   4.661   0.316   7.504  0.1739 -0.4092 -0.1670
 3344SOL    HW121491   4.581   0.365   7.487 -0.1734  0.0418  2.6970
 3344SOL    HW221492   4.703   0.326   7.419 -0.7309  0.0818 -0.5619
 3345SOL     OW21493   0.362   0.804  12.856  0.2837 -0.3842  0.2242
 3345SOL    HW121494   0.342   0.804  12.763  0.6071  0.1847  0.1481
 3345SOL    HW221495   0.376   0.898  12.869  0.1883 -0.2548 -0.5806
 3346SOL     OW21496   2.032   3.473   7.540 -0.3548  0.0087  0.7011
 3346SOL    HW121497   1.959   3.432   7.495 -0.1797  1.7341 -1.1612
 3346SOL    HW221498   2.085   3.397   7.567  0.9446  0.9039  0.6914
 3347SOL     OW21499   3.074   0.309   4.316  0.2931  0.0646  0.3319
 3347SOL    HW121500   3.122   0.390   4.330 -0.5535  0.3448  1.6427
 3347SOL    HW221501   3.138   0.240   4.332 -0.1735 -0.6077 -0.6883
 3348SOL     OW21502   2.587   2.215  10.495  0.0384 -0.2466 -0.4695
 3348SOL    HW121503   2.546   2.236  10.579  1.5596  2.6854 -0.4566
 3348SOL    HW221504   2.669   2.263  10.497  0.5536 -1.3661  3.5781
 3349SOL     OW21505   0.901   0.144  10.551 -0.1117 -0.1038 -0.2675
 3349SOL    HW121506   0.976   0.111  10.503  0.2104  0.9393 -0.4817
 3349SOL    HW221507   0.844   0.068  10.542  0.0624 -0.4160  1.2518
 3350SOL     OW21508   2.836   1.473  14.153  0.5341 -0.2970 -0.7887
 3350SOL    HW121509   2.871   1.486  14.242 -0.5484  1.6492 -0.6330
 3350SOL    HW221510   2.767   1.410  14.174  2.0072 -2.0987 -1.3723
 3351SOL     OW21511   4.511   0.506   6.691  0.8566  0.2044 -0.4392
 3351SOL    HW121512   4.510   0.453   6.770  0.8881  0.6274 -0.1511
 3351SOL    HW221513   4.529   0.586   6.740 -1.7973  0.2687  0.4606
 3352SOL     OW21514   1.271   0.284   8.704 -0.0409  0.4108 -0.0741
 3352SOL    HW121515   1.326   0.207   8.719 -0.7254  0.5390  2.9470
 3352SOL    HW221516   1.332   0.357   8.715  3.7826 -3.2524  2.7435
 3353SOL     OW21517   0.368   0.162   8.054  0.3680 -0.4902 -0.0495
 3353SOL    HW121518   0.457   0.130   8.049  0.8209  1.2387 -3.0131
 3353SOL    HW221519   0.387   0.235   7.995 -0.0908 -1.0448 -0.8986
 3354SOL     OW21520   3.870   4.493   2.018  0.1456  0.3913  0.0024
 3354SOL    HW121521   3.852   4.527   2.105 -2.3157 -0.1966 -0.2772
 3354SOL    HW221522   3.895   4.573   1.972 -0.7077  0.5345 -0.2122
 3355SOL     OW21523   0.107   3.970   7.148 -0.6509  0.0760 -0.0147
 3355SOL    HW121524   0.155   3.978   7.229 -0.6524  0.9142 -0.0972
 3355SOL    HW221525   0.032   4.026   7.171 -0.6476  0.1743 -0.2382
 3356SOL     OW21526   4.013   2.137   6.474  0.3228 -0.0765  0.2020
 3356SOL    HW121527   4.013   2.131   6.378  0.3076  0.8307  0.1443
 3356SOL    HW221528   3.928   2.175   6.495 -0.5333 -0.8560 -1.8600
 3357SOL     OW21529   3.076   1.603   3.576  0.0417 -0.7448 -0.5142
 3357SOL    HW121530   3.076   1.542   3.503 -1.4548 -1.7200  0.3119
 3357SOL    HW221531   3.159   1.651   3.570 -0.3625  0.2747  1.8489
 3358SOL     OW21532   1.935   3.512   3.169  0.0434 -0.2263  0.4343
 3358SOL    HW121533   1.886   3.557   3.239 -1.2571 -0.6463 -0.1981
 3358SOL    HW221534   1.969   3.437   3.217  0.7955 -0.3111 -0.2527
 3359SOL     OW21535   4.592   2.748   7.620 -0.3221  0.2913 -0.3677
 3359SOL    HW121536   4.573   2.798   7.700 -2.0159  1.4459 -1.4915
 3359SOL    HW221537   4.516   2.772   7.567 -0.2404  1.7925  0.1963
 3360SOL     OW21538   1.313   0.957   2.814  0.0480 -0.4522 -0.1093
 3360SOL    HW121539   1.322   1.053   2.810  0.9077 -0.4565  1.2848
 3360SOL    HW221540   1.270   0.949   2.729  0.1431 -0.2858 -0.1730
 3361SOL     OW21541   1.520   1.499   7.301 -0.6062  0.7550 -0.2480
 3361SOL    HW121542   1.546   1.571   7.245  1.8594  0.3142  0.3067
 3361SOL    HW221543   1.475   1.447   7.234 -0.2932 -0.0037  0.1263
 3362SOL     OW21544   2.501   3.693   1.766  0.1181  0.0326  0.4538
 3362SOL    HW121545   2.506   3.608   1.809  2.3217 -0.8652 -1.5518
 3362SOL    HW221546   2.415   3.681   1.725  1.1077 -2.1900 -0.9867
 3363SOL     OW21547   4.062   3.859   9.727 -0.0781  0.8267 -0.1513
 3363SOL    HW121548   4.147   3.852   9.684  0.4522  1.4063  0.7956
 3363SOL    HW221549   4.072   3.950   9.755  0.0664  0.4771  0.9218
 3364SOL     OW21550   3.875   2.294   8.481  0.4064 -0.5812  0.0373
 3364SOL    HW121551   3.809   2.308   8.548 -0.7639  0.7990 -1.3923
 3364SOL    HW221552   3.952   2.289   8.537  2.0196  1.6749 -1.9918
 3365SOL     OW21553   0.955   0.811  11.853 -0.4868  0.0181 -0.2023
 3365SOL    HW121554   1.004   0.870  11.910  1.2041 -0.3887 -1.2514
 3365SOL    HW221555   0.905   0.772  11.925  1.6343 -1.3979  0.5202
 3366SOL     OW21556   3.780   2.268   5.970  0.7787 -0.0789 -0.4725
 3366SOL    HW121557   3.835   2.189   5.966 -0.0618 -0.7840  1.6187
 3366SOL    HW221558   3.820   2.310   5.894  1.7169  3.6983  2.0944
 3367SOL     OW21559   2.081   0.861   1.771 -0.4117  0.0107 -0.5294
 3367SOL    HW121560   2.047   0.948   1.795  0.3367 -0.3546  1.8561
 3367SOL    HW221561   2.080   0.827   1.861 -3.8044 -0.8556 -0.9018
 3368SOL     OW21562   4.639   2.075   9.538 -0.3851 -0.1362 -0.1514
 3368SOL    HW121563   4.639   2.108   9.447 -0.5149 -0.2587 -0.1957
 3368SOL    HW221564   4.701   2.003   9.537 -0.6099 -0.3439  2.4185
 3369SOL     OW21565   2.224   2.032   2.808  0.0226 -0.5765 -0.5072
 3369SOL    HW121566   2.185   2.091   2.743 -1.2552 -0.7591  0.1084
 3369SOL    HW221567   2.313   2.068   2.802 -0.8120  1.4298 -0.9586
 3370SOL     OW21568   2.192   1.309   5.968 -0.9568  0.0928  0.6800
 3370SOL    HW121569   2.218   1.295   6.059  0.3057  2.3756  0.6775
 3370SOL    HW221570   2.097   1.308   5.964 -0.9518 -0.2344  0.6740
 3371SOL     OW21571   0.773   1.579   6.895 -0.2762  0.1869 -0.8178
 3371SOL    HW121572   0.679   1.561   6.895 -0.4315  1.0165  0.4520
 3371SOL    HW221573   0.789   1.543   6.982  1.4690 -1.0174 -1.6113
 3372SOL     OW21574   0.587   4.417  13.452  0.5846  0.3167 -0.3655
 3372SOL    HW121575   0.680   4.396  13.451  0.4393 -0.3172 -0.4023
 3372SOL    HW221576   0.582   4.490  13.514  0.1783 -2.1443  2.5518
 3373SOL     OW21577   2.897   3.846   7.194 -0.3626  0.0284 -0.3245
 3373SOL    HW121578   2.911   3.811   7.283 -2.5409 -0.4524 -0.1884
 3373SOL    HW221579   2.949   3.781   7.146 -1.5650 -2.2641  1.4232
 3374SOL     OW21580   2.944   3.636   5.261 -0.1584  0.1650  0.3103
 3374SOL    HW121581   2.931   3.728   5.238  1.8579  0.4025  0.1138
 3374SOL    HW221582   2.941   3.643   5.356 -0.3655  0.3525  0.2904
 3375SOL     OW21583   0.954   4.619  13.334 -0.1307 -0.4322 -0.4419
 3375SOL    HW121584   0.883   4.670  13.295  0.8103  0.5219 -0.9039
 3375SOL    HW221585   0.975   4.552  13.269 -1.3383 -0.0450 -1.2329
 3376SOL     OW21586   0.282   2.704   3.332 -0.4630 -0.6790 -0.2609
 3376SOL    HW121587   0.303   2.775   3.392  1.1434  1.8221 -3.7405
 3376SOL    HW221588   0.202   2.668   3.370 -0.4237  2.5854  2.8281
 3377SOL     OW21589   2.867   4.018   3.933 -0.3973 -0.7420 -0.5411
 3377SOL    HW121590   2.937   3.983   3.877 -1.1508  1.0191 -2.5715
 3377SOL    HW221591   2.803   4.051   3.871 -0.4097  0.7849  0.2736
 3378SOL     OW21592   0.777   0.394   4.030 -0.4824  0.6352 -0.2126
 3378SOL    HW121593   0.780   0.373   3.936  2.7622  1.2959 -0.2443
 3378SOL    HW221594   0.695   0.352   4.055 -0.9212  1.1699 -0.7455
 3379SOL     OW21595   4.579   4.345   6.204 -0.3374 -0.1062  0.1765
 3379SOL    HW121596   4.632   4.321   6.128 -0.9760  1.9865 -0.9440
 3379SOL    HW221597   4.639   4.380   6.269 -0.7843 -1.1903  1.1670
 3380SOL     OW21598   0.889   3.172   8.912 -0.8992 -0.2200 -0.1997
 3380SOL    HW121599   0.803   3.215   8.914 -0.0947  1.4244 -0.7298
 3380SOL    HW221600   0.869   3.081   8.892 -0.7097 -0.3034 -0.0125
 3381SOL     OW21601   1.406   1.489   1.850  0.3969 -0.5253  0.0571
 3381SOL    HW121602   1.481   1.453   1.804  0.6083 -0.7459  0.5786
 3381SOL    HW221603   1.335   1.461   1.792  0.4940 -1.7739  0.5559
 3382SOL     OW21604   0.072   4.635  16.718 -0.4243  0.0537 -0.0851
 3382SOL    HW121605   0.147   4.592  16.759  0.3436  1.0744 -0.4121
 3382SOL    HW221606   0.012   4.562  16.702  0.2970 -0.1699 -1.7624
 3383SOL     OW21607   2.899   2.972   1.325  0.0296 -0.2477  0.1015
 3383SOL    HW121608   2.889   2.917   1.403  0.1102  0.2542  0.4673
 3383SOL    HW221609   2.870   2.916   1.253  2.4474 -0.0829 -0.9981
 3384SOL     OW21610   4.633   3.627  11.482  0.1150  0.0506 -0.2401
 3384SOL    HW121611   4.545   3.662  11.466  1.1006  1.6490 -2.1464
 3384SOL    HW221612   4.620   3.532  11.489 -0.9586  0.0925 -1.6246
 3385SOL     OW21613   2.710   2.549   1.593  0.2045 -0.0118 -0.6805
 3385SOL    HW121614   2.670   2.574   1.676  2.2659  2.0589 -0.2858
 3385SOL    HW221615   2.742   2.462   1.617 -0.7159 -0.1329  0.0646
 3386SOL     OW21616   1.703   4.083   4.175 -0.5265 -0.4276 -0.4578
 3386SOL    HW121617   1.711   4.165   4.127  0.4890 -0.6656 -0.7028
 3386SOL    HW221618   1.724   4.114   4.263  0.4943  0.3620 -0.9726
 3387SOL     OW21619   3.794   0.582   4.379 -0.0896 -0.2576 -0.6492
 3387SOL    HW121620   3.761   0.580   4.468  1.0377 -0.5196 -0.2405
 3387SOL    HW221621   3.858   0.652   4.390 -0.4130 -0.2684  1.1674
 3388SOL     OW21622   4.144   2.923  10.631  0.2090 -0.4634 -0.3601
 3388SOL    HW121623   4.146   2.919  10.535  2.3790 -1.8927 -0.2586
 3388SOL    HW221624   4.134   2.829  10.645  0.3176 -0.0365  2.4917
 3389SOL     OW21625   4.242   4.323  16.228  0.2231 -0.0531  0.0234
 3389SOL    HW121626   4.227   4.363  16.143  1.4624  2.3682  0.9391
 3389SOL    HW221627   4.152   4.304  16.253  0.2534  0.2099  0.3352
 3390SOL     OW21628   2.494   4.312   8.189  0.3814 -0.0052 -0.3776
 3390SOL    HW121629   2.421   4.255   8.165  0.6216 -0.6356  0.3802
 3390SOL    HW221630   2.492   4.310   8.285 -1.3018  1.2539 -0.3902
 3391SOL     OW21631   3.100   1.051   0.715 -0.2624 -0.5816 -0.0888
 3391SOL    HW121632   3.009   1.021   0.713 -0.2953 -0.6749  2.8055
 3391SOL    HW221633   3.123   1.049   0.808 -4.2036 -2.4890  0.8304
 3392SOL     OW21634   2.065   0.411   4.801 -0.1717 -0.8571 -0.2586
 3392SOL    HW121635   2.128   0.428   4.730  0.8049  0.9629  1.0444
 3392SOL    HW221636   2.074   0.316   4.796  1.5739 -0.4963 -3.7985
 3393SOL     OW21637   1.578   3.271   6.550 -0.1155  0.6066  0.0780
 3393SOL    HW121638   1.525   3.224   6.614 -0.1972 -0.4734 -0.7897
 3393SOL    HW221639   1.551   3.241   6.464  0.6234 -0.5537  0.2458
 3394SOL     OW21640   3.979   1.485  14.764 -0.8038  0.6420 -0.2289
 3394SOL    HW121641   3.922   1.486  14.841 -0.0561  1.3027  0.3175
 3394SOL    HW221642   4.059   1.450  14.803 -0.6879 -0.3784 -1.4011
 3395SOL     OW21643   0.674   2.751   5.975 -0.4727 -0.0164 -0.0087
 3395SOL    HW121644   0.670   2.792   5.889  0.8795  1.2007  0.4876
 3395SOL    HW221645   0.716   2.668   5.952  1.6559  1.5640 -1.7619
 3396SOL     OW21646   2.856   3.566   3.373 -0.1098 -0.5969  0.1717
 3396SOL    HW121647   2.855   3.606   3.460  0.7766  0.7088 -0.4090
 3396SOL    HW221648   2.949   3.583   3.354  0.6420 -0.9870  3.5233
 3397SOL     OW21649   0.456   0.383   7.864  0.9531  0.0480 -0.7521
 3397SOL    HW121650   0.529   0.347   7.813  1.3712 -1.5084  0.9826
 3397SOL    HW221651   0.386   0.374   7.798 -0.3246  1.9120  0.3633
 3398SOL     OW21652   3.605   4.464   2.003  0.1775 -0.2031  0.0515
 3398SOL    HW121653   3.696   4.471   1.977 -0.1673  1.6318 -0.6872
 3398SOL    HW221654   3.608   4.474   2.098 -1.0088 -0.8382  0.1655
 3399SOL     OW21655   0.827   3.862  10.395 -0.3384 -0.1401 -0.2373
 3399SOL    HW121656   0.772   3.824  10.463 -1.2281  1.1616 -0.2212
 3399SOL    HW221657   0.911   3.818  10.406 -0.2413  0.0502 -0.2260
 3400SOL     OW21658   2.145   1.653   3.757 -0.3758 -0.0945  0.3513
 3400SOL    HW121659   2.148   1.705   3.837  0.4136 -0.8316  0.7992
 3400SOL    HW221660   2.237   1.639   3.736 -0.1265  0.7352  0.9064
 3401SOL     OW21661   0.389   2.449   6.683  0.5575  0.2261 -0.4080
 3401SOL    HW121662   0.368   2.460   6.775  1.7064 -1.0696  0.0106
 3401SOL    HW221663   0.476   2.409   6.687  1.3431  2.0635  0.5259
 3402SOL     OW21664   0.711   1.219   2.427 -0.0148  0.9424  0.0789
 3402SOL    HW121665   0.666   1.294   2.388  0.1026  1.1021  0.2463
 3402SOL    HW221666   0.670   1.207   2.512 -0.9106 -0.2985 -0.5307
 3403SOL     OW21667   3.387   1.721  12.671 -0.3813  0.0678 -0.0660
 3403SOL    HW121668   3.475   1.740  12.703 -0.2028  1.3007 -1.2730
 3403SOL    HW221669   3.338   1.741  12.750 -1.0347  1.5109 -0.8299
 3404SOL     OW21670   3.701   1.532  12.868  0.3499  0.8651 -0.1194
 3404SOL    HW121671   3.680   1.611  12.818 -3.1405  0.7281  1.1577
 3404SOL    HW221672   3.666   1.555  12.954 -0.5630 -1.4280  0.1185
 3405SOL     OW21673   1.621   2.367  12.676 -0.3883 -0.7282 -0.1944
 3405SOL    HW121674   1.553   2.418  12.632  0.3308  0.9836  0.6636
 3405SOL    HW221675   1.644   2.425  12.749  0.7178 -1.0187 -0.3056
 3406SOL     OW21676   0.628   2.211  14.257 -0.1533 -0.3114 -0.1361
 3406SOL    HW121677   0.651   2.270  14.329  1.2915 -0.5098 -0.4361
 3406SOL    HW221678   0.535   2.234  14.248 -0.2701 -1.4804 -1.9311
 3407SOL     OW21679   0.621   3.299   6.288 -0.3118 -0.2983  0.3203
 3407SOL    HW121680   0.697   3.350   6.260 -2.3617  1.7339 -1.4661
 3407SOL    HW221681   0.605   3.265   6.200 -2.7942  1.1825  0.2049
 3408SOL     OW21682   0.229   1.353   7.804  0.1532 -0.1931  0.0264
 3408SOL    HW121683   0.188   1.415   7.743 -0.2622  0.3908  0.8892
 3408SOL    HW221684   0.157   1.291   7.819  0.2889 -0.5264 -0.6907
 3409SOL     OW21685   2.005   4.310   5.853 -0.1774 -0.5098 -0.5358
 3409SOL    HW121686   2.063   4.284   5.925 -0.1656  2.2559  0.4713
 3409SOL    HW221687   1.936   4.245   5.854  1.9671 -2.7747 -0.3946
 3410SOL     OW21688   2.037   2.521   2.269  0.3737 -0.3407  0.1114
 3410SOL    HW121689   2.062   2.560   2.186  0.6266 -1.4641 -0.3374
 3410SOL    HW221690   2.052   2.596   2.326  0.4208 -0.5851  0.4237
 3411SOL     OW21691   2.829   4.710  10.451 -0.4638  0.2659 -0.6078
 3411SOL    HW121692   2.793   4.685  10.535  0.3524  0.2379 -0.2636
 3411SOL    HW221693   2.813   0.083  10.462  0.6224  0.5247 -1.2144
 3412SOL     OW21694   3.123   4.649   6.705  0.0822  0.1883 -0.0725
 3412SOL    HW121695   3.039   4.609   6.684  0.2844 -0.5794  0.5381
 3412SOL    HW221696   3.125   4.721   6.643  1.2601  1.0606  0.9780
 3413SOL     OW21697   2.937   0.132  17.448  0.2893  0.1152  0.5643
 3413SOL    HW121698   2.907   0.073  17.517 -0.1264 -3.3114 -2.5995
 3413SOL    HW221699   2.874   0.204  17.449 -1.9973 -1.9161  0.8970
 3414SOL     OW21700   2.698   3.683   0.376  0.5525  0.4959 -0.4768
 3414SOL    HW121701   2.644   3.714   0.304  1.4473  0.2741 -1.2366
 3414SOL    HW221702   2.711   3.763   0.428  2.6542  0.2956 -0.7060
 3415SOL     OW21703   2.632   4.110   8.086  0.1952  0.5812 -0.1463
 3415SOL    HW121704   2.559   4.053   8.063 -1.5640  2.2909  1.2590
 3415SOL    HW221705   2.591   4.182   8.133  1.3056  1.1610 -0.0495
 3416SOL     OW21706   0.066   1.401   2.356  0.2017 -0.0740 -0.0125
 3416SOL    HW121707   0.151   1.360   2.346  0.2050 -0.4670  1.6435
 3416SOL    HW221708   0.064   1.436   2.267 -0.7215  0.9212  0.3921
 3417SOL     OW21709   3.190   2.295   0.336  0.2005 -0.7578  0.0956
 3417SOL    HW121710   3.278   2.296   0.298  0.2191 -2.2762  0.0806
 3417SOL    HW221711   3.213   2.247   0.415  0.0500 -0.3021  0.4181
 3418SOL     OW21712   0.322   2.100  14.474  0.8625  0.2809  0.3013
 3418SOL    HW121713   0.288   2.137  14.555 -1.2279 -0.2488 -0.3520
 3418SOL    HW221714   0.333   2.167  14.407 -1.7177  1.0958  0.7099
 3419SOL     OW21715   0.921   2.170  10.889  0.3708 -0.1715  0.2299
 3419SOL    HW121716   0.986   2.239  10.907 -0.9702  1.6375 -1.7394
 3419SOL    HW221717   0.855   2.214  10.942  0.0052  1.1533 -1.3135
 3420SOL     OW21718   4.335   2.801   5.892 -0.2248 -0.1186  0.3021
 3420SOL    HW121719   4.424   2.807   5.927 -0.2534  0.2768  0.3129
 3420SOL    HW221720   4.343   2.725   5.835  0.4594 -0.3517  0.7025
 3421SOL     OW21721   0.779   0.522  13.893 -0.1938  0.1967  0.4175
 3421SOL    HW121722   0.718   0.512  13.820 -0.1097 -0.9967  0.5026
 3421SOL    HW221723   0.754   0.604  13.934 -1.9487 -0.2312  0.1984
 3422SOL     OW21724   1.986   3.202   7.010 -0.4134 -0.5785  0.2357
 3422SOL    HW121725   1.973   3.117   7.053  1.2654 -0.1798  1.5391
 3422SOL    HW221726   1.902   3.244   7.028 -0.4867 -0.6081 -0.0317
 3423SOL     OW21727   3.453   2.512   6.677 -0.0980  0.0034  0.4216
 3423SOL    HW121728   3.519   2.558   6.625 -0.2143 -0.4093 -0.0902
 3423SOL    HW221729   3.368   2.554   6.664  0.1625  0.2140 -0.5923
 3424SOL     OW21730   2.319   0.828   3.980 -0.6813 -0.1525  0.3502
 3424SOL    HW121731   2.348   0.743   3.946  0.5813  0.5318 -0.2814
 3424SOL    HW221732   2.253   0.808   4.047 -1.0075  0.0623  0.0911
 3425SOL     OW21733   3.074   1.730   8.630  0.3915  0.2269  0.0590
 3425SOL    HW121734   3.099   1.638   8.642 -0.6353 -0.4163 -2.6678
 3425SOL    HW221735   3.149   1.766   8.676  1.1164  1.6386 -2.2215
 3426SOL     OW21736   4.067   0.520   5.564 -0.4743  0.6792  0.3308
 3426SOL    HW121737   4.056   0.444   5.621 -0.8065  1.3723  1.1973
 3426SOL    HW221738   4.148   0.556   5.600  1.0739 -0.7651 -1.7618
 3427SOL     OW21739   2.596   0.113  17.387 -0.2096 -0.0951 -0.5348
 3427SOL    HW121740   2.581   0.151  17.474  0.2713 -0.3691 -0.3298
 3427SOL    HW221741   2.690   0.100  17.376 -0.5058 -3.1612  0.3004
 3428SOL     OW21742   1.112   0.359   3.036  0.3764  0.0522 -0.2465
 3428SOL    HW121743   1.041   0.396   2.983 -1.6570 -0.9900  1.7637
 3428SOL    HW221744   1.067   0.344   3.119 -0.8494  0.5103 -0.8251
 3429SOL     OW21745   1.889   2.938   0.202 -0.3674  0.0019  0.8090
 3429SOL    HW121746   1.850   2.856   0.170 -2.2410  0.6698  1.4103
 3429SOL    HW221747   1.956   2.903   0.261  0.0254 -2.1979 -0.9227
 3430SOL     OW21748   4.011   1.177   8.768  0.2163 -0.5514  0.0464
 3430SOL    HW121749   3.970   1.175   8.854  1.7468 -1.1121  0.7676
 3430SOL    HW221750   3.954   1.238   8.721  1.3140  1.2159  1.0323
 3431SOL     OW21751   0.478   2.406   7.138  0.5716  0.0025 -0.5383
 3431SOL    HW121752   0.545   2.453   7.089  0.7456 -0.5706 -0.8431
 3431SOL    HW221753   0.511   2.433   7.224  1.5776  0.5135 -1.0754
 3432SOL     OW21754   3.530   4.710   6.094  0.0078  0.2938  0.1986
 3432SOL    HW121755   3.557   4.661   6.172 -1.5813 -0.3167  0.3693
 3432SOL    HW221756   3.591   4.674   6.029  0.4324 -0.4773  1.0217
 3433SOL     OW21757   0.372   0.808   0.665 -0.2135 -0.3029 -0.0199
 3433SOL    HW121758   0.366   0.877   0.599 -1.6604  0.1412  0.5776
 3433SOL    HW221759   0.302   0.822   0.728  0.7277 -2.0750  1.4075
 3434SOL     OW21760   0.087   3.031  15.493 -0.2692 -0.3594  0.0568
 3434SOL    HW121761   0.157   3.001  15.435 -2.2472  1.8472 -3.5001
 3434SOL    HW221762   0.142   3.098  15.535  0.0386 -0.4575 -0.1927
 3435SOL     OW21763   3.699   4.422   3.246  0.0067  0.0169 -0.6860
 3435SOL    HW121764   3.735   4.488   3.186  2.0570 -1.4384 -1.0684
 3435SOL    HW221765   3.769   4.357   3.236  0.3781  0.1311  1.1754
 3436SOL     OW21766   0.418   3.183   5.451  0.0287  1.0079 -0.2744
 3436SOL    HW121767   0.394   3.093   5.430 -0.7448  0.6216  2.2746
 3436SOL    HW221768   0.347   3.199   5.512 -0.3021  0.6781 -0.5734
 3437SOL     OW21769   4.119   1.668   4.079 -0.5579 -0.2901 -0.0529
 3437SOL    HW121770   4.132   1.702   4.167 -0.9187 -0.9552  0.2507
 3437SOL    HW221771   4.074   1.740   4.034  0.8428  2.0266  2.2054
 3438SOL     OW21772   1.299   4.257   2.494  0.3759  0.2651  0.5500
 3438SOL    HW121773   1.254   4.182   2.455  1.0893  0.0204  0.2021
 3438SOL    HW221774   1.318   4.320   2.425  2.2884 -0.5936  0.2762
 3439SOL     OW21775   0.748   3.075  16.338  0.3758  0.1962 -0.0935
 3439SOL    HW121776   0.757   3.027  16.420  4.1222 -0.9439 -1.1809
 3439SOL    HW221777   0.813   3.036  16.279 -0.1733 -1.1559  0.2043
 3440SOL     OW21778   2.487   3.837   8.835 -0.3139 -0.0123  0.2432
 3440SOL    HW121779   2.461   3.763   8.780  0.5688  0.3513 -0.6572
 3440SOL    HW221780   2.577   3.847   8.803 -0.6289 -0.9696 -0.9198
 3441SOL     OW21781   4.389   4.124   4.908 -0.1210  0.0531 -0.4966
 3441SOL    HW121782   4.398   4.032   4.881 -2.3755 -0.1442 -0.5462
 3441SOL    HW221783   4.481   4.151   4.903  0.2173 -1.6193 -3.6279
 3442SOL     OW21784   4.520   4.570   7.931  0.3968  0.1561 -0.3612
 3442SOL    HW121785   4.507   4.506   8.001 -1.0383  0.2664 -0.5311
 3442SOL    HW221786   4.429   4.583   7.903  0.0173 -1.6582  0.0049
 3443SOL     OW21787   2.804   3.239   1.272 -0.1681 -0.0342  0.0153
 3443SOL    HW121788   2.834   3.150   1.295 -1.7816 -1.2548 -2.6671
 3443SOL    HW221789   2.814   3.248   1.178  3.5466  1.1768  0.5103
 3444SOL     OW21790   4.060   4.136   9.761 -0.0508 -0.0709 -0.1736
 3444SOL    HW121791   4.122   4.132   9.833 -0.2452 -2.3429 -0.1210
 3444SOL    HW221792   4.020   4.215   9.796 -0.0179  0.1868 -0.7230
 3445SOL     OW21793   3.459   1.556  14.007  0.6483  0.6467  0.3668
 3445SOL    HW121794   3.517   1.632  14.015 -0.2224  1.3794 -0.2599
 3445SOL    HW221795   3.474   1.515  14.092 -0.6787  0.1603  0.3721
 3446SOL     OW21796   4.670   1.150   8.854  0.1900 -0.4496 -0.7467
 3446SOL    HW121797   0.020   1.088   8.848  0.4430 -0.1452 -0.8773
 3446SOL    HW221798   4.694   1.209   8.782 -0.7976  1.8055  0.7537
 3447SOL     OW21799   1.801   2.242  11.867 -0.4077 -0.4642  0.2017
 3447SOL    HW121800   1.867   2.177  11.891 -1.6941 -2.4095 -1.5151
 3447SOL    HW221801   1.825   2.251  11.775  3.0214 -0.4669  1.1163
 3448SOL     OW21802   1.974   2.596   7.999  0.0013 -0.1265 -0.5901
 3448SOL    HW121803   1.985   2.626   7.909 -1.0744  1.3712 -0.2304
 3448SOL    HW221804   2.022   2.514   7.993  1.0817  0.3135  2.1022
 3449SOL     OW21805   3.415   3.377   3.712  0.6421 -0.2615  0.8976
 3449SOL    HW121806   3.378   3.358   3.798 -2.0058  0.4778 -0.0787
 3449SOL    HW221807   3.421   3.289   3.676 -1.0222 -0.0907  0.2060
 3450SOL     OW21808   3.536   4.241   4.954  0.1559 -0.5728  0.0568
 3450SOL    HW121809   3.622   4.279   4.974 -1.9000  4.1032 -0.0548
 3450SOL    HW221810   3.555   4.153   4.920 -0.9818 -0.2810 -1.3550
 3451SOL     OW21811   1.971   3.054   4.826  0.7943 -0.4741 -0.2338
 3451SOL    HW121812   2.037   3.114   4.791  0.3647  0.5053  0.6553
 3451SOL    HW221813   1.905   3.123   4.833 -0.8400 -1.9389 -1.3277
 3452SOL     OW21814   2.205   2.486   0.482  0.2698  0.1183 -0.3242
 3452SOL    HW121815   2.271   2.417   0.489 -0.2795 -0.6305 -2.8347
 3452SOL    HW221816   2.146   2.461   0.411 -0.0849  0.9976 -0.3535
 3453SOL     OW21817   2.910   0.777   2.966  0.1787  1.0236 -0.1291
 3453SOL    HW121818   2.847   0.804   3.034 -0.7020 -1.5124  0.0620
 3453SOL    HW221819   2.978   0.751   3.028 -1.0555 -1.3347  0.2543
 3454SOL     OW21820   3.055   4.003   8.848  0.2070  0.8259  0.1172
 3454SOL    HW121821   3.092   3.937   8.789  0.2489  1.9917 -1.1742
 3454SOL    HW221822   3.075   4.073   8.785 -1.0412  1.1942  0.1353
 3455SOL     OW21823   3.000   1.171   3.526 -0.0888  0.5013 -0.0001
 3455SOL    HW121824   3.064   1.102   3.546 -1.8093 -2.2084 -3.7209
 3455SOL    HW221825   2.938   1.117   3.476  0.4694  1.8892 -2.1964
 3456SOL     OW21826   2.789   3.960   5.841  0.2759 -0.0312  0.4584
 3456SOL    HW121827   2.776   3.866   5.832 -0.3334  0.2367 -1.5100
 3456SOL    HW221828   2.883   3.977   5.848  0.4043 -0.2601 -0.7515
 3457SOL     OW21829   0.180   1.295   0.065  0.0644  0.4322 -0.3787
 3457SOL    HW121830   0.123   1.356   0.020 -1.2810 -0.7186 -0.2354
 3457SOL    HW221831   0.209   1.244  17.677  0.0968 -0.4440  0.2182
 3458SOL     OW21832   0.739   1.004   5.135 -0.6704 -0.2316  0.0024
 3458SOL    HW121833   0.669   0.962   5.184 -0.8566  0.5896  0.4455
 3458SOL    HW221834   0.824   0.994   5.177 -0.6818 -0.3501 -0.0036
 3459SOL     OW21835   3.934   0.529   4.152  0.0434  0.7832  0.5075
 3459SOL    HW121836   3.868   0.551   4.217 -0.4113  4.6200 -1.2573
 3459SOL    HW221837   3.990   0.605   4.135  1.9558 -0.6022  0.6233
 3460SOL     OW21838   0.207   2.658   9.342 -0.4459 -0.2909 -0.1297
 3460SOL    HW121839   0.124   2.641   9.386 -0.3321  0.8407  0.5342
 3460SOL    HW221840   0.196   2.601   9.266 -1.6969 -0.0518 -0.1431
 3461SOL     OW21841   4.004   0.370   1.704  0.1801 -0.0811  0.3333
 3461SOL    HW121842   3.959   0.292   1.673 -1.3117 -0.1580  2.6895
 3461SOL    HW221843   4.013   0.418   1.621  0.2877 -0.1536  0.3034
 3462SOL     OW21844   0.133   0.040  13.442  0.4131 -0.2255  0.1857
 3462SOL    HW121845   0.039   0.043  13.461  0.3280 -2.1881  0.1070
 3462SOL    HW221846   0.157   0.132  13.452 -0.8668 -0.1887  2.7687
 3463SOL     OW21847   2.299   4.243  17.233  0.4921  0.0261 -0.1720
 3463SOL    HW121848   2.385   4.204  17.218  0.6380  0.8902 -1.6043
 3463SOL    HW221849   2.257   4.165  17.270  3.5656 -1.4600  0.1274
 3464SOL     OW21850   2.005   2.780   6.958 -0.4645 -0.2739  0.1058
 3464SOL    HW121851   1.936   2.797   6.894 -0.9632  1.3682  1.0860
 3464SOL    HW221852   1.978   2.690   6.978  0.8454 -0.8112 -0.5291
 3465SOL     OW21853   4.132   3.781   4.320 -0.3245 -0.0485  0.4717
 3465SOL    HW121854   4.055   3.831   4.346 -0.2687 -0.6648  1.8035
 3465SOL    HW221855   4.166   3.757   4.406  1.8806 -1.5398 -0.7974
 3466SOL     OW21856   2.472   3.667   3.035  0.3480  0.2458  0.3978
 3466SOL    HW121857   2.551   3.652   3.087  1.5655 -1.3998 -1.9724
 3466SOL    HW221858   2.462   3.762   3.039 -0.7524  0.2111 -1.6415
 3467SOL     OW21859   1.645   1.587   1.605 -0.1006 -0.3411 -0.7656
 3467SOL    HW121860   1.645   1.525   1.678  0.0792  0.6180  0.0445
 3467SOL    HW221861   1.555   1.587   1.572 -0.2247  0.3432 -0.4195
 3468SOL     OW21862   0.558   3.748   0.469 -0.0981  0.1249 -0.5723
 3468SOL    HW121863   0.586   3.710   0.552 -1.8847  0.4432  0.1643
 3468SOL    HW221864   0.639   3.734   0.419 -0.5552 -0.5235 -1.1262
 3469SOL     OW21865   2.015   3.512   6.314 -0.1225  0.2078 -0.4242
 3469SOL    HW121866   2.038   3.419   6.316 -1.8742 -0.1965  1.3440
 3469SOL    HW221867   2.020   3.534   6.407 -0.3722  1.3888 -0.6991
 3470SOL     OW21868   0.984   2.155   5.336  0.5014  0.3994  0.0660
 3470SOL    HW121869   0.959   2.067   5.362  0.9420  0.4919  0.7870
 3470SOL    HW221870   0.934   2.161   5.255  2.9541  1.0245 -1.4277
 3471SOL     OW21871   0.069   1.838   1.785  0.1384  0.4842  0.1092
 3471SOL    HW121872   0.087   1.823   1.692  2.5440 -2.4033  1.0647
 3471SOL    HW221873   4.698   1.814   1.797 -0.1829  1.6105 -0.1129
 3472SOL     OW21874   2.521   3.745  17.372 -0.5372 -0.6867  0.2733
 3472SOL    HW121875   2.453   3.703  17.320  0.0381  1.1372 -1.9455
 3472SOL    HW221876   2.572   3.789  17.304 -0.0896 -1.5356  0.0621
 3473SOL     OW21877   1.054   0.602  17.012 -0.0853  0.0356  0.2018
 3473SOL    HW121878   0.987   0.654  17.056  1.6851  2.1988  0.3752
 3473SOL    HW221879   1.010   0.533  16.962 -0.8949 -0.0341  1.0128
 3474SOL     OW21880   0.671   4.031   6.759 -0.0789 -0.5902 -0.5476
 3474SOL    HW121881   0.691   3.956   6.702  0.4896  0.4217 -1.6694
 3474SOL    HW221882   0.629   3.986   6.833 -0.6265 -0.2031 -0.6276
 3475SOL     OW21883   4.317   3.444   5.304 -0.4511 -0.3890  0.4921
 3475SOL    HW121884   4.223   3.457   5.315 -0.4144 -0.1478  0.5175
 3475SOL    HW221885   4.310   3.382   5.231 -2.3230  0.7476 -0.2876
 3476SOL     OW21886   1.797   4.459  13.936 -0.5195 -0.1450  0.1872
 3476SOL    HW121887   1.854   4.529  13.904 -2.0425  0.6328 -0.8073
 3476SOL    HW221888   1.752   4.498  14.011  0.0839  2.5035 -0.8283
 3477SOL     OW21889   3.339   3.275   2.153 -1.1080  0.0167  0.2772
 3477SOL    HW121890   3.366   3.357   2.196 -1.0821 -1.1303  2.4335
 3477SOL    HW221891   3.364   3.207   2.216 -0.3936 -0.9117 -1.0224
 3478SOL     OW21892   3.954   1.222   8.407  0.3775  0.1901 -0.1790
 3478SOL    HW121893   3.937   1.300   8.460  1.5566  1.3069 -1.4321
 3478SOL    HW221894   3.910   1.156   8.460  1.1659 -1.1627 -1.2080
 3479SOL     OW21895   1.113   3.376   7.848 -0.0173  0.3990 -0.2575
 3479SOL    HW121896   1.081   3.465   7.835 -0.8916 -0.0868 -1.4782
 3479SOL    HW221897   1.205   3.383   7.873  0.0588 -0.5705 -0.2852
 3480SOL     OW21898   3.706   1.402   5.181 -0.2276  0.1826  0.2541
 3480SOL    HW121899   3.788   1.355   5.195 -0.0183  0.6059  0.4399
 3480SOL    HW221900   3.674   1.381   5.268 -2.7611  0.1536 -0.6754
 3481SOL     OW21901   1.575   4.263   6.209 -0.1515  0.2733 -0.2016
 3481SOL    HW121902   1.499   4.308   6.245 -1.0929 -1.0703 -0.5340
 3481SOL    HW221903   1.603   4.321   6.138  0.2989 -1.4402 -1.4302
 3482SOL     OW21904   3.637   3.963   4.257 -0.3552 -0.1706 -0.2681
 3482SOL    HW121905   3.669   4.046   4.292 -2.8323 -0.8046  3.4803
 3482SOL    HW221906   3.544   3.980   4.274 -0.2477 -0.4078  0.5720
 3483SOL     OW21907   4.294   0.021  11.475  0.0469  0.1736 -0.1705
 3483SOL    HW121908   4.289   4.707  11.564  0.1076  1.8469  0.5048
 3483SOL    HW221909   4.223   0.085  11.480  0.9937  1.4058 -2.3049
 3484SOL     OW21910   3.814   2.204   6.273  0.1956 -0.0250  0.0285
 3484SOL    HW121911   3.870   2.138   6.233 -1.3173 -0.7821 -0.8366
 3484SOL    HW221912   3.786   2.250   6.194 -0.5942 -0.3440  0.1198
 3485SOL     OW21913   2.692   3.959   1.145  0.1536  0.8958 -0.1002
 3485SOL    HW121914   2.702   3.975   1.051 -0.1440  0.6538 -0.1736
 3485SOL    HW221915   2.647   3.875   1.143  0.1333  0.8891  0.6595
 3486SOL     OW21916   1.329   2.902   9.367  0.2338 -0.0689 -0.5381
 3486SOL    HW121917   1.322   2.951   9.449  0.9850  0.0761 -0.5658
 3486SOL    HW221918   1.413   2.859   9.380  0.5351 -0.0198 -2.3281
 3487SOL     OW21919   0.565   4.134   7.946  0.2664  0.3407  0.0178
 3487SOL    HW121920   0.497   4.200   7.953  3.0863  3.3824 -1.4544
 3487SOL    HW221921   0.524   4.052   7.919 -1.8268  1.5278 -0.3302
 3488SOL     OW21922   3.520   4.454   2.930 -0.6344  0.3302 -0.1609
 3488SOL    HW121923   3.542   4.411   2.848  0.8048  0.2305  0.2764
 3488SOL    HW221924   3.503   4.544   2.903 -3.6362 -0.1244  0.1894
 3489SOL     OW21925   2.449   3.798   2.570  0.1047 -0.1642  0.3146
 3489SOL    HW121926   2.430   3.842   2.487  0.3903  0.3722  0.5364
 3489SOL    HW221927   2.366   3.807   2.615  0.3079 -1.5476  0.9516
 3490SOL     OW21928   1.004   2.045   3.939  0.0108 -0.5523  0.8053
 3490SOL    HW121929   0.915   2.029   3.972 -0.7009 -0.2401 -0.9292
 3490SOL    HW221930   0.989   2.129   3.896 -0.8361  0.2648  2.6839
 3491SOL     OW21931   1.704   1.239   5.650 -0.1772 -0.3128 -0.2839
 3491SOL    HW121932   1.712   1.268   5.740  2.0210 -1.1128 -0.2121
 3491SOL    HW221933   1.676   1.154   5.684 -0.1829  1.1636  3.3584
 3492SOL     OW21934   2.405   3.149  10.867  0.4190  0.3920  0.0363
 3492SOL    HW121935   2.371   3.232  10.901 -1.3668  0.0654 -0.9566
 3492SOL    HW221936   2.443   3.177  10.784  2.7764  1.5784  1.5301
 3493SOL     OW21937   0.623   1.684  11.794 -0.2261  0.7266 -0.1479
 3493SOL    HW121938   0.697   1.711  11.849  1.4926 -0.2057 -2.0058
 3493SOL    HW221939   0.581   1.616  11.847  0.1829 -0.7459 -1.7179
 3494SOL     OW21940   3.568   1.184   5.081 -0.3863  0.0785  0.4800
 3494SOL    HW121941   3.638   1.144   5.133 -1.6159 -0.9727  1.3361
 3494SOL    HW221942   3.588   1.275   5.106  1.6153 -0.1623 -0.2819
 3495SOL     OW21943   2.466   1.195   3.289 -0.2604 -0.8014 -0.4503
 3495SOL    HW121944   2.372   1.191   3.267 -0.3597  1.0619 -0.3999
 3495SOL    HW221945   2.461   1.200   3.385 -2.2616 -0.6243 -0.5452
 3496SOL     OW21946   1.799   0.764   9.472 -0.3757 -0.2663 -0.1538
 3496SOL    HW121947   1.721   0.718   9.441 -0.4466  0.7754 -1.5437
 3496SOL    HW221948   1.794   0.762   9.567  1.7299  0.6897 -0.0356
 3497SOL     OW21949   4.251   3.744   0.559  0.5486 -0.5530 -0.4408
 3497SOL    HW121950   4.262   3.662   0.606 -1.0867 -0.8544 -0.5755
 3497SOL    HW221951   4.182   3.721   0.496  0.0020 -0.0632 -0.0244
 3498SOL     OW21952   2.408   4.522   0.874  0.4366  0.4793  0.7382
 3498SOL    HW121953   2.416   4.597   0.932 -0.6516  1.2353 -0.0942
 3498SOL    HW221954   2.313   4.520   0.885  0.6138 -0.1477  2.1563
 3499SOL     OW21955   2.141   2.718   2.971 -0.0500 -0.5380  0.0071
 3499SOL    HW121956   2.194   2.641   2.989 -1.9230 -1.7663  0.2228
 3499SOL    HW221957   2.156   2.736   2.878 -0.5794  0.7641  0.1691
 3500SOL     OW21958   2.064   2.247   0.652  0.7510 -0.7809 -0.0341
 3500SOL    HW121959   2.037   2.273   0.564  2.0686 -0.8630 -0.4490
 3500SOL    HW221960   2.135   2.307   0.675 -1.0243  1.0154  0.7717
 3501SOL     OW21961   3.439   4.328   5.381  0.4366  0.3780 -0.1357
 3501SOL    HW121962   3.450   4.255   5.442  3.7050 -0.1378 -1.2945
 3501SOL    HW221963   3.442   4.401   5.443 -2.8962  0.7713 -0.4478
 3502SOL     OW21964   2.465   0.383   6.608  0.2253 -0.3901 -0.4143
 3502SOL    HW121965   2.405   0.357   6.678  0.1197 -0.7745 -0.6509
 3502SOL    HW221966   2.541   0.401   6.663  1.2964 -0.3664 -1.9049
 3503SOL     OW21967   1.677   1.931   0.574 -0.3513 -0.4245 -0.1019
 3503SOL    HW121968   1.692   1.867   0.644 -1.2204  1.0174  1.3924
 3503SOL    HW221969   1.765   1.946   0.541 -0.2769 -2.3023 -0.7518
 3504SOL     OW21970   1.462   1.247   8.033  0.1049 -0.4736  0.0072
 3504SOL    HW121971   1.481   1.164   7.990  1.3879 -1.3162  2.1572
 3504SOL    HW221972   1.506   1.239   8.118 -0.8282  0.6008  0.5817
 3505SOL     OW21973   0.777   2.533  10.615  0.4156 -0.1723  0.4269
 3505SOL    HW121974   0.696   2.580  10.594  1.4679  1.8813  1.0180
 3505SOL    HW221975   0.744   2.490  10.694 -0.8930 -2.1705 -1.1887
 3506SOL     OW21976   2.900   2.139  15.733 -0.3612  0.2111  0.0336
 3506SOL    HW121977   2.871   2.175  15.649 -0.6319 -3.3425 -1.3935
 3506SOL    HW221978   2.827   2.153  15.792 -0.4767  0.4274 -0.1589
 3507SOL     OW21979   3.571   3.655   5.163  0.0790 -0.2958 -0.8891
 3507SOL    HW121980   3.482   3.623   5.148 -0.6191  0.0935  2.5767
 3507SOL    HW221981   3.558   3.746   5.189  0.3544  0.0868 -2.0555
 3508SOL     OW21982   1.435   3.556   6.300 -0.1474 -0.6628  0.1781
 3508SOL    HW121983   1.492   3.480   6.291 -0.1625 -0.6604  0.0529
 3508SOL    HW221984   1.351   3.509   6.310  0.6980 -3.1491 -4.1142
 3509SOL     OW21985   4.092   4.198  11.814 -0.2664 -0.2965  0.3028
 3509SOL    HW121986   4.008   4.173  11.776  0.7361  1.5886 -3.1643
 3509SOL    HW221987   4.107   4.129  11.878 -0.6183 -0.6425  0.0137
 3510SOL     OW21988   3.688   0.039   2.423  0.2963 -0.8534 -0.7737
 3510SOL    HW121989   3.636   0.102   2.372 -2.0687 -1.6186  0.7357
 3510SOL    HW221990   3.767   0.091   2.437  0.0813 -0.6238 -0.4255
 3511SOL     OW21991   3.258   2.841   6.813  0.0901 -0.7448  0.3632
 3511SOL    HW121992   3.195   2.893   6.863  2.3058  2.5526 -0.2836
 3511SOL    HW221993   3.274   2.903   6.743 -0.8713 -1.8549 -0.8250
 3512SOL     OW21994   0.665   4.049   8.803 -0.3946 -0.2400  0.3676
 3512SOL    HW121995   0.753   4.037   8.768 -0.4869 -1.0293  0.4061
 3512SOL    HW221996   0.611   3.999   8.741  1.3448 -0.8887 -0.6165
 3513SOL     OW21997   0.723   1.276   5.776  0.0834  0.3691  0.2237
 3513SOL    HW121998   0.780   1.284   5.852  0.6951  0.7930 -0.2836
 3513SOL    HW221999   0.646   1.228   5.807  1.2372 -2.4096 -1.1744
 3514SOL     OW22000   4.343   4.559  10.191 -0.4215  0.4088  0.0857
 3514SOL    HW122001   4.352   4.467  10.214  0.2505  0.0641 -1.5591
 3514SOL    HW222002   4.294   4.596  10.265  0.7981  0.6529  0.7737
 3515SOL     OW22003   3.026   4.181   5.449  0.2618 -0.0711 -0.2696
 3515SOL    HW122004   3.109   4.158   5.492 -0.0774 -0.6090  0.1040
 3515SOL    HW222005   3.055   4.255   5.396 -2.2653  1.9169  1.1268
 3516SOL     OW22006   1.396   2.156   8.609 -0.9502 -0.4062  0.2086
 3516SOL    HW122007   1.341   2.079   8.623  0.1282 -1.2329 -0.2006
 3516SOL    HW222008   1.486   2.130   8.623 -0.2683  1.1457 -1.2452
 3517SOL     OW22009   2.748   0.294  17.562 -0.0288 -0.0704  0.3667
 3517SOL    HW122010   2.840   0.303  17.590  0.2875 -2.1260  0.0009
 3517SOL    HW222011   2.719   0.379  17.594  0.6870  0.7673 -1.1985
 3518SOL     OW22012   2.330   1.097   2.199  0.1442 -0.1559 -0.2529
 3518SOL    HW122013   2.348   1.189   2.214 -0.1273  0.0435 -1.1314
 3518SOL    HW222014   2.402   1.058   2.248 -0.8657 -0.7249  0.7869
 3519SOL     OW22015   3.793   3.939  10.604 -0.1175  0.0475  0.0242
 3519SOL    HW122016   3.779   3.984  10.687 -1.6273 -1.0598  0.3650
 3519SOL    HW222017   3.716   3.951  10.550  1.3034 -0.8470 -2.2293
 3520SOL     OW22018   3.746   0.639  16.277  0.1442  0.5776 -0.3113
 3520SOL    HW122019   3.804   0.564  16.268 -0.2902  0.2487 -0.4190
 3520SOL    HW222020   3.713   0.631  16.367  0.7473  0.6536 -0.0825
 3521SOL     OW22021   0.758   3.553   4.555  0.0857 -0.3213  0.6736
 3521SOL    HW122022   0.735   3.640   4.585  0.0615 -0.9545  2.4988
 3521SOL    HW222023   0.675   3.525   4.517  0.6879  0.6075 -1.3485
 3522SOL     OW22024   3.608   0.964   0.371  0.5994  0.1973 -0.0864
 3522SOL    HW122025   3.534   0.958   0.431  0.6826 -2.3496 -0.2207
 3522SOL    HW222026   3.576   0.915   0.295 -0.1287  2.4047 -1.1937
 3523SOL     OW22027   2.480   1.900   9.269 -0.0812 -0.0079 -0.3086
 3523SOL    HW122028   2.500   1.810   9.245  3.4083 -0.2461  3.4522
 3523SOL    HW222029   2.386   1.909   9.251 -0.1523  0.4690  0.2926
 3524SOL     OW22030   3.867   2.377  10.539 -0.1488  0.0769 -0.4731
 3524SOL    HW122031   3.824   2.357  10.622  0.0395  0.2651 -0.3308
 3524SOL    HW222032   3.956   2.343  10.550 -0.1655 -0.3127 -1.6062
 3525SOL     OW22033   1.942   3.578   2.883 -0.4726 -0.3789 -0.7251
 3525SOL    HW122034   1.966   3.552   2.972  1.7460 -1.1704 -1.5566
 3525SOL    HW222035   1.935   3.488   2.850  0.8838 -0.5282 -0.5912
 3526SOL     OW22036   3.474   1.364  11.183  0.2946  0.5089  0.3334
 3526SOL    HW122037   3.520   1.317  11.113  1.3712  0.6382  0.9497
 3526SOL    HW222038   3.412   1.304  11.224  0.6092  0.8904  1.3633
 3527SOL     OW22039   4.670   3.746   0.743  0.1506  0.2059  0.0287
 3527SOL    HW122040   0.002   3.698   0.680  2.3003  0.5547  1.5943
 3527SOL    HW222041   4.626   3.667   0.775  0.5116  0.7473  1.9035
 3528SOL     OW22042   4.006   3.461   7.435  0.4377 -0.1764 -0.3159
 3528SOL    HW122043   3.924   3.484   7.478 -1.4119 -0.4320 -3.7309
 3528SOL    HW222044   4.069   3.470   7.506 -1.2538  0.3136  1.1289
 3529SOL     OW22045   0.994   3.678   3.580  0.0705  0.1806 -0.4158
 3529SOL    HW122046   0.914   3.635   3.548  1.3252 -1.8019 -0.8674
 3529SOL    HW222047   0.977   3.771   3.570 -0.4905  0.2404  1.1035
 3530SOL     OW22048   0.621   0.333   2.613 -0.1013  0.7916  0.3395
 3530SOL    HW122049   0.564   0.385   2.669  2.0689  1.9066  1.5345
 3530SOL    HW222050   0.634   0.392   2.538  4.3190 -0.4331  0.1090
 3531SOL     OW22051   2.829   1.291   6.467 -0.0782 -0.2626  0.5213
 3531SOL    HW122052   2.792   1.275   6.380 -0.0523  0.5923  0.3472
 3531SOL    HW222053   2.784   1.370   6.498 -0.8520 -1.6760  2.9582
 3532SOL     OW22054   0.817   0.104   3.878  0.0465 -0.7623  0.1826
 3532SOL    HW122055   0.805   0.013   3.851  1.1869 -0.0559 -2.6443
 3532SOL    HW222056   0.729   0.121   3.911  0.9200  1.5638  1.3256
 3533SOL     OW22057   1.604   1.350   9.230  0.6958 -0.2542 -0.3054
 3533SOL    HW122058   1.569   1.411   9.296 -1.7635 -0.7807 -1.0945
 3533SOL    HW222059   1.539   1.280   9.220 -1.0621  1.0542  1.8041
 3534SOL     OW22060   2.908   1.168   5.296  0.7918 -0.6684  0.0003
 3534SOL    HW122061   2.859   1.125   5.366 -0.6852  1.5526  0.3541
 3534SOL    HW222062   2.989   1.120   5.315  1.6827  1.1533  0.8828
 3535SOL     OW22063   2.159   3.357  14.871  0.3296  0.4845 -0.3096
 3535SOL    HW122064   2.131   3.348  14.961  0.8247 -0.3916 -0.2406
 3535SOL    HW222065   2.082   3.311  14.838  0.4978  0.9289 -1.3274
 3536SOL     OW22066   1.491   0.147   5.090 -0.3007  0.3673  0.0024
 3536SOL    HW122067   1.474   0.115   5.002 -0.1956  2.0664 -0.6469
 3536SOL    HW222068   1.585   0.165   5.087 -0.1071  0.0097  3.7559
 3537SOL     OW22069   4.329   2.955   2.544  0.4693  0.3358  0.3059
 3537SOL    HW122070   4.319   2.949   2.639 -0.3028 -0.9461  0.1496
 3537SOL    HW222071   4.261   3.019   2.521  1.7454  1.4301 -0.4155
 3538SOL     OW22072   0.901   2.904   8.049 -0.0864  0.1346  0.3119
 3538SOL    HW122073   0.891   2.999   8.060  1.5275  0.3840 -0.2982
 3538SOL    HW222074   0.996   2.895   8.058  0.4695  2.7312 -2.7744
 3539SOL     OW22075   0.644   0.316  10.749  0.3599  0.0056 -1.0417
 3539SOL    HW122076   0.610   0.295  10.661 -1.3519  0.1830 -0.4296
 3539SOL    HW222077   0.642   0.412  10.755 -3.7623 -0.1309  0.0306
 3540SOL     OW22078   0.035   0.374   3.508 -0.6059 -0.0148  0.0770
 3540SOL    HW122079   0.041   0.445   3.572 -1.8516  0.2442 -0.0937
 3540SOL    HW222080   0.011   0.428   3.432  2.1967 -0.9384 -1.4596
 3541SOL     OW22081   0.740   1.053   7.281 -0.3113  0.0918 -0.1874
 3541SOL    HW122082   0.789   1.127   7.244 -0.9191  0.3896 -0.4078
 3541SOL    HW222083   0.757   0.989   7.212  0.8890  0.8447 -0.5905
 3542SOL     OW22084   1.112   2.500  15.094 -0.3710  0.0896  0.2415
 3542SOL    HW122085   1.148   2.445  15.164 -1.2238 -1.3181 -0.4315
 3542SOL    HW222086   1.184   2.563  15.092  0.0169 -0.3898 -0.4997
 3543SOL     OW22087   2.778   4.241   6.043  0.5969 -0.4319 -0.3705
 3543SOL    HW122088   2.790   4.310   6.109 -0.2212 -2.1685  1.6102
 3543SOL    HW222089   2.822   4.174   6.095  1.2279  2.2762  2.6288
 3544SOL     OW22090   1.133   1.763   1.623  0.4448 -0.6588 -0.2334
 3544SOL    HW122091   1.098   1.755   1.712 -0.6426 -0.1259 -0.6199
 3544SOL    HW222092   1.046   1.775   1.585 -0.3416  0.4467  1.9258
 3545SOL     OW22093   2.907   3.891  12.480 -0.3985 -0.7250 -0.2470
 3545SOL    HW122094   2.817   3.921  12.467 -0.3100 -0.4376 -0.2007
 3545SOL    HW222095   2.931   3.878  12.389  1.2506  0.9160 -0.0441
 3546SOL     OW22096   0.243   3.139  13.210  0.0735 -0.1101  0.0935
 3546SOL    HW122097   0.206   3.224  13.233 -0.2842  0.4962 -2.6827
 3546SOL    HW222098   0.327   3.162  13.168 -1.5628 -0.2143 -3.2588
 3547SOL     OW22099   1.956   0.083  12.356  0.1719 -0.0362  0.1357
 3547SOL    HW122100   1.861   0.072  12.365  0.2871 -1.0870  0.0654
 3547SOL    HW222101   1.972   0.086  12.261  0.9022 -1.3643  0.2085
 3548SOL     OW22102   2.710   2.067  15.101 -0.0490  0.0922 -0.0142
 3548SOL    HW122103   2.760   2.142  15.134  2.3638 -1.0271 -1.1513
 3548SOL    HW222104   2.676   2.025  15.180 -1.0863 -0.1948 -0.6117
 3549SOL     OW22105   1.457   4.499   6.060  0.3740  0.0129  0.0287
 3549SOL    HW122106   1.441   4.585   6.097 -1.6206  0.2703 -1.4516
 3549SOL    HW222107   1.408   4.445   6.122  2.2249  0.1025  1.5867
 3550SOL     OW22108   0.785   4.099   9.508 -0.9019  0.4037 -0.1513
 3550SOL    HW122109   0.829   4.106   9.593 -1.9812 -0.2417  0.4566
 3550SOL    HW222110   0.696   4.081   9.538 -1.7700  1.3740 -2.1130
 3551SOL     OW22111   2.192   2.040   0.225  0.4005 -0.2814 -0.2108
 3551SOL    HW122112   2.263   2.080   0.176 -0.0805 -1.9361 -2.2659
 3551SOL    HW222113   2.238   1.997   0.297  0.8657  0.1205 -0.2741
 3552SOL     OW22114   4.627   4.146  14.874  0.2534 -0.0173  0.6546
 3552SOL    HW122115   4.552   4.115  14.924  0.0817 -0.4500  0.1240
 3552SOL    HW222116   4.698   4.119  14.933  2.0618 -0.5957 -1.8002
 3553SOL     OW22117   1.750   2.980  17.048 -0.1487  0.4159 -0.0388
 3553SOL    HW122118   1.824   2.941  17.095 -0.9039 -1.4722 -0.4085
 3553SOL    HW222119   1.765   2.953  16.958  0.3264  0.8351 -0.0858
 3554SOL     OW22120   4.306   3.163  17.372  0.4935 -0.3015  0.2482
 3554SOL    HW122121   4.384   3.216  17.356  0.9237 -0.7139  0.9576
 3554SOL    HW222122   4.345   3.076  17.360 -0.6100 -0.8822  0.8267
 3555SOL     OW22123   2.020   0.846   5.387  0.5802 -0.1106  0.2401
 3555SOL    HW122124   2.064   0.866   5.469 -0.5784 -1.5313  1.2062
 3555SOL    HW222125   1.946   0.907   5.386  0.3289 -0.4047  2.7689
 3556SOL     OW22126   1.894   4.182  12.029 -0.6293 -0.0371 -0.0566
 3556SOL    HW122127   1.863   4.270  12.007  1.7820  0.5156 -1.2050
 3556SOL    HW222128   1.905   4.148  11.941  0.4038  0.4229 -0.1085
 3557SOL     OW22129   0.307   0.352   3.838 -0.5582  0.6665 -0.1147
 3557SOL    HW122130   0.328   0.379   3.927  0.4260  1.2656 -0.5368
 3557SOL    HW222131   0.361   0.273   3.830 -1.9914 -0.4590  1.2599
 3558SOL     OW22132   2.424   0.723   7.032  0.1062  1.0025 -0.1126
 3558SOL    HW122133   2.410   0.778   7.109  0.7444  1.3563 -0.2471
 3558SOL    HW222134   2.504   0.759   6.993 -0.0204  0.1846 -1.1392
 3559SOL     OW22135   4.704   0.977   3.701 -0.5312 -0.5361 -0.1610
 3559SOL    HW122136   4.705   1.070   3.676  1.8253 -1.1240 -2.1768
 3559SOL    HW222137   0.072   0.953   3.723 -0.6853 -1.3014 -0.3710
 3560SOL     OW22138   3.259   4.030   5.526 -0.0832 -0.6763 -0.0340
 3560SOL    HW122139   3.273   3.999   5.616  2.3628  0.1922 -0.1261
 3560SOL    HW222140   3.245   3.951   5.474 -1.4889 -0.1849 -0.4165
 3561SOL     OW22141   3.327   3.481   0.343 -0.4555 -0.2755 -0.1145
 3561SOL    HW122142   3.310   3.569   0.378  1.2766 -0.1007  0.2920
 3561SOL    HW222143   3.407   3.499   0.293 -0.1261 -0.4106  0.3621
 3562SOL     OW22144   1.669   2.383   4.901  0.2258  0.0474  0.5337
 3562SOL    HW122145   1.623   2.438   4.964  2.1911 -0.1050  2.0931
 3562SOL    HW222146   1.665   2.436   4.822 -1.3187  0.4013  0.8624
 3563SOL     OW22147   0.559   1.423   1.797  0.6631  0.4193 -0.0969
 3563SOL    HW122148   0.471   1.442   1.767  0.4851  1.9016  1.3891
 3563SOL    HW222149   0.552   1.388   1.886  2.4709  1.6856  0.5475
 3564SOL     OW22150   3.734   1.793   6.120  0.2267 -0.1679  0.0211
 3564SOL    HW122151   3.666   1.840   6.169  0.3387  0.6867 -0.6392
 3564SOL    HW222152   3.773   1.736   6.187  0.2707 -1.8187 -1.4124
 3565SOL     OW22153   1.586   2.549  14.205  0.3339  0.7592  0.7394
 3565SOL    HW122154   1.510   2.555  14.148  1.2056 -0.7309 -0.5667
 3565SOL    HW222155   1.642   2.484  14.163 -0.8112 -0.0230  0.4217
 3566SOL     OW22156   0.636   3.089  16.076  0.5004  0.2934  0.8763
 3566SOL    HW122157   0.687   3.089  16.158 -0.0033 -1.4110  1.2040
 3566SOL    HW222158   0.636   3.180  16.047  2.7144  0.4869  1.4669
 3567SOL     OW22159   2.225   1.591   9.291 -0.5425  0.1251 -0.5898
 3567SOL    HW122160   2.296   1.546   9.337 -2.0580 -0.4314  1.1544
 3567SOL    HW222161   2.271   1.626   9.214  0.7270 -0.8071 -0.2468
 3568SOL     OW22162   4.384   1.485   9.057 -0.0411  0.1948 -0.3387
 3568SOL    HW122163   4.407   1.450   8.971 -1.6123 -1.3542 -0.1199
 3568SOL    HW222164   4.336   1.410   9.089  0.3515 -0.0933 -0.4228
 3569SOL     OW22165   2.984   0.738   4.361  0.4754  0.4593  0.3254
 3569SOL    HW122166   2.952   0.730   4.271  3.1551  0.7051 -0.6376
 3569SOL    HW222167   3.058   0.678   4.359  0.1766  0.1365 -1.7052
 3570SOL     OW22168   4.118   1.844   4.726 -0.0273  0.3752 -0.3656
 3570SOL    HW122169   4.024   1.837   4.738  0.6394 -1.4755  3.5240
 3570SOL    HW222170   4.147   1.821   4.814  1.8243  3.2492 -0.2192
 3571SOL     OW22171   0.061   2.023   6.647 -0.1727  0.1137 -0.1392
 3571SOL    HW122172   0.093   1.956   6.586  1.6991 -0.5270  1.5405
 3571SOL    HW222173   4.720   1.981   6.705  0.6909 -1.3378 -0.2673
 3572SOL     OW22174   3.831   4.394   5.440 -0.0156  0.0781  0.2683
 3572SOL    HW122175   3.897   4.400   5.371 -0.2025 -1.7371 -0.0602
 3572SOL    HW222176   3.756   4.441   5.403  0.6099  0.9325  0.0739
 3573SOL     OW22177   2.592   2.541  12.554 -0.1502 -0.4567  0.0188
 3573SOL    HW122178   2.578   2.452  12.519 -0.3609 -0.9421  1.3638
 3573SOL    HW222179   2.516   2.548  12.612 -1.3656  0.7271 -1.6963
 3574SOL     OW22180   0.460   1.968   9.066 -0.5081  0.4212 -0.0979
 3574SOL    HW122181   0.407   1.890   9.086  0.3580  0.3278  1.8111
 3574SOL    HW222182   0.543   1.952   9.110  0.8784  1.3507 -2.4189
 3575SOL     OW22183   0.574   1.922   7.909  0.8543  0.0175 -0.3764
 3575SOL    HW122184   0.572   2.017   7.896  0.1146 -0.0405 -0.6731
 3575SOL    HW222185   0.665   1.902   7.886  1.0105  0.5632 -0.2276
 3576SOL     OW22186   2.279   4.277   3.944  0.3954 -0.1774  0.6734
 3576SOL    HW122187   2.226   4.241   4.015  0.4926 -1.3814  0.1399
 3576SOL    HW222188   2.339   4.205   3.930  0.7489  0.0518  1.0329
 3577SOL     OW22189   0.731   0.790   8.707 -0.0340  0.5379 -0.4924
 3577SOL    HW122190   0.684   0.713   8.739  0.0620  0.7945  0.2606
 3577SOL    HW222191   0.805   0.753   8.660 -0.8241  0.8800 -2.0346
 3578SOL     OW22192   0.358   2.126   5.566  0.0201  0.2998 -0.2979
 3578SOL    HW122193   0.302   2.062   5.523 -0.7076 -0.1197  1.2638
 3578SOL    HW222194   0.351   2.201   5.507  0.4608  1.5146  1.1915
 3579SOL     OW22195   2.085   0.854   4.736 -0.3687  0.0103 -0.1015
 3579SOL    HW122196   2.068   0.789   4.804  2.0841  0.4964  0.9837
 3579SOL    HW222197   2.107   0.802   4.658 -0.7144 -0.9553  0.4458
 3580SOL     OW22198   2.457   3.643  11.403  0.2369 -0.2719 -0.0804
 3580SOL    HW122199   2.446   3.575  11.338 -3.1030  0.1697  0.0230
 3580SOL    HW222200   2.541   3.681  11.378  0.1691  1.8302  2.8347
 3581SOL     OW22201   4.077   2.221  11.406  0.8088 -0.1567  0.1441
 3581SOL    HW122202   4.066   2.316  11.404 -0.2815 -0.2868  0.2457
 3581SOL    HW222203   4.147   2.212  11.471  0.9966  0.2489 -0.0005
 3582SOL     OW22204   1.980   4.392   4.996 -0.3217  0.7811 -0.3488
 3582SOL    HW122205   2.002   4.387   5.089 -1.5153  0.5370 -0.0860
 3582SOL    HW222206   1.885   4.384   4.994 -0.2660 -0.6607  1.6664
 3583SOL     OW22207   3.691   0.700   5.320  0.1285  0.1523 -0.2067
 3583SOL    HW122208   3.778   0.663   5.304  1.3243  1.5517  2.9242
 3583SOL    HW222209   3.680   0.704   5.415  0.3292 -1.0216 -0.1418
 3584SOL     OW22210   2.120   3.668  17.461 -0.0320 -0.1551 -1.0348
 3584SOL    HW122211   2.171   3.733  17.509 -0.2741 -0.0677 -0.9002
 3584SOL    HW222212   2.085   3.725  17.393 -0.0830 -0.5907 -1.3735
 3585SOL     OW22213   3.466   3.174  11.988  0.5614  0.0727 -0.2154
 3585SOL    HW122214   3.528   3.246  11.996 -0.0843  0.7332 -1.0623
 3585SOL    HW222215   3.383   3.205  12.025 -0.0898  0.2055 -1.7547
 3586SOL     OW22216   2.952   3.571   0.627  0.0097 -0.1504  0.5570
 3586SOL    HW122217   2.896   3.497   0.652 -0.1974 -0.6267 -1.3295
 3586SOL    HW222218   2.928   3.574   0.535 -0.0151  2.0432  0.6517
 3587SOL     OW22219   3.527   0.634   8.518  0.2480 -0.5125 -0.1510
 3587SOL    HW122220   3.584   0.593   8.452 -0.2873  1.0403 -1.5747
 3587SOL    HW222221   3.582   0.641   8.596  1.1519 -3.3309 -0.5361
 3588SOL     OW22222   0.225   2.142   2.317  0.4335  0.2216 -0.5889
 3588SOL    HW122223   0.269   2.138   2.402 -0.0308 -0.5927 -0.3850
 3588SOL    HW222224   0.210   2.048   2.302  2.5840  0.1506 -2.3957
 3589SOL     OW22225   1.694   1.490   3.292 -0.1804  0.3681  0.3500
 3589SOL    HW122226   1.634   1.451   3.355  1.1425 -1.3977  0.4982
 3589SOL    HW222227   1.656   1.577   3.283  0.2997  0.9886  4.2769
 3590SOL     OW22228   3.128   3.107  14.557  0.0232  0.2509  0.4517
 3590SOL    HW122229   3.184   3.181  14.579 -1.2266  1.0267  1.0138
 3590SOL    HW222230   3.180   3.027  14.551  0.0253  0.3926 -1.5536
 3591SOL     OW22231   0.240   2.892  10.737  0.2037  0.7671 -0.5240
 3591SOL    HW122232   0.285   2.976  10.720  1.4412  0.4217  0.9899
 3591SOL    HW222233   0.170   2.889  10.672 -0.9240  2.7152  0.6015
 3592SOL     OW22234   3.545   3.105   3.491  0.0153  0.2017 -0.2189
 3592SOL    HW122235   3.537   3.020   3.447 -0.0580 -0.0867  0.3473
 3592SOL    HW222236   3.467   3.096   3.546 -0.9536 -0.0963 -1.6484
 3593SOL     OW22237   3.361   4.094  13.093  0.3027 -0.1918 -0.1143
 3593SOL    HW122238   3.361   4.021  13.031  2.1098  1.4711 -2.1035
 3593SOL    HW222239   3.440   4.145  13.076  1.1421 -2.4562 -3.0835
 3594SOL     OW22240   3.036   4.049  14.203 -0.2744  0.3149 -0.1096
 3594SOL    HW122241   3.076   3.962  14.200  0.3615  0.4880  2.7101
 3594SOL    HW222242   3.023   4.065  14.297 -0.0381  2.0146 -0.3833
 3595SOL     OW22243   1.608   3.745   5.550 -0.0541 -0.5949  0.2421
 3595SOL    HW122244   1.664   3.756   5.473 -0.7820  2.2799  0.1084
 3595SOL    HW222245   1.544   3.685   5.511 -0.3187 -0.5141  0.5489
 3596SOL     OW22246   2.886   2.432  10.746 -0.1588 -0.5609  0.0248
 3596SOL    HW122247   2.861   2.344  10.717  0.9249 -0.4170 -1.3250
 3596SOL    HW222248   2.829   2.490  10.696 -0.3247 -0.6075  0.1604
 3597SOL     OW22249   4.547   2.337  12.985  0.2791  0.5473  0.0222
 3597SOL    HW122250   4.515   2.356  12.897 -0.2897 -0.5028  0.0021
 3597SOL    HW222251   4.505   2.253  12.999  2.4570 -0.3347  1.2876
 3598SOL     OW22252   0.474   4.620   6.773 -0.0418 -0.1962  0.5182
 3598SOL    HW122253   0.385   4.650   6.756 -0.2667 -0.2599  1.5485
 3598SOL    HW222254   0.470   4.534   6.732  1.3733 -0.2517  0.4773
 3599SOL     OW22255   4.312   1.562   4.295 -0.0831 -0.2897  0.4303
 3599SOL    HW122256   4.274   1.650   4.299 -1.2369 -0.9020  2.4865
 3599SOL    HW222257   4.342   1.571   4.385 -0.1782 -0.4128  0.4741
 3600SOL     OW22258   0.239   3.521   5.713 -0.0299 -0.1262  0.0407
 3600SOL    HW122259   0.199   3.434   5.704 -1.2889  0.2482  2.0993
 3600SOL    HW222260   0.165   3.575   5.738  0.8204  2.0477 -2.0708
 3601SOL     OW22261   0.617   0.076   7.981 -0.5859  0.3457  0.3101
 3601SOL    HW122262   0.631   4.706   7.955 -0.4354  0.5459 -0.3077
 3601SOL    HW222263   0.682   0.076   8.051  1.4295 -0.8539 -1.5739
 3602SOL     OW22264   3.806   3.927   8.732  0.2524 -0.9253  0.4058
 3602SOL    HW122265   3.844   3.846   8.699 -0.6810 -0.0260 -2.8751
 3602SOL    HW222266   3.716   3.899   8.751 -0.3013 -0.7684 -2.0382
 3603SOL     OW22267   3.002   1.956  14.353 -0.1622  0.4732 -0.3882
 3603SOL    HW122268   2.919   1.994  14.325 -0.5252  0.4382  0.6347
 3603SOL    HW222269   2.999   1.867  14.318 -2.7295 -0.0451  1.1002
 3604SOL     OW22270   3.132   0.778  12.881 -0.0010 -0.0992  0.5427
 3604SOL    HW122271   3.093   0.854  12.839 -0.7917  0.5149  2.3905
 3604SOL    HW222272   3.202   0.752  12.821  0.7169  0.8899  0.9609
 3605SOL     OW22273   1.789   0.724   3.425  0.0178  0.2315  0.0074
 3605SOL    HW122274   1.748   0.644   3.457  0.0124  0.3042  0.1808
 3605SOL    HW222275   1.806   0.776   3.503 -1.7781 -0.8427  1.1149
 3606SOL     OW22276   2.783   1.034   4.660 -0.5182  0.3807 -0.7414
 3606SOL    HW122277   2.710   0.990   4.616 -0.7852  0.7591 -0.6671
 3606SOL    HW222278   2.842   1.050   4.586  0.3093  0.1476 -0.1245
 3607SOL     OW22279   1.809   0.481   2.468  0.0841 -0.5966  0.1191
 3607SOL    HW122280   1.788   0.507   2.379 -1.4209  1.7273  1.1539
 3607SOL    HW222281   1.724   0.475   2.512 -0.6124 -2.4859 -1.4380
 3608SOL     OW22282   1.823   1.980  14.645  0.2615  0.4947  0.7765
 3608SOL    HW122283   1.797   2.072  14.649 -3.3389 -0.4196 -2.2663
 3608SOL    HW222284   1.759   1.933  14.699 -0.0779  0.9207  0.7369
 3609SOL     OW22285   4.166   3.542   7.219  0.3182  0.0008 -0.1953
 3609SOL    HW122286   4.099   3.549   7.151  0.1403 -0.0496 -0.0246
 3609SOL    HW222287   4.122   3.509   7.297  0.4562 -0.3550 -0.2674
 3610SOL     OW22288   2.612   4.198   3.427  0.4232  0.6938 -0.0053
 3610SOL    HW122289   2.572   4.112   3.438  0.6048  0.6081 -0.0199
 3610SOL    HW222290   2.569   4.249   3.495 -0.7733  1.2904 -1.1995
 3611SOL     OW22291   0.128   3.937  16.224 -0.1042 -0.0675  0.0948
 3611SOL    HW122292   0.065   3.865  16.217  0.6434 -0.6157 -1.0829
 3611SOL    HW222293   0.069   4.012  16.226  2.4404  1.9274  0.9544
 3612SOL     OW22294   0.721   2.784   8.472  0.5495  0.1864  0.7945
 3612SOL    HW122295   0.645   2.750   8.520 -0.8636  1.2016 -0.7298
 3612SOL    HW222296   0.676   2.851   8.421  1.4799  1.0947  1.1787
 3613SOL     OW22297   3.439   1.059   4.089  0.1628 -0.2193  0.3291
 3613SOL    HW122298   3.421   1.007   4.167 -1.1212 -0.3134 -0.0247
 3613SOL    HW222299   3.425   1.149   4.120 -1.0238  0.5049 -2.3254
 3614SOL     OW22300   1.567   2.756   9.399  0.2124 -0.3189 -0.3914
 3614SOL    HW122301   1.644   2.773   9.345  1.3655 -3.6644  0.1835
 3614SOL    HW222302   1.534   2.676   9.358 -0.6605  2.0469 -4.3009
 3615SOL     OW22303   4.605   0.684  12.764 -0.4338  0.2709  0.7032
 3615SOL    HW122304   4.668   0.639  12.820  2.1875 -0.7218 -3.0919
 3615SOL    HW222305   4.542   0.613  12.751 -0.2811  0.3761 -0.6259
 3616SOL     OW22306   3.117   0.598  11.109 -0.2530  0.1878  0.4529
 3616SOL    HW122307   3.082   0.546  11.181 -1.3166  0.0782 -0.1494
 3616SOL    HW222308   3.141   0.676  11.160  1.8405 -0.4004  0.3629
 3617SOL     OW22309   3.278   1.098   6.588  0.4042  0.0403 -0.0281
 3617SOL    HW122310   3.216   1.028   6.565 -1.3733  0.6217  3.0002
 3617SOL    HW222311   3.224   1.176   6.586  1.2833  0.6249 -0.5891
 3618SOL     OW22312   1.649   1.342   8.221  0.0508  0.0946  0.5893
 3618SOL    HW122313   1.642   1.434   8.193  1.7435  0.0981  0.2041
 3618SOL    HW222314   1.737   1.312   8.197 -0.7103 -0.1557 -1.9071
 3619SOL     OW22315   2.836   3.584   2.998 -0.0523 -0.4908 -0.0288
 3619SOL    HW122316   2.859   3.624   2.914  0.8543 -0.6018  0.1583
 3619SOL    HW222317   2.926   3.574   3.030 -0.3559 -3.9093 -0.2516
 3620SOL     OW22318   4.258   0.367   7.207 -0.4778  0.0535  0.0474
 3620SOL    HW122319   4.229   0.309   7.138  2.0610 -1.1887  0.0278
 3620SOL    HW222320   4.171   0.374   7.247 -0.8922 -0.9141 -0.6975
 3621SOL     OW22321   3.755   4.599   3.023 -0.0037 -0.6367 -0.1608
 3621SOL    HW122322   3.669   4.621   2.986 -0.8639 -0.3893  1.9818
 3621SOL    HW222323   3.799   4.644   2.951 -1.2661  1.7928  0.5737
 3622SOL     OW22324   1.698   1.609   2.627 -0.2181  0.1840  0.2709
 3622SOL    HW122325   1.736   1.594   2.714  0.8881  1.2572 -0.0315
 3622SOL    HW222326   1.707   1.704   2.620  0.2913  0.0565 -0.8501
 3623SOL     OW22327   3.313   2.072  15.676 -0.4449 -0.2333  0.4363
 3623SOL    HW122328   3.365   2.058  15.755  0.5197 -3.2621 -0.7178
 3623SOL    HW222329   3.381   2.051  15.611 -1.1002 -0.3343 -0.2166
 3624SOL     OW22330   3.893   4.645  14.331 -0.4878  0.3508  0.4339
 3624SOL    HW122331   3.866   4.562  14.291  0.0464  0.1222  0.5339
 3624SOL    HW222332   3.968   4.671  14.277 -1.1050 -0.9884 -1.0715
 3625SOL     OW22333   1.770   1.081   4.304 -0.0426  0.7692 -0.5019
 3625SOL    HW122334   1.719   1.162   4.317  0.5177  1.0122  0.1867
 3625SOL    HW222335   1.702   1.018   4.328  0.1308  0.5873 -0.5006
 3626SOL     OW22336   3.316   4.093  14.462 -0.6864  0.4857 -0.4603
 3626SOL    HW122337   3.370   4.171  14.480  1.5777 -1.2105  0.0605
 3626SOL    HW222338   3.342   4.080  14.371 -1.2810 -3.0128 -0.0960
 3627SOL     OW22339   3.809   1.896   3.499 -0.2423 -0.1531  0.3251
 3627SOL    HW122340   3.823   1.816   3.449  1.5486  0.3655 -0.0039
 3627SOL    HW222341   3.805   1.867   3.590 -0.6084 -0.7916  0.1043
 3628SOL     OW22342   3.068   2.707   0.234 -0.1569  0.0225  0.4507
 3628SOL    HW122343   3.017   2.664   0.302  0.2351 -0.6206  0.3356
 3628SOL    HW222344   3.147   2.664   0.267  1.3101  2.5318  0.1999
 3629SOL     OW22345   2.521   2.053   2.790 -0.5149  0.1650 -0.1311
 3629SOL    HW122346   2.506   1.962   2.814  0.2250  0.2201  0.5340
 3629SOL    HW222347   2.575   2.038   2.712 -2.5750 -0.9389 -1.3428
 3630SOL     OW22348   1.962   1.092   4.737 -0.4119 -0.1952 -0.7876
 3630SOL    HW122349   2.028   1.138   4.685 -1.2963  0.0678 -1.6793
 3630SOL    HW222350   2.006   1.008   4.745 -3.0888 -1.2582  2.8901
 3631SOL     OW22351   1.042   2.889  12.007 -0.0740  0.2269 -0.1055
 3631SOL    HW122352   1.113   2.869  11.946  0.0468 -0.7919  0.3596
 3631SOL    HW222353   0.967   2.895  11.948 -0.0763  0.5464 -0.0693
 3632SOL     OW22354   1.937   2.220   2.797  0.0163 -0.1721 -0.1366
 3632SOL    HW122355   1.929   2.296   2.854  0.7385 -0.7280  0.6941
 3632SOL    HW222356   2.014   2.236   2.742 -0.3860 -0.3780 -0.7651
 3633SOL     OW22357   0.444   4.122   6.580  0.2875  0.2323  0.0050
 3633SOL    HW122358   0.538   4.138   6.594  0.1874  1.1636 -0.4064
 3633SOL    HW222359   0.428   4.037   6.621 -0.7975  0.0331 -0.8563
 3634SOL     OW22360   3.738   3.532   6.965 -0.0788 -0.0938  0.0978
 3634SOL    HW122361   3.652   3.516   7.004 -0.4071  2.9327  0.6601
 3634SOL    HW222362   3.752   3.457   6.908  1.7362  1.0708 -0.9773
 3635SOL     OW22363   2.101   4.449  11.835  0.1200 -0.0745 -0.3243
 3635SOL    HW122364   2.153   4.528  11.821 -0.8541  0.8293  1.0267
 3635SOL    HW222365   2.170   4.390  11.864 -0.5759  0.4337  2.4210
 3636SOL     OW22366   4.091   1.676   6.458  0.1845  1.3579 -0.1289
 3636SOL    HW122367   4.096   1.753   6.514 -1.4778  0.4105  1.3511
 3636SOL    HW222368   4.171   1.689   6.408  0.4616 -0.8115 -0.2792
 3637SOL     OW22369   1.929   2.584   9.905 -0.1418 -0.3980 -0.0510
 3637SOL    HW122370   2.006   2.638   9.888  0.8482 -0.8891  2.9359
 3637SOL    HW222371   1.944   2.565   9.998  0.2955  0.8114  0.1230
 3638SOL     OW22372   4.284   3.027   3.380  0.2548  0.3236  0.2352
 3638SOL    HW122373   4.263   3.011   3.288 -0.5343  1.6343  0.1936
 3638SOL    HW222374   4.233   2.961   3.426 -1.1614  2.6465  1.9985
 3639SOL     OW22375   3.483   0.700   4.815 -0.3914 -0.3161 -0.1953
 3639SOL    HW122376   3.398   0.670   4.847  0.2101  1.3991  2.9252
 3639SOL    HW222377   3.536   0.698   4.894 -0.4569 -1.2097 -0.1708
 3640SOL     OW22378   1.912   4.023   3.312 -0.3079 -0.0648  0.1552
 3640SOL    HW122379   1.845   4.019   3.380  1.0890  0.2803  1.5330
 3640SOL    HW222380   1.863   4.056   3.237  0.3902 -1.0069 -0.7237
 3641SOL     OW22381   0.937   3.330   1.543 -0.1593  0.3688 -0.1984
 3641SOL    HW122382   0.896   3.413   1.568  0.9295  1.6701 -2.6954
 3641SOL    HW222383   0.935   3.293   1.631 -3.0540  0.0587 -0.3922
 3642SOL     OW22384   0.576   4.239   5.276  0.0175 -0.0363  0.4527
 3642SOL    HW122385   0.554   4.155   5.317  3.0465 -0.5171  1.1335
 3642SOL    HW222386   0.672   4.228   5.277  0.0650  0.2277 -1.9424
 3643SOL     OW22387   0.075   2.676   4.765 -0.1090 -0.1454 -0.1395
 3643SOL    HW122388   0.090   2.592   4.808  2.1744  0.4813  0.2878
 3643SOL    HW222389   0.029   2.644   4.687 -2.0015  0.3874  0.7535
 3644SOL     OW22390   0.601   2.157   7.755  0.1933 -0.8442  0.1018
 3644SOL    HW122391   0.614   2.243   7.794 -2.2675 -1.5471  2.4429
 3644SOL    HW222392   0.514   2.172   7.720 -0.4901 -0.8613  1.7916
 3645SOL     OW22393   0.399   4.291   9.516  0.1873  0.3146  0.5658
 3645SOL    HW122394   0.388   4.303   9.422 -1.2199 -1.4301  0.5226
 3645SOL    HW222395   0.456   4.215   9.529 -0.6254 -0.6572 -1.5732
 3646SOL     OW22396   2.068   2.381  17.016 -0.6717  0.6893  0.3213
 3646SOL    HW122397   1.996   2.443  17.014 -0.6092  0.7625  0.3433
 3646SOL    HW222398   2.084   2.360  16.924  1.3353 -0.9095  1.0167
 3647SOL     OW22399   0.341   1.663   8.070 -0.7840 -0.5845 -0.4154
 3647SOL    HW122400   0.420   1.694   8.114 -1.6178  1.7441 -0.5667
 3647SOL    HW222401   0.350   1.571   8.095 -2.6372  0.1970  3.0451
 3648SOL     OW22402   4.073   2.437  13.351  0.0635  0.2852 -0.0370
 3648SOL    HW122403   4.019   2.469  13.424  1.4425 -1.4762  1.7664
 3648SOL    HW222404   4.007   2.434  13.282  0.2893  2.1660 -0.3408
 3649SOL     OW22405   2.222   1.845   2.569 -0.1129  0.3171 -0.2845
 3649SOL    HW122406   2.200   1.938   2.575  0.3700  0.3757  0.6340
 3649SOL    HW222407   2.134   1.820   2.541 -0.2954  0.5743  0.0484
 3650SOL     OW22408   1.069   1.503   7.504  0.4316  0.7484 -0.4450
 3650SOL    HW122409   0.980   1.471   7.519  1.0340  0.0621  1.6900
 3650SOL    HW222410   1.068   1.530   7.412 -2.9034  2.7908  0.2196
 3651SOL     OW22411   4.524   2.621   4.103  0.7066  1.1109 -0.7081
 3651SOL    HW122412   4.471   2.565   4.047 -0.5708  0.3284  1.2924
 3651SOL    HW222413   4.614   2.589   4.091  0.7901  1.1654 -0.2063
 3652SOL     OW22414   4.213   4.316   5.021 -0.9089 -0.4411 -0.0270
 3652SOL    HW122415   4.298   4.315   5.063 -0.7442 -0.9059 -0.3651
 3652SOL    HW222416   4.245   4.285   4.936 -2.3907  1.2822 -1.2389
 3653SOL     OW22417   2.522   4.440   2.903  0.2567 -0.5091 -0.4822
 3653SOL    HW122418   2.571   4.516   2.871 -0.1331 -0.9603 -2.1417
 3653SOL    HW222419   2.597   4.387   2.930  0.0926 -1.5640 -2.0607
 3654SOL     OW22420   1.694   4.153   2.381 -0.1148  0.0092 -0.1458
 3654SOL    HW122421   1.646   4.211   2.321  1.5489 -2.1601 -3.5178
 3654SOL    HW222422   1.782   4.180   2.356 -1.5733  1.6585 -3.5427
 3655SOL     OW22423   3.035   3.002   6.103  0.0698 -0.0433  0.3112
 3655SOL    HW122424   2.941   2.982   6.106 -0.2648  1.1605 -2.7882
 3655SOL    HW222425   3.059   2.912   6.079  0.9212  0.3237 -0.1722
 3656SOL     OW22426   1.127   1.706  12.355  0.2055 -0.2353 -1.2552
 3656SOL    HW122427   1.159   1.795  12.341  2.6177 -0.6675  1.4602
 3656SOL    HW222428   1.191   1.672  12.418 -1.1244  1.8238  1.2028
 3657SOL     OW22429   3.777   1.728   4.972  0.0365  0.6014 -0.5692
 3657SOL    HW122430   3.686   1.751   4.987  0.4210  3.0150 -1.9892
 3657SOL    HW222431   3.804   1.759   4.886  1.9258  0.8265  0.1033
 3658SOL     OW22432   4.115   0.778   5.216 -0.1463  0.3618 -0.9285
 3658SOL    HW122433   4.207   0.752   5.212 -1.0938 -2.6150 -3.3713
 3658SOL    HW222434   4.099   0.789   5.122  0.0449 -0.8197 -1.0929
 3659SOL     OW22435   3.385   2.824  13.616  0.0324 -0.1638 -0.1503
 3659SOL    HW122436   3.436   2.885  13.562  1.3513 -0.2202  1.0340
 3659SOL    HW222437   3.442   2.830  13.693 -0.5324  0.4773  0.2143
 3660SOL     OW22438   3.310   1.107   8.408  0.1725 -0.1807 -0.1656
 3660SOL    HW122439   3.330   1.172   8.475  1.6770 -0.4253 -0.3655
 3660SOL    HW222440   3.349   1.028   8.444  0.8940 -0.6649 -1.9741
 3661SOL     OW22441   0.899   0.528  16.068  0.2106  0.6977 -0.8355
 3661SOL    HW122442   0.835   0.527  16.139  0.9422 -0.1633 -0.1940
 3661SOL    HW222443   0.843   0.513  15.992  0.3226  0.9539 -0.9696
 3662SOL     OW22444   2.036   3.447   5.672  0.1673  0.0836 -0.1757
 3662SOL    HW122445   2.052   3.457   5.765 -2.7408  0.2700  0.3042
 3662SOL    HW222446   2.036   3.353   5.652 -0.6300 -0.5858  3.0721
 3663SOL     OW22447   0.412   3.788  14.071 -0.2139  0.1863  0.2870
 3663SOL    HW122448   0.499   3.798  14.110  0.9000  1.2668 -2.4723
 3663SOL    HW222449   0.434   3.816  13.983  3.0295  0.3705  1.1600
 3664SOL     OW22450   3.668   2.889   8.823 -0.0208  0.4716 -0.0856
 3664SOL    HW122451   3.586   2.885   8.872  0.4794  0.8515  0.7774
 3664SOL    HW222452   3.724   2.920   8.894  0.3070  0.1607 -0.2074
 3665SOL     OW22453   3.375   4.338   8.652  0.3293  0.1315  0.0662
 3665SOL    HW122454   3.433   4.403   8.612 -0.3005  1.0925  0.7359
 3665SOL    HW222455   3.432   4.261   8.659 -0.4835 -0.4309  0.5054
 3666SOL     OW22456   2.111   0.200   5.201 -0.3842  0.6533 -0.4863
 3666SOL    HW122457   2.123   0.293   5.182 -0.8274  0.5445 -1.3136
 3666SOL    HW222458   2.068   0.156   5.127 -1.9743  1.4356 -0.0318
 3667SOL     OW22459   1.112   4.020  10.255 -0.2782  0.7257 -0.2298
 3667SOL    HW122460   1.204   4.017  10.229  0.0955  0.8202  1.0750
 3667SOL    HW222461   1.123   4.021  10.350  1.5598 -3.4692 -0.3939
 3668SOL     OW22462   3.782   3.516   5.284  0.0938 -0.3013 -0.7414
 3668SOL    HW122463   3.730   3.587   5.247  2.9334  1.9717 -0.4176
 3668SOL    HW222464   3.748   3.439   5.239  1.9205 -1.8601  0.5527
 3669SOL     OW22465   3.474   2.016   2.438 -1.1315 -0.0178 -0.2531
 3669SOL    HW122466   3.532   1.981   2.505  1.1031  2.0228 -1.1571
 3669SOL    HW222467   3.414   1.942   2.428 -1.0552  0.0860 -1.5222
 3670SOL     OW22468   1.594   1.011   8.384 -0.0099 -0.0296  0.3868
 3670SOL    HW122469   1.620   1.036   8.473 -0.5711 -0.4905  0.6829
 3670SOL    HW222470   1.509   1.053   8.375  0.5262  1.0365  0.2716
 3671SOL     OW22471   3.577   3.301   6.020 -0.0026 -0.0337 -0.2085
 3671SOL    HW122472   3.639   3.262   5.959  0.5325  1.0357 -0.3428
 3671SOL    HW222473   3.587   3.394   6.001  0.0176  0.1552  0.7339
 3672SOL     OW22474   2.015   3.641   0.496 -0.2450 -0.2809  0.1160
 3672SOL    HW122475   2.087   3.626   0.436  0.0472 -0.5376  0.5298
 3672SOL    HW222476   1.935   3.612   0.452 -1.0165 -3.1641  3.3268
 3673SOL     OW22477   0.513   3.084   3.767 -0.2446 -0.8144 -0.3302
 3673SOL    HW122478   0.449   3.125   3.709 -2.0504 -2.6744  0.3540
 3673SOL    HW222479   0.486   3.125   3.849 -0.6467 -0.2090 -0.7595
 3674SOL     OW22480   0.693   3.326   6.816  0.0788 -0.4315  0.9545
 3674SOL    HW122481   0.765   3.356   6.761 -0.7758  1.3326  0.7774
 3674SOL    HW222482   0.726   3.246   6.856  1.0787 -0.9805 -1.0121
 3675SOL     OW22483   0.726   4.283   6.654  0.2759  0.1613 -0.4869
 3675SOL    HW122484   0.711   4.319   6.741  1.1409  1.9273 -1.0545
 3675SOL    HW222485   0.729   4.189   6.669 -0.7952 -0.1370 -2.1697
 3676SOL     OW22486   2.229   1.581  10.622  0.3355 -0.4136  1.0831
 3676SOL    HW122487   2.148   1.616  10.659  0.4376  2.1426 -1.1409
 3676SOL    HW222488   2.192   1.494  10.608 -1.4844  0.8211 -1.8410
 3677SOL     OW22489   2.570   0.231   7.978 -0.1266  0.4874 -0.5357
 3677SOL    HW122490   2.494   0.173   7.969 -0.3284  0.4626  1.3747
 3677SOL    HW222491   2.544   0.309   7.928 -2.0926  0.2561  0.1019
 3678SOL     OW22492   4.567   1.440   8.502  0.1884 -0.2374 -0.4233
 3678SOL    HW122493   4.507   1.466   8.432 -1.4745 -0.0404  1.0749
 3678SOL    HW222494   4.635   1.388   8.459  0.9200  0.1927  0.1994
 3679SOL     OW22495   3.319   0.972   3.770  0.1964  0.1041  0.1177
 3679SOL    HW122496   3.374   1.023   3.711  0.7511 -0.8352 -0.1748
 3679SOL    HW222497   3.348   0.881   3.772  0.8044  0.2581 -2.1552
 3680SOL     OW22498   4.710   3.174   8.613 -0.3954  0.4460 -0.0586
 3680SOL    HW122499   0.016   3.204   8.700  0.3353 -1.1398  0.2711
 3680SOL    HW222500   0.014   3.255   8.569  2.4199  0.0085  0.7467
 3681SOL     OW22501   0.412   0.249   6.556  0.6038  0.0075  0.0919
 3681SOL    HW122502   0.344   0.241   6.623  0.2920  0.7209 -0.1442
 3681SOL    HW222503   0.379   0.201   6.480 -0.6112  1.8800 -0.5343
 3682SOL     OW22504   0.348   4.704  11.401  0.3617  0.1395 -0.3227
 3682SOL    HW122505   0.407   0.032  11.343  0.8881  0.7599  0.7336
 3682SOL    HW222506   0.405   4.644  11.449  0.2243  0.9648  0.8829
 3683SOL     OW22507   1.841   3.542  14.933 -0.5283 -0.6553 -0.8065
 3683SOL    HW122508   1.928   3.529  14.969 -0.9274 -2.1621 -0.3422
 3683SOL    HW222509   1.854   3.624  14.887 -0.5702 -0.0379  0.2806
 3684SOL     OW22510   3.642   2.171   8.082  0.3751  0.3354  0.8140
 3684SOL    HW122511   3.735   2.186   8.065  0.1583 -0.9791 -1.6098
 3684SOL    HW222512   3.643   2.111   8.156 -0.7965 -1.7704 -0.8870
 3685SOL     OW22513   4.335   0.974   4.407 -0.2287 -0.1551  0.0514
 3685SOL    HW122514   4.295   0.938   4.486 -1.1859  0.2042 -0.2707
 3685SOL    HW222515   4.302   1.064   4.411 -1.7899 -0.6762 -1.0311
 3686SOL     OW22516   0.618   4.065   9.793 -0.0590 -0.3920 -0.5035
 3686SOL    HW122517   0.680   4.075   9.865  0.2441  0.8780 -0.9392
 3686SOL    HW222518   0.594   3.973   9.800 -0.0242 -0.3054  0.7232
 3687SOL     OW22519   4.182   2.210   2.246 -0.4757  0.9940 -0.0097
 3687SOL    HW122520   4.165   2.120   2.274 -1.4940  1.2176  0.0891
 3687SOL    HW222521   4.092   2.242   2.243 -0.5725  0.6638 -0.6211
 3688SOL     OW22522   2.553   3.076   6.539 -0.0468 -0.1054  0.1966
 3688SOL    HW122523   2.492   3.008   6.567 -2.6236  2.0108 -0.2836
 3688SOL    HW222524   2.498   3.153   6.531 -0.8920 -0.6144  1.1360
 3689SOL     OW22525   2.073   4.327   8.351  0.7679 -0.6331 -0.2278
 3689SOL    HW122526   2.008   4.385   8.311  2.8398  0.6154 -1.7989
 3689SOL    HW222527   2.096   4.381   8.426  0.6229 -1.2192  0.2315
 3690SOL     OW22528   2.366   3.597   6.365 -1.0415 -0.3041  0.1213
 3690SOL    HW122529   2.333   3.669   6.419  1.5340  0.1516  1.1103
 3690SOL    HW222530   2.306   3.590   6.291 -0.0349 -1.0127 -0.6261
 3691SOL     OW22531   2.616   1.223  14.556 -0.2173 -0.6971  0.3081
 3691SOL    HW122532   2.539   1.174  14.587 -0.7292 -0.0861 -0.0037
 3691SOL    HW222533   2.687   1.165  14.583 -0.2180  0.3632  2.5880
 3692SOL     OW22534   2.010   3.284   0.870 -0.5269  0.8559 -0.1121
 3692SOL    HW122535   2.073   3.251   0.933  0.2496 -0.7853 -1.7643
 3692SOL    HW222536   2.008   3.375   0.900 -2.6751  1.1088 -1.0406
 3693SOL     OW22537   2.712   4.658   6.309  0.5764  0.2950 -0.0783
 3693SOL    HW122538   2.631   4.658   6.360 -0.8401 -0.9327 -2.3325
 3693SOL    HW222539   2.683   4.691   6.224  0.9094  1.0149  0.0785
 3694SOL     OW22540   1.014   4.054  13.962 -0.4140 -0.4239  0.5180
 3694SOL    HW122541   1.071   3.981  13.987 -0.8604 -0.9016  0.1375
 3694SOL    HW222542   1.011   4.027  13.870  0.4656  0.2333  0.2934
 3695SOL     OW22543   4.525   2.782   2.466  0.0458  0.5504  0.0223
 3695SOL    HW122544   4.457   2.836   2.507  1.0667  0.8344  1.3674
 3695SOL    HW222545   4.580   2.748   2.537 -1.7345  0.0512  1.1573
 3696SOL     OW22546   4.279   1.894   9.432 -0.4958 -0.6488 -0.0750
 3696SOL    HW122547   4.304   1.953   9.503 -0.5293 -0.5239 -0.1673
 3696SOL    HW222548   4.327   1.936   9.360  2.8087 -0.2805  2.3698
 3697SOL     OW22549   1.231   1.007   4.451 -0.0985 -0.1593  0.0390
 3697SOL    HW122550   1.266   1.052   4.528 -1.5981  0.9305  0.0925
 3697SOL    HW222551   1.144   1.046   4.441 -1.7637 -3.6547  0.8768
 3698SOL     OW22552   2.880   4.221  14.367 -0.1572 -0.2695  0.1467
 3698SOL    HW122553   2.921   4.166  14.433 -0.5706 -0.2047  0.4558
 3698SOL    HW222554   2.819   4.270  14.422 -0.7773 -0.2344 -0.5623
 3699SOL     OW22555   2.609   0.429  12.159 -0.5902  0.1392  0.1349
 3699SOL    HW122556   2.691   0.405  12.116  1.0560  1.8721  2.2680
 3699SOL    HW222557   2.624   0.523  12.163  1.1369 -0.1367 -0.1437
 3700SOL     OW22558   1.896   3.724   3.890  0.0940  0.0090  0.1026
 3700SOL    HW122559   1.927   3.714   3.800  0.3003  1.6737 -0.0124
 3700SOL    HW222560   1.963   3.678   3.941  0.8037  0.0365 -0.8028
 3701SOL     OW22561   4.609   0.186   8.738  0.4955  0.4981 -0.1802
 3701SOL    HW122562   4.582   0.182   8.830 -0.0067  0.7766 -0.3209
 3701SOL    HW222563   4.541   0.242   8.701  0.2148  0.3150  0.0649
 3702SOL     OW22564   1.472   4.259  10.504  0.7074  0.2259 -0.3168
 3702SOL    HW122565   1.403   4.261  10.571  1.6758 -0.4622  0.6822
 3702SOL    HW222566   1.495   4.352  10.493  2.0958  0.1879  2.4750
 3703SOL     OW22567   4.671   1.766  13.153  0.7746  0.5563  0.5198
 3703SOL    HW122568   4.681   1.845  13.100  0.0108  1.9896  2.4973
 3703SOL    HW222569   4.576   1.754  13.152  1.0418 -1.3773 -1.2900
 3704SOL     OW22570   4.624   4.327   8.136  0.4433  0.2339  0.1329
 3704SOL    HW122571   4.564   4.331   8.211 -0.2444  0.0821 -0.4082
 3704SOL    HW222572   4.695   4.273   8.170 -2.2459 -3.4423 -0.0588
 3705SOL     OW22573   1.915   3.045   3.839 -0.3274  0.4397  0.0798
 3705SOL    HW122574   1.854   3.002   3.779  0.1197  0.8080 -0.6376
 3705SOL    HW222575   1.917   3.133   3.801 -0.0785  0.7087  0.7198
 3706SOL     OW22576   0.694   1.368   7.783  0.4959  0.0469 -0.0974
 3706SOL    HW122577   0.623   1.305   7.770  1.3277 -0.0693 -3.8971
 3706SOL    HW222578   0.758   1.315   7.830  0.1526  0.8513  1.2714
 3707SOL     OW22579   2.227   0.812   5.592  0.2714 -0.1514 -0.2805
 3707SOL    HW122580   2.253   0.881   5.653 -1.8183  0.7326 -0.3897
 3707SOL    HW222581   2.298   0.749   5.587 -0.1720 -0.4889 -2.3508
 3708SOL     OW22582   3.166   3.131   6.296  0.5212  0.2744 -0.0145
 3708SOL    HW122583   3.237   3.159   6.237  1.5063 -0.0483  1.0157
 3708SOL    HW222584   3.124   3.083   6.225  0.2225 -0.5052  0.7040
 3709SOL     OW22585   2.764   2.712  17.350 -0.0986  0.9956 -0.4926
 3709SOL    HW122586   2.829   2.780  17.364  2.0003 -0.4530 -3.0053
 3709SOL    HW222587   2.687   2.753  17.311  1.0538  1.6563 -2.1071
 3710SOL     OW22588   1.312   0.852   5.171  0.1560  0.2932  0.5430
 3710SOL    HW122589   1.383   0.902   5.131  0.0651  1.1980  1.5284
 3710SOL    HW222590   1.351   0.765   5.160  4.0546  1.7342  3.2694
 3711SOL     OW22591   4.158   0.756  12.020 -0.2291 -0.5578 -0.0198
 3711SOL    HW122592   4.217   0.717  12.084  0.8727 -1.2518 -1.4460
 3711SOL    HW222593   4.094   0.808  12.069  0.8419 -1.9003  2.7824
 3712SOL     OW22594   3.980   0.718   8.098 -0.1950  0.2344  0.2198
 3712SOL    HW122595   3.914   0.655   8.070 -0.8818 -0.5721  3.6402
 3712SOL    HW222596   3.929   0.799   8.108 -3.0931 -1.6382  0.3316
 3713SOL     OW22597   3.468   2.217   5.470  0.4689  0.0066 -0.1741
 3713SOL    HW122598   3.405   2.279   5.506  1.6746  2.1429 -1.7413
 3713SOL    HW222599   3.494   2.178   5.554 -1.7222  0.4121  0.6777
 3714SOL     OW22600   0.710   1.996   9.242 -0.3891  0.3246  0.3819
 3714SOL    HW122601   0.724   2.060   9.172  0.1185 -1.0022 -0.7400
 3714SOL    HW222602   0.775   2.030   9.303  0.9303 -1.7444  0.1415
 3715SOL     OW22603   4.583   4.193   8.509 -0.0374  0.6264  0.3447
 3715SOL    HW122604   4.512   4.161   8.564 -1.4195  1.3740 -1.0080
 3715SOL    HW222605   4.655   4.167   8.567 -0.0523 -0.8963 -0.3211
 3716SOL     OW22606   1.234   3.024   2.286  0.2677 -0.4231  0.0662
 3716SOL    HW122607   1.241   3.107   2.238  0.4403 -0.8288 -0.5989
 3716SOL    HW222608   1.264   2.967   2.216  0.3472  1.0580 -1.1176
 3717SOL     OW22609   0.886   3.055  10.444 -0.5360 -0.1947  0.3298
 3717SOL    HW122610   0.833   3.132  10.421 -0.8902 -0.6476 -0.3511
 3717SOL    HW222611   0.838   2.990  10.394  2.2930 -1.6102 -0.5767
 3718SOL     OW22612   3.136   4.324   4.479 -0.0336 -0.3881 -0.0683
 3718SOL    HW122613   3.070   4.272   4.434  0.5615 -1.0918 -0.1381
 3718SOL    HW222614   3.200   4.326   4.408 -0.1003  0.4556 -0.1055
 3719SOL     OW22615   1.541   0.331  13.121  0.8043 -0.5058 -0.0371
 3719SOL    HW122616   1.581   0.313  13.036 -2.0692  0.0084 -1.4773
 3719SOL    HW222617   1.451   0.306  13.098  0.1702  2.6657 -1.0209
 3720SOL     OW22618   2.005   1.557   8.720  0.8982 -0.4310  0.0475
 3720SOL    HW122619   1.982   1.607   8.799  2.4262  1.1589 -0.5119
 3720SOL    HW222620   1.928   1.504   8.697 -0.1699  1.6217 -1.0981
 3721SOL     OW22621   3.280   4.169  13.805  0.3598  0.9839  0.3134
 3721SOL    HW122622   3.342   4.168  13.732 -2.2338 -0.7441 -1.8478
 3721SOL    HW222623   3.259   4.076  13.808  0.1738  1.0280  0.3349
 3722SOL     OW22624   1.246   2.525  16.573 -0.6457 -0.0101 -0.5076
 3722SOL    HW122625   1.202   2.551  16.654  3.7099 -4.5615  3.3358
 3722SOL    HW222626   1.336   2.507  16.599 -0.0196  1.8435 -1.3730
 3723SOL     OW22627   4.367   2.240   8.114  0.3153 -0.0788 -0.4143
 3723SOL    HW122628   4.300   2.296   8.155  0.7262  0.0554  0.0682
 3723SOL    HW222629   4.430   2.308   8.090  2.1243 -1.1985  1.1917
 3724SOL     OW22630   3.401   0.827   5.286 -0.3103 -0.0603 -0.2347
 3724SOL    HW122631   3.376   0.853   5.198  2.2454 -1.0775 -1.2551
 3724SOL    HW222632   3.477   0.772   5.264  1.0983  2.8336 -2.4860
 3725SOL     OW22633   1.503   1.277  12.098  0.1475 -0.3134  0.2258
 3725SOL    HW122634   1.550   1.197  12.073 -2.2175 -1.6853  0.2028
 3725SOL    HW222635   1.532   1.335  12.027  0.8771  0.9017  1.5023
 3726SOL     OW22636   3.823   1.650   8.010  0.5129 -0.0973 -0.3408
 3726SOL    HW122637   3.858   1.568   8.046  3.0852  0.8374 -0.6864
 3726SOL    HW222638   3.870   1.712   8.065 -1.6689  0.6085  0.7128
 3727SOL     OW22639   1.030   1.117   5.358  0.6079  0.6377  0.8729
 3727SOL    HW122640   1.033   1.038   5.304  0.3853  1.0688  0.2293
 3727SOL    HW222641   1.069   1.183   5.301  2.0833  0.1246  1.2823
 3728SOL     OW22642   1.687   1.536   5.966  0.5447  0.6610  0.0323
 3728SOL    HW122643   1.625   1.473   5.928  2.7823 -2.2892  1.3470
 3728SOL    HW222644   1.629   1.563   6.038  0.4984 -0.2638  0.3318
 3729SOL     OW22645   4.601   2.792  11.252 -0.1461 -0.2145 -0.4146
 3729SOL    HW122646   4.541   2.717  11.256  2.1411 -2.0357 -0.0440
 3729SOL    HW222647   4.668   2.773  11.318 -1.3284  0.4176  0.9629
 3730SOL     OW22648   3.107   0.169   6.149 -0.0536 -0.4290 -0.2868
 3730SOL    HW122649   3.116   0.136   6.059  0.2855 -0.2596 -0.3135
 3730SOL    HW222650   3.012   0.160   6.157  0.1591 -0.6048  1.8878
 3731SOL     OW22651   2.489   3.679   9.938  0.3801 -0.3755  0.6054
 3731SOL    HW122652   2.514   3.703  10.027  2.9593 -2.4962  0.4591
 3731SOL    HW222653   2.431   3.753   9.919  1.9490  0.3198 -1.4806
 3732SOL     OW22654   0.066   3.825   9.587  0.1484 -0.2406 -0.2679
 3732SOL    HW122655   0.161   3.811   9.591  0.4336  0.8186 -3.3676
 3732SOL    HW222656   0.066   3.911   9.544  1.8692 -0.1085 -0.0315
 3733SOL     OW22657   0.068   4.656  10.631 -0.2432  0.1066  0.3638
 3733SOL    HW122658   0.064   4.706  10.713 -0.1445 -1.1951  1.1575
 3733SOL    HW222659   0.024   4.716  10.571 -0.0401  1.6836  1.7605
 3734SOL     OW22660   4.224   3.804  12.974 -0.7003 -0.4138 -0.1632
 3734SOL    HW122661   4.312   3.810  13.009 -0.2708  1.1265 -1.4988
 3734SOL    HW222662   4.209   3.890  12.935 -2.0403 -0.1097  1.0246
 3735SOL     OW22663   1.372   0.610   3.219  0.2699 -0.4310 -0.2472
 3735SOL    HW122664   1.359   0.705   3.224 -1.2690 -0.5783 -1.6094
 3735SOL    HW222665   1.347   0.602   3.311 -1.9627  2.6298 -0.5625
 3736SOL     OW22666   4.397   0.719   2.496  0.3097 -0.1371 -0.0099
 3736SOL    HW122667   4.322   0.738   2.440 -1.0455 -2.7892  0.9285
 3736SOL    HW222668   4.427   0.805   2.526 -1.7266  0.4149  0.4620
 3737SOL     OW22669   2.135   0.419   5.593  0.2609 -0.2957 -0.4694
 3737SOL    HW122670   2.098   0.447   5.510 -1.2858 -0.1833  0.2624
 3737SOL    HW222671   2.088   0.475   5.654  0.8620  0.1545 -0.4146
 3738SOL     OW22672   0.701   3.402  16.599 -0.5695 -0.1169 -0.0138
 3738SOL    HW122673   0.748   3.323  16.573  1.3136  2.2819 -3.9005
 3738SOL    HW222674   0.616   3.399  16.553  0.3495 -1.1572 -1.6489
 3739SOL     OW22675   1.505   4.541   7.210  0.0733 -0.4744  0.0159
 3739SOL    HW122676   1.489   4.451   7.239 -1.0708  0.1454  1.2642
 3739SOL    HW222677   1.413   4.566   7.212  0.0523 -0.6093  0.7423
 3740SOL     OW22678   2.582   1.240  17.546  0.2021  0.6366 -0.5686
 3740SOL    HW122679   2.603   1.153  17.510  2.5840  0.0734  2.1785
 3740SOL    HW222680   2.512   1.223  17.609  0.3290 -0.2251 -0.6536
 3741SOL     OW22681   0.742   0.402   3.759  0.3202 -0.3183  0.5703
 3741SOL    HW122682   0.683   0.476   3.751 -0.1756 -1.0323 -2.5436
 3741SOL    HW222683   0.826   0.441   3.738 -0.2393  0.4458 -0.2171
 3742SOL     OW22684   1.335   4.646   5.548  0.0925 -0.2663  0.4873
 3742SOL    HW122685   1.368   4.672   5.462 -1.5652  1.4338  0.3702
 3742SOL    HW222686   1.402   4.589   5.586  0.4270  0.0513  0.3791
 3743SOL     OW22687   1.904   3.468  16.995  0.8037 -0.0764  0.4292
 3743SOL    HW122688   1.868   3.530  17.058  0.8664 -1.6610  2.0085
 3743SOL    HW222689   1.903   3.527  16.919 -1.9065 -0.4052  0.2105
 3744SOL     OW22690   1.524   4.477   2.747  0.4766 -0.1963 -0.4040
 3744SOL    HW122691   1.580   4.406   2.779  0.1767 -1.1420 -2.0352
 3744SOL    HW222692   1.463   4.482   2.821  0.5696  1.1597 -0.4139
 3745SOL     OW22693   0.913   1.321   2.290  0.0210  0.5899  0.8134
 3745SOL    HW122694   0.861   1.291   2.215 -2.1720  2.9993  1.3898
 3745SOL    HW222695   0.861   1.286   2.363 -2.2048  1.0809 -0.5382
 3746SOL     OW22696   0.779   1.004   8.891 -0.2187  0.6915 -0.0395
 3746SOL    HW122697   0.874   1.009   8.879  0.0219 -0.4527  1.3180
 3746SOL    HW222698   0.767   0.923   8.841 -0.4227  0.5179  0.2902
 3747SOL     OW22699   0.371   1.408   4.870  0.4117  0.1922 -0.2191
 3747SOL    HW122700   0.334   1.410   4.781  0.9342 -0.4787 -0.4454
 3747SOL    HW222701   0.427   1.332   4.856  0.0522  0.2622 -2.1178
 3748SOL     OW22702   2.364   2.070   4.404  0.2303  0.5567 -0.0376
 3748SOL    HW122703   2.408   2.079   4.320  0.9972 -2.2448  0.0613
 3748SOL    HW222704   2.272   2.067   4.377  0.2827 -0.3984 -0.1359
 3749SOL     OW22705   4.167   0.938   3.024  0.1649  0.1956  0.5331
 3749SOL    HW122706   4.174   0.874   2.953 -2.5620 -0.4246  0.8436
 3749SOL    HW222707   4.093   0.994   3.002 -0.2236 -1.1133 -1.4554
 3750SOL     OW22708   1.708   1.741   9.361  0.2782 -0.0939 -0.0763
 3750SOL    HW122709   1.795   1.701   9.365  0.7694  1.0258  0.3293
 3750SOL    HW222710   1.675   1.705   9.279  0.5473  3.1449 -1.5994
 3751SOL     OW22711   4.329   2.786   6.981 -0.0831  0.2316 -0.4220
 3751SOL    HW122712   4.243   2.753   6.953 -0.3418  0.6166 -0.0915
 3751SOL    HW222713   4.367   2.789   6.893 -0.1811 -0.6162 -0.4908
 3752SOL     OW22714   0.395   2.123  16.963  0.5825 -0.4858  0.2610
 3752SOL    HW122715   0.451   2.093  17.035  1.7737 -2.2545 -1.3864
 3752SOL    HW222716   0.460   2.169  16.910 -0.5497 -1.4218 -1.9494
 3753SOL     OW22717   1.188   3.182   9.894 -0.2890 -0.1633  0.5129
 3753SOL    HW122718   1.179   3.109   9.956  0.7859 -1.0869 -0.4079
 3753SOL    HW222719   1.142   3.250   9.943  2.4532  3.5280 -2.0784
 3754SOL     OW22720   4.584   0.658   5.745  1.0346  0.3028  0.2741
 3754SOL    HW122721   4.628   0.685   5.664  1.4335  0.0762  0.4192
 3754SOL    HW222722   4.587   0.738   5.797 -0.2283 -0.7716  2.0034
 3755SOL     OW22723   1.919   1.743   6.870 -0.4750  0.8988 -0.5704
 3755SOL    HW122724   1.956   1.767   6.786 -0.2322 -0.4257 -0.8435
 3755SOL    HW222725   1.833   1.784   6.862 -1.3126 -1.0385 -1.4188
 3756SOL     OW22726   2.395   3.175   2.463  0.2577  0.0199  0.0110
 3756SOL    HW122727   2.410   3.269   2.476  2.2868 -0.1824 -0.7382
 3756SOL    HW222728   2.302   3.162   2.479  0.5812 -2.1789  0.1078
 3757SOL     OW22729   2.943   2.967   2.171 -0.0802  0.1582 -0.0905
 3757SOL    HW122730   2.913   3.005   2.088 -2.2623 -1.1834  0.0684
 3757SOL    HW222731   2.975   3.046   2.214  1.0212  0.6485 -1.8446
 3758SOL     OW22732   4.341   4.672   4.118  0.0642  0.0501  0.4102
 3758SOL    HW122733   4.293   0.020   4.072 -3.0790 -0.3148  3.1150
 3758SOL    HW222734   4.316   4.701   4.206 -1.4501  1.4433 -0.4676
 3759SOL     OW22735   4.102   1.246   2.817  0.4738  0.3351  0.6053
 3759SOL    HW122736   4.195   1.236   2.796  0.2145 -0.0097 -0.3731
 3759SOL    HW222737   4.066   1.164   2.782 -1.8320  2.3601 -1.8319
 3760SOL     OW22738   3.189   2.791   8.812 -0.0903  0.0641  0.0418
 3760SOL    HW122739   3.149   2.868   8.772 -1.7704 -1.3198 -0.9686
 3760SOL    HW222740   3.276   2.823   8.836 -0.3616  0.9134 -0.1104
 3761SOL     OW22741   2.325   2.099  12.086  0.3123  0.4437 -0.3430
 3761SOL    HW122742   2.241   2.098  12.132  0.5575 -0.7208  0.0810
 3761SOL    HW222743   2.386   2.059  12.148 -0.0887  0.7189  0.2279
 3762SOL     OW22744   1.278   1.597   2.541  0.0094  0.2006  0.3612
 3762SOL    HW122745   1.357   1.545   2.553  0.5312  0.7119 -0.9015
 3762SOL    HW222746   1.221   1.523   2.520  0.1491 -0.0438  0.8462
 3763SOL     OW22747   2.810   3.016   2.615  0.0825  0.1465 -0.4563
 3763SOL    HW122748   2.754   2.954   2.568  0.4435  0.4118 -1.2287
 3763SOL    HW222749   2.750   3.083   2.648  0.3777  0.0744  0.2281
 3764SOL     OW22750   1.123   4.211  14.525 -0.4364 -0.1497  0.0898
 3764SOL    HW122751   1.215   4.211  14.498 -0.1163  0.4668  1.1754
 3764SOL    HW222752   1.126   4.120  14.555 -0.3413 -0.0938  0.2500
 3765SOL     OW22753   0.772   3.074   3.540 -0.0048 -0.0860 -0.1837
 3765SOL    HW122754   0.826   3.123   3.478  2.3058  1.1046  2.7852
 3765SOL    HW222755   0.685   3.085   3.500 -0.1682  1.5458  0.6236
 3766SOL     OW22756   2.526   2.258   1.679  0.1291 -0.1089  0.2926
 3766SOL    HW122757   2.570   2.281   1.761 -0.8127 -0.5102  0.9004
 3766SOL    HW222758   2.462   2.193   1.708 -0.0102  0.8592  2.1275
 3767SOL     OW22759   4.000   1.399  15.050 -0.1785 -0.0116  0.0201
 3767SOL    HW122760   4.073   1.376  14.993  1.2400  0.0973  1.8164
 3767SOL    HW222761   4.028   1.487  15.073 -1.5799 -0.0694  1.9569
 3768SOL     OW22762   4.342   3.201   0.076 -0.0060 -0.0832  0.6804
 3768SOL    HW122763   4.313   3.230   0.162 -0.5620  1.4029 -0.0064
 3768SOL    HW222764   4.324   3.283   0.030 -0.9628  0.0827  1.3559
 3769SOL     OW22765   2.125   0.746  11.401  0.5258  0.0751  0.3004
 3769SOL    HW122766   2.191   0.747  11.470  1.1569  0.3074 -0.3069
 3769SOL    HW222767   2.069   0.689  11.453  0.3560 -0.6936 -0.7365
 3770SOL     OW22768   2.132   4.034  17.665  0.2855 -0.3020  0.2781
 3770SOL    HW122769   2.216   4.009   0.017  0.5057  0.4142  0.2694
 3770SOL    HW222770   2.096   3.951   0.007 -1.9946 -0.2437 -2.3522
 3771SOL     OW22771   0.703   2.666   1.977 -0.1365 -0.0250  0.3458
 3771SOL    HW122772   0.782   2.616   1.960 -1.3518 -2.1239  0.8297
 3771SOL    HW222773   0.749   2.749   1.979 -1.8272  0.9095  0.4552
 3772SOL     OW22774   4.059   1.446  16.044 -0.9755 -0.2978 -0.0304
 3772SOL    HW122775   3.970   1.473  16.025 -0.7112  0.0619 -0.7659
 3772SOL    HW222776   4.046   1.422  16.135  1.6165 -1.2140  0.0990
 3773SOL     OW22777   0.720   1.118  13.246 -1.0017 -0.7360  0.2871
 3773SOL    HW122778   0.712   1.152  13.157 -0.7034  1.1615  1.0004
 3773SOL    HW222779   0.777   1.043  13.230 -0.8782 -0.6497  0.3235
 3774SOL     OW22780   0.708   0.494  12.789  0.5419  0.0466 -0.7749
 3774SOL    HW122781   0.740   0.562  12.848 -0.4644 -1.2277  1.2412
 3774SOL    HW222782   0.693   0.425  12.853  2.2532 -0.1496 -0.5990
 3775SOL     OW22783   4.025   3.126   5.912  0.3556  0.3329  0.4286
 3775SOL    HW122784   4.040   3.033   5.926  1.4704  0.6698  1.4101
 3775SOL    HW222785   4.107   3.141   5.865 -0.2916  0.9438 -0.5108
 3776SOL     OW22786   1.291   4.107   1.153  0.1510  0.4231  0.4677
 3776SOL    HW122787   1.326   4.119   1.241  0.4218 -2.5555  0.7706
 3776SOL    HW222788   1.367   4.134   1.100 -1.7098 -0.1189 -2.4663
 3777SOL     OW22789   2.357   4.654  10.853  0.2816 -0.8141  0.3887
 3777SOL    HW122790   2.449   4.663  10.877  0.9878  1.0924 -2.9582
 3777SOL    HW222791   2.349   0.013  10.801 -2.6143 -1.3799 -0.0548
 3778SOL     OW22792   0.828   2.133   5.109  0.2927 -0.2314 -0.0532
 3778SOL    HW122793   0.759   2.162   5.049 -0.4950  1.2066  1.5383
 3778SOL    HW222794   0.863   2.052   5.073 -2.2021 -0.9567 -0.8877
 3779SOL     OW22795   2.614   2.521   6.983  0.5289  0.7613 -0.2749
 3779SOL    HW122796   2.631   2.443   7.036 -1.2077 -0.7188 -1.8617
 3779SOL    HW222797   2.701   2.546   6.953 -0.9456  2.3304 -3.1977
 3780SOL     OW22798   3.811   0.711   2.109 -0.6112 -0.4235  0.1209
 3780SOL    HW122799   3.753   0.660   2.164 -0.3795  0.3819  1.1184
 3780SOL    HW222800   3.889   0.712   2.165  0.1219 -0.2166 -0.9119
 3781SOL     OW22801   3.927   2.882  10.964  0.0873  0.1655  0.0458
 3781SOL    HW122802   3.954   2.791  10.950 -0.7453 -0.3100  1.5415
 3781SOL    HW222803   3.906   2.874  11.057 -2.7271  0.8305 -0.5485
 3782SOL     OW22804   2.712   3.193  13.991  0.2163 -0.2490  0.1101
 3782SOL    HW122805   2.656   3.129  13.948  2.0122 -0.4066 -1.9882
 3782SOL    HW222806   2.781   3.137  14.027 -0.3024 -0.7950  0.2358
 3783SOL     OW22807   3.905   3.980   0.663 -0.1405  0.1144  0.5283
 3783SOL    HW122808   3.898   3.942   0.751 -0.4653 -1.9931 -0.4135
 3783SOL    HW222809   3.856   3.917   0.610 -0.8666  0.4146  0.8409
 3784SOL     OW22810   4.344   4.581   0.056 -0.8720  0.5462  0.1467
 3784SOL    HW122811   4.289   4.656   0.031 -0.3430  0.3751 -1.4956
 3784SOL    HW222812   4.416   4.636   0.087 -0.8072  0.7003 -0.2915
 3785SOL     OW22813   2.284   2.619   0.231  0.1700  0.3230 -0.7100
 3785SOL    HW122814   2.294   2.668   0.312  0.4970 -2.9781  1.2418
 3785SOL    HW222815   2.378   2.609   0.214  0.4069  0.9084  0.2680
 3786SOL     OW22816   4.103   0.290   2.615  0.3613  0.3395  0.6196
 3786SOL    HW122817   4.013   0.300   2.646  0.1932 -3.5835  1.3498
 3786SOL    HW222818   4.107   0.369   2.561 -2.2592 -0.6116 -0.9584
 3787SOL     OW22819   1.936   4.238   5.402  0.0155 -0.1356 -0.2008
 3787SOL    HW122820   1.959   4.273   5.489  2.5784 -0.0210 -0.9189
 3787SOL    HW222821   1.990   4.293   5.346 -1.7845  0.1401 -1.6542
 3788SOL     OW22822   0.496   3.650  15.652  0.0800 -0.3737  0.6102
 3788SOL    HW122823   0.482   3.613  15.739 -0.7164  1.2569  1.1666
 3788SOL    HW222824   0.519   3.742  15.660 -0.5333 -0.3741  2.3328
 3789SOL     OW22825   3.224   4.163   5.141 -0.2178 -0.1018  0.5030
 3789SOL    HW122826   3.277   4.241   5.158 -1.8813  0.8045  1.5001
 3789SOL    HW222827   3.169   4.169   5.219  1.0308 -1.7303  1.5176
 3790SOL     OW22828   3.572   1.790   6.503  0.5395  0.0435  0.2539
 3790SOL    HW122829   3.487   1.823   6.476  0.0663 -2.7039 -1.6273
 3790SOL    HW222830   3.552   1.696   6.507 -2.4003  0.7387  1.9021
 3791SOL     OW22831   1.799   4.310   1.042  0.0514  0.2249 -0.2069
 3791SOL    HW122832   1.755   4.272   0.966 -0.1699 -0.6416  0.3593
 3791SOL    HW222833   1.740   4.379   1.071  2.7141  1.9965  0.9672
 3792SOL     OW22834   0.283   0.405   7.061  0.0138  0.3753  0.3651
 3792SOL    HW122835   0.223   0.448   7.001  1.5924  3.3070  0.8980
 3792SOL    HW222836   0.279   0.318   7.022  0.2536  0.6444 -0.2523
 3793SOL     OW22837   0.181   2.203   1.650  0.1677 -0.6490 -0.0439
 3793SOL    HW122838   0.098   2.177   1.690 -0.8669  4.0128  0.7788
 3793SOL    HW222839   0.162   2.191   1.557 -0.4940 -0.6229  0.0865
 3794SOL     OW22840   3.574   3.974   4.891 -0.3105 -0.6557  0.8326
 3794SOL    HW122841   3.639   3.910   4.921  0.4206 -1.5190 -2.6003
 3794SOL    HW222842   3.497   3.918   4.889 -0.5574 -0.2536 -0.5951
 3795SOL     OW22843   2.654   1.487  15.635 -0.4364  0.0641 -0.0598
 3795SOL    HW122844   2.736   1.530  15.658  0.6037 -0.3713 -3.0263
 3795SOL    HW222845   2.649   1.425  15.708 -1.8623 -0.7424 -0.8264
 3796SOL     OW22846   1.736   0.132   5.230  0.4382 -0.1433  0.0751
 3796SOL    HW122847   1.799   0.094   5.292 -0.2533 -2.5038 -0.6587
 3796SOL    HW222848   1.765   0.081   5.154 -0.0690  1.7912 -1.3914
 3797SOL     OW22849   1.563   0.351   6.858 -0.1784 -0.2656 -0.1621
 3797SOL    HW122850   1.513   0.271   6.875 -2.3706  1.5790  1.9890
 3797SOL    HW222851   1.519   0.383   6.779  0.3567 -2.1533 -1.2130
 3798SOL     OW22852   2.173   3.980   0.544 -0.0904 -0.4674  0.0486
 3798SOL    HW122853   2.119   3.968   0.622 -1.0707 -1.7693 -0.8240
 3798SOL    HW222854   2.218   4.057   0.578  2.5152 -1.2480 -1.6721
 3799SOL     OW22855   3.494   4.282  12.753 -0.1080 -0.0639 -0.1712
 3799SOL    HW122856   3.497   4.212  12.817  1.4755 -0.0168 -0.2082
 3799SOL    HW222857   3.533   4.346  12.813  1.6704 -0.4189 -0.9559
 3800SOL     OW22858   1.920   3.098   5.319  0.1093  0.8407  0.5272
 3800SOL    HW122859   1.882   3.011   5.314  2.3417  0.0165 -2.0460
 3800SOL    HW222860   1.875   3.148   5.250 -0.0893  0.2602  0.2413
 3801SOL     OW22861   0.629   3.892  17.265  0.0683  0.5081  0.6430
 3801SOL    HW122862   0.591   3.973  17.230 -1.2124  0.2789  1.5012
 3801SOL    HW222863   0.689   3.916  17.336  0.2453  0.7216  0.4206
 3802SOL     OW22864   0.217   0.261   5.845  0.2790  0.3547 -0.1919
 3802SOL    HW122865   0.267   0.211   5.781 -1.0081  1.2509 -1.8787
 3802SOL    HW222866   0.132   0.219   5.839 -0.2804  1.3503  0.7388
 3803SOL     OW22867   3.716   3.157   1.149 -0.1191 -0.0734  0.3828
 3803SOL    HW122868   3.712   3.092   1.219  1.3439  0.8075  1.2910
 3803SOL    HW222869   3.769   3.106   1.088 -1.7361  1.8270 -2.6108
 3804SOL     OW22870   1.217   2.890  12.903 -0.0166  0.1101  0.1065
 3804SOL    HW122871   1.309   2.872  12.922 -0.2767 -1.5425 -0.1868
 3804SOL    HW222872   1.184   2.819  12.958  0.0048  0.6359  0.8017
 3805SOL     OW22873   3.883   3.852   3.826 -0.3365  0.2067 -0.1764
 3805SOL    HW122874   3.967   3.845   3.872 -0.9637 -1.4936  0.7157
 3805SOL    HW222875   3.910   3.853   3.734  0.0604  0.5345 -0.0540
 3806SOL     OW22876   4.564   2.872   4.240  0.5077  0.0574  0.2362
 3806SOL    HW122877   4.546   2.801   4.178  0.6692 -0.4657  0.7795
 3806SOL    HW222878   4.484   2.878   4.292 -0.3014 -0.9546 -0.8780
 3807SOL     OW22879   1.474   1.234   5.200 -0.0894  0.2954  0.3279
 3807SOL    HW122880   1.520   1.165   5.247 -0.3338 -0.8639 -1.1556
 3807SOL    HW222881   1.520   1.315   5.220  1.2581  0.1704 -2.3629
 3808SOL     OW22882   2.964   4.302  16.773  0.0071 -0.0562 -0.1807
 3808SOL    HW122883   2.939   4.220  16.816  2.0116 -1.1919 -1.1526
 3808SOL    HW222884   2.898   4.357  16.815  2.5511  2.8718 -0.0306
 3809SOL     OW22885   1.347   3.205   7.247  0.8884 -0.1064 -0.0442
 3809SOL    HW122886   1.307   3.119   7.260 -2.2805  1.4870  0.6634
 3809SOL    HW222887   1.283   3.253   7.298  2.1706 -0.0733  1.5393
 3810SOL     OW22888   2.112   1.136  16.382 -0.0471  0.6362  0.3331
 3810SOL    HW122889   2.174   1.182  16.325 -1.5236 -1.5310 -3.0580
 3810SOL    HW222890   2.165   1.057  16.382  0.2322  0.8160 -0.2848
 3811SOL     OW22891   3.751   3.487   7.530  0.2407  0.1107  0.1558
 3811SOL    HW122892   3.705   3.536   7.463 -0.3261 -0.7724 -0.1019
 3811SOL    HW222893   3.721   3.402   7.498 -0.7263  0.3784  0.3675
 3812SOL     OW22894   4.717   1.918   6.068 -0.0881  0.1657 -0.2579
 3812SOL    HW122895   4.683   1.954   5.986  0.0390 -0.8195 -0.7531
 3812SOL    HW222896   0.074   1.969   6.087 -1.6310  2.9800 -1.5527
 3813SOL     OW22897   4.581   1.993   5.839 -0.1832 -0.0984  0.5582
 3813SOL    HW122898   4.521   1.919   5.825 -0.6345  0.4743 -0.5903
 3813SOL    HW222899   4.651   1.971   5.777 -0.4118 -0.0149  0.2674
 3814SOL     OW22900   3.916   2.670   3.016 -0.8024 -0.1736  0.0330
 3814SOL    HW122901   3.930   2.732   2.944 -0.7435 -2.0228 -1.5571
 3814SOL    HW222902   4.005   2.641   3.033 -1.1590 -1.2095  0.1024
 3815SOL     OW22903   1.360   2.515   9.478  1.3799  0.2429  0.0321
 3815SOL    HW122904   1.270   2.527   9.506  0.9718 -3.1183  0.1830
 3815SOL    HW222905   1.403   2.574   9.540  1.6188 -0.9019  0.9649
 3816SOL     OW22906   2.923   2.241   8.343 -0.1337 -0.4735  0.3112
 3816SOL    HW122907   2.923   2.298   8.266  0.3949  0.1943  0.7926
 3816SOL    HW222908   2.860   2.174   8.317 -0.6643 -0.1662  0.8090
 3817SOL     OW22909   0.418   1.425   5.923  0.0678 -0.5162 -0.0911
 3817SOL    HW122910   0.332   1.421   5.965  1.2448  0.4989  2.3780
 3817SOL    HW222911   0.470   1.399   6.000  0.7079 -1.7443 -0.9340
 3818SOL     OW22912   4.421   3.069  16.288 -0.0961  0.4662 -0.1881
 3818SOL    HW122913   4.465   3.153  16.273  2.0395 -0.4548  0.9034
 3818SOL    HW222914   4.350   3.097  16.346 -0.3204 -2.3713  0.9156
 3819SOL     OW22915   3.876   3.867   4.392 -0.2955 -0.2671 -0.5476
 3819SOL    HW122916   3.792   3.869   4.346 -0.9432  1.0251  0.6661
 3819SOL    HW222917   3.856   3.905   4.477 -1.1122  0.0899 -0.8994
 3820SOL     OW22918   1.836   0.564   4.840  0.0483 -0.0079 -0.0375
 3820SOL    HW122919   1.901   0.494   4.851 -0.6726 -0.8030 -0.9064
 3820SOL    HW222920   1.861   0.582   4.749 -0.2258  0.2927 -0.0512
 3821SOL     OW22921   0.791   2.378  10.351  0.3093  0.3503  0.2786
 3821SOL    HW122922   0.818   2.431  10.427  0.2143  0.2826  0.3596
 3821SOL    HW222923   0.870   2.375  10.297  0.3543 -1.1659  0.4329
 3822SOL     OW22924   0.153   1.035   6.817 -0.4502  0.1987  0.7395
 3822SOL    HW122925   0.112   1.084   6.888 -1.8475 -0.9895  0.7510
 3822SOL    HW222926   0.079   0.984   6.783 -0.8801  1.5036 -0.3119
 3823SOL     OW22927   4.043   4.277   8.185 -0.5207  0.8669 -0.5825
 3823SOL    HW122928   4.074   4.205   8.131 -1.3082  1.7097 -2.1635
 3823SOL    HW222929   3.959   4.298   8.143 -0.1036  1.9901 -0.8763
 3824SOL     OW22930   0.326   0.565   3.643  0.3294  0.5511  0.2331
 3824SOL    HW122931   0.231   0.578   3.635  0.3349  1.5538  1.8748
 3824SOL    HW222932   0.311   0.477   3.677 -2.5527  1.4214  1.2580
 3825SOL     OW22933   0.090   0.010   3.954 -0.0331  0.8217  0.2650
 3825SOL    HW122934   0.166   0.004   4.012  0.8008  0.8822 -0.8454
 3825SOL    HW222935   0.025   4.679   4.000 -0.1810 -0.2906 -1.2492
 3826SOL     OW22936   2.650   3.147   4.952 -0.1525 -0.2099 -0.1848
 3826SOL    HW122937   2.569   3.133   4.902  0.3236 -2.4081 -0.3367
 3826SOL    HW222938   2.703   3.184   4.882  0.7964  0.6818  1.0228
 3827SOL     OW22939   2.543   3.734   7.311  0.6941  0.1429 -0.3656
 3827SOL    HW122940   2.608   3.699   7.250  0.8438  0.5083 -0.4168
 3827SOL    HW222941   2.537   3.665   7.377  0.7063 -1.1633 -1.7058
 3828SOL     OW22942   1.494   1.331   5.870  0.2583 -0.6939  0.4570
 3828SOL    HW122943   1.417   1.341   5.925 -0.4727 -0.7381 -0.5579
 3828SOL    HW222944   1.469   1.254   5.817  0.5846 -1.6390  1.6709
 3829SOL     OW22945   3.147   3.199   6.995 -0.6110 -0.1368 -0.6780
 3829SOL    HW122946   3.132   3.243   6.912  1.2186 -1.0438 -1.4917
 3829SOL    HW222947   3.108   3.114   6.975  1.9225 -0.8506 -2.6193
 3830SOL     OW22948   2.563   3.803   0.671 -0.7539 -0.0445 -0.5082
 3830SOL    HW122949   2.487   3.792   0.729 -2.0264  0.1240 -2.1379
 3830SOL    HW222950   2.519   3.804   0.586 -0.3351 -0.5866 -0.7282
 3831SOL     OW22951   0.467   1.272   5.382  0.1783  0.2695 -0.3102
 3831SOL    HW122952   0.414   1.325   5.443  1.2168 -1.7582  2.3651
 3831SOL    HW222953   0.455   1.184   5.417  1.2886  0.1221 -0.3084
 3832SOL     OW22954   2.474   1.339  10.849  0.4581 -0.4394 -0.1703
 3832SOL    HW122955   2.465   1.246  10.872  1.9446 -0.7682 -0.9003
 3832SOL    HW222956   2.542   1.367  10.910  1.0747 -0.6663 -0.7446
 3833SOL     OW22957   2.159   4.341  11.447 -0.0853  0.1658 -0.2284
 3833SOL    HW122958   2.233   4.313  11.501 -0.3163 -1.4617 -0.7473
 3833SOL    HW222959   2.182   4.308  11.360 -0.4841 -1.2903  0.2191
 3834SOL     OW22960   0.802   4.251  13.584  0.0500  0.4896  0.3863
 3834SOL    HW122961   0.804   4.165  13.541  3.6009  0.9789 -0.4048
 3834SOL    HW222962   0.883   4.299  13.569  1.0902 -1.0925  0.9160
 3835SOL     OW22963   3.836   2.791   8.323  0.4368  0.1432  0.5424
 3835SOL    HW122964   3.842   2.829   8.411 -2.7023  0.2243  0.7315
 3835SOL    HW222965   3.785   2.859   8.279 -0.7389 -1.8066 -1.1222
 3836SOL     OW22966   3.899   1.546   4.171 -0.2234  0.1123 -0.5816
 3836SOL    HW122967   3.868   1.463   4.134  0.1832  0.3466 -1.4381
 3836SOL    HW222968   3.985   1.550   4.130 -0.0610 -2.1857 -0.4569
 3837SOL     OW22969   0.553   2.543  12.755 -0.4618 -0.0930  0.5419
 3837SOL    HW122970   0.622   2.493  12.797  1.6899  1.7125 -0.8354
 3837SOL    HW222971   0.589   2.631  12.747  2.1433 -1.0393  2.0259
 3838SOL     OW22972   2.631   3.483   6.377  0.4685 -0.1923  0.5960
 3838SOL    HW122973   2.648   3.441   6.293  0.9881  2.0154 -0.3952
 3838SOL    HW222974   2.539   3.506   6.362 -0.2564 -2.7049  1.2667
 3839SOL     OW22975   0.328   3.530   3.154  0.5065  0.1522 -0.0503
 3839SOL    HW122976   0.312   3.594   3.085  1.2503 -0.8453 -1.1406
 3839SOL    HW222977   0.389   3.582   3.207 -0.4102  0.6422  0.5142
 3840SOL     OW22978   1.934   1.451   3.962 -0.8614  0.2251 -0.2918
 3840SOL    HW122979   1.963   1.411   3.880 -0.2095 -0.9654  0.5238
 3840SOL    HW222980   1.885   1.375   3.995  0.8324  0.3037  2.3697
 3841SOL     OW22981   1.571   0.858   5.018 -0.1518 -0.4646 -0.6579
 3841SOL    HW122982   1.601   0.908   4.942 -0.9378  1.8043  0.5241
 3841SOL    HW222983   1.576   0.771   4.978  1.7460 -0.0656 -1.2958
 3842SOL     OW22984   3.963   0.565  14.779  0.0919 -0.6437  0.4220
 3842SOL    HW122985   3.956   0.558  14.683  0.9037 -0.1193  0.3228
 3842SOL    HW222986   4.058   0.565  14.790  0.3806 -0.7940 -2.0323
 3843SOL     OW22987   2.589   0.791   3.379  0.1446  0.7113  0.3386
 3843SOL    HW122988   2.498   0.811   3.401 -0.0957  0.3497 -0.3277
 3843SOL    HW222989   2.643   0.845   3.437  1.9453 -0.8666  0.1380
 3844SOL     OW22990   4.688   1.761   7.444 -0.6354 -0.1270 -0.1397
 3844SOL    HW122991   4.642   1.702   7.384  1.8118 -2.4403  0.2491
 3844SOL    HW222992   4.653   1.732   7.529  1.1363 -1.0044  0.2852
 3845SOL     OW22993   1.718   2.231  14.627 -0.0014 -0.5466 -0.4063
 3845SOL    HW122994   1.772   2.295  14.674 -2.4148 -0.8766  2.7628
 3845SOL    HW222995   1.739   2.254  14.536 -0.4550  0.7098 -0.2033
 3846SOL     OW22996   0.758   0.705  12.938 -0.0225 -0.1988  0.5941
 3846SOL    HW122997   0.839   0.739  12.974  0.7124 -0.4870 -0.7849
 3846SOL    HW222998   0.700   0.722  13.012 -0.4575 -0.9466  0.4303
 3847SOL     OW22999   0.656   2.510  17.326  0.0512  0.4646 -0.2505
 3847SOL    HW123000   0.573   2.558  17.323 -0.1240  0.0308 -1.9402
 3847SOL    HW223001   0.713   2.572  17.372 -0.7254  0.8787  0.1687
 3848SOL     OW23002   4.636   1.054  17.031 -0.1976  0.2850 -0.5520
 3848SOL    HW123003   4.608   1.145  17.040  0.5296  0.3732  0.8935
 3848SOL    HW223004   4.601   1.034  16.945 -0.9294  0.6490 -0.3399
 3849SOL     OW23005   0.375   3.967  15.506 -0.2279  0.0204  0.5627
 3849SOL    HW123006   0.435   3.952  15.579  1.7027 -1.1397 -1.2585
 3849SOL    HW223007   0.325   4.041  15.539 -0.0273 -0.1193  1.1708
 3850SOL     OW23008   1.814   2.314   3.652  1.0602 -0.2825  0.1704
 3850SOL    HW123009   1.830   2.393   3.704  1.4774  0.9489 -1.8497
 3850SOL    HW223010   1.902   2.313   3.617  0.5921 -0.6838 -0.9888
 3851SOL     OW23011   0.213   2.521   6.050  0.1900  0.0503  0.0477
 3851SOL    HW123012   0.203   2.584   6.121 -2.3511  0.5373 -0.7532
 3851SOL    HW223013   0.156   2.448   6.074 -2.6963  2.5853  0.9788
 3852SOL     OW23014   0.698   4.623   1.979 -0.8453  0.4678 -0.3626
 3852SOL    HW123015   0.652   4.561   1.922  1.7827 -0.5181 -1.3945
 3852SOL    HW223016   0.792   4.608   1.968 -0.6857  1.0118  0.2896
 3853SOL     OW23017   2.282   0.164   3.887 -0.3903 -0.1888  0.3135
 3853SOL    HW123018   2.295   0.077   3.926 -1.8053 -0.6239 -0.2056
 3853SOL    HW223019   2.246   0.208   3.964 -1.1545  0.7973 -0.6099
 3854SOL     OW23020   3.320   2.040   5.069 -0.8024 -0.0009  0.5035
 3854SOL    HW123021   3.310   1.946   5.084 -0.3432 -0.5832 -2.8711
 3854SOL    HW223022   3.416   2.040   5.066 -0.8035  0.9450  0.4335
 3855SOL     OW23023   4.358   1.162   1.263  0.0279 -0.4123 -0.2409
 3855SOL    HW123024   4.286   1.099   1.274  0.7123 -0.9715  0.9405
 3855SOL    HW223025   4.299   1.234   1.287  0.5964 -0.7196  2.0766
 3856SOL     OW23026   3.909   3.197  14.951 -0.0105  0.3308 -0.1714
 3856SOL    HW123027   3.866   3.121  14.911 -0.8117  0.7067 -0.0310
 3856SOL    HW223028   3.907   3.253  14.874  0.5152 -0.7751 -0.9822
 3857SOL     OW23029   2.200   3.240   4.409  0.4061 -0.0153 -0.0164
 3857SOL    HW123030   2.179   3.179   4.338  0.4667  1.4829 -1.3370
 3857SOL    HW223031   2.115   3.282   4.420  1.2143  2.2258 -2.3315
 3858SOL     OW23032   1.597   3.089   6.055  0.2901 -0.2073  0.7409
 3858SOL    HW123033   1.647   3.171   6.049  4.6915 -2.9449  0.0827
 3858SOL    HW223034   1.523   3.112   5.999 -1.0735 -1.7084  1.9143
 3859SOL     OW23035   4.216   3.794   7.175  0.0496  0.8517  0.4614
 3859SOL    HW123036   4.309   3.808   7.196 -0.2495  0.7455  1.8820
 3859SOL    HW223037   4.203   3.705   7.210  0.6541  0.1438 -1.1169
 3860SOL     OW23038   2.153   3.367   5.911  0.1912 -0.6201 -0.5133
 3860SOL    HW123039   2.182   3.297   5.969 -1.1402 -1.7904 -1.2887
 3860SOL    HW223040   2.219   3.359   5.842  1.4496  0.1524  0.5928
 3861SOL     OW23041   4.445   4.605   7.226 -0.1471 -0.0474  0.0788
 3861SOL    HW123042   4.424   4.699   7.227  0.1466  0.0310 -0.7358
 3861SOL    HW223043   4.465   4.603   7.320  0.6856  2.6992 -0.0213
 3862SOL     OW23044   3.109   1.562   4.528 -0.0471 -0.7504  0.2413
 3862SOL    HW123045   3.083   1.642   4.572  2.3060 -0.0352  0.3707
 3862SOL    HW223046   3.050   1.499   4.568  1.5774 -1.7612  1.0424
 3863SOL     OW23047   2.028   0.083   8.595  0.4523 -0.1295 -0.1628
 3863SOL    HW123048   1.958   0.056   8.655  0.1917 -0.9044 -0.8216
 3863SOL    HW223049   2.040   0.173   8.626 -1.5069 -0.3323  1.2742
 3864SOL     OW23050   3.377   4.717   6.799 -0.3443  0.0642  0.4842
 3864SOL    HW123051   3.302   4.659   6.787 -1.1763  1.3024 -0.3271
 3864SOL    HW223052   3.361   0.029   6.887 -0.0645  1.1720  0.1290
 3865SOL     OW23053   2.091   4.040   2.501  0.1041  0.7300 -0.0928
 3865SOL    HW123054   2.015   3.984   2.519  0.7225 -0.4052 -1.0262
 3865SOL    HW223055   2.121   4.088   2.578  0.3614 -0.3099  0.4507
 3866SOL     OW23056   0.875   4.620   9.700 -0.2556  0.3197 -0.4474
 3866SOL    HW123057   0.849   4.712   9.699  1.9693  0.9902  1.7791
 3866SOL    HW223058   0.969   4.624   9.718  0.3721  0.7044 -3.8321
 3867SOL     OW23059   3.964   1.209  13.732  0.0001 -0.0741  0.4203
 3867SOL    HW123060   3.901   1.137  13.724 -1.0242  0.9491 -0.6080
 3867SOL    HW223061   3.971   1.195  13.827 -1.7217  1.1154  0.7123
 3868SOL     OW23062   3.338   4.572   3.500 -0.6452 -0.2010 -0.1122
 3868SOL    HW123063   3.385   4.654   3.514  0.6748 -1.3833  2.2971
 3868SOL    HW223064   3.286   4.602   3.426 -0.0983 -1.1628 -0.8829
 3869SOL     OW23065   2.497   0.586   3.934  0.0305 -0.0787 -0.0096
 3869SOL    HW123066   2.531   0.511   3.983 -0.5713 -1.2826 -1.4432
 3869SOL    HW223067   2.572   0.646   3.933  0.8321 -1.0761  1.1694
 3870SOL     OW23068   3.123   3.579   3.895  0.8592  0.7031  0.2551
 3870SOL    HW123069   3.050   3.623   3.852  0.9604 -1.6535 -2.2716
 3870SOL    HW223070   3.139   3.633   3.973  0.5935  0.8253  0.2233
 3871SOL     OW23071   1.732   3.612  13.976  0.3115  0.4269  0.0698
 3871SOL    HW123072   1.780   3.532  13.954  0.8093  0.1797  2.0226
 3871SOL    HW223073   1.656   3.580  14.026 -0.4353 -1.0140 -2.0158
 3872SOL     OW23074   2.288   2.313  16.392 -0.1073 -0.1317 -0.1560
 3872SOL    HW123075   2.380   2.299  16.415 -0.2484 -0.3933  0.2398
 3872SOL    HW223076   2.257   2.236  16.438  1.7567 -0.3774  0.6605
 3873SOL     OW23077   1.808   2.451   5.709 -0.0067 -0.4566 -0.5298
 3873SOL    HW123078   1.760   2.442   5.626 -1.8330  0.0744  0.4753
 3873SOL    HW223079   1.740   2.457   5.775 -0.1051  0.0937 -0.6849
 3874SOL     OW23080   3.554   3.990   7.174  0.0536 -0.8991 -0.1224
 3874SOL    HW123081   3.610   3.982   7.250 -0.0530  2.6602  0.3588
 3874SOL    HW223082   3.591   3.926   7.114  0.7574  0.4086 -1.0910
 3875SOL     OW23083   0.125   3.280  11.116  0.3594 -0.2063 -0.2938
 3875SOL    HW123084   0.195   3.216  11.107  0.1099 -0.4918 -0.2394
 3875SOL    HW223085   0.150   3.351  11.058 -1.1358  0.3959 -0.2221
 3876SOL     OW23086   1.743   0.446   8.579  0.1091  0.2740  0.7485
 3876SOL    HW123087   1.801   0.467   8.652  0.7709 -0.6843  0.5064
 3876SOL    HW223088   1.711   0.532   8.553 -3.5249 -1.3881 -0.2810
 3877SOL     OW23089   4.375   0.044   8.491 -0.3388 -0.4512 -0.2866
 3877SOL    HW123090   4.406   0.096   8.417  3.1714 -3.1649 -0.7260
 3877SOL    HW223091   4.283   0.030   8.468 -0.9686 -0.0077  2.0455
 3878SOL     OW23092   3.416   3.597   7.867 -0.3555 -0.1526  0.2948
 3878SOL    HW123093   3.360   3.668   7.839  1.7501  2.2087  2.0872
 3878SOL    HW223094   3.389   3.515   7.825 -0.2079  0.9611 -1.9411
 3879SOL     OW23095   0.868   3.708   0.887 -0.3607 -0.2184  0.0659
 3879SOL    HW123096   0.834   3.724   0.799 -0.1273 -3.4389 -0.6077
 3879SOL    HW223097   0.943   3.653   0.864  0.2143  1.1731 -1.4691
 3880SOL     OW23098   1.422   4.371   5.528  0.2859 -0.5352  0.7137
 3880SOL    HW123099   1.374   4.306   5.578 -0.5977 -0.6479 -0.2792
 3880SOL    HW223100   1.509   4.367   5.569  0.5724 -1.9355 -0.0349
 3881SOL     OW23101   3.074   4.319   2.980  0.4036  0.3254  0.2224
 3881SOL    HW123102   3.004   4.382   2.997  0.3361  0.4471 -0.5024
 3881SOL    HW223103   3.034   4.234   3.000  0.5174  0.2877  0.2921
 3882SOL     OW23104   1.389   4.093  17.159 -0.1422 -0.4100  0.0625
 3882SOL    HW123105   1.340   4.152  17.102 -0.2595 -0.3179  0.2573
 3882SOL    HW223106   1.423   4.164  17.215 -0.8593 -0.9230  1.1457
 3883SOL     OW23107   3.287   1.802   8.786  0.0640  0.1796 -0.2411
 3883SOL    HW123108   3.372   1.792   8.743  1.3017  0.3920  2.1663
 3883SOL    HW223109   3.285   1.886   8.832  0.1956 -0.2381  0.5213
 3884SOL     OW23110   3.621   3.273   8.340  0.5986  0.1567 -0.7670
 3884SOL    HW123111   3.542   3.317   8.371 -0.3878 -0.5277 -2.3248
 3884SOL    HW223112   3.691   3.325   8.381 -1.9095  1.7294  1.5360
 3885SOL     OW23113   3.018   0.594  13.914  0.1475  0.4419  0.1786
 3885SOL    HW123114   2.959   0.555  13.979  1.7981 -1.0249  0.7891
 3885SOL    HW223115   2.982   0.682  13.902 -2.7401 -0.6271  1.0581
 3886SOL     OW23116   0.804   3.515   7.950 -0.2005 -0.7015  0.5554
 3886SOL    HW123117   0.729   3.550   7.998 -0.4740 -0.2275 -0.2046
 3886SOL    HW223118   0.804   3.420   7.966  1.9837 -1.0731 -1.6049
 3887SOL     OW23119   3.468   3.828   6.222  0.1222 -1.0067  0.7476
 3887SOL    HW123120   3.454   3.922   6.227  0.9989 -0.9053  1.2247
 3887SOL    HW223121   3.563   3.831   6.221  0.1090 -0.4849  1.4339
 3888SOL     OW23122   0.567   0.874   5.322 -0.7168  0.4672 -0.3024
 3888SOL    HW123123   0.491   0.861   5.379  0.5154 -1.0274  1.0237
 3888SOL    HW223124   0.630   0.876   5.394  0.4130  1.4008 -1.2996
 3889SOL     OW23125   2.666   2.321   4.487 -0.1906 -0.0083  0.2316
 3889SOL    HW123126   2.762   2.329   4.490 -0.2081  1.0618 -1.8487
 3889SOL    HW223127   2.660   2.226   4.496 -1.4358 -0.0819 -1.3526
 3890SOL     OW23128   3.712   0.087  13.864  0.3264 -0.2642  0.4849
 3890SOL    HW123129   3.751   0.139  13.795  0.0359  0.0215  0.5347
 3890SOL    HW223130   3.654   0.143  13.916 -2.0490  0.5554 -3.0533
 3891SOL     OW23131   3.525   4.249   0.643  0.5718 -0.2670 -0.0469
 3891SOL    HW123132   3.475   4.168   0.654 -0.2126  0.4305  1.4242
 3891SOL    HW223133   3.462   4.308   0.601  1.2547  0.9338  0.6385
 3892SOL     OW23134   1.011   0.049   6.208 -0.2746 -0.0468  0.2833
 3892SOL    HW123135   0.962   0.099   6.273 -2.1750 -1.0603 -0.3688
 3892SOL    HW223136   1.101   0.077   6.228 -0.5141  2.3372 -1.9055
 3893SOL     OW23137   2.796   2.024   2.761  0.0021  0.1567 -0.1406
 3893SOL    HW123138   2.891   2.017   2.747 -0.4051 -0.8547 -2.3922
 3893SOL    HW223139   2.782   2.103   2.708 -2.3816  0.0208  0.3169
 3894SOL     OW23140   0.870   3.995   2.999  0.9802 -0.4501  0.4035
 3894SOL    HW123141   0.847   3.990   2.907 -0.1201 -1.0815  0.7019
 3894SOL    HW223142   0.869   4.089   3.018 -0.9951 -0.0781 -1.5732
 3895SOL     OW23143   0.493   0.487   1.427  0.0097 -0.7671  0.2720
 3895SOL    HW123144   0.416   0.520   1.472 -1.0057  0.6063 -2.4567
 3895SOL    HW223145   0.443   0.453   1.353 -2.6769 -0.6490  2.0244
 3896SOL     OW23146   1.898   4.203   3.022 -0.1979  0.1662  0.5472
 3896SOL    HW123147   1.985   4.226   3.055  0.7876  0.5175 -2.3136
 3896SOL    HW223148   1.922   4.160   2.940  1.6937  1.7362  0.2753
 3897SOL     OW23149   1.398   3.847  14.348  0.2799 -0.1331 -0.5278
 3897SOL    HW123150   1.364   3.791  14.418  2.7746 -1.0510 -0.0328
 3897SOL    HW223151   1.478   3.885  14.387 -1.8463  2.7770  1.0375
 3898SOL     OW23152   2.567   1.243   0.702 -0.0814 -0.5570 -0.4137
 3898SOL    HW123153   2.487   1.297   0.700  0.4593  0.2145 -1.1350
 3898SOL    HW223154   2.577   1.237   0.607  0.4285 -1.6622 -0.2904
 3899SOL     OW23155   4.128   1.135   3.248 -0.1845  0.1472  0.3344
 3899SOL    HW123156   4.115   1.047   3.285 -3.2502  0.6421  0.4237
 3899SOL    HW223157   4.160   1.169   3.332 -0.8344 -1.4868  1.2535
 3900SOL     OW23158   2.536   2.267   7.832  0.3632 -0.4978 -0.9349
 3900SOL    HW123159   2.617   2.303   7.796  0.9522 -1.4223 -0.5487
 3900SOL    HW223160   2.478   2.341   7.817  1.4053  0.5109  0.0444
 3901SOL     OW23161   1.504   1.458   8.565 -0.0977 -0.0782 -0.2141
 3901SOL    HW123162   1.467   1.370   8.560  0.5593 -0.4346  1.4749
 3901SOL    HW223163   1.465   1.494   8.485  1.1836 -0.1956 -0.8999
 3902SOL     OW23164   0.034   2.329   6.109  0.4408 -0.1256 -0.3154
 3902SOL    HW123165   4.712   2.312   6.025  1.7603  1.3166 -1.2971
 3902SOL    HW223166   4.683   2.344   6.171 -0.7323  0.1362 -1.7380
 3903SOL     OW23167   1.991   2.959  17.219 -0.2265 -0.5210 -0.9767
 3903SOL    HW123168   1.971   3.051  17.204 -1.2525 -0.4323  0.8369
 3903SOL    HW223169   1.937   2.944  17.297  1.5113  2.5613  0.8321
 3904SOL     OW23170   4.560   0.059   2.084 -0.4669 -0.0831 -0.0140
 3904SOL    HW123171   4.644   0.087   2.120 -2.0238  1.9199  2.0530
 3904SOL    HW223172   4.586   4.693   2.055  0.7207  0.7820 -1.5445
 3905SOL     OW23173   2.119   2.220   4.034 -0.1647 -0.3167 -0.1465
 3905SOL    HW123174   2.146   2.156   4.101  1.0046 -0.2296 -0.5322
 3905SOL    HW223175   2.056   2.271   4.085  1.9105 -0.5698  2.6645
 3906SOL     OW23176   2.064   2.062  12.169  0.3323 -0.7935 -0.5930
 3906SOL    HW123177   2.018   2.029  12.092 -0.7420  0.9173 -0.6918
 3906SOL    HW223178   2.006   2.024  12.235  0.9175  2.4635  1.8367
 3907SOL     OW23179   1.062   0.143   4.618 -0.3637  0.4931  0.6352
 3907SOL    HW123180   1.147   0.149   4.574  0.4430 -0.6018  2.0336
 3907SOL    HW223181   1.012   0.211   4.573 -0.6172 -2.1480 -3.0771
 3908SOL     OW23182   3.065   1.279  14.294 -0.1941 -0.4283 -0.0258
 3908SOL    HW123183   3.148   1.259  14.249 -0.7523 -0.2546 -1.1415
 3908SOL    HW223184   3.077   1.221  14.369  0.8394  1.3467  1.1976
 3909SOL     OW23185   3.065   2.748   6.012  0.4847 -0.1001  0.0634
 3909SOL    HW123186   3.023   2.765   5.928  0.3135  0.6288  0.2928
 3909SOL    HW223187   3.033   2.660   6.030 -1.4258  0.9841  1.9077
 3910SOL     OW23188   3.410   0.954   7.594 -0.7897  0.2847 -0.1841
 3910SOL    HW123189   3.346   0.982   7.529  0.7989  3.2694 -0.4553
 3910SOL    HW223190   3.391   0.860   7.590 -0.4998  0.3517 -3.6609
 3911SOL     OW23191   0.215   2.748   8.720 -0.5237  0.1116  0.0262
 3911SOL    HW123192   0.153   2.819   8.736 -0.0880 -0.1043  2.6031
 3911SOL    HW223193   0.165   2.671   8.746 -0.1350  0.2877  1.2762
 3912SOL     OW23194   4.522   2.702  14.991 -0.0768 -0.3207 -0.0201
 3912SOL    HW123195   4.476   2.782  15.018  0.4251  0.1904 -0.6672
 3912SOL    HW223196   4.583   2.731  14.923 -1.2921 -0.1832 -1.0739
 3913SOL     OW23197   3.604   2.428   4.511  0.3374 -0.6052 -0.5573
 3913SOL    HW123198   3.606   2.367   4.585  0.2521 -0.3317 -0.3295
 3913SOL    HW223199   3.591   2.513   4.552  0.3899 -1.0899  0.4820
 3914SOL     OW23200   1.431   0.199   6.590  0.2906  0.1608 -0.1475
 3914SOL    HW123201   1.522   0.221   6.569  0.4532 -0.0194  0.3492
 3914SOL    HW223202   1.387   0.274   6.551 -1.2393 -1.1042 -0.8522
 3915SOL     OW23203   0.051   0.517   6.929  0.3866  0.5683 -0.0126
 3915SOL    HW123204   4.695   0.517   6.987  0.7913  0.3950  0.5263
 3915SOL    HW223205   0.045   0.602   6.885 -1.0747  0.0316 -0.8609
 3916SOL     OW23206   0.404   4.482   9.185 -0.1638  0.0103 -0.7475
 3916SOL    HW123207   0.486   4.440   9.161  0.8436  0.9662  1.0540
 3916SOL    HW223208   0.345   4.460   9.113  1.4809 -1.5313 -1.6083
 3917SOL     OW23209   2.529   4.157   6.038  0.8299 -0.4205  0.3590
 3917SOL    HW123210   2.617   4.195   6.032  0.9356 -0.7343 -0.0590
 3917SOL    HW223211   2.537   4.084   5.977 -1.4009  0.3923 -0.8904
 3918SOL     OW23212   3.293   3.993  14.751  0.9785  0.2509 -0.0399
 3918SOL    HW123213   3.318   3.906  14.782  2.0212 -0.1208 -1.8883
 3918SOL    HW223214   3.288   3.969  14.658  0.5196  0.6948 -0.1283
 3919SOL     OW23215   0.316   3.361   8.173 -0.5144  0.2621  0.2726
 3919SOL    HW123216   0.394   3.352   8.119 -0.6088 -1.9912  0.5371
 3919SOL    HW223217   0.336   3.305   8.247 -1.3482 -0.8644 -0.3653
 3920SOL     OW23218   4.247   2.884   7.793  0.3332  0.1175  0.8674
 3920SOL    HW123219   4.249   2.964   7.741  0.0894 -1.5804 -1.7817
 3920SOL    HW223220   4.162   2.895   7.834  0.2106  0.2885  0.5683
 3921SOL     OW23221   1.964   2.121   4.501  0.5648  0.8590 -0.0164
 3921SOL    HW123222   1.895   2.056   4.516  0.9242  0.8340  1.4570
 3921SOL    HW223223   1.925   2.205   4.525 -0.8657  0.5396 -1.2323
 3922SOL     OW23224   3.579   2.851  13.807 -0.1183 -0.1495  0.4110
 3922SOL    HW123225   3.543   2.808  13.885 -2.3825  1.2004  0.1408
 3922SOL    HW223226   3.671   2.860  13.829 -0.0666  0.2292  0.0379
 3923SOL     OW23227   0.487   3.036   6.769 -0.4067  0.3933 -0.1168
 3923SOL    HW123228   0.529   3.017   6.853 -1.0343 -2.5529 -0.4588
 3923SOL    HW223229   0.442   2.952   6.769  2.4566 -1.1441 -0.3507
 3924SOL     OW23230   0.213   1.379   6.849  0.2525  0.2811  0.1538
 3924SOL    HW123231   0.289   1.427   6.818  1.0452 -0.3812  1.0681
 3924SOL    HW223232   0.241   1.346   6.934 -0.3729 -0.1444  0.1974
 3925SOL     OW23233   1.258   3.063   8.382  0.6180 -0.1434 -0.4802
 3925SOL    HW123234   1.207   3.043   8.461 -1.2277  0.6180 -1.4818
 3925SOL    HW223235   1.333   3.113   8.414 -0.3050 -0.8186  2.7331
 3926SOL     OW23236   4.328   2.512   9.569  0.9319 -0.5065 -0.4453
 3926SOL    HW123237   4.316   2.605   9.591 -0.2026 -0.4904 -1.1255
 3926SOL    HW223238   4.263   2.460   9.616  0.7576  0.4888  0.4094
 3927SOL     OW23239   0.906   2.371   1.647 -0.2406  0.3648  0.0762
 3927SOL    HW123240   0.863   2.327   1.720 -0.9421  1.2404  0.1825
 3927SOL    HW223241   0.832   2.365   1.586 -2.6839  1.4061  2.9536
 3928SOL     OW23242   0.722   1.278   5.496  0.1117 -0.3222  0.5063
 3928SOL    HW123243   0.631   1.274   5.467  0.6919 -3.2532 -0.9088
 3928SOL    HW223244   0.716   1.283   5.592 -1.0639  1.2971  0.3489
 3929SOL     OW23245   0.947   0.795  10.714  0.2791 -0.2256 -0.8681
 3929SOL    HW123246   0.905   0.784  10.628 -0.6678  0.2577 -0.4543
 3929SOL    HW223247   1.021   0.852  10.694  0.2489 -1.1521 -3.6123
 3930SOL     OW23248   4.396   1.790   5.788  0.1997 -0.0937  0.1692
 3930SOL    HW123249   4.339   1.775   5.712 -0.4799  0.1563  0.6200
 3930SOL    HW223250   4.391   1.704   5.830  0.3983  0.6211  1.6686
 3931SOL     OW23251   0.838   1.018   9.549  0.0324  0.1253 -0.1782
 3931SOL    HW123252   0.876   0.959   9.484  0.8979  0.4028  0.0870
 3931SOL    HW223253   0.884   0.998   9.630 -1.1876 -2.0701 -0.0223
 3932SOL     OW23254   3.683   1.507   9.547 -0.1208 -0.6850 -0.0426
 3932SOL    HW123255   3.726   1.501   9.462 -0.3290 -0.4611 -0.1682
 3932SOL    HW223256   3.674   1.601   9.567 -1.3277 -0.3176 -2.2890
 3933SOL     OW23257   2.086   2.096   3.815  0.1084 -0.0053  0.1442
 3933SOL    HW123258   2.111   2.142   3.895  1.1906  2.0202 -1.3469
 3933SOL    HW223259   2.067   2.007   3.843 -1.6454  0.6486  1.0084
 3934SOL     OW23260   1.304   3.155  11.006 -0.1500  0.3353  0.2832
 3934SOL    HW123261   1.304   3.090  10.935 -2.6821 -0.1106  0.7135
 3934SOL    HW223262   1.218   3.193  10.987  1.4017  1.6475 -4.1615
 3935SOL     OW23263   0.146   0.723  15.370  0.0411  0.3375  0.0318
 3935SOL    HW123264   0.201   0.716  15.449 -1.6358 -2.5112  0.9568
 3935SOL    HW223265   0.065   0.682  15.400  0.2655 -0.0156  0.1593
 3936SOL     OW23266   2.033   0.492  17.331 -0.0306  0.9268  0.3499
 3936SOL    HW123267   1.941   0.504  17.307  0.5013  2.9800 -0.6684
 3936SOL    HW223268   2.037   0.471  17.424  0.0891  1.1264  0.3899
 3937SOL     OW23269   3.125   3.764   0.688  0.0005 -0.1598  0.0319
 3937SOL    HW123270   3.043   3.716   0.675  0.5093 -1.0804  0.1616
 3937SOL    HW223271   3.179   3.685   0.696  0.2279  0.1281  1.3071
 3938SOL     OW23272   1.642   0.560   9.066 -0.1926 -0.3180  0.0913
 3938SOL    HW123273   1.606   0.493   9.008 -2.1362 -0.0512  0.9851
 3938SOL    HW223274   1.580   0.632   9.075 -2.0009 -1.8005 -0.3432
 3939SOL     OW23275   0.811   2.364   9.695  0.2018  0.5069  0.0106
 3939SOL    HW123276   0.820   2.451   9.734  0.5174  0.6164 -0.3050
 3939SOL    HW223277   0.766   2.395   9.617  1.3119  2.6953  0.2604
 3940SOL     OW23278   2.373   4.708  14.670 -0.7189  0.1139  0.2998
 3940SOL    HW123279   2.436   4.658  14.722  0.4861 -0.2374 -1.4952
 3940SOL    HW223280   2.325   0.023  14.744 -1.4224 -1.0694  0.4270
 3941SOL     OW23281   4.474   1.293   0.359 -0.8078  0.0164 -0.0449
 3941SOL    HW123282   4.556   1.260   0.397 -0.1542 -0.5422 -1.9374
 3941SOL    HW223283   4.506   1.353   0.291  0.5711 -0.8613 -0.1827
 3942SOL     OW23284   4.380   4.027   7.516 -0.1186  0.4023 -0.0887
 3942SOL    HW123285   4.466   3.996   7.544  1.0714  2.0938 -1.8141
 3942SOL    HW223286   4.338   4.052   7.598 -1.2435 -1.3557 -0.1327
 3943SOL     OW23287   0.769   3.937  16.493 -0.1254  0.1108  0.7647
 3943SOL    HW123288   0.718   3.948  16.413 -0.3517  0.0638  0.9040
 3943SOL    HW223289   0.701   3.890  16.540  0.2436  0.6608  1.8397
 3944SOL     OW23290   1.679   4.297   3.246  0.7983 -0.0842 -0.3469
 3944SOL    HW123291   1.622   4.221   3.245  0.8823 -0.1573  1.1481
 3944SOL    HW223292   1.753   4.277   3.189  0.3640  1.5483 -1.5090
 3945SOL     OW23293   3.527   3.669  10.617  0.0346 -0.0124  0.4206
 3945SOL    HW123294   3.570   3.729  10.556 -0.3960  1.7866  1.8544
 3945SOL    HW223295   3.605   3.662  10.674  0.5038  0.9477 -0.0980
 3946SOL     OW23296   2.584   1.918  10.593 -0.2340  0.3347 -0.3288
 3946SOL    HW123297   2.545   1.958  10.516 -1.3915 -2.7220 -1.3464
 3946SOL    HW223298   2.520   1.925  10.664  0.8051 -0.4164  0.6730
 3947SOL     OW23299   2.452   4.680   2.631  0.3399  0.1239 -0.2257
 3947SOL    HW123300   2.416   0.011   2.702 -0.7008  0.6321 -1.1283
 3947SOL    HW223301   2.501   0.028   2.587  0.2852 -0.6239 -1.4808
 3948SOL     OW23302   2.162   2.354   1.039  0.9887  0.0942 -0.3534
 3948SOL    HW123303   2.203   2.408   0.972  2.8260  0.6389  1.2182
 3948SOL    HW223304   2.078   2.330   0.999 -0.0273  3.9617 -0.5037
 3949SOL     OW23305   0.777   3.615   8.672 -0.1514  0.1762 -0.7789
 3949SOL    HW123306   0.689   3.648   8.656  0.0680  0.7653 -0.7656
 3949SOL    HW223307   0.752   3.562   8.748  0.1842  1.4461  0.2262
 3950SOL     OW23308   0.522   3.641  16.316 -0.2723 -0.4328  0.1728
 3950SOL    HW123309   0.447   3.618  16.371  0.0580 -0.4191  0.6219
 3950SOL    HW223310   0.583   3.673  16.382  0.1082 -1.8516  0.5125
 3951SOL     OW23311   1.069   2.190   1.908  0.6791 -0.4947 -0.1420
 3951SOL    HW123312   1.086   2.271   1.956  1.6572 -1.3340  0.9145
 3951SOL    HW223313   1.125   2.207   1.832 -0.3152 -0.5051 -0.8760
 3952SOL     OW23314   2.473   2.017   2.148 -0.1942  0.5309  0.1565
 3952SOL    HW123315   2.454   1.924   2.139 -1.0978  0.7412 -0.1189
 3952SOL    HW223316   2.542   2.003   2.212  1.0981  2.9587 -0.6757
 3953SOL     OW23317   1.317   2.960  15.673  0.1623 -0.0561 -0.5172
 3953SOL    HW123318   1.319   2.914  15.757  2.6219  0.4154 -0.3040
 3953SOL    HW223319   1.383   3.030  15.675 -0.2909  0.2932  2.3298
 3954SOL     OW23320   2.137   0.553   3.170  1.1190  0.1470 -0.2753
 3954SOL    HW123321   2.144   0.641   3.133 -0.5828  0.1700 -0.5592
 3954SOL    HW223322   2.052   0.523   3.136  0.3928 -0.8860  2.4999
 3955SOL     OW23323   0.620   2.378   5.478 -0.1722 -0.1205 -0.4018
 3955SOL    HW123324   0.651   2.295   5.443  0.9270  1.3254 -2.9268
 3955SOL    HW223325   0.691   2.402   5.537 -1.4500 -0.3096  1.2097
 3956SOL     OW23326   0.361   1.445   3.443  0.1185  0.0267  0.6094
 3956SOL    HW123327   0.350   1.534   3.410 -0.8405 -0.6924 -1.0239
 3956SOL    HW223328   0.304   1.400   3.381  0.6252  2.0325 -1.3224
 3957SOL     OW23329   3.137   0.761   9.521  0.3178 -0.0905  0.6121
 3957SOL    HW123330   3.093   0.779   9.438 -1.1964 -0.5253  1.3094
 3957SOL    HW223331   3.109   0.669   9.521 -0.8825  0.2726  2.7139
 3958SOL     OW23332   0.208   0.520   5.236  0.4402  1.0135  0.8510
 3958SOL    HW123333   0.211   0.437   5.283  0.7618 -0.4464 -1.7403
 3958SOL    HW223334   0.229   0.577   5.310  1.7055  0.0391  1.2499
 3959SOL     OW23335   0.207   2.643  13.286  0.1055 -0.0557 -0.6442
 3959SOL    HW123336   0.242   2.600  13.208  1.7492  1.7232 -0.8848
 3959SOL    HW223337   0.215   2.737  13.273 -1.8236 -0.0634 -1.9012
 3960SOL     OW23338   3.540   1.458   3.009 -0.0180  0.4737  0.5768
 3960SOL    HW123339   3.625   1.416   2.997 -1.2825 -1.6338 -0.9098
 3960SOL    HW223340   3.487   1.383   3.035 -0.5818  0.9697  0.8784
 3961SOL     OW23341   0.457   3.400   3.415  0.5860  0.7525 -0.4180
 3961SOL    HW123342   0.492   3.481   3.452 -0.6507  1.1055 -0.0528
 3961SOL    HW223343   0.396   3.375   3.485 -1.8818  0.9003 -2.5356
 3962SOL     OW23344   3.028   3.969   6.683 -0.0527 -0.0986  0.3987
 3962SOL    HW123345   3.114   4.002   6.657  0.5888 -0.0493  2.6173
 3962SOL    HW223346   3.034   3.971   6.778  1.4781  2.8665  0.2554
 3963SOL     OW23347   3.396   3.720   0.468  0.1708 -0.2164  0.2314
 3963SOL    HW123348   3.397   3.673   0.551 -1.0857 -0.1670  0.2678
 3963SOL    HW223349   3.375   3.810   0.492  3.1471  0.0628  1.8010
 3964SOL     OW23350   2.569   2.941  17.544 -0.4923  0.1704 -0.4672
 3964SOL    HW123351   2.499   2.883  17.573 -0.1906 -1.0057 -2.0671
 3964SOL    HW223352   2.576   2.917  17.452 -2.3584  0.7967 -0.7496
 3965SOL     OW23353   2.022   0.732   5.919  0.9148 -0.2161  1.1592
 3965SOL    HW123354   2.038   0.640   5.901  1.7276  0.2214 -0.4072
 3965SOL    HW223355   1.928   0.742   5.904  1.4955 -0.8496 -3.0218
 3966SOL     OW23356   4.501   1.882   4.454 -0.6877  0.4156 -0.3256
 3966SOL    HW123357   4.482   1.955   4.395 -1.0887  1.8252  1.5497
 3966SOL    HW223358   4.560   1.916   4.521 -0.1332 -1.5425  0.1628
 3967SOL     OW23359   1.009   0.228  15.232 -0.7647  0.2163  0.4410
 3967SOL    HW123360   0.966   0.285  15.296 -0.6426  1.8420 -0.9156
 3967SOL    HW223361   1.042   0.154  15.284 -0.7474 -0.0826  0.0037
 3968SOL     OW23362   0.356   2.126   4.232 -0.4637  0.2001  0.6121
 3968SOL    HW123363   0.284   2.189   4.222  0.2852  0.7219 -1.5808
 3968SOL    HW223364   0.343   2.069   4.155  0.3017  1.0675 -0.1551
 3969SOL     OW23365   2.070   1.347   2.344 -0.1703 -0.2144 -0.0741
 3969SOL    HW123366   2.135   1.326   2.410  0.6216  1.0828 -0.4283
 3969SOL    HW223367   2.016   1.412   2.389  0.4875 -0.8929  1.6794
 3970SOL     OW23368   3.482   2.676   9.754  0.4721  0.4190  0.6467
 3970SOL    HW123369   3.432   2.626   9.689 -1.2568  1.1444  1.4402
 3970SOL    HW223370   3.440   2.760   9.741  0.8326  0.3618 -0.9268
 3971SOL     OW23371   4.265   1.935   8.408 -0.0102 -0.3932 -0.3426
 3971SOL    HW123372   4.268   2.022   8.447  1.0311  0.0082 -1.3006
 3971SOL    HW223373   4.247   1.877   8.482  0.9178  0.5642  0.6455
 3972SOL     OW23374   0.015   3.591   5.215  0.2453 -0.0920  0.5722
 3972SOL    HW123375   4.662   3.623   5.266 -0.3275 -1.2601  0.4688
 3972SOL    HW223376   0.059   3.666   5.174  0.1411 -1.4457 -2.0141
 3973SOL     OW23377   3.882   0.616  11.284 -0.4445 -0.5463 -0.1673
 3973SOL    HW123378   3.824   0.545  11.256  0.4851 -0.5596 -2.0390
 3973SOL    HW223379   3.957   0.562  11.308  0.9959  0.8256 -1.5293
 3974SOL     OW23380   4.458   2.483   5.279 -0.4368  0.0622  0.5144
 3974SOL    HW123381   4.484   2.413   5.339 -0.2388 -1.1600 -0.9917
 3974SOL    HW223382   4.385   2.532   5.316  0.8022  1.9835  0.4545
 3975SOL     OW23383   1.485   1.438   2.569  0.5681  0.4522 -0.2720
 3975SOL    HW123384   1.555   1.485   2.524  0.6364  2.9469  2.4052
 3975SOL    HW223385   1.541   1.402   2.638  0.5480 -0.5699 -0.7834
 3976SOL     OW23386   2.109   1.385   4.373 -0.0490  0.8456  0.0115
 3976SOL    HW123387   2.115   1.426   4.287  0.1198 -3.5907 -2.0805
 3976SOL    HW223388   2.015   1.400   4.383 -0.4953 -1.0357 -1.5503
 3977SOL     OW23389   3.964   2.107   2.863  0.3400  0.0869  0.4355
 3977SOL    HW123390   4.053   2.116   2.829  0.6275 -0.6888  0.9690
 3977SOL    HW223391   3.974   2.091   2.957  0.5268  1.0442  0.5735
 3978SOL     OW23392   1.499   2.950   3.824  0.0989 -0.0228  0.2832
 3978SOL    HW123393   1.518   3.037   3.857  2.3314 -0.2220 -0.4802
 3978SOL    HW223394   1.419   2.956   3.773  0.0005  0.6049  0.5122
 3979SOL     OW23395   3.429   4.117   4.363  0.5620 -0.1235 -0.5089
 3979SOL    HW123396   3.424   4.150   4.453 -0.4949  1.8385 -1.2893
 3979SOL    HW223397   3.393   4.190   4.313  1.6139  0.3970 -0.5009
 3980SOL     OW23398   1.203   2.132   8.291 -0.4855 -0.0538  0.0719
 3980SOL    HW123399   1.262   2.174   8.228 -1.0568  2.2401  1.0709
 3980SOL    HW223400   1.208   2.192   8.365  0.5465 -0.0604  0.0088
 3981SOL     OW23401   4.327   2.619   5.699  0.2737  0.7214  0.1853
 3981SOL    HW123402   4.279   2.677   5.640  2.6883  1.5925 -0.9334
 3981SOL    HW223403   4.404   2.610   5.643 -0.0105 -1.3113  0.1312
 3982SOL     OW23404   0.158   1.861   8.001 -0.3458  0.1974 -0.4072
 3982SOL    HW123405   0.120   1.885   8.086 -1.9387 -0.5599 -0.9135
 3982SOL    HW223406   0.228   1.801   8.025 -1.1404 -0.0151  1.3622
 3983SOL     OW23407   2.468   0.183   7.209  0.1285  0.6246 -0.1587
 3983SOL    HW123408   2.432   0.262   7.169 -1.6511  0.6067  1.3709
 3983SOL    HW223409   2.444   0.195   7.301  0.3097 -1.1640  0.1244
 3984SOL     OW23410   1.558   0.048  14.791  0.5283  0.3078 -0.0264
 3984SOL    HW123411   1.462   0.050  14.786  0.4877  0.2229  0.6513
 3984SOL    HW223412   1.580   0.023  14.881  0.0590  0.5270  0.1511
 3985SOL     OW23413   2.593   1.914   0.349  0.4266 -0.1976  0.3521
 3985SOL    HW123414   2.638   1.996   0.368 -0.8734  0.6042 -0.0033
 3985SOL    HW223415   2.601   1.899   0.255 -0.8645 -0.4628  0.2845
 3986SOL     OW23416   4.541   2.828  10.954 -0.1640  0.3016 -0.5041
 3986SOL    HW123417   4.567   2.806  11.043  1.1374  2.2276 -0.3980
 3986SOL    HW223418   4.480   2.758  10.933 -1.2997  0.8740  0.9106
 3987SOL     OW23419   1.461   0.254  10.811  0.3294 -0.2927  0.1582
 3987SOL    HW123420   1.399   0.271  10.882  0.3375  2.4190 -0.5040
 3987SOL    HW223421   1.497   0.167  10.830 -0.8892 -0.6941  0.6440
 3988SOL     OW23422   1.739   4.082  10.420  0.3781  0.2563 -0.1713
 3988SOL    HW123423   1.781   4.168  10.421  0.2604  0.2967  1.7878
 3988SOL    HW223424   1.720   4.076  10.514  2.9615 -1.6443  0.2378
 3989SOL     OW23425   2.850   0.373   7.886  0.2200 -0.0883 -0.1106
 3989SOL    HW123426   2.849   0.464   7.855 -0.2359  0.4076  1.3557
 3989SOL    HW223427   2.784   0.369   7.955 -1.0326 -0.7100 -1.3420
 3990SOL     OW23428   4.505   4.609   4.670  0.1812 -0.0231  0.1205
 3990SOL    HW123429   4.545   4.533   4.627 -1.3742 -2.0708  2.3192
 3990SOL    HW223430   4.560   4.675   4.630  0.7393  1.7135  3.7711
 3991SOL     OW23431   0.738   1.643   6.516  0.3187 -0.1318  0.1188
 3991SOL    HW123432   0.647   1.668   6.502  0.3277 -0.3922 -0.4126
 3991SOL    HW223433   0.774   1.705   6.579  2.1597 -1.1371  0.0511
 3992SOL     OW23434   1.225   3.289   4.816 -0.3090 -0.5365 -0.2958
 3992SOL    HW123435   1.304   3.334   4.845 -1.0286  1.0821 -0.8747
 3992SOL    HW223436   1.163   3.361   4.802  0.4813  0.1016 -0.4861
 3993SOL     OW23437   4.460   1.094  17.265  0.0860  0.8543 -0.0938
 3993SOL    HW123438   4.492   1.062  17.181 -0.9332 -0.4842  0.0161
 3993SOL    HW223439   4.534   1.068  17.321 -0.2213 -0.4852 -0.3025
 3994SOL     OW23440   0.725   2.647   6.639 -0.5006 -0.5597 -0.2432
 3994SOL    HW123441   0.636   2.682   6.645  0.0607  1.0754 -1.4182
 3994SOL    HW223442   0.706   2.564   6.596 -1.2016 -1.2582  1.4104
 3995SOL     OW23443   1.882   4.451   6.941 -0.2158 -0.0312  0.1125
 3995SOL    HW123444   1.877   4.520   6.875 -2.5311 -0.3150 -0.0184
 3995SOL    HW223445   1.823   4.384   6.907  0.0797  0.1242 -0.6962
 3996SOL     OW23446   4.231   2.100  15.045 -0.7561 -0.0603  0.0633
 3996SOL    HW123447   4.298   2.078  14.981  1.0309  0.7123  1.6502
 3996SOL    HW223448   4.270   2.183  15.073 -2.7604  0.8233  0.2304
 3997SOL     OW23449   3.297   4.294   7.658  0.3835 -0.0873  0.5272
 3997SOL    HW123450   3.211   4.309   7.697  1.0783  2.0292  1.2661
 3997SOL    HW223451   3.310   4.201   7.675  4.3148 -0.2955 -3.7243
 3998SOL     OW23452   0.045   0.521   8.978  0.2689  0.2105  0.2473
 3998SOL    HW123453   0.083   0.434   8.991 -1.3475 -0.6920 -1.1244
 3998SOL    HW223454   0.045   0.530   8.883  3.5937 -1.3149  0.1046
 3999SOL     OW23455   2.633   1.568   0.541 -0.2202 -0.5547  0.0142
 3999SOL    HW123456   2.694   1.604   0.477  1.4485 -0.7048  1.5296
 3999SOL    HW223457   2.577   1.522   0.479 -1.0560  0.6963 -0.1675
 4000SOL     OW23458   0.167   4.099   9.547  0.1606  0.4237  0.0623
 4000SOL    HW123459   0.158   4.138   9.460  0.8310  0.8378  0.1726
 4000SOL    HW223460   0.256   4.126   9.570  0.0042 -1.5552  3.0337
 4001SOL     OW23461   2.082   2.882   3.434 -0.2766  0.6951 -0.0419
 4001SOL    HW123462   2.142   2.841   3.372  0.0788  1.7650 -0.4226
 4001SOL    HW223463   2.019   2.919   3.371 -0.4010 -0.2951 -0.4961
 4002SOL     OW23464   0.879   0.393  15.387  0.0007  0.1271  0.5147
 4002SOL    HW123465   0.916   0.452  15.452 -0.7997  0.3150  0.7988
 4002SOL    HW223466   0.804   0.442  15.353  1.6369  2.0064 -0.3289
 4003SOL     OW23467   1.735   2.607   8.145  0.7270 -0.7441  0.5762
 4003SOL    HW123468   1.811   2.613   8.088  1.0790 -0.0911  1.1138
 4003SOL    HW223469   1.678   2.674   8.107  0.9869 -1.3700 -0.9208
 4004SOL     OW23470   3.971   0.413   7.265  0.0304 -0.0616 -0.4886
 4004SOL    HW123471   4.009   0.388   7.349 -1.7798 -1.3061 -0.0476
 4004SOL    HW223472   3.887   0.452   7.288  0.4519 -0.0564  1.0251
 4005SOL     OW23473   0.626   0.123   8.660  0.1743 -0.0155 -0.4590
 4005SOL    HW123474   0.600   0.149   8.748  3.3018  0.3624  0.3322
 4005SOL    HW223475   0.538   0.134   8.623  1.3813  1.0040 -3.0602
 4006SOL     OW23476   2.214   4.576   5.820  0.1999  0.2619 -0.1055
 4006SOL    HW123477   2.242   4.514   5.753  0.9220  2.2855 -1.7076
 4006SOL    HW223478   2.255   4.535   5.897  0.9914  0.0992 -0.6106
 4007SOL     OW23479   1.544   4.699  13.586 -0.2957 -0.4297  0.3412
 4007SOL    HW123480   1.535   4.616  13.539  0.6005 -0.5378  0.3749
 4007SOL    HW223481   1.589   0.026  13.517 -1.8397 -0.1412 -0.4693
 4008SOL     OW23482   3.477   4.068  12.221  0.0210 -0.2144 -0.1378
 4008SOL    HW123483   3.382   4.071  12.233 -0.0643 -1.3337 -0.5553
 4008SOL    HW223484   3.493   4.098  12.310  1.5953 -3.5518  0.7107
 4009SOL     OW23485   1.710   1.003  13.794 -0.0210 -0.1201 -0.1597
 4009SOL    HW123486   1.763   0.995  13.872 -0.4544  2.8241  0.4480
 4009SOL    HW223487   1.658   0.922  13.796  1.3128 -0.9012  1.9297
 4010SOL     OW23488   3.365   0.827  10.834  0.7385 -0.0622 -0.6508
 4010SOL    HW123489   3.380   0.855  10.925  0.1743 -2.0691  0.0628
 4010SOL    HW223490   3.412   0.744  10.842 -1.8202 -1.3816  0.5649
 4011SOL     OW23491   4.229   0.153   3.343 -0.2620  0.5882 -0.1355
 4011SOL    HW123492   4.315   0.169   3.383  0.4985 -0.8064 -1.2391
 4011SOL    HW223493   4.242   0.086   3.276  0.1336  2.8895 -2.3725
 4012SOL     OW23494   4.603   3.973   8.056  0.0274  0.2688 -0.2689
 4012SOL    HW123495   4.655   3.983   8.136  0.4489 -1.7129 -0.2868
 4012SOL    HW223496   4.561   3.888   8.072 -0.8134  1.6167  4.6941
 4013SOL     OW23497   3.968   2.008   8.602  0.3077  0.4691 -0.1267
 4013SOL    HW123498   3.938   2.067   8.533 -1.0041  0.5303  0.5026
 4013SOL    HW223499   4.019   2.074   8.649  0.4910  1.1526 -1.2792
 4014SOL     OW23500   1.633   0.632   9.947  0.7447  0.3619  0.0220
 4014SOL    HW123501   1.670   0.682  10.020 -3.3821  0.9777  1.7264
 4014SOL    HW223502   1.556   0.590   9.986  0.1963  1.2778 -0.0615
 4015SOL     OW23503   1.031   3.170   5.070 -0.6092 -0.3210  0.3878
 4015SOL    HW123504   1.090   3.212   5.007 -4.1125  1.8067 -1.4444
 4015SOL    HW223505   0.948   3.197   5.031  0.6559  3.5984  0.3882
 4016SOL     OW23506   4.005   1.123   7.086 -0.8763  0.4380 -0.2678
 4016SOL    HW123507   4.003   1.136   6.991  0.9328  0.8180 -0.2519
 4016SOL    HW223508   3.915   1.132   7.117 -0.2910 -1.6714  2.0272
 4017SOL     OW23509   2.130   0.382  11.310  0.5376 -0.2830  0.0614
 4017SOL    HW123510   2.165   0.461  11.270 -0.4293 -0.6566 -1.5309
 4017SOL    HW223511   2.207   0.344  11.352  1.5269  0.5732 -0.9910
 4018SOL     OW23512   0.811   4.103   4.909  0.2137 -0.0051 -0.1572
 4018SOL    HW123513   0.868   4.117   4.834  1.2287  1.7068  0.9398
 4018SOL    HW223514   0.820   4.190   4.947  2.0367 -0.1239 -0.3239
 4019SOL     OW23515   4.147   3.492   7.667 -0.2874 -0.0609  0.3003
 4019SOL    HW123516   4.105   3.569   7.705 -1.6456 -0.6299 -0.0341
 4019SOL    HW223517   4.152   3.439   7.747 -1.6241  2.2373  1.8882
 4020SOL     OW23518   3.121   4.526  15.776  0.9730  0.3562 -0.3668
 4020SOL    HW123519   3.100   4.604  15.725 -0.2166 -0.0587 -0.5075
 4020SOL    HW223520   3.077   4.552  15.857 -2.4906 -1.9297 -1.4841
 4021SOL     OW23521   2.570   2.872   6.913 -0.5873  0.3616  0.1313
 4021SOL    HW123522   2.627   2.948   6.921 -0.0755 -0.1245  1.1045
 4021SOL    HW223523   2.487   2.919   6.924 -0.4452  0.8508 -0.8395
 4022SOL     OW23524   0.001   1.020  16.045  0.2134  0.3367 -0.0093
 4022SOL    HW123525   4.704   1.075  15.968  1.1566 -0.1725 -0.5961
 4022SOL    HW223526   0.082   1.064  16.069 -0.4172  0.7646  1.3171
 4023SOL     OW23527   4.043   4.130   0.836 -0.4592  0.2774  0.8299
 4023SOL    HW123528   3.978   4.106   0.903  2.3032 -1.2309  2.9404
 4023SOL    HW223529   4.000   4.103   0.755  0.1027  0.5767  0.4380
 4024SOL     OW23530   4.332   2.175   8.527 -0.0984 -0.5150 -0.4407
 4024SOL    HW123531   4.398   2.198   8.462 -1.0088 -0.7892 -1.4680
 4024SOL    HW223532   4.390   2.162   8.602 -0.1293  0.2528 -0.2754
 4025SOL     OW23533   4.656   0.519   3.933 -0.0072  0.0627 -0.2926
 4025SOL    HW123534   4.636   0.426   3.946  1.3578 -0.1207  0.4275
 4025SOL    HW223535   4.673   0.551   4.021 -0.2029 -0.2384 -0.1421
 4026SOL     OW23536   2.003   2.812  16.183  0.5864  0.5432  0.0640
 4026SOL    HW123537   2.028   2.737  16.128 -0.3532  0.6871 -0.5654
 4026SOL    HW223538   2.089   2.839  16.215  0.1985  1.2843  0.4785
 4027SOL     OW23539   0.001   3.051  10.977 -0.2594 -0.7021 -0.3711
 4027SOL    HW123540   0.024   3.069  10.886  0.8712  2.0917  0.4564
 4027SOL    HW223541   4.665   2.978  10.953 -0.2170 -0.9507  0.2888
 4028SOL     OW23542   3.227   1.158   5.811  0.0921  0.4943  0.4304
 4028SOL    HW123543   3.318   1.140   5.836 -0.0684 -2.7375 -1.3249
 4028SOL    HW223544   3.236   1.215   5.735  1.4338  0.9491  0.9224
 4029SOL     OW23545   0.709   1.776   2.013 -0.6556 -0.2044 -0.7193
 4029SOL    HW123546   0.704   1.682   1.995  0.7253 -0.3500 -0.3374
 4029SOL    HW223547   0.630   1.808   1.969  0.4458  1.6312 -1.4025
 4030SOL     OW23548   3.051   1.182  14.597  0.0366  0.0144  0.5183
 4030SOL    HW123549   3.135   1.148  14.565 -0.0762 -0.6996  0.9670
 4030SOL    HW223550   3.090   1.264  14.626 -2.9182  1.9905 -1.1791
 4031SOL     OW23551   1.914   2.974   5.687 -0.4071 -0.7960  0.7039
 4031SOL    HW123552   1.838   3.007   5.640  1.1253 -0.4284 -1.5024
 4031SOL    HW223553   1.868   2.918   5.750  0.5088 -0.2902  1.8236
 4032SOL     OW23554   1.765   1.087   7.240  0.0132  0.4752 -0.0404
 4032SOL    HW123555   1.781   1.016   7.303  0.5900  0.6579  0.0202
 4032SOL    HW223556   1.727   1.155   7.296  2.4176  0.8268  1.1782
 4033SOL     OW23557   0.329   1.733   3.392 -0.2595 -0.0161 -0.2151
 4033SOL    HW123558   0.317   1.743   3.298  0.8485 -0.2035 -0.3644
 4033SOL    HW223559   0.364   1.821   3.409  0.6124 -0.5660  0.8331
 4034SOL     OW23560   0.723   0.578   5.867  0.0546  0.3755 -0.0808
 4034SOL    HW123561   0.760   0.512   5.926  2.1936  1.1064 -0.6250
 4034SOL    HW223562   0.793   0.631   5.828  0.2783  0.1965  0.0805
 4035SOL     OW23563   0.270   3.122  10.572 -0.8943  0.3041 -0.2769
 4035SOL    HW123564   0.270   3.167  10.487 -0.2327 -3.7475 -2.4279
 4035SOL    HW223565   0.308   3.188  10.629 -1.8000 -0.8638  1.6663
 4036SOL     OW23566   2.455   2.398  15.814  0.0038 -0.1990 -0.6432
 4036SOL    HW123567   2.528   2.454  15.842 -1.6067  0.6280  1.8655
 4036SOL    HW223568   2.423   2.436  15.732 -1.1890 -0.6757 -0.3954
 4037SOL     OW23569   1.856   4.074   6.687 -0.0830  0.3738 -0.1049
 4037SOL    HW123570   1.922   4.121   6.635 -0.5612  0.2247 -0.8376
 4037SOL    HW223571   1.883   3.987   6.660  2.0342  0.3627  2.0157
 4038SOL     OW23572   1.499   0.864   6.605  0.0755 -0.0320  0.1761
 4038SOL    HW123573   1.416   0.819   6.592 -0.6953  0.8192  2.1025
 4038SOL    HW223574   1.528   0.831   6.690  3.6480  1.2652 -0.5369
 4039SOL     OW23575   0.214   4.604   2.992 -0.0366  0.0004 -0.4100
 4039SOL    HW123576   0.145   4.583   3.054  0.9146 -1.4200  0.1870
 4039SOL    HW223577   0.260   4.678   3.031  1.7723 -1.8169  0.9440
 4040SOL     OW23578   0.121   0.308   0.835  0.4099 -0.7562  0.2971
 4040SOL    HW123579   0.174   0.244   0.882  1.5523  1.7028  2.2995
 4040SOL    HW223580   0.135   0.283   0.744  0.5638  2.3846 -0.5269
 4041SOL     OW23581   2.727   4.454   0.009  0.3722 -0.4722 -0.5634
 4041SOL    HW123582   2.664   4.413   0.068 -0.0924 -0.8700 -1.3377
 4041SOL    HW223583   2.799   4.399   0.040 -1.6287 -1.6093  2.1207
 4042SOL     OW23584   2.379   0.836   1.499 -0.2356 -0.8831  0.2528
 4042SOL    HW123585   2.384   0.915   1.553  0.1621 -0.5810 -0.2177
 4042SOL    HW223586   2.285   0.821   1.504 -0.0372 -1.3478  2.6150
 4043SOL     OW23587   1.231   2.618   9.123  0.2512  0.3152  0.3863
 4043SOL    HW123588   1.323   2.637   9.106  0.0915  1.1228  0.3895
 4043SOL    HW223589   1.212   2.701   9.167 -0.8647  0.2988 -0.0676
 4044SOL     OW23590   1.610   4.076   5.452  0.2235 -0.0946 -0.2149
 4044SOL    HW123591   1.691   4.096   5.405 -0.1452  1.0605 -0.3586
 4044SOL    HW223592   1.544   4.063   5.383 -0.1103 -1.0686  0.2812
 4045SOL     OW23593   0.242   2.946   8.428 -0.0060  0.1061 -0.0463
 4045SOL    HW123594   0.335   2.921   8.434  0.2498  1.2095  0.6367
 4045SOL    HW223595   0.191   2.895   8.491 -0.0590 -0.1562 -0.3054
 4046SOL     OW23596   0.731   1.932   8.504 -0.8539 -0.3051  0.6529
 4046SOL    HW123597   0.725   1.861   8.569 -0.1322 -1.3064 -0.3813
 4046SOL    HW223598   0.818   1.915   8.469 -1.0054  0.4352 -0.0725
 4047SOL     OW23599   3.555   1.647   2.446  0.3385  0.2659 -0.2427
 4047SOL    HW123600   3.488   1.712   2.466  0.2372 -0.4443  1.6569
 4047SOL    HW223601   3.562   1.638   2.351  0.1039 -0.4013 -0.2034
 4048SOL     OW23602   0.649   2.358   6.638  0.2496  0.0270 -0.4032
 4048SOL    HW123603   0.626   2.276   6.681 -0.8643  0.5881  0.0913
 4048SOL    HW223604   0.735   2.340   6.601 -0.3670 -0.2216 -1.7160
 4049SOL     OW23605   0.760   4.086   3.279 -0.2320  0.0469  0.2640
 4049SOL    HW123606   0.710   4.073   3.199  0.8921 -0.4562 -0.3521
 4049SOL    HW223607   0.797   4.174   3.272  0.1901  0.1319  3.2197
 4050SOL     OW23608   1.126   1.347   4.447  0.0076  0.3426  0.1770
 4050SOL    HW123609   1.120   1.395   4.530 -0.8263  0.4731  0.0424
 4050SOL    HW223610   1.039   1.362   4.409 -0.3923 -1.9224  0.2130
 4051SOL     OW23611   0.308   1.944   1.579 -0.1210  0.2690 -0.0993
 4051SOL    HW123612   0.266   2.012   1.633  0.0938  1.3852 -1.3527
 4051SOL    HW223613   0.253   1.958   1.502  0.3311  0.9440 -0.3008
 4052SOL     OW23614   3.384   2.478   7.225  0.4430 -0.0058 -0.3025
 4052SOL    HW123615   3.442   2.419   7.175 -2.2039 -0.7333 -2.5153
 4052SOL    HW223616   3.375   2.538   7.151 -1.1322  0.2604  0.1157
 4053SOL     OW23617   4.136   0.877   3.330 -0.0968 -0.0868  0.4831
 4053SOL    HW123618   4.055   0.847   3.289  0.4079  3.0608 -2.8249
 4053SOL    HW223619   4.162   0.808   3.390  0.0659 -1.3762 -1.0827
 4054SOL     OW23620   0.689   3.669  10.133 -0.2494 -0.4065  1.0337
 4054SOL    HW123621   0.735   3.620  10.065 -0.6917 -0.7656  0.9880
 4054SOL    HW223622   0.607   3.660  10.084 -0.8543  0.3510  1.8989
 4055SOL     OW23623   0.982   4.456  14.510 -0.1381 -0.6287  0.1392
 4055SOL    HW123624   0.909   4.420  14.560 -1.0661  0.7379 -0.2426
 4055SOL    HW223625   1.033   4.375  14.517 -0.3974 -0.8592 -0.5846
 4056SOL     OW23626   2.523   2.253   1.383  0.0429  0.0679  0.2205
 4056SOL    HW123627   2.545   2.256   1.476  2.0505  0.2979 -0.2584
 4056SOL    HW223628   2.428   2.265   1.383  0.1531  0.9233  3.4381
 4057SOL     OW23629   4.487   0.602   1.345  0.4439  0.4322  0.1178
 4057SOL    HW123630   4.541   0.654   1.286  0.9451 -2.6844 -2.1505
 4057SOL    HW223631   4.517   0.512   1.342 -1.4950 -0.1621 -2.1928
 4058SOL     OW23632   0.612   1.801  17.345  0.4218 -0.6208 -0.0541
 4058SOL    HW123633   0.676   1.828  17.412 -1.7121  0.8027  1.4285
 4058SOL    HW223634   0.591   1.719  17.390  3.9243 -1.4973  0.0175
 4059SOL     OW23635   3.188   2.569   2.235 -0.6749  0.3610 -0.2128
 4059SOL    HW123636   3.118   2.572   2.170 -0.2436  1.5345 -0.6220
 4059SOL    HW223637   3.150   2.503   2.293  0.5732  2.2118  2.7295
 4060SOL     OW23638   2.896   1.135   6.985  0.1107 -0.0673 -0.2631
 4060SOL    HW123639   2.845   1.210   6.955  0.7578 -0.1177 -1.4831
 4060SOL    HW223640   2.833   1.089   7.040  1.8745 -0.8941  1.0610
 4061SOL     OW23641   0.861   0.435  10.140 -0.4060 -0.4760  0.1359
 4061SOL    HW123642   0.881   0.439  10.233  2.6336 -1.9054 -0.4413
 4061SOL    HW223643   0.818   0.350  10.151  0.8602 -0.9061  1.7462
 4062SOL     OW23644   2.939   0.777   7.577  0.1698  0.2254 -0.4585
 4062SOL    HW123645   3.000   0.733   7.517  0.5632  1.8927 -1.2734
 4062SOL    HW223646   2.870   0.712   7.571 -0.5776  0.8683  1.0712
 4063SOL     OW23647   0.466   2.013   3.692 -0.6296  0.5255 -0.0707
 4063SOL    HW123648   0.411   2.061   3.755  0.7923  0.5954  1.1103
 4063SOL    HW223649   0.442   1.929   3.732  1.2443 -0.8954 -1.9492
 4064SOL     OW23650   1.815   2.274   8.478 -0.4177  0.5949 -0.2720
 4064SOL    HW123651   1.759   2.352   8.482 -0.3831  0.5457  1.1074
 4064SOL    HW223652   1.753   2.201   8.481 -0.2254  0.5337  1.8232
 4065SOL     OW23653   1.540   0.016   3.095 -0.0357  0.2770 -0.0208
 4065SOL    HW123654   1.556   0.097   3.046 -1.2833  0.3985 -0.2315
 4065SOL    HW223655   1.459   0.041   3.139 -0.0943 -0.3049  0.1986
 4066SOL     OW23656   1.689   2.145   9.699  0.5597  0.4734 -0.2893
 4066SOL    HW123657   1.721   2.084   9.633  0.7069 -1.7955  1.8876
 4066SOL    HW223658   1.605   2.159   9.655  0.4620 -1.6823 -0.7804
 4067SOL     OW23659   0.107   4.156   8.213  0.2511  0.4013 -0.0147
 4067SOL    HW123660   0.194   4.174   8.180 -0.4684 -0.5747 -2.4453
 4067SOL    HW223661   0.123   4.180   8.304  1.7369  1.0892 -0.4624
 4068SOL     OW23662   3.021   1.766   4.022  0.2943 -0.4936 -0.2058
 4068SOL    HW123663   3.021   1.700   4.091  0.4532 -1.4276 -1.0990
 4068SOL    HW223664   2.975   1.717   3.954 -2.7010 -0.3528  1.7028
 4069SOL     OW23665   3.104   1.947   3.657 -0.2463  0.3574  0.3893
 4069SOL    HW123666   3.175   2.001   3.622 -0.8340  0.6995 -0.3053
 4069SOL    HW223667   3.147   1.929   3.740  0.9242  0.8229 -0.1172
 4070SOL     OW23668   3.941   3.065   6.763 -0.1657  0.0635  0.1776
 4070SOL    HW123669   3.927   2.982   6.717  0.5962  1.4108 -2.4595
 4070SOL    HW223670   3.980   3.028   6.842 -2.8079 -2.0032  0.5157
 4071SOL     OW23671   2.578   0.856   1.293  0.7555 -0.0258 -0.4302
 4071SOL    HW123672   2.602   0.764   1.304  1.3807 -0.1574 -2.9256
 4071SOL    HW223673   2.501   0.852   1.349 -0.2209 -1.0224 -1.8360
 4072SOL     OW23674   3.945   2.059   5.924  0.7112 -0.1018 -0.4315
 4072SOL    HW123675   3.931   1.965   5.928 -0.0571  0.1203  1.9739
 4072SOL    HW223676   4.015   2.060   5.859 -0.4745  2.5353 -1.6715
 4073SOL     OW23677   2.405   0.857  15.764  0.3330  0.2267  0.5552
 4073SOL    HW123678   2.385   0.893  15.850  0.5807  0.9502  0.3181
 4073SOL    HW223679   2.320   0.839  15.725  0.5896  0.4359 -0.1053
 4074SOL     OW23680   4.160   2.567  10.696 -0.2563 -0.0567  0.3149
 4074SOL    HW123681   4.130   2.615  10.619 -1.5331  1.0395  1.4870
 4074SOL    HW223682   4.148   2.476  10.671  1.9219 -0.5275  1.0020
 4075SOL     OW23683   2.512   3.879   1.973 -0.1253  0.3260 -0.2185
 4075SOL    HW123684   2.489   3.842   1.888 -0.8319  0.7818 -0.2354
 4075SOL    HW223685   2.494   3.808   2.034  0.5481  0.8139  0.5414
 4076SOL     OW23686   1.478   3.074  11.978  0.0376  0.7981  0.0033
 4076SOL    HW123687   1.394   3.040  12.010 -0.6036 -0.3936 -2.9487
 4076SOL    HW223688   1.485   3.146  12.041 -1.8502  1.6716 -0.7626
 4077SOL     OW23689   4.503   2.094   7.215 -0.1251  0.0464  0.3124
 4077SOL    HW123690   4.483   2.008   7.179 -0.2077  0.0216  0.4185
 4077SOL    HW223691   4.589   2.102   7.172 -0.7456 -1.3113 -1.1459
 4078SOL     OW23692   0.429   1.079  14.208 -0.1269  0.2775  0.7486
 4078SOL    HW123693   0.479   1.130  14.145  0.1546  1.6942  2.1122
 4078SOL    HW223694   0.374   1.043  14.139 -0.2156 -1.1789  1.5872
 4079SOL     OW23695   0.438   2.032   8.162  0.8720 -0.6811  0.1755
 4079SOL    HW123696   0.515   1.998   8.116 -0.1667 -1.8176 -0.7190
 4079SOL    HW223697   0.449   2.013   8.255 -0.1344  0.0459  0.4434
 4080SOL     OW23698   3.891   0.659   7.557  0.8164 -0.4038 -0.0130
 4080SOL    HW123699   3.883   0.686   7.466 -0.3327 -0.4344  0.0899
 4080SOL    HW223700   3.949   0.584   7.544  0.6621 -0.4775 -0.2732
 4081SOL     OW23701   3.823   2.550   1.428  0.3384 -0.8580 -0.4199
 4081SOL    HW123702   3.811   2.511   1.341  0.9004 -0.1662 -0.8045
 4081SOL    HW223703   3.863   2.478   1.476 -1.3962 -0.8662  1.0102
 4082SOL     OW23704   2.408   4.395  17.459 -0.0477 -0.2303  0.4102
 4082SOL    HW123705   2.373   4.331  17.396 -0.7242  3.2352 -2.7591
 4082SOL    HW223706   2.463   4.453  17.406 -1.3833  1.0195  0.3892
 4083SOL     OW23707   2.518   1.997  16.004 -0.2984 -0.2929 -0.2601
 4083SOL    HW123708   2.424   1.994  15.988 -0.7225  0.1330  2.1471
 4083SOL    HW223709   2.502   2.038  16.089  0.2942 -0.6252  0.0165
 4084SOL     OW23710   1.757   4.081  17.482 -0.2531 -0.0568  0.2104
 4084SOL    HW123711   1.749   4.134  17.562  0.7295 -0.5728  0.6501
 4084SOL    HW223712   1.787   3.997  17.516  0.4715  0.0845 -0.0998
 4085SOL     OW23713   0.727   4.502   8.909  0.1820  0.1529  0.7553
 4085SOL    HW123714   0.821   4.492   8.922  0.3123  0.0051 -0.3119
 4085SOL    HW223715   0.716   4.596   8.917  1.2006  0.5493 -2.4070
 4086SOL     OW23716   0.983   3.922   5.048 -0.5954  0.0599  0.7908
 4086SOL    HW123717   0.911   3.968   5.005 -2.0182 -0.3744  2.7236
 4086SOL    HW223718   0.973   3.948   5.140  2.3170  4.3398 -0.1243
 4087SOL     OW23719   2.494   3.288   3.652 -0.3423  0.1987  0.0688
 4087SOL    HW123720   2.481   3.194   3.658  0.2422 -0.0471 -2.3326
 4087SOL    HW223721   2.531   3.298   3.564 -0.0295 -0.0409  0.1750
 4088SOL     OW23722   0.700   4.022  12.974  0.1301  0.3569  0.3683
 4088SOL    HW123723   0.666   3.940  12.939 -0.9300  1.4026 -1.1038
 4088SOL    HW223724   0.708   4.073  12.893  2.8897  0.4767  0.7149
 4089SOL     OW23725   1.432   2.085   6.847 -0.2800 -0.1980 -0.2512
 4089SOL    HW123726   1.499   2.146   6.816  0.4056 -0.7332  0.1759
 4089SOL    HW223727   1.466   2.051   6.930  2.9505 -1.4275 -2.1023
 4090SOL     OW23728   0.131   2.674   7.452  0.1252  0.2739  0.0256
 4090SOL    HW123729   0.068   2.639   7.514  0.0171  0.2429 -0.1018
 4090SOL    HW223730   0.120   2.601   7.391 -1.5380  1.6657 -1.3160
 4091SOL     OW23731   4.385   2.899   2.008  0.0425 -0.6009 -0.6632
 4091SOL    HW123732   4.406   2.844   1.933  0.6717  1.5157 -2.0499
 4091SOL    HW223733   4.351   2.978   1.964 -1.4011 -0.8164  0.0645
 4092SOL     OW23734   2.827   2.170   4.958  0.3363  0.8826  0.4474
 4092SOL    HW123735   2.918   2.154   4.932 -0.7104 -4.1577 -0.1500
 4092SOL    HW223736   2.841   2.157   5.052  1.3927 -2.0094 -0.1230
 4093SOL     OW23737   4.026   3.083  16.681  0.5215 -0.5993  0.2100
 4093SOL    HW123738   4.118   3.055  16.686  0.7117 -0.3533 -1.7633
 4093SOL    HW223739   3.980   3.026  16.742  0.2988 -0.2258  0.3868
 4094SOL     OW23740   1.209   1.492  10.812  0.7151  0.0448  0.7663
 4094SOL    HW123741   1.217   1.581  10.777  0.4132 -0.2185  0.0321
 4094SOL    HW223742   1.114   1.488  10.807  0.6166  0.5387  2.1260
 4095SOL     OW23743   1.415   2.188   7.425  0.0685 -0.1041  0.3550
 4095SOL    HW123744   1.368   2.179   7.508 -1.5415 -1.4999 -0.6987
 4095SOL    HW223745   1.503   2.168   7.456 -0.1696 -2.0759 -0.1956
 4096SOL     OW23746   4.686   1.298   1.676  0.2968  0.2026  0.3587
 4096SOL    HW123747   4.660   1.298   1.584 -0.3466 -2.9905  0.5365
 4096SOL    HW223748   0.052   1.259   1.675  0.4360  0.5190  0.0124
 4097SOL     OW23749   0.327   0.470   2.971  0.3069 -0.2079  0.1973
 4097SOL    HW123750   0.260   0.522   2.926 -1.4413 -1.3774  1.4646
 4097SOL    HW223751   0.327   0.395   2.912  0.0189 -0.1295  0.0943
 4098SOL     OW23752   0.541   0.068   4.667  0.0574  0.3024  0.2063
 4098SOL    HW123753   0.541   0.046   4.760  2.3278 -2.9119 -0.5293
 4098SOL    HW223754   0.634   0.088   4.658  0.1580  0.1228  0.8924
 4099SOL     OW23755   3.386   3.114   3.023 -0.3477 -0.0119 -0.2024
 4099SOL    HW123756   3.374   3.169   2.945 -0.2508 -0.4735 -0.5418
 4099SOL    HW223757   3.480   3.096   3.011  0.1853  1.7782  1.1707
 4100SOL     OW23758   2.472   3.299   4.624 -0.3179 -0.4160  0.2072
 4100SOL    HW123759   2.503   3.216   4.659  1.1310  0.4242  0.9135
 4100SOL    HW223760   2.528   3.357   4.676  1.1367 -0.3581 -1.4063
 4101SOL     OW23761   1.265   3.632   5.324  0.2799  0.1407 -0.4996
 4101SOL    HW123762   1.210   3.696   5.369  0.4961  0.4339 -0.6520
 4101SOL    HW223763   1.204   3.559   5.326  1.0427 -0.5304 -1.8379
 4102SOL     OW23764   2.369   0.083   2.869 -0.1772 -0.6074 -0.0909
 4102SOL    HW123765   2.331   4.718   2.886  0.6127 -0.6900  1.3112
 4102SOL    HW223766   2.301   0.133   2.915 -0.2073 -0.7314  0.0003
 4103SOL     OW23767   0.678   3.558  14.921 -0.5151  0.6212 -0.0671
 4103SOL    HW123768   0.653   3.534  15.010 -0.0761  2.5104  0.5756
 4103SOL    HW223769   0.718   3.475  14.897 -1.3799 -0.4131  2.0627
 4104SOL     OW23770   1.697   1.756   4.359 -0.1053 -0.9747  0.2495
 4104SOL    HW123771   1.673   1.849   4.363  1.0674 -0.6474 -0.5047
 4104SOL    HW223772   1.652   1.716   4.285  3.6403 -1.1382 -1.9141
 4105SOL     OW23773   0.716   0.703  15.630 -0.2114 -0.1603 -0.3321
 4105SOL    HW123774   0.791   0.657  15.594  0.9262  1.8558 -0.5596
 4105SOL    HW223775   0.681   0.731  15.545 -0.4348 -0.8525 -0.4703
 4106SOL     OW23776   4.144   0.195   7.002 -0.3127  0.0254 -0.1998
 4106SOL    HW123777   4.146   0.123   6.940 -3.4689  2.2573 -2.8945
 4106SOL    HW223778   4.098   0.155   7.076  0.1028  0.9890  0.5768
 4107SOL     OW23779   2.075   4.488   4.634 -0.0659  0.4750 -0.1531
 4107SOL    HW123780   2.020   4.555   4.593 -0.2205 -0.6480 -1.7698
 4107SOL    HW223781   2.123   4.457   4.558  1.8172  1.3623  0.6613
 4108SOL     OW23782   0.061   3.375  12.241  0.0751  0.0449  0.3703
 4108SOL    HW123783   0.102   3.459  12.221 -2.2240  1.3631  1.1749
 4108SOL    HW223784   0.114   3.320  12.183  2.6667  0.7571  2.0519
 4109SOL     OW23785   2.568   4.225   8.468  0.2775  0.6163  0.8465
 4109SOL    HW123786   2.660   4.239   8.492  0.7446 -0.0558 -0.6009
 4109SOL    HW223787   2.532   4.199   8.553 -0.3508  0.0400  0.3996
 4110SOL     OW23788   2.415   0.885  15.475 -0.3937  0.4381  0.1026
 4110SOL    HW123789   2.428   0.892  15.570  0.2102 -1.2595  0.1462
 4110SOL    HW223790   2.491   0.829  15.457 -1.6569 -1.1039 -0.4739
 4111SOL     OW23791   2.667   1.124   6.697  0.1849  0.0344 -0.0403
 4111SOL    HW123792   2.647   1.034   6.670  0.7684  0.1502 -0.8448
 4111SOL    HW223793   2.657   1.160   6.609 -0.5463  1.0395  0.4475
 4112SOL     OW23794   2.001   2.762   6.027 -0.2643  0.2903  0.1509
 4112SOL    HW123795   1.913   2.780   5.996  0.0118  0.2967 -0.6418
 4112SOL    HW223796   2.039   2.714   5.954  0.8005 -1.3961  1.8010
 4113SOL     OW23797   1.246   4.057   5.053 -0.4617  0.0962 -0.2356
 4113SOL    HW123798   1.208   4.145   5.048  0.8527  0.7354  0.9726
 4113SOL    HW223799   1.168   4.002   5.065  0.3239 -1.0262 -0.2665
 4114SOL     OW23800   0.522   1.444   4.568  0.3588  0.0142  0.1984
 4114SOL    HW123801   0.429   1.449   4.589 -0.1383 -0.0928 -2.0026
 4114SOL    HW223802   0.517   1.401   4.483  0.4492  0.9979 -0.2974
 4115SOL     OW23803   3.481   1.350   6.830  0.5292  0.2718 -0.6315
 4115SOL    HW123804   3.507   1.358   6.922  0.6880  0.4402 -0.6899
 4115SOL    HW223805   3.532   1.280   6.788  2.0880  1.1991 -0.2724
 4116SOL     OW23806   0.295   4.216  17.523  0.0084  0.4166 -0.2146
 4116SOL    HW123807   0.272   4.230  17.615 -1.2374  1.6698 -0.7288
 4116SOL    HW223808   0.306   4.296  17.470  0.1691 -0.2427 -1.1781
 4117SOL     OW23809   0.555   2.079   4.970  0.0301 -0.7050 -0.3517
 4117SOL    HW123810   0.517   2.011   5.026 -1.0665 -0.4343 -0.7821
 4117SOL    HW223811   0.603   2.027   4.905  1.2943  0.3118 -0.2363
 4118SOL     OW23812   2.928   0.671   8.194 -0.1107  0.8163 -0.3845
 4118SOL    HW123813   2.843   0.627   8.198  1.3003 -1.6532  1.6859
 4118SOL    HW223814   2.915   0.754   8.241  1.7420  0.9274 -0.0715
 4119SOL     OW23815   4.225   1.439   3.946 -0.7389  0.4100  0.3648
 4119SOL    HW123816   4.147   1.451   3.892  0.1290  1.3625 -0.6616
 4119SOL    HW223817   4.202   1.511   4.004 -1.2111  0.7890 -0.3053
 4120SOL     OW23818   1.551   4.029   6.789  0.0674  0.0437 -0.0364
 4120SOL    HW123819   1.592   4.095   6.734  0.5769 -0.7614 -0.6266
 4120SOL    HW223820   1.458   4.041   6.770  0.5761  4.0892 -0.0424
 4121SOL     OW23821   1.869   2.715   4.377 -0.2245  0.6425 -0.6008
 4121SOL    HW123822   1.877   2.685   4.286 -1.0549  0.6203 -0.6606
 4121SOL    HW223823   1.899   2.806   4.373  1.3752  0.1008 -1.3704
 4122SOL     OW23824   2.632   3.878   4.351  0.2064 -0.0432  0.4889
 4122SOL    HW123825   2.673   3.792   4.342 -0.7944 -0.4702  0.0103
 4122SOL    HW223826   2.702   3.937   4.324  1.5517 -1.4708  0.8915
 4123SOL     OW23827   2.553   0.049   6.775 -0.2779 -0.1909  0.0003
 4123SOL    HW123828   2.587   0.010   6.856  2.6862 -0.8606 -1.5520
 4123SOL    HW223829   2.629   0.044   6.717  0.3294  3.5487  0.4609
 4124SOL     OW23830   4.636   2.585  12.658  0.1848  0.2235 -0.0056
 4124SOL    HW123831   4.631   2.663  12.713 -0.7523  0.2580 -0.1369
 4124SOL    HW223832   4.556   2.538  12.682 -0.4379 -0.3570 -3.1933
 4125SOL     OW23833   2.827   2.800  12.896  0.5951  0.1194  0.3108
 4125SOL    HW123834   2.809   2.874  12.838 -0.6155 -0.0988  0.4049
 4125SOL    HW223835   2.891   2.751  12.846 -1.0435 -0.3485 -1.3309
 4126SOL     OW23836   4.445   1.359   4.765  1.1102  0.4814  0.4128
 4126SOL    HW123837   4.372   1.419   4.746 -0.7603 -1.5663  1.1355
 4126SOL    HW223838   4.502   1.377   4.690 -1.3761  0.5425 -1.4601
 4127SOL     OW23839   1.105   0.785   4.327 -1.0217 -0.4680 -0.5716
 4127SOL    HW123840   1.154   0.853   4.374  0.6952 -0.4178 -2.4708
 4127SOL    HW223841   1.154   0.776   4.246 -0.2056  0.0644 -0.1381
 4128SOL     OW23842   4.315   0.323   2.153 -0.0932 -0.5348  0.0465
 4128SOL    HW123843   4.402   0.348   2.120  0.1015 -0.4834  0.5981
 4128SOL    HW223844   4.255   0.366   2.093  0.9292  0.5481 -0.1965
 4129SOL     OW23845   2.014   2.547   6.594 -0.2711 -0.3989 -0.6146
 4129SOL    HW123846   1.932   2.499   6.577 -2.5764  1.7498  4.4577
 4129SOL    HW223847   1.988   2.639   6.587 -0.1681 -0.4672 -1.7345
 4130SOL     OW23848   3.063   1.816   9.082 -0.6291 -0.1551  0.6783
 4130SOL    HW123849   3.004   1.873   9.033 -0.6399 -0.9830 -0.2844
 4130SOL    HW223850   3.132   1.877   9.106  0.3922 -0.3997 -1.5633
 4131SOL     OW23851   3.060   3.804   3.562 -0.1382  0.8635 -0.0331
 4131SOL    HW123852   3.154   3.790   3.556 -0.2350  0.7722 -1.2302
 4131SOL    HW223853   3.059   3.896   3.589 -2.2627  1.3674 -1.7948
 4132SOL     OW23854   1.640   0.250   2.661  0.1440  0.4176  0.2866
 4132SOL    HW123855   1.648   0.345   2.672  2.2510  0.3817 -0.7928
 4132SOL    HW223856   1.578   0.250   2.588  2.2508  0.0544 -1.5024
 4133SOL     OW23857   1.718   3.991   9.207 -0.6240  0.3437 -0.2762
 4133SOL    HW123858   1.743   4.014   9.118  1.7741  1.6295  0.7090
 4133SOL    HW223859   1.627   4.017   9.195 -0.8459  0.2314  1.1382
 4134SOL     OW23860   4.585   2.500   5.634 -0.1744 -0.7292  0.0942
 4134SOL    HW123861   4.554   2.413   5.612 -1.7627  0.0620 -0.7773
 4134SOL    HW223862   4.665   2.475   5.680  0.8941  1.4581 -0.5587
 4135SOL     OW23863   1.983   3.643   2.135  0.0438 -0.0275  0.3026
 4135SOL    HW123864   1.947   3.703   2.070  0.4503  0.2279  0.3196
 4135SOL    HW223865   2.017   3.573   2.078  0.0629  1.2502 -1.2665
 4136SOL     OW23866   1.945   3.974   4.577 -0.1150  0.0542  0.5113
 4136SOL    HW123867   1.933   3.880   4.564 -0.0538 -0.0279  1.0470
 4136SOL    HW223868   1.949   3.968   4.673  1.7856 -0.9215  0.3769
 4137SOL     OW23869   3.821   2.113   1.661 -0.2289  0.1091  0.5604
 4137SOL    HW123870   3.840   2.129   1.568 -0.4797 -2.9842 -0.0110
 4137SOL    HW223871   3.769   2.190   1.684  1.7500  1.7863 -0.5822
 4138SOL     OW23872   3.887   2.193   7.330 -0.0963  0.7460  0.1895
 4138SOL    HW123873   3.846   2.112   7.362  0.2865 -0.1066 -1.4795
 4138SOL    HW223874   3.898   2.165   7.239  1.0046  0.4524  0.4099
 4139SOL     OW23875   2.276   2.243   3.446  0.1419 -0.1321 -0.2028
 4139SOL    HW123876   2.267   2.148   3.449  0.5117 -0.2137 -1.6819
 4139SOL    HW223877   2.368   2.249   3.424 -0.0624 -0.9644 -1.2658
 4140SOL     OW23878   4.442   2.283  13.279  0.5861 -0.1936  0.0665
 4140SOL    HW123879   4.350   2.292  13.301  0.8674 -0.3702  1.3540
 4140SOL    HW223880   4.443   2.190  13.302  1.3904 -0.0477  0.6345
 4141SOL     OW23881   0.852   0.197   6.372 -0.0465 -0.3144  0.4354
 4141SOL    HW123882   0.769   0.178   6.328 -0.7010  1.6438  0.8354
 4141SOL    HW223883   0.838   0.268   6.434 -0.3520 -0.0982  0.1204
 4142SOL     OW23884   3.034   0.093   4.924  0.3685  0.0383 -0.1521
 4142SOL    HW123885   3.007   0.007   4.893  1.5991 -0.5639  0.4716
 4142SOL    HW223886   2.948   0.130   4.944 -0.9404 -2.5349 -1.0060
 4143SOL     OW23887   3.088   2.364   6.724  0.1040 -0.2015  0.4913
 4143SOL    HW123888   3.035   2.411   6.659  0.3421 -0.3523  0.1846
 4143SOL    HW223889   3.022   2.298   6.744 -1.2787  0.5573 -1.5739
 4144SOL     OW23890   2.585   0.951   4.177 -0.6972 -1.0789  0.7035
 4144SOL    HW123891   2.505   1.003   4.187  1.4937  2.9931 -3.2604
 4144SOL    HW223892   2.610   0.956   4.085  0.1776  0.2803  1.0120
 4145SOL     OW23893   0.864   4.673   2.846  0.2231 -0.0187  0.2267
 4145SOL    HW123894   0.955   4.648   2.859 -0.0491 -0.1347  1.9202
 4145SOL    HW223895   0.827   4.649   2.931  1.9821 -1.6755  0.5205
 4146SOL     OW23896   4.010   0.888   7.698  0.0065  0.2018 -0.4372
 4146SOL    HW123897   3.972   0.805   7.670  2.5438 -1.2456  0.3728
 4146SOL    HW223898   3.940   0.923   7.753  1.1114  2.9374 -0.7705
 4147SOL     OW23899   2.400   4.259   1.040  0.4008 -0.3469  0.5967
 4147SOL    HW123900   2.391   4.344   1.083 -0.8265  0.3779 -1.0949
 4147SOL    HW223901   2.495   4.264   1.031  0.4262 -0.3368  0.8783
 4148SOL     OW23902   3.042   4.279   1.543  0.1823 -0.5014 -0.1386
 4148SOL    HW123903   2.969   4.285   1.481 -1.9724 -1.2716  2.3237
 4148SOL    HW223904   3.095   4.223   1.486  0.3799 -0.6952  0.2369
 4149SOL     OW23905   4.241   4.326  14.089 -0.0164 -0.5900  0.2644
 4149SOL    HW123906   4.268   4.373  14.168  0.8106  0.6985 -0.7743
 4149SOL    HW223907   4.286   4.381  14.025  0.6519  1.2039  2.2981
 4150SOL     OW23908   3.023   2.955   7.450 -0.4208  0.4305 -0.2165
 4150SOL    HW123909   3.042   2.980   7.360  0.6863  0.6688  0.0719
 4150SOL    HW223910   3.080   2.880   7.466 -2.9420 -1.6766 -1.1791
 4151SOL     OW23911   1.341   0.487  14.593  0.1192  0.3777  0.0439
 4151SOL    HW123912   1.412   0.459  14.535  1.8284  0.0891  2.2481
 4151SOL    HW223913   1.370   0.435  14.668  2.3551  0.7331 -0.5777
 4152SOL     OW23914   0.539   2.788   5.368  0.1103 -0.0027  0.2430
 4152SOL    HW123915   0.457   2.770   5.415 -0.0432 -0.2395 -0.1186
 4152SOL    HW223916   0.558   2.703   5.330 -2.5580 -0.3637 -0.2875
 4153SOL     OW23917   1.896   1.239   3.323  0.7187 -0.2804  0.1522
 4153SOL    HW123918   1.894   1.226   3.418  1.0956  1.5655  0.4072
 4153SOL    HW223919   1.836   1.174   3.286  0.0068  0.4203  0.0718
 4154SOL     OW23920   2.016   0.685   2.542 -0.1474 -0.0724  0.6504
 4154SOL    HW123921   2.001   0.720   2.630 -1.0423 -1.6204  1.1182
 4154SOL    HW223922   1.937   0.634   2.522  1.1680 -1.9486  0.3369
 4155SOL     OW23923   0.319   0.582   3.214  0.3407  0.3105 -0.1995
 4155SOL    HW123924   0.302   0.533   3.134  0.1922  0.5897 -0.3380
 4155SOL    HW223925   0.346   0.514   3.276  0.2094 -0.3362 -0.8469
 4156SOL     OW23926   1.889   3.673  16.819  0.0951  0.0127  0.1129
 4156SOL    HW123927   1.945   3.718  16.756 -0.9556  1.1602 -0.0122
 4156SOL    HW223928   1.867   3.748  16.875  0.9074 -0.3262  0.8766
 4157SOL     OW23929   2.133   0.025  11.484 -0.0225 -0.6089 -0.3722
 4157SOL    HW123930   2.044   4.716  11.469  0.1286 -0.0861 -2.2981
 4157SOL    HW223931   2.179   4.712  11.407  2.8532  0.6336  0.7757
 4158SOL     OW23932   1.904   0.829   6.219  0.6413  0.3809 -0.4455
 4158SOL    HW123933   1.906   0.756   6.280 -1.3614 -0.0361 -0.8879
 4158SOL    HW223934   1.829   0.874   6.257  1.4207  2.3712 -1.2320
 4159SOL     OW23935   1.243   3.871  16.692  0.5705 -0.1057  0.4967
 4159SOL    HW123936   1.268   3.957  16.726  0.1319  0.7130 -1.2424
 4159SOL    HW223937   1.147   3.865  16.697  0.5858 -0.4652  0.3725
 4160SOL     OW23938   4.453   1.133   9.654  0.2668 -0.1217  0.2878
 4160SOL    HW123939   4.411   1.219   9.646  1.1705  0.2397 -0.5524
 4160SOL    HW223940   4.393   1.090   9.715  0.3449 -0.4946  0.0982
 4161SOL     OW23941   4.439   1.665   7.650 -0.2368  0.5765 -0.3696
 4161SOL    HW123942   4.437   1.759   7.632 -1.9771  0.4430 -0.8867
 4161SOL    HW223943   4.348   1.651   7.678 -0.0676  1.3705  0.5956
 4162SOL     OW23944   3.088   2.100   4.903  0.2297 -0.3827 -0.1138
 4162SOL    HW123945   3.092   2.006   4.883  2.8310 -0.4547  0.6876
 4162SOL    HW223946   3.163   2.092   4.962  0.1982 -1.5066 -0.2222
 4163SOL     OW23947   4.057   1.115   7.944  0.6204  0.3342  0.0780
 4163SOL    HW123948   3.961   1.114   7.943  0.6170  1.3530 -0.4884
 4163SOL    HW223949   4.078   1.101   8.036  1.1950 -0.2340 -0.1383
 4164SOL     OW23950   0.705   0.265   9.184  0.5614 -0.0940  0.2144
 4164SOL    HW123951   0.630   0.206   9.182 -0.5600  1.3907 -1.8277
 4164SOL    HW223952   0.687   0.309   9.101 -1.1276  0.8025  1.0461
 4165SOL     OW23953   0.839   3.673  15.912 -0.4876  0.3114 -0.2090
 4165SOL    HW123954   0.865   3.587  15.881  0.3294 -0.3608  2.3509
 4165SOL    HW223955   0.798   3.647  15.994 -0.9949  1.3112 -0.1472
 4166SOL     OW23956   4.497   4.098  10.438  0.1206 -0.0856  0.6810
 4166SOL    HW123957   4.577   4.048  10.452 -0.4238 -0.8516  1.0180
 4166SOL    HW223958   4.434   4.089  10.510  0.1611 -0.8930  0.6130
 4167SOL     OW23959   0.636   0.622   9.296  0.8811 -0.1056 -0.0787
 4167SOL    HW123960   0.710   0.569   9.326  1.0577  0.9747  1.3684
 4167SOL    HW223961   0.577   0.610   9.370  0.1839  0.7562 -0.4959
 4168SOL     OW23962   2.426   2.471  10.960 -0.3098  0.2937  0.0074
 4168SOL    HW123963   2.337   2.436  10.954 -0.1647 -0.2716  1.0913
 4168SOL    HW223964   2.474   2.396  10.926  1.6165  0.2701  2.7368
 4169SOL     OW23965   4.324   1.171   6.239  0.1862  0.1752  0.6657
 4169SOL    HW123966   4.381   1.095   6.252 -2.1920 -1.2624  2.6377
 4169SOL    HW223967   4.238   1.130   6.242  1.4734 -2.7280 -2.2936
 4170SOL     OW23968   2.042   2.437   9.657 -0.3746  0.1800  0.0314
 4170SOL    HW123969   2.036   2.364   9.718 -0.6968  0.8139  0.7663
 4170SOL    HW223970   2.003   2.510   9.705  0.7346  1.1232 -0.5088
 4171SOL     OW23971   0.441   3.998  10.546  0.1309  0.1880  0.1577
 4171SOL    HW123972   0.438   3.998  10.642  0.0210 -0.5609  0.1551
 4171SOL    HW223973   0.356   4.040  10.535 -0.5017 -0.7359  1.3767
 4172SOL     OW23974   2.081   3.940   5.631  0.2070 -0.4229  0.1409
 4172SOL    HW123975   1.988   3.933   5.650  0.0346 -0.2481 -0.6485
 4172SOL    HW223976   2.110   3.867   5.687 -3.0155 -0.6930  1.4421
 4173SOL     OW23977   3.398   4.585   2.405  0.0275 -0.0713 -0.0771
 4173SOL    HW123978   3.357   4.618   2.325  1.3833 -0.6213 -0.9985
 4173SOL    HW223979   3.441   4.664   2.436  3.3380 -1.6488 -0.6988
 4174SOL     OW23980   4.079   2.874  13.535 -0.3050  0.1776 -0.1493
 4174SOL    HW123981   4.065   2.967  13.519 -0.0446 -0.1049 -2.0507
 4174SOL    HW223982   3.999   2.849  13.581  0.2197  0.0511  0.6960
 4175SOL     OW23983   2.512   3.430   3.219 -0.0453 -0.0421  0.7416
 4175SOL    HW123984   2.471   3.343   3.211 -1.1288  0.4843  0.5066
 4175SOL    HW223985   2.564   3.437   3.139 -0.5139  0.3413  0.4713
 4176SOL     OW23986   2.481   2.597  11.908 -0.1940  0.5209  0.1153
 4176SOL    HW123987   2.441   2.633  11.829  1.4671  0.1782 -0.9127
 4176SOL    HW223988   2.445   2.508  11.913 -0.1686  0.5363  0.5776
 4177SOL     OW23989   2.164   4.551  11.027  0.0688  0.7720 -0.2741
 4177SOL    HW123990   2.090   4.608  11.004  0.3050  1.4105  0.5619
 4177SOL    HW223991   2.225   4.575  10.957 -2.2110  2.8442 -1.5598
 4178SOL     OW23992   4.704   4.706  11.056 -0.8201  0.5080 -0.1262
 4178SOL    HW123993   4.721   4.626  11.106 -3.8866 -0.5868 -0.8437
 4178SOL    HW223994   4.664   0.041  11.122  0.6000  1.0954  0.2543
 4179SOL     OW23995   4.446   1.526   1.550 -0.2249  0.0298 -0.2682
 4179SOL    HW123996   4.378   1.524   1.618 -0.5595 -2.4732 -0.7025
 4179SOL    HW223997   4.473   1.618   1.557 -0.1508  0.0517 -0.9065
 4180SOL     OW23998   0.924   1.547   8.538  0.2433  0.3278  0.2640
 4180SOL    HW123999   0.876   1.552   8.455  2.4991 -1.9457 -1.1664
 4180SOL    HW224000   0.862   1.492   8.586  0.6224 -0.0633  0.3009
 4181SOL     OW24001   2.383   1.676  13.252 -0.0777  0.0090 -0.0948
 4181SOL    HW124002   2.362   1.592  13.211 -1.0559  1.2215 -2.0939
 4181SOL    HW224003   2.313   1.677  13.317 -1.1794 -0.9215 -1.2497
 4182SOL     OW24004   1.343   1.618  12.476 -0.2506 -0.3523 -0.3874
 4182SOL    HW124005   1.380   1.532  12.455 -2.6968 -1.4987  0.0354
 4182SOL    HW224006   1.423   1.664  12.502  0.0021 -0.8945 -0.2095
 4183SOL     OW24007   3.718   0.022  15.030  0.2523  0.3699 -0.0796
 4183SOL    HW124008   3.679   4.716  15.113  1.2540  2.7445  1.1721
 4183SOL    HW224009   3.644   0.010  14.971 -0.3951  0.9196  0.6305
 4184SOL     OW24010   2.071   2.601   3.776 -0.2512  0.0995 -0.0063
 4184SOL    HW124011   1.978   2.593   3.796 -0.2601 -1.2707 -0.5831
 4184SOL    HW224012   2.085   2.688   3.739 -1.7482  0.5552  0.5315
 4185SOL     OW24013   4.168   2.914   3.041 -0.9061 -0.2994  0.2862
 4185SOL    HW124014   4.079   2.926   3.009  0.0561 -0.6293 -2.4924
 4185SOL    HW224015   4.218   2.915   2.960  2.1722  1.3549  2.1697
 4186SOL     OW24016   1.270   1.070   9.420 -0.6326 -0.3853  0.1029
 4186SOL    HW124017   1.232   0.983   9.436  2.2949 -1.3984  1.5455
 4186SOL    HW224018   1.349   1.067   9.473 -0.1247 -0.1965 -0.6549
 4187SOL     OW24019   2.701   4.610   2.787  0.1124  0.3202 -0.3878
 4187SOL    HW124020   2.739   4.619   2.699  0.4459  2.7293  0.0010
 4187SOL    HW224021   2.671   4.697   2.814 -0.1151  0.2980 -0.5645
 4188SOL     OW24022   2.102   1.971   7.376 -0.0070 -0.0214 -0.4124
 4188SOL    HW124023   2.166   2.004   7.313  0.4080  1.8990  0.9875
 4188SOL    HW224024   2.060   1.906   7.320  0.4397 -1.5348  1.0353
 4189SOL     OW24025   3.977   4.710  17.077 -0.1486  0.0156 -0.1201
 4189SOL    HW124026   3.919   4.715  17.153  1.8563 -0.5009  1.4490
 4189SOL    HW224027   4.047   0.040  17.116 -1.0563  0.3787  1.0330
 4190SOL     OW24028   3.904   3.727   6.760  0.0386  0.5534 -0.5224
 4190SOL    HW124029   3.932   3.802   6.708  0.8465  0.7042  0.1307
 4190SOL    HW224030   3.847   3.704   6.687  1.6333 -0.4760 -1.4603
 4191SOL     OW24031   3.260   3.207  12.164 -0.0817 -0.7587 -0.0321
 4191SOL    HW124032   3.255   3.112  12.153  1.4729 -0.6998 -1.1788
 4191SOL    HW224033   3.179   3.230  12.119  0.4198  0.0596 -0.5177
 4192SOL     OW24034   1.411   1.041   8.963  0.6021  0.2612  0.1585
 4192SOL    HW124035   1.378   0.991   8.888 -1.2142 -0.9902  1.7940
 4192SOL    HW224036   1.455   1.113   8.917  1.5951 -0.2663  0.2986
 4193SOL     OW24037   0.354   3.028   7.758 -0.1272  0.5059  0.1616
 4193SOL    HW124038   0.381   3.001   7.670 -1.6563  1.9343 -0.7506
 4193SOL    HW224039   0.263   3.054   7.745 -0.5297 -1.3266 -0.6207
 4194SOL     OW24040   3.461   1.643  11.205  0.3429  0.2135 -0.0769
 4194SOL    HW124041   3.449   1.548  11.196 -0.5258 -0.0920  4.2974
 4194SOL    HW224042   3.380   1.673  11.165  0.3033 -0.9608 -0.8790
 4195SOL     OW24043   0.348   0.055   3.188  0.2822 -0.4623 -0.1926
 4195SOL    HW124044   0.438   0.086   3.184  0.0440  0.4525  1.4521
 4195SOL    HW224045   0.360   0.005   3.269  0.7996  2.2351  1.4068
 4196SOL     OW24046   0.298   0.669   1.152 -0.1630  0.3020 -0.4427
 4196SOL    HW124047   0.329   0.583   1.125  0.2757  0.3931 -0.2169
 4196SOL    HW224048   0.338   0.683   1.237  0.5426  1.3828 -0.9477
 4197SOL     OW24049   3.671   3.069   5.463 -0.2152  0.0269 -0.7157
 4197SOL    HW124050   3.699   3.050   5.553 -0.2161 -3.1207 -1.3989
 4197SOL    HW224051   3.577   3.080   5.476  0.1621  2.8421 -0.2832
 4198SOL     OW24052   2.906   1.550   3.806  0.3238 -0.4382 -0.7000
 4198SOL    HW124053   2.969   1.584   3.743  0.8709  1.5372  0.9137
 4198SOL    HW224054   2.968   1.482   3.831  0.6506  1.2675  3.0685
 4199SOL     OW24055   4.709   0.089   4.648  0.4924 -0.2013 -0.0836
 4199SOL    HW124056   0.075   0.110   4.680  1.0765 -2.4584 -0.2249
 4199SOL    HW224057   4.661   0.143   4.710 -0.3565  1.6875 -2.3583
 4200SOL     OW24058   2.355   4.176  10.396 -0.4863  0.2812 -0.1585
 4200SOL    HW124059   2.300   4.122  10.339  1.4939 -0.8439 -1.0038
 4200SOL    HW224060   2.435   4.125  10.402 -1.1731 -0.7223  0.5137
 4201SOL     OW24061   2.364   3.462  12.704 -0.1039  0.5588  0.2059
 4201SOL    HW124062   2.404   3.403  12.641 -0.3156  1.4670 -0.7775
 4201SOL    HW224063   2.294   3.496  12.648 -0.1322  1.7454  0.9586
 4202SOL     OW24064   2.930   3.005  13.843 -0.5116  0.1952 -0.2864
 4202SOL    HW124065   2.894   3.010  13.931  1.2320  4.9979  0.1303
 4202SOL    HW224066   2.884   3.080  13.805 -0.1036  0.5324 -0.1123
 4203SOL     OW24067   0.427   3.831   8.128  0.2513 -0.2648  0.2073
 4203SOL    HW124068   0.514   3.871   8.138 -0.2115  0.9095 -0.4710
 4203SOL    HW224069   0.407   3.851   8.037 -1.3251  3.2108  1.3074
 4204SOL     OW24070   3.438   3.676  16.603  0.0596 -0.1102  0.2777
 4204SOL    HW124071   3.370   3.630  16.553  2.0305 -2.2027 -0.4645
 4204SOL    HW224072   3.395   3.760  16.615  0.5498 -0.1707  2.4540
 4205SOL     OW24073   2.117   2.535   8.626 -0.0222  0.3255  0.0122
 4205SOL    HW124074   2.199   2.507   8.585 -0.0012  2.5165 -1.4439
 4205SOL    HW224075   2.145   2.612   8.675  0.4253  1.2630 -1.7009
 4206SOL     OW24076   3.192   3.900   5.105  0.3614  0.3033  0.2191
 4206SOL    HW124077   3.224   3.990   5.113 -2.9815  1.5353 -0.3844
 4206SOL    HW224078   3.255   3.850   5.157  1.3344  0.0624 -1.1971
 4207SOL     OW24079   0.394   1.847   3.150  0.1729  0.3288  0.4368
 4207SOL    HW124080   0.480   1.890   3.152 -0.5136  1.7174 -0.0343
 4207SOL    HW224081   0.340   1.923   3.127  1.3373  0.6025 -1.3733
 4208SOL     OW24082   4.174   0.147   5.243 -0.0416 -0.1211  0.9246
 4208SOL    HW124083   4.151   0.100   5.323  0.3459 -0.1356  1.0317
 4208SOL    HW224084   4.227   0.221   5.273 -0.2723 -0.3361  1.8585
 4209SOL     OW24085   4.138   0.539  12.438 -0.1571 -0.3113 -0.2946
 4209SOL    HW124086   4.173   0.528  12.349  1.7432  0.5019  0.3492
 4209SOL    HW224087   4.080   0.614  12.427  0.7258  0.7394  2.3465
 4210SOL     OW24088   4.712   2.468   3.190  0.4881 -0.0066 -0.0006
 4210SOL    HW124089   4.673   2.393   3.146 -2.4609  2.0099 -0.7337
 4210SOL    HW224090   0.085   2.466   3.171  0.8192 -1.0636  1.6843
 4211SOL     OW24091   0.226   3.487  13.123  0.2630 -0.2613  0.5758
 4211SOL    HW124092   0.170   3.525  13.191  2.8576  1.1204  1.9209
 4211SOL    HW224093   0.163   3.462  13.056  1.6277 -0.0741 -0.7830
 4212SOL     OW24094   0.111   0.127   6.100  0.1249  0.3418 -0.7192
 4212SOL    HW124095   0.032   0.078   6.125 -0.8250  2.2646  0.0167
 4212SOL    HW224096   0.165   0.058   6.062  0.2176  0.6040 -1.0618
 4213SOL     OW24097   4.458   3.903   0.628  0.4683  0.0733 -0.6533
 4213SOL    HW124098   4.384   3.843   0.619 -0.3777  1.1705 -0.9092
 4213SOL    HW224099   4.526   3.837   0.642  0.5530  0.2105 -0.4250
 4214SOL     OW24100   4.586   3.969  17.467 -0.2937  0.1791  0.0707
 4214SOL    HW124101   4.530   4.003  17.398 -0.4963  1.6380  0.9500
 4214SOL    HW224102   4.523   3.950  17.537 -1.9913  2.1404 -0.9551
 4215SOL     OW24103   3.991   4.288  14.103 -0.0368 -0.2013  0.7133
 4215SOL    HW124104   4.082   4.309  14.082  0.2381  0.9272  2.9944
 4215SOL    HW224105   3.992   4.193  14.091 -1.1353  0.0976 -1.8854
 4216SOL     OW24106   1.960   2.841   6.529  0.2593 -0.3064 -0.3957
 4216SOL    HW124107   1.928   2.931   6.521  1.1922 -0.0272 -1.0046
 4216SOL    HW224108   1.998   2.822   6.443  1.7991 -0.6360  0.3552
 4217SOL     OW24109   2.422   1.968   5.594  0.2005  0.1328  0.2428
 4217SOL    HW124110   2.406   1.874   5.600  1.5481 -0.1732 -0.8076
 4217SOL    HW224111   2.496   1.985   5.652  1.0620  0.8893 -1.0836
 4218SOL     OW24112   3.127   3.533   2.970  0.2669 -0.1760  0.1013
 4218SOL    HW124113   3.204   3.545   3.024  0.3916 -1.2052  0.1487
 4218SOL    HW224114   3.093   3.461   3.023 -2.8154 -0.0894 -1.7009
 4219SOL     OW24115   2.767   0.873   3.176  0.1886  0.6720 -0.0449
 4219SOL    HW124116   2.817   0.945   3.213 -0.2828 -0.0014  1.9046
 4219SOL    HW224117   2.735   0.832   3.256 -1.8822  1.5824 -0.3978
 4220SOL     OW24118   1.208   3.027   4.728  0.1697 -0.4837 -0.1842
 4220SOL    HW124119   1.147   2.964   4.766 -0.0867 -0.2058 -0.1305
 4220SOL    HW224120   1.225   3.092   4.796 -2.2616 -1.0229  0.9359
 4221SOL     OW24121   1.309   0.772   3.712 -0.2388 -0.0697  0.1219
 4221SOL    HW124122   1.273   0.840   3.769  1.0012 -0.7118  1.6868
 4221SOL    HW224123   1.404   0.785   3.710  0.0384 -2.1501 -0.0421
 4222SOL     OW24124   3.979   3.725  12.783 -0.1524  0.1952 -0.4699
 4222SOL    HW124125   4.068   3.722  12.748 -0.3719  0.9578 -1.0984
 4222SOL    HW224126   3.924   3.677  12.721  2.3935  1.0157 -3.3359
 4223SOL     OW24127   0.047   2.222  13.139 -0.3403  0.0144 -0.1977
 4223SOL    HW124128   0.041   2.308  13.181 -1.2908 -0.1747  0.0465
 4223SOL    HW224129   4.699   2.231  13.075  1.4596 -3.2120 -2.5902
 4224SOL     OW24130   0.626   0.020   3.371 -0.2772 -0.0739 -0.5497
 4224SOL    HW124131   0.663   0.102   3.405 -0.3022 -0.3372  0.1030
 4224SOL    HW224132   0.588   4.706   3.451  0.5772  1.3881  0.5137
 4225SOL     OW24133   3.107   0.807  10.818  0.0233 -0.3369 -0.2834
 4225SOL    HW124134   3.100   0.874  10.886 -2.1582 -0.0323 -0.7946
 4225SOL    HW224135   3.202   0.810  10.816 -0.0073  0.7754 -0.2319
 4226SOL     OW24136   1.828   4.146   8.187 -0.4100  0.7493 -0.2433
 4226SOL    HW124137   1.778   4.227   8.177  1.8123  1.9571 -1.5107
 4226SOL    HW224138   1.772   4.094   8.246 -1.8417  2.5432 -0.0221
 4227SOL     OW24139   0.195   1.893   6.975  0.2200 -0.0343  0.3172
 4227SOL    HW124140   0.266   1.952   6.950  1.1435 -1.8965 -1.3708
 4227SOL    HW224141   0.245   1.814   6.995 -0.3978 -0.0671  1.7302
 4228SOL     OW24142   3.856   0.765   8.999 -0.6783  0.2206  0.0721
 4228SOL    HW124143   3.904   0.813   9.067 -1.4713 -0.8671  1.4186
 4228SOL    HW224144   3.787   0.824   8.967  0.3882  0.0409 -2.5251
 4229SOL     OW24145   2.259   3.139   2.031 -0.0727  0.3161 -0.3968
 4229SOL    HW124146   2.203   3.159   2.106 -2.3361  2.2833 -2.6163
 4229SOL    HW224147   2.207   3.103   1.959  0.4694 -1.8135  0.2668
 4230SOL     OW24148   1.791   3.280   8.361 -0.3895  0.0286  0.1135
 4230SOL    HW124149   1.850   3.355   8.352 -1.2480  0.4011 -2.3738
 4230SOL    HW224150   1.744   3.285   8.278 -2.0252 -1.0303  0.9788
 4231SOL     OW24151   3.490   3.070   7.673  0.2909  0.4900  0.3358
 4231SOL    HW124152   3.538   3.121   7.739  0.7262  0.7355 -0.1702
 4231SOL    HW224153   3.533   2.985   7.680 -1.1780 -0.1966  1.2569
 4232SOL     OW24154   2.293   3.479   6.703 -0.0407  0.5842 -0.0873
 4232SOL    HW124155   2.388   3.489   6.712  0.1202  0.6254 -1.8646
 4232SOL    HW224156   2.273   3.454   6.793  1.9462  3.0024  1.0451
 4233SOL     OW24157   1.346   3.613   0.977  0.0985  0.4575  0.0786
 4233SOL    HW124158   1.321   3.705   0.977  0.5103  0.5725  0.8834
 4233SOL    HW224159   1.256   3.582   0.984 -0.5270  1.8377 -1.8819
 4234SOL     OW24160   4.694   2.226   2.290 -0.7966  0.0100  0.1736
 4234SOL    HW124161   4.681   2.187   2.204  1.4331 -2.7780  1.1131
 4234SOL    HW224162   0.067   2.215   2.301 -0.4360  0.8250 -2.0484
 4235SOL     OW24163   3.431   3.667   8.962 -0.5816  0.3229  0.0512
 4235SOL    HW124164   3.412   3.652   9.055 -0.0205  0.9289  0.2618
 4235SOL    HW224165   3.484   3.587   8.955 -0.1916  0.5767  0.0659
 4236SOL     OW24166   2.716   2.569   9.978  0.0797 -0.5470  0.3179
 4236SOL    HW124167   2.764   2.488   9.964  1.4857  0.4243 -0.5650
 4236SOL    HW224168   2.740   2.615   9.897 -0.7507  0.8109  0.8449
 4237SOL     OW24169   2.857   2.136   9.758  0.1838 -0.0687  0.2966
 4237SOL    HW124170   2.814   2.089   9.830 -0.4609 -0.1545 -0.1565
 4237SOL    HW224171   2.774   2.155   9.714  0.3640  3.5212  1.4586
 4238SOL     OW24172   2.976   4.567  15.990  0.1679  0.5599 -0.4701
 4238SOL    HW124173   2.973   4.481  16.032  1.5396 -1.2718 -4.1157
 4238SOL    HW224174   2.892   4.596  16.027 -0.8090 -2.6535 -0.1119
 4239SOL     OW24175   1.378   3.748   2.734 -0.1242  0.1374 -0.0468
 4239SOL    HW124176   1.421   3.700   2.804 -1.4602  0.4903  0.9972
 4239SOL    HW224177   1.305   3.801   2.766  0.1118  0.4460 -0.0161
 4240SOL     OW24178   1.869   0.855   5.086 -0.0181 -0.0760 -0.3662
 4240SOL    HW124179   1.913   0.939   5.073  1.7728 -0.8933  0.4229
 4240SOL    HW224180   1.782   0.890   5.104  0.3996  0.2564  0.9641
 4241SOL     OW24181   3.336   3.336   4.027 -0.1225  0.4751 -0.2425
 4241SOL    HW124182   3.364   3.390   4.100 -0.1756 -1.3861  1.1588
 4241SOL    HW224183   3.417   3.297   3.995  0.6695  1.6105  0.3987
 4242SOL     OW24184   3.109   2.155  11.097  0.3125  0.9248 -0.1411
 4242SOL    HW124185   3.115   2.142  11.002  0.1082  1.4897 -0.2315
 4242SOL    HW224186   3.056   2.078  11.120 -0.2429  1.0118 -1.1394
 4243SOL     OW24187   2.147   1.437   3.349 -0.0921 -0.2163  0.3191
 4243SOL    HW124188   2.207   1.505   3.319 -0.9608  0.9329  1.1597
 4243SOL    HW224189   2.179   1.413   3.436  0.3088 -0.1830  0.1777
 4244SOL     OW24190   3.335   3.740  14.848  0.4875 -0.0117  0.0966
 4244SOL    HW124191   3.423   3.704  14.847  0.3363 -0.4065  1.1535
 4244SOL    HW224192   3.281   3.694  14.912  2.7393  0.3248  2.2354
 4245SOL     OW24193   3.222   0.627   1.808  0.5842 -0.0076 -0.1414
 4245SOL    HW124194   3.177   0.670   1.735  0.3944 -0.4399 -0.2775
 4245SOL    HW224195   3.249   0.701   1.863  2.9889 -0.2317 -1.0208
 4246SOL     OW24196   0.314   4.339   3.595  0.0510 -0.2635  0.1269
 4246SOL    HW124197   0.322   4.249   3.626 -0.2904 -0.1373  0.5879
 4246SOL    HW224198   0.230   4.338   3.549  0.3059  1.5057 -0.3966
 4247SOL     OW24199   1.013   0.657   6.418 -0.4304 -0.0750  0.3025
 4247SOL    HW124200   1.010   0.752   6.434  3.1950 -0.1309  1.3579
 4247SOL    HW224201   0.982   0.662   6.327  3.7017  2.1693 -0.9825
 4248SOL     OW24202   2.876   4.233   6.809  0.5799  0.1993  0.0469
 4248SOL    HW124203   2.900   4.293   6.880 -0.4010 -0.9057  1.3088
 4248SOL    HW224204   2.938   4.161   6.816  2.8400  2.3445  2.2745
 4249SOL     OW24205   4.087   3.290   0.728  0.1796 -0.1419  0.2207
 4249SOL    HW124206   4.060   3.288   0.637  1.6017  0.3192 -0.2092
 4249SOL    HW224207   4.125   3.378   0.726 -0.5164  0.0794 -2.6375
 4250SOL     OW24208   3.595   0.972   2.030 -0.4890  0.4660  0.3223
 4250SOL    HW124209   3.566   0.908   1.965  1.3260 -1.7463  1.7322
 4250SOL    HW224210   3.664   1.025   1.991  0.9836 -0.7173  1.3344
 4251SOL     OW24211   0.739   2.021   3.721 -0.1451 -0.1377  0.3156
 4251SOL    HW124212   0.792   2.070   3.658  0.4972  0.3443  1.2497
 4251SOL    HW224213   0.646   2.033   3.701  0.3451  0.0560 -1.8723
 4252SOL     OW24214   1.150   0.181   8.958 -0.0707 -0.0480 -0.6157
 4252SOL    HW124215   1.185   0.244   8.895  3.0721 -0.6680  0.4821
 4252SOL    HW224216   1.161   0.233   9.038  0.6393  0.3088 -0.9426
 4253SOL     OW24217   2.107   3.224   6.364 -0.2703  0.2327 -0.2143
 4253SOL    HW124218   2.144   3.136   6.355  2.3474  1.1899  1.0720
 4253SOL    HW224219   2.067   3.218   6.451  3.4919 -0.2821  1.4790
 4254SOL     OW24220   1.215   3.113   8.697 -0.2469  0.1072 -0.2063
 4254SOL    HW124221   1.186   3.042   8.754 -1.3043  1.0915  0.5006
 4254SOL    HW224222   1.205   3.185   8.760 -3.8098 -0.8130  0.2873
 4255SOL     OW24223   3.966   0.351  11.768  0.1356 -0.4371 -0.4844
 4255SOL    HW124224   4.034   0.414  11.742 -0.8283 -0.1896 -2.4127
 4255SOL    HW224225   3.978   0.351  11.863 -0.7075 -0.8271 -0.3762
 4256SOL     OW24226   1.810   1.862   8.164  0.1766  0.5754  0.5892
 4256SOL    HW124227   1.859   1.888   8.241 -0.0464  1.1744  0.5329
 4256SOL    HW224228   1.796   1.954   8.142  1.4079  0.4880 -0.5160
 4257SOL     OW24229   4.137   3.613   8.160 -0.0632 -0.2901  0.3491
 4257SOL    HW124230   4.070   3.552   8.130 -0.4972  1.0152 -1.2764
 4257SOL    HW224231   4.203   3.544   8.166 -1.8468 -1.8035  2.5448
 4258SOL     OW24232   1.050   3.398  11.570 -0.2278  0.3193 -0.0878
 4258SOL    HW124233   1.054   3.406  11.474  0.1379 -0.1689 -0.1116
 4258SOL    HW224234   0.983   3.330  11.566 -0.5038  0.6102 -0.4210
 4259SOL     OW24235   3.776   3.044  14.122 -0.5127 -0.3061  0.2383
 4259SOL    HW124236   3.703   3.079  14.069  0.5231 -0.7308 -1.4638
 4259SOL    HW224237   3.768   3.109  14.193  1.2458  0.8225 -0.5942
 4260SOL     OW24238   3.040   4.463   3.631  0.4630 -0.3003 -0.2132
 4260SOL    HW124239   3.067   4.398   3.696  0.4861  0.3775  0.4582
 4260SOL    HW224240   3.127   4.482   3.597  0.1623  2.6340  0.6738
 4261SOL     OW24241   3.199   3.789  16.658 -0.3190 -0.0372 -0.3257
 4261SOL    HW124242   3.194   3.777  16.753  0.8511 -2.4592 -0.5806
 4261SOL    HW224243   3.126   3.851  16.659 -0.5954 -0.3601 -0.7073
 4262SOL     OW24244   3.478   2.005   7.290 -0.2540  0.1098 -0.5344
 4262SOL    HW124245   3.474   1.948   7.213  2.2046 -0.0795 -0.5494
 4262SOL    HW224246   3.463   1.948   7.366 -1.3675  1.9157  0.5808
 4263SOL     OW24247   2.569   1.904   3.353 -0.1608  0.3427  0.1696
 4263SOL    HW124248   2.515   1.940   3.283  1.5312  4.0068  0.7384
 4263SOL    HW224249   2.642   1.873   3.299 -0.0963  4.0619 -1.8934
 4264SOL     OW24250   2.585   1.751  17.602 -0.2275  0.1061 -0.4297
 4264SOL    HW124251   2.665   1.722  17.557  0.0093  0.0791  0.0103
 4264SOL    HW224252   2.519   1.698  17.559 -1.4674  0.6710  0.7923
 4265SOL     OW24253   0.864   2.546   4.997  0.0185 -0.4030 -0.0304
 4265SOL    HW124254   0.932   2.479   5.007 -1.3976 -2.1840 -2.1258
 4265SOL    HW224255   0.828   2.516   4.913 -1.2949 -0.8367  0.6725
 4266SOL     OW24256   3.016   1.583   3.071 -0.4179 -0.1382 -0.1066
 4266SOL    HW124257   3.070   1.628   3.007  0.0055 -0.3588  0.0938
 4266SOL    HW224258   3.041   1.624   3.154  1.1087  0.2548 -0.7740
 4267SOL     OW24259   1.183   2.662   8.845 -0.3598  0.0827 -0.0782
 4267SOL    HW124260   1.227   2.652   8.929 -0.0188  0.9664 -0.1508
 4267SOL    HW224261   1.164   2.572   8.821 -1.1131  1.0215 -2.9992
 4268SOL     OW24262   4.605   4.652   4.117 -0.0386  0.0618 -0.4263
 4268SOL    HW124263   4.597   4.715   4.188 -0.7323 -0.7515  0.2139
 4268SOL    HW224264   4.516   4.617   4.113  0.3372 -0.7776 -1.5139
 4269SOL     OW24265   2.177   2.505   0.750  0.5890 -0.2795 -0.3104
 4269SOL    HW124266   2.194   2.593   0.783 -2.8685  0.1309  0.4290
 4269SOL    HW224267   2.163   2.523   0.657 -0.3118 -1.6477 -0.4471
 4270SOL     OW24268   1.763   2.963  11.469  0.4347 -0.0851 -0.1479
 4270SOL    HW124269   1.726   3.026  11.407 -2.4605 -3.2468 -1.6167
 4270SOL    HW224270   1.708   2.971  11.547 -0.9291  0.2125 -1.1365
 4271SOL     OW24271   3.445   1.917   5.379 -0.1103  0.4218 -0.2013
 4271SOL    HW124272   3.358   1.931   5.416 -1.4064 -0.2340 -3.0181
 4271SOL    HW224273   3.477   1.999   5.341 -2.2130  0.4217 -1.9236
 4272SOL     OW24274   3.155   2.649  15.287 -0.5763  0.2931  0.4639
 4272SOL    HW124275   3.096   2.577  15.266  0.6187 -0.4029 -0.4820
 4272SOL    HW224276   3.215   2.644  15.213  0.2692 -1.4271  1.2760
 4273SOL     OW24277   0.119   2.280   4.263  0.3654  0.1542 -0.0172
 4273SOL    HW124278   0.116   2.314   4.353  1.3309  2.1715 -0.7279
 4273SOL    HW224279   0.080   2.356   4.219 -0.1696  0.7174  1.4180
 4274SOL     OW24280   0.901   1.791  14.711  0.7953 -0.2158 -0.0716
 4274SOL    HW124281   0.862   1.712  14.673 -1.4435  0.8214  0.0807
 4274SOL    HW224282   0.902   1.773  14.805  0.5454  0.0943 -0.0090
 4275SOL     OW24283   3.772   3.838   7.293  0.0434 -0.2311  0.0057
 4275SOL    HW124284   3.859   3.871   7.271 -0.4765  1.3956  0.3878
 4275SOL    HW224285   3.785   3.834   7.387 -0.6981 -3.4232 -0.0504
 4276SOL     OW24286   0.836   0.701   7.246  0.3310 -0.6848  0.7316
 4276SOL    HW124287   0.854   0.749   7.328 -0.1734  0.9130 -0.0829
 4276SOL    HW224288   0.854   0.611   7.273  0.7768 -0.5901  0.7453
 4277SOL     OW24289   1.629   2.415   5.519 -0.2567 -0.5968  0.9840
 4277SOL    HW124290   1.550   2.367   5.542 -0.8061 -1.1081 -1.8852
 4277SOL    HW224291   1.610   2.509   5.520 -1.3019 -0.7992  0.2717
 4278SOL     OW24292   2.381   4.289   1.660 -0.0015  0.2374  0.4172
 4278SOL    HW124293   2.295   4.313   1.626  0.1684 -0.3579 -0.4500
 4278SOL    HW224294   2.444   4.360   1.646  0.3908 -0.2004 -0.0707
 4279SOL     OW24295   2.021   0.868  15.378 -0.1558 -0.0452  0.0003
 4279SOL    HW124296   2.073   0.790  15.398 -0.7501 -0.6678 -0.9035
 4279SOL    HW224297   2.093   0.919  15.341  1.1445 -2.0260 -0.2151
 4280SOL     OW24298   3.955   0.069  15.134  0.1089  0.1425 -0.2360
 4280SOL    HW124299   3.870   0.063  15.089 -0.3097 -1.5144  0.7684
 4280SOL    HW224300   3.965   4.703  15.172 -1.4794 -0.3131 -0.8596
 4281SOL     OW24301   4.542   0.506  14.939 -0.1186  0.0598 -0.0947
 4281SOL    HW124302   4.467   0.446  14.940  0.0397 -0.1356  1.4823
 4281SOL    HW224303   4.610   0.445  14.969 -1.9152 -1.2019  1.3627
 4282SOL     OW24304   2.352   1.854  10.416 -0.1189 -0.5659  0.0676
 4282SOL    HW124305   2.270   1.902  10.418  1.8980  2.7921  2.9020
 4282SOL    HW224306   2.375   1.854  10.323  2.0773 -1.7041  0.5894
 4283SOL     OW24307   1.014   0.771   1.710 -0.2399 -0.5146  0.1962
 4283SOL    HW124308   1.005   0.800   1.620 -2.6028  2.0127  1.2604
 4283SOL    HW224309   0.959   0.829   1.762 -0.8655 -1.8129  0.9958
 4284SOL     OW24310   0.907   0.204  13.926 -0.1045  0.1684 -0.1440
 4284SOL    HW124311   0.875   0.179  14.013  1.3574 -2.3378 -0.3260
 4284SOL    HW224312   0.895   0.123  13.876 -0.0132  0.0775 -0.0163
 4285SOL     OW24313   3.863   3.664   7.944 -0.1321 -1.1425  0.0818
 4285SOL    HW124314   3.827   3.663   8.033  0.6754  2.7183  0.4639
 4285SOL    HW224315   3.815   3.590   7.907 -1.5130 -0.6794  0.9538
 4286SOL     OW24316   1.698   4.627  11.345 -0.6180  0.0691 -0.0359
 4286SOL    HW124317   1.703   4.697  11.410 -2.1589 -0.0923  0.2574
 4286SOL    HW224318   1.778   4.583  11.373  0.2920  1.5058 -0.3785
 4287SOL     OW24319   3.254   1.872   3.050  0.1128 -0.2078  0.5474
 4287SOL    HW124320   3.339   1.914   3.060 -0.5310  1.6726 -1.9323
 4287SOL    HW224321   3.264   1.844   2.959 -1.0947 -1.3431  0.7634
 4288SOL     OW24322   2.379   4.621   0.084 -0.2928  0.0904 -0.0070
 4288SOL    HW124323   2.428   4.602   0.164  0.0305  0.3267 -0.1487
 4288SOL    HW224324   2.368   4.529   0.058  0.2843  0.0567 -0.1297
 4289SOL     OW24325   1.590   0.246   2.991  0.5140 -0.3088 -0.1917
 4289SOL    HW124326   1.596   0.315   2.924 -1.0458  1.0447  1.0640
 4289SOL    HW224327   1.528   0.293   3.047  1.5293 -0.8129  1.3527
 4290SOL     OW24328   2.731   0.782   2.408  0.0300 -0.2031  0.0218
 4290SOL    HW124329   2.673   0.789   2.484  0.5373  0.9927  0.2910
 4290SOL    HW224330   2.764   0.871   2.396 -2.3654  0.8387  0.9789
 4291SOL     OW24331   0.500   1.609   6.860  0.4404 -0.2347 -0.6554
 4291SOL    HW124332   0.426   1.626   6.919  1.8628 -0.0512  1.0771
 4291SOL    HW224333   0.460   1.635   6.777 -3.7960  1.1011  1.7819
 4292SOL     OW24334   2.901   0.425   4.808  0.4575  0.9777 -0.0407
 4292SOL    HW124335   2.860   0.350   4.851  1.5547  0.7890  0.6725
 4292SOL    HW224336   2.932   0.477   4.882  1.5968 -1.0554  0.9064
 4293SOL     OW24337   3.535   3.401   7.112  0.0769 -0.0196  0.3026
 4293SOL    HW124338   3.440   3.409   7.126  0.2667  1.4117  0.7285
 4293SOL    HW224339   3.544   3.308   7.091 -0.3654 -0.2554  1.1433
 4294SOL     OW24340   4.142   3.108  15.882 -0.9327 -0.8643 -0.4866
 4294SOL    HW124341   4.188   3.091  15.800  0.8047 -0.5564  0.4343
 4294SOL    HW224342   4.137   3.016  15.908 -1.9328 -0.3730  1.0604
 4295SOL     OW24343   3.780   0.947   8.138 -0.1509 -0.2143 -0.0477
 4295SOL    HW124344   3.767   1.027   8.189  1.8990 -1.1378  1.9462
 4295SOL    HW224345   3.819   0.899   8.211 -3.6874  1.5527  2.9970
 4296SOL     OW24346   2.466   3.601   7.012  0.3020 -0.1963 -0.1559
 4296SOL    HW124347   2.547   3.646   7.036 -0.9237  0.7630  2.1652
 4296SOL    HW224348   2.427   3.669   6.957  1.2456  0.8393  0.4558
 4297SOL     OW24349   2.280   4.051   6.263 -0.4236 -0.2604  0.2877
 4297SOL    HW124350   2.194   4.081   6.233 -0.5695  0.2259  1.1930
 4297SOL    HW224351   2.333   4.130   6.253 -3.1415  1.6361  0.6278
 4298SOL     OW24352   2.406   2.895   6.016  0.2422  0.1761 -0.2331
 4298SOL    HW124353   2.383   2.914   5.925 -1.7137 -0.3540  0.1488
 4298SOL    HW224354   2.398   2.976   6.067  1.4304  1.4380 -2.0437
 4299SOL     OW24355   1.562   0.055   6.924 -0.7286  0.3330  0.5572
 4299SOL    HW124356   1.485   0.006   6.952 -2.0612 -0.1873 -3.9647
 4299SOL    HW224357   1.584   0.012   6.842 -2.5078 -0.9595  0.7664
 4300SOL     OW24358   1.169   3.672   2.971 -0.5806 -0.3986 -0.4014
 4300SOL    HW124359   1.204   3.761   2.972 -2.3057  0.3034 -2.2048
 4300SOL    HW224360   1.188   3.640   3.059  0.9275  1.9339  0.1067
 4301SOL     OW24361   3.021   0.045   2.137 -0.4063 -0.2673  0.4458
 4301SOL    HW124362   3.116   0.051   2.147 -0.2065  1.5129 -2.1994
 4301SOL    HW224363   3.009   0.081   2.049 -5.1725 -2.2330  0.3103
 4302SOL     OW24364   1.303   2.636  16.856  0.0163  0.7843 -0.1811
 4302SOL    HW124365   1.371   2.577  16.889 -0.9628  0.0598  0.5329
 4302SOL    HW224366   1.361   2.696  16.810  1.1054  0.5684  0.9077
 4303SOL     OW24367   1.426   0.614   5.169  0.1015 -0.5375  0.4202
 4303SOL    HW124368   1.454   0.607   5.078 -2.0081 -1.0456 -0.1887
 4303SOL    HW224369   1.400   0.523   5.182  0.1526 -0.5339  0.5469
 4304SOL     OW24370   0.977   0.082   2.449 -0.1504 -0.0665 -0.4104
 4304SOL    HW124371   0.959   0.168   2.411 -0.9645  0.1311  0.4255
 4304SOL    HW224372   1.029   0.100   2.528 -2.0117  1.1019  0.5347
 4305SOL     OW24373   3.654   2.243  10.151 -0.0606 -0.0987 -0.4837
 4305SOL    HW124374   3.671   2.267  10.059  1.5438  0.1044 -0.1439
 4305SOL    HW224375   3.612   2.159  10.134  1.3085 -1.2126  1.6306
 4306SOL     OW24376   2.433   2.738   2.855 -0.3550 -0.3478  0.1632
 4306SOL    HW124377   2.459   2.647   2.842  2.0762  0.3601  0.0517
 4306SOL    HW224378   2.508   2.777   2.900 -0.9284 -2.8957  3.3388
 4307SOL     OW24379   2.565   2.205  15.375  0.0563  0.5351 -0.4678
 4307SOL    HW124380   2.523   2.176  15.294 -0.5800  0.7732 -0.2247
 4307SOL    HW224381   2.492   2.239  15.426  0.3973 -0.4999  0.7076
 4308SOL     OW24382   2.699   4.521  16.779  0.1474  0.4249 -0.2310
 4308SOL    HW124383   2.723   4.488  16.692  0.6375  1.2454 -0.4000
 4308SOL    HW224384   2.667   4.439  16.816  1.7343 -0.0774  0.0274
 4309SOL     OW24385   2.360   1.596  11.619  0.4608  0.6132 -0.2083
 4309SOL    HW124386   2.323   1.531  11.679  1.5292 -0.8078 -1.1032
 4309SOL    HW224387   2.276   1.627  11.584  0.4049 -0.1977 -0.7855
 4310SOL     OW24388   4.665   4.718  12.170 -0.2490 -0.0264  0.5024
 4310SOL    HW124389   4.634   4.628  12.167  0.4924 -0.2263 -1.4000
 4310SOL    HW224390   4.692   0.009  12.079  1.1161 -0.8120  0.8076
 4311SOL     OW24391   0.579   2.222  17.470  0.0817 -0.1173  1.0440
 4311SOL    HW124392   0.642   2.286  17.437 -0.3858  0.6210  1.5690
 4311SOL    HW224393   0.629   2.161  17.523  3.2241  0.1427 -1.5989
 4312SOL     OW24394   0.021   2.005   4.529  0.3808  0.3371  0.3289
 4312SOL    HW124395   4.720   2.011   4.437  2.4123 -0.1921 -0.1979
 4312SOL    HW224396   0.084   2.077   4.532  0.1641  0.4743  1.6466
 4313SOL     OW24397   0.752   3.489   2.238  0.0145  0.7248 -0.1166
 4313SOL    HW124398   0.747   3.578   2.203 -0.6634  0.4890 -0.6222
 4313SOL    HW224399   0.693   3.501   2.312 -0.2617 -0.1021 -0.1981
 4314SOL     OW24400   2.836   0.443   6.693  0.3214  0.6700 -0.1109
 4314SOL    HW124401   2.909   0.437   6.755 -0.5949  0.0522  0.9042
 4314SOL    HW224402   2.865   0.474   6.607 -0.8498 -0.8520 -1.0545
 4315SOL     OW24403   2.446   2.779   3.705  0.3148 -0.2150 -0.2102
 4315SOL    HW124404   2.436   2.705   3.646 -1.7898 -0.7524  0.8125
 4315SOL    HW224405   2.523   2.753   3.757 -0.0918 -1.8193 -0.4197
 4316SOL     OW24406   2.332   2.071   1.654 -0.2838 -0.4858 -0.4220
 4316SOL    HW124407   2.324   2.102   1.564  3.2978 -0.3403 -0.6674
 4316SOL    HW224408   2.250   2.103   1.691 -0.2915 -1.0809  0.0818
 4317SOL     OW24409   1.723   3.201   4.901 -0.4885 -0.7106 -0.4352
 4317SOL    HW124410   1.627   3.202   4.905 -0.4428 -0.3574  0.4777
 4317SOL    HW224411   1.746   3.232   4.988  0.7354 -0.7151 -0.7472
 4318SOL     OW24412   0.302   3.472   5.372  0.1324 -0.0302 -0.6251
 4318SOL    HW124413   0.277   3.426   5.452  1.0117  1.0550  0.2661
 4318SOL    HW224414   0.361   3.412   5.328  0.5473 -1.4602  1.8763
 4319SOL     OW24415   2.093   2.765   2.105  0.4061 -0.2941 -0.0560
 4319SOL    HW124416   2.039   2.842   2.122  3.1051  1.4071  0.8241
 4319SOL    HW224417   2.160   2.771   2.173 -1.0123  2.0422  1.0996
 4320SOL     OW24418   0.306   3.740   4.093 -0.2965  0.1090 -0.0531
 4320SOL    HW124419   0.361   3.697   4.027 -2.5356 -3.1761  0.1984
 4320SOL    HW224420   0.315   3.669   4.157 -0.5299  0.2054  0.0882
 4321SOL     OW24421   3.629   3.370   6.296  0.0943 -0.7936  0.5842
 4321SOL    HW124422   3.551   3.369   6.351 -0.8221  1.3341 -0.6717
 4321SOL    HW224423   3.595   3.343   6.210  1.7201  1.1970 -0.7011
 4322SOL     OW24424   1.989   1.778   2.467 -0.0025  0.3709  0.6150
 4322SOL    HW124425   1.920   1.838   2.438  0.0148  1.4338  2.8103
 4322SOL    HW224426   1.975   1.696   2.418  0.8865  2.4167 -3.0327
 4323SOL     OW24427   3.307   0.121  15.611 -0.3965  0.0738  0.5874
 4323SOL    HW124428   3.265   0.162  15.686  0.6046  1.9615  0.1211
 4323SOL    HW224429   3.335   0.198  15.562  1.4629 -0.3602  0.9663
 4324SOL     OW24430   2.099   2.053   4.261 -0.0513 -0.2190  0.2889
 4324SOL    HW124431   2.012   2.069   4.223  0.7165 -1.3905 -1.9521
 4324SOL    HW224432   2.090   2.036   4.355 -0.8173 -1.6049 -0.0393
 4325SOL     OW24433   3.990   3.059  17.556  0.3520  0.1041  0.5622
 4325SOL    HW124434   3.904   3.022  17.577  1.7922 -2.2225  2.4342
 4325SOL    HW224435   3.995   3.049  17.461  0.3495 -0.5450  0.6298
 4326SOL     OW24436   1.950   3.299   0.325  0.0182  0.4577  0.0267
 4326SOL    HW124437   1.946   3.247   0.405 -0.5665  1.0263  0.3698
 4326SOL    HW224438   2.029   3.272   0.278  0.5088  0.5026  0.8310
 4327SOL     OW24439   4.619   4.617   5.518 -0.1352  0.2774 -0.5893
 4327SOL    HW124440   4.683   4.637   5.450  1.7307  0.1044  1.1039
 4327SOL    HW224441   4.543   4.674   5.505 -0.4960  0.7173  3.2095
 4328SOL     OW24442   0.443   4.235   6.310  0.2603 -0.0838  0.7024
 4328SOL    HW124443   0.431   4.145   6.278 -1.0618  0.8144 -1.3295
 4328SOL    HW224444   0.435   4.210   6.402 -1.6031 -0.1135  0.5426
 4329SOL     OW24445   3.354   3.821  12.997  0.1881  0.4625 -0.2086
 4329SOL    HW124446   3.422   3.803  13.062  0.8942 -1.0945 -1.3786
 4329SOL    HW224447   3.276   3.774  13.028  1.2997 -0.6740  0.8264
 4330SOL     OW24448   0.418   3.953   6.273 -0.2040 -0.2679 -0.7193
 4330SOL    HW124449   0.478   3.900   6.220  0.0510  2.1390 -2.8307
 4330SOL    HW224450   0.366   3.883   6.311  0.4628 -0.8574 -0.8850
 4331SOL     OW24451   0.014   0.470   5.062  0.0353  0.0867  0.5223
 4331SOL    HW124452   0.004   0.565   5.055 -0.8086  0.0087  0.6028
 4331SOL    HW224453   0.058   0.468   5.147 -0.9945 -2.1290  1.0031
 4332SOL     OW24454   2.377   1.759   4.349  0.1981 -0.0527 -0.1984
 4332SOL    HW124455   2.300   1.760   4.291  0.2526 -0.7298 -0.2707
 4332SOL    HW224456   2.338   1.765   4.437 -2.2362  0.5459 -1.3173
 4333SOL     OW24457   1.293   1.558   8.912  0.1635 -0.1138 -0.6204
 4333SOL    HW124458   1.337   1.563   8.996 -0.8396 -1.3951 -0.0189
 4333SOL    HW224459   1.241   1.481   8.931 -2.8621  2.7924  2.7247
 4334SOL     OW24460   0.089   1.596  16.847 -0.3636  0.1566  0.1960
 4334SOL    HW124461   0.110   1.605  16.940  0.9049  2.5712 -0.3210
 4334SOL    HW224462   4.721   1.626  16.835  0.2227  2.0502  0.6276
 4335SOL     OW24463   1.519   3.280   5.627  0.2766  0.1288  0.4615
 4335SOL    HW124464   1.494   3.247   5.713 -0.8672  0.5257  0.2766
 4335SOL    HW224465   1.488   3.370   5.613 -2.9991 -1.1973 -0.7541
 4336SOL     OW24466   2.844   2.990  13.107  0.2285 -0.3583  0.0219
 4336SOL    HW124467   2.798   2.935  13.045 -0.7165 -0.0884  0.4920
 4336SOL    HW224468   2.776   3.039  13.154 -0.1846 -0.5336 -0.4065
 4337SOL     OW24469   3.562   3.794  14.176  0.2798  0.4550  0.2497
 4337SOL    HW124470   3.483   3.811  14.125 -0.1255 -4.7667 -0.9338
 4337SOL    HW224471   3.521   3.791  14.262 -1.6110 -0.9822 -0.7068
 4338SOL     OW24472   3.648   3.380   5.077 -0.1240  0.0526 -0.1660
 4338SOL    HW124473   3.643   3.430   4.996  2.0616 -2.0281 -1.5999
 4338SOL    HW224474   3.557   3.350   5.079  0.6596 -2.2712  1.3043
 4339SOL     OW24475   1.207   3.214   4.512  0.1296  0.0570  0.0352
 4339SOL    HW124476   1.132   3.273   4.514 -2.2855 -2.9873 -1.2765
 4339SOL    HW224477   1.201   3.182   4.602 -2.4124  1.6942  0.4431
 4340SOL     OW24478   4.253   1.296   5.741  0.7704 -0.4481 -0.3257
 4340SOL    HW124479   4.194   1.357   5.697 -2.2055 -2.4096  0.8922
 4340SOL    HW224480   4.199   1.219   5.758  1.8672 -0.7915  1.5760
 4341SOL     OW24481   0.945   3.347   1.276 -0.3626  0.6894 -0.6463
 4341SOL    HW124482   0.925   3.301   1.358 -0.7963  1.1647 -0.4866
 4341SOL    HW224483   0.918   3.283   1.210  1.5985 -1.1342  0.2867
 4342SOL     OW24484   2.328   1.046   3.808  0.0369  0.3215 -0.4632
 4342SOL    HW124485   2.333   0.967   3.862 -1.3795  1.1171  0.8262
 4342SOL    HW224486   2.338   1.110   3.878 -2.3194  0.0556  0.1408
 4343SOL     OW24487   2.087   3.367   2.436  0.2550 -0.4391  0.3340
 4343SOL    HW124488   2.017   3.409   2.485 -0.2980  1.0266 -1.7309
 4343SOL    HW224489   2.067   3.277   2.462 -3.2236  0.3779  0.4584
 4344SOL     OW24490   4.482   0.351   6.917  0.0876 -0.0788 -0.1379
 4344SOL    HW124491   4.514   0.264   6.940 -0.0733 -0.4047 -1.1348
 4344SOL    HW224492   4.490   0.395   7.002 -0.3189  0.7566 -0.5328
 4345SOL     OW24493   0.328   0.309   3.342 -0.1086 -0.1180  0.0193
 4345SOL    HW124494   0.244   0.306   3.388  0.5119  1.0105  1.2368
 4345SOL    HW224495   0.319   0.228   3.293  1.0701 -0.7752  0.8950
 4346SOL     OW24496   0.988   3.947   3.526  0.6988 -0.2797  0.2910
 4346SOL    HW124497   1.071   3.977   3.488  0.0621  2.5094  1.1107
 4346SOL    HW224498   0.945   3.917   3.445 -0.4629  0.8389  0.4891
 4347SOL     OW24499   1.432   2.084   9.939  0.0090 -0.1051 -0.2960
 4347SOL    HW124500   1.497   2.079  10.009  1.2141  2.5334 -1.2055
 4347SOL    HW224501   1.406   2.175   9.954 -2.3694 -0.7204 -0.6717
 4348SOL     OW24502   2.883   4.668  13.602  0.1198 -0.2085  0.0323
 4348SOL    HW124503   2.906   4.682  13.694  0.3887  0.1953 -0.0975
 4348SOL    HW224504   2.825   4.593  13.615  0.0707 -0.1489  0.1603
 4349SOL     OW24505   1.477   2.255   7.843  0.5098 -0.2348 -0.2215
 4349SOL    HW124506   1.565   2.293   7.844  0.9799 -1.3076 -1.0931
 4349SOL    HW224507   1.433   2.324   7.795  2.1611  0.7791 -0.2851
 4350SOL     OW24508   3.165   2.781  15.517  0.1796 -0.5434 -0.0540
 4350SOL    HW124509   3.153   2.734  15.434  1.3319 -1.7532  0.4636
 4350SOL    HW224510   3.246   2.828  15.502  0.6751 -0.8872  1.5400
 4351SOL     OW24511   1.192   2.485   8.193  0.3543 -0.2520  0.4276
 4351SOL    HW124512   1.209   2.544   8.120  0.9952 -1.3274 -0.2998
 4351SOL    HW224513   1.251   2.414   8.167  1.1980  0.1770  1.1874
 4352SOL     OW24514   1.452   4.594   9.197  0.2529 -0.2582 -0.2657
 4352SOL    HW124515   1.458   4.613   9.291  1.1369 -0.2700 -0.3239
 4352SOL    HW224516   1.541   4.610   9.167 -0.4630  1.5020 -1.4775
 4353SOL     OW24517   4.666   4.461   5.221 -0.6079  0.1229  0.0075
 4353SOL    HW124518   4.706   4.472   5.135 -0.7094  1.9429  0.1964
 4353SOL    HW224519   4.679   4.548   5.257  1.8458  0.5759 -1.9744
 4354SOL     OW24520   3.355   2.635   7.009  0.1895 -0.2185  0.1418
 4354SOL    HW124521   3.380   2.691   6.936 -1.3658 -1.3270 -1.2333
 4354SOL    HW224522   3.292   2.573   6.973 -0.6483 -0.2907  1.7478
 4355SOL     OW24523   2.170   1.023   6.986  0.1703  0.4680 -0.1683
 4355SOL    HW124524   2.081   1.059   6.991 -0.1282 -0.2492 -0.3353
 4355SOL    HW224525   2.221   1.029   7.066  1.6975 -1.4356 -1.0067
 4356SOL     OW24526   2.521   2.366   6.356  0.6534  0.3812  0.2343
 4356SOL    HW124527   2.574   2.392   6.432  0.3908  3.4223 -0.6425
 4356SOL    HW224528   2.469   2.442   6.333  0.4927 -0.2138 -1.3503
 4357SOL     OW24529   0.260   3.201  15.640 -0.2840 -0.4094  0.0338
 4357SOL    HW124530   0.191   3.266  15.630 -1.1869 -1.3301  0.4031
 4357SOL    HW224531   0.339   3.249  15.614 -1.6196  2.0352  0.4970
 4358SOL     OW24532   2.920   3.779   8.884  0.2016 -0.0652 -0.6210
 4358SOL    HW124533   3.000   3.741   8.921  1.3183  1.0142 -1.9171
 4358SOL    HW224534   2.948   3.869   8.865 -0.1059  0.5541  1.9631
 4359SOL     OW24535   2.701   4.504  17.379  0.1772 -0.6008 -0.9009
 4359SOL    HW124536   2.742   4.533  17.460  0.0686 -0.0121 -1.0542
 4359SOL    HW224537   2.707   4.411  17.397 -2.4899 -0.2308  1.7829
 4360SOL     OW24538   2.660   0.474  15.376 -0.3335  0.2220  0.1554
 4360SOL    HW124539   2.568   0.455  15.395 -0.3670 -0.2130 -0.4135
 4360SOL    HW224540   2.656   0.459  15.281  2.5657 -0.1566  0.0804
 4361SOL     OW24541   0.943   1.479   5.347 -0.1602 -0.1479  0.2903
 4361SOL    HW124542   1.030   1.486   5.385  1.5553 -0.2352 -3.6913
 4361SOL    HW224543   0.922   1.391   5.378 -0.1285 -0.2403  0.0492
 4362SOL     OW24544   4.068   0.977  10.032  0.5422  0.2335 -0.5671
 4362SOL    HW124545   4.014   0.956  10.108  2.4216  2.8026  1.4963
 4362SOL    HW224546   4.091   1.069  10.050  3.9075 -0.5166 -1.0211
 4363SOL     OW24547   1.236   3.176   8.133 -0.2228  0.2335 -0.2388
 4363SOL    HW124548   1.254   3.127   8.213 -0.4669  1.2091  0.4149
 4363SOL    HW224549   1.158   3.225   8.159 -2.0426 -1.9679 -1.5860
 4364SOL     OW24550   3.920   3.316  15.969  0.2800  0.1611 -0.2088
 4364SOL    HW124551   4.001   3.320  16.020  0.9122  1.3755 -1.3012
 4364SOL    HW224552   3.918   3.224  15.943  3.0629  0.3430 -1.1013
 4365SOL     OW24553   4.050   1.682   8.390  0.3307  0.4269 -0.5277
 4365SOL    HW124554   4.078   1.773   8.400  1.2204  0.1303 -0.2887
 4365SOL    HW224555   4.131   1.632   8.404 -0.4101 -0.4078  0.7713
 4366SOL     OW24556   1.141   3.485   4.110  0.5021 -0.4425  0.1746
 4366SOL    HW124557   1.064   3.483   4.055  0.6945  0.5268 -0.1306
 4366SOL    HW224558   1.195   3.421   4.065 -1.8469  0.5526 -4.0037
 4367SOL     OW24559   2.497   0.869   5.787 -0.7533 -0.5141 -0.5594
 4367SOL    HW124560   2.436   0.833   5.722  0.5830 -1.6772 -1.1790
 4367SOL    HW224561   2.534   0.951   5.753  0.9186 -0.2777  1.8660
 4368SOL     OW24562   2.240   3.221  12.875  0.1724 -0.5839  0.0189
 4368SOL    HW124563   2.320   3.194  12.830 -0.3543  0.0574 -1.2885
 4368SOL    HW224564   2.283   3.295  12.917 -1.0070 -1.5802  3.0606
 4369SOL     OW24565   1.031   3.058  10.676 -0.2594 -0.1945 -0.7258
 4369SOL    HW124566   1.077   2.977  10.656  0.0226 -0.7408  2.0872
 4369SOL    HW224567   0.960   3.055  10.611 -0.2040 -2.0607 -0.7075
 4370SOL     OW24568   3.095   3.279   5.726 -0.1149 -0.3089 -0.0016
 4370SOL    HW124569   3.155   3.254   5.796 -1.4076 -0.5318  1.0237
 4370SOL    HW224570   3.047   3.202   5.696 -0.1527  0.2693 -1.4524
 4371SOL     OW24571   1.172   3.322  10.628 -0.1734  0.4591 -0.8120
 4371SOL    HW124572   1.174   3.246  10.570  0.5461  0.7515 -1.1601
 4371SOL    HW224573   1.146   3.289  10.715 -1.7603  0.8235 -1.1340
 4372SOL     OW24574   3.672   0.066   4.443  0.4376 -0.0110 -0.0333
 4372SOL    HW124575   3.639   4.714   4.494 -3.0570  0.5081 -1.5532
 4372SOL    HW224576   3.678   0.028   4.356  3.0230  1.9445 -0.7106
 4373SOL     OW24577   3.550   4.474   8.497  0.1030 -0.1368  0.4151
 4373SOL    HW124578   3.501   4.552   8.474 -0.4220 -0.2520  1.1387
 4373SOL    HW224579   3.610   4.507   8.563  0.5938 -0.7323  0.2675
 4374SOL     OW24580   3.509   3.746   2.930 -0.0882  0.5940 -0.4279
 4374SOL    HW124581   3.589   3.798   2.923 -0.2747  1.0273  0.6336
 4374SOL    HW224582   3.439   3.811   2.932 -0.7428 -0.0999 -1.1915
 4375SOL     OW24583   4.698   2.611   5.403  0.0247  0.2235  0.0189
 4375SOL    HW124584   4.616   2.621   5.355  0.7674 -0.0011 -1.3028
 4375SOL    HW224585   4.658   2.577   5.483  0.9086 -1.4700 -0.2434
 4376SOL     OW24586   0.578   4.717  13.270  0.7301  0.7132 -0.2040
 4376SOL    HW124587   0.579   4.630  13.230  0.6213  0.6695 -0.1126
 4376SOL    HW224588   0.650   0.034  13.219  1.2177  1.0459  0.7456
 4377SOL     OW24589   0.941   3.673  14.196  0.4030 -0.5024 -0.0396
 4377SOL    HW124590   0.857   3.719  14.198 -0.1018 -1.4312  0.0346
 4377SOL    HW224591   0.995   3.732  14.249 -0.4517  1.4180 -1.2813
 4378SOL     OW24592   1.779   1.927   1.998 -0.1259  0.1316  0.5512
 4378SOL    HW124593   1.717   1.975   1.943 -0.7474  0.4504  1.5412
 4378SOL    HW224594   1.760   1.970   2.081  0.4564  0.8181  0.3260
 4379SOL     OW24595   2.205   3.418   7.803 -0.7172 -0.1975  0.1947
 4379SOL    HW124596   2.255   3.357   7.857 -1.5043  0.2232  1.4043
 4379SOL    HW224597   2.167   3.356   7.740  0.0973 -0.4769 -0.0203
 4380SOL     OW24598   2.946   2.397   8.674  0.5128 -0.0821 -0.3615
 4380SOL    HW124599   2.994   2.316   8.659 -1.2915 -1.1899 -0.1558
 4380SOL    HW224600   3.011   2.444   8.727  0.1349 -3.3729  2.9984
 4381SOL     OW24601   4.357   1.370   7.448 -0.4255 -0.2697  0.1890
 4381SOL    HW124602   4.284   1.356   7.387 -1.9191 -0.8728  2.1211
 4381SOL    HW224603   4.320   1.435   7.508 -1.5003  0.3499 -1.1410
 4382SOL     OW24604   1.056   1.851  10.225  0.0603  0.2282  0.6110
 4382SOL    HW124605   1.062   1.800  10.306 -2.5441  2.0988  1.9995
 4382SOL    HW224606   1.148   1.872  10.216 -0.1569  1.3159  0.9431
 4383SOL     OW24607   1.449   1.407   3.538 -0.4535 -0.2368  0.4325
 4383SOL    HW124608   1.409   1.434   3.621 -0.6912 -1.5107  0.7449
 4383SOL    HW224609   1.480   1.318   3.556  2.3085  1.0322  1.8877
 4384SOL     OW24610   1.246   2.412   5.377 -0.2574 -0.4714 -0.3979
 4384SOL    HW124611   1.276   2.498   5.407  1.8911 -1.2308 -0.4062
 4384SOL    HW224612   1.323   2.366   5.343 -0.2564 -1.5052  1.0287
 4385SOL     OW24613   0.460   4.302   8.797  0.5901  0.3646  0.1848
 4385SOL    HW124614   0.387   4.248   8.766  0.4258  1.3981 -1.2325
 4385SOL    HW224615   0.523   4.238   8.830 -1.1753 -1.6761 -0.4008
 4386SOL     OW24616   4.614   0.398  13.041  0.1635  0.3462  0.2229
 4386SOL    HW124617   4.668   0.341  12.986 -1.8350 -1.1608 -0.2044
 4386SOL    HW224618   4.547   0.405  12.973 -0.1795  0.4864  0.5756
 4387SOL     OW24619   0.169   4.155   3.803  0.3722 -0.1944  0.2493
 4387SOL    HW124620   0.252   4.139   3.847 -0.6303 -0.6396  1.9806
 4387SOL    HW224621   0.167   4.098   3.726 -0.1419 -0.4581  0.4527
 4388SOL     OW24622   4.390   2.759   4.713  0.4061  0.2015  0.2893
 4388SOL    HW124623   4.419   2.687   4.769 -3.1472 -0.7469  0.8636
 4388SOL    HW224624   4.475   2.798   4.693  1.7523 -1.8361  1.9926
 4389SOL     OW24625   0.750   1.143  12.287 -0.4398 -0.2729 -0.0551
 4389SOL    HW124626   0.784   1.143  12.198 -1.2472  0.3868 -0.3638
 4389SOL    HW224627   0.817   1.088  12.327 -0.6084 -0.9637 -0.7324
 4390SOL     OW24628   1.934   1.617  17.488  0.0050 -0.9260  0.5455
 4390SOL    HW124629   1.877   1.609  17.565 -3.4965  1.2712 -1.8017
 4390SOL    HW224630   1.929   1.529  17.452 -0.1083  0.1999 -2.1663
 4391SOL     OW24631   1.216   1.737   7.005 -0.2019 -0.3967 -0.4843
 4391SOL    HW124632   1.188   1.723   6.914 -2.0797 -0.5642  0.1108
 4391SOL    HW224633   1.300   1.777   6.986 -0.2852  0.6814  1.4467
 4392SOL     OW24634   1.211   4.115  10.529 -0.1359  0.8582 -0.0283
 4392SOL    HW124635   1.194   4.207  10.507 -1.0323 -0.3511 -4.3132
 4392SOL    HW224636   1.131   4.095  10.578  0.4798  0.8822  0.9759
 4393SOL     OW24637   1.166   3.175  14.812 -0.9438 -0.3886  0.2434
 4393SOL    HW124638   1.191   3.238  14.745 -1.4526  1.1244  1.4744
 4393SOL    HW224639   1.252   3.150  14.845 -0.4775  0.1047 -0.6072
 4394SOL     OW24640   1.057   4.619   4.360 -0.4039  0.3549  1.0294
 4394SOL    HW124641   1.151   4.609   4.377 -0.0957 -1.2444 -1.5543
 4394SOL    HW224642   1.058   4.626   4.264  0.6587  1.1116  1.0974
 4395SOL     OW24643   4.630   2.874  14.541 -0.3461  0.0100  0.5661
 4395SOL    HW124644   0.005   2.873  14.539 -0.3365  0.0276  1.0635
 4395SOL    HW224645   4.618   2.868  14.636  0.3959  0.1356  0.6667
 4396SOL     OW24646   0.658   4.665   9.481 -0.0556 -0.1104 -0.0315
 4396SOL    HW124647   0.743   4.663   9.524  0.6698  0.7254 -1.3975
 4396SOL    HW224648   0.600   4.615   9.537 -0.5446 -0.1499 -0.5715
 4397SOL     OW24649   3.233   3.847   2.265 -0.2940 -0.0098 -0.0419
 4397SOL    HW124650   3.215   3.845   2.171 -0.3595 -1.4173  0.0103
 4397SOL    HW224651   3.172   3.783   2.301  1.3213  0.5288  3.6284
 4398SOL     OW24652   2.278   4.472   6.517  0.3401  0.2407 -0.0618
 4398SOL    HW124653   2.283   4.509   6.605  0.5754  0.9964 -0.3910
 4398SOL    HW224654   2.298   4.380   6.530 -0.6879  0.3278  2.3004
 4399SOL     OW24655   0.378   3.773   4.707  1.0110  0.5017 -0.2140
 4399SOL    HW124656   0.400   3.707   4.641 -1.1710 -2.3238  1.9177
 4399SOL    HW224657   0.342   3.718   4.776 -0.0222  0.6761 -0.6063
 4400SOL     OW24658   2.866   0.944   6.347 -0.1167  0.4226  0.6845
 4400SOL    HW124659   2.809   1.019   6.334 -1.7351 -0.5871  1.9931
 4400SOL    HW224660   2.817   0.864   6.329 -1.3705  0.9113  1.9694
 4401SOL     OW24661   2.817   1.010   3.978 -0.1924  0.3467 -0.9040
 4401SOL    HW124662   2.825   1.082   4.040 -0.6954 -0.5408  0.1953
 4401SOL    HW224663   2.805   1.063   3.899 -0.5222  2.9538  0.9110
 4402SOL     OW24664   0.316   1.226   0.308 -0.5032  0.6088  0.4482
 4402SOL    HW124665   0.405   1.245   0.279 -1.4603  0.4708 -2.6703
 4402SOL    HW224666   0.271   1.262   0.231 -0.4408 -0.9648 -0.3339
 4403SOL     OW24667   0.280   3.373  17.516  0.4557 -0.5434 -0.0470
 4403SOL    HW124668   0.256   3.383  17.608 -1.9103 -0.3559 -0.7052
 4403SOL    HW224669   0.364   3.327  17.525  1.4384  1.5089  1.0530
 4404SOL     OW24670   3.132   4.370   5.300  0.1851  0.0663  0.5648
 4404SOL    HW124671   3.217   4.411   5.316 -0.5420  1.9401 -0.3223
 4404SOL    HW224672   3.075   4.446   5.311  0.4493  0.4227 -0.5564
 4405SOL     OW24673   4.178   0.987   8.668 -0.0255  0.1760  0.5260
 4405SOL    HW124674   4.136   0.919   8.721 -0.3059 -0.8956 -1.0832
 4405SOL    HW224675   4.120   1.062   8.674 -0.2570  0.0650 -0.3192
 4406SOL     OW24676   3.009   2.034  15.040  0.2238 -0.3387  0.2724
 4406SOL    HW124677   2.962   2.104  15.086  1.0140  0.9188 -0.8264
 4406SOL    HW224678   2.992   2.054  14.948 -4.1388  3.5979  1.9662
 4407SOL     OW24679   0.660   0.818   7.778 -0.2122  0.0673  0.2752
 4407SOL    HW124680   0.637   0.798   7.687  0.6442  1.8727 -0.3406
 4407SOL    HW224681   0.601   0.887   7.807 -0.0289  0.1573  0.4332
 4408SOL     OW24682   1.118   2.817   5.687 -0.7172 -0.0181  0.2723
 4408SOL    HW124683   1.047   2.871   5.722  1.3134  1.0903  2.6745
 4408SOL    HW224684   1.185   2.856   5.743 -2.0049  1.2522  0.9335
 4409SOL     OW24685   0.581   4.443   5.488 -0.3254 -0.0557 -0.4163
 4409SOL    HW124686   0.560   4.388   5.413  0.5097  1.7645 -1.9795
 4409SOL    HW224687   0.669   4.408   5.507  0.8322  2.8354 -0.4752
 4410SOL     OW24688   0.126   0.544   2.821 -0.1036 -0.2106 -0.5375
 4410SOL    HW124689   0.125   0.607   2.748  0.1024  1.4845  0.9149
 4410SOL    HW224690   0.068   0.479   2.780 -0.1860 -0.0076 -0.7447
 4411SOL     OW24691   0.019   0.535   8.710  0.2316 -0.4063 -0.2262
 4411SOL    HW124692   4.675   0.605   8.708 -0.3198 -0.9349 -0.7852
 4411SOL    HW224693   4.707   0.492   8.631  0.6570  0.5274 -0.9246
 4412SOL     OW24694   2.470   3.029   3.668 -0.5759 -0.1362 -0.3209
 4412SOL    HW124695   2.404   3.037   3.600  0.5833 -1.5558 -1.6175
 4412SOL    HW224696   2.462   2.935   3.685  0.6414 -0.1103  0.3894
 4413SOL     OW24697   4.094   3.792   5.607 -0.0849 -0.2770  0.4723
 4413SOL    HW124698   4.083   3.842   5.688  0.2920  2.6787 -1.2977
 4413SOL    HW224699   4.079   3.849   5.532  0.8473  0.3437  0.7564
 4414SOL     OW24700   1.141   1.559  16.077  0.6029  0.0745  0.4335
 4414SOL    HW124701   1.182   1.594  15.998 -0.5589  2.0064  0.7112
 4414SOL    HW224702   1.047   1.566  16.067  0.9335  2.0013 -1.3179
 4415SOL     OW24703   2.817   1.516   8.054 -0.3697  0.5032 -0.7478
 4415SOL    HW124704   2.838   1.596   8.103 -2.8731 -0.3419  1.7390
 4415SOL    HW224705   2.724   1.507   8.075 -0.0929 -1.8462 -0.5371
 4416SOL     OW24706   4.435   3.417   7.793  0.3554  0.0178  0.1384
 4416SOL    HW124707   4.343   3.396   7.805  0.7938 -2.0204 -0.1530
 4416SOL    HW224708   4.461   3.351   7.729 -0.2171 -0.4485  0.3871
 4417SOL     OW24709   3.847   2.003   7.119 -0.5664  0.2164  0.0683
 4417SOL    HW124710   3.864   1.998   7.025  2.6675 -0.8812  0.7093
 4417SOL    HW224711   3.754   1.982   7.124 -0.6798  0.7456  0.1883
 4418SOL     OW24712   0.536   3.951  10.225  0.6274 -0.4135  0.1225
 4418SOL    HW124713   0.631   3.942  10.239  0.5897  0.3396  0.9201
 4418SOL    HW224714   0.538   4.038  10.185  1.4618  0.2567  1.5971
 4419SOL     OW24715   1.183   1.281   8.193  0.1646  0.2844  0.0063
 4419SOL    HW124716   1.234   1.301   8.115  0.7595  2.3343  0.9107
 4419SOL    HW224717   1.144   1.365   8.216  2.0236  1.1996 -0.1719
 4420SOL     OW24718   1.132   3.504  17.348  0.2310  0.0638  0.2291
 4420SOL    HW124719   1.190   3.465  17.414  0.8802  1.4634  0.4815
 4420SOL    HW224720   1.140   3.440  17.276  4.0081 -0.2895  0.9468
 4421SOL     OW24721   2.811   1.055  14.592 -0.0716  0.0995  0.1478
 4421SOL    HW124722   2.900   1.090  14.603  0.4435 -1.1115 -0.1156
 4421SOL    HW224723   2.824   1.026  14.501 -0.5094 -0.4726  0.2632
 4422SOL     OW24724   1.187   2.314  10.665  0.1997 -0.4875  0.0309
 4422SOL    HW124725   1.281   2.322  10.683 -0.8568  3.1868  3.8229
 4422SOL    HW224726   1.148   2.347  10.746  0.4529  1.1232 -0.5083
 4423SOL     OW24727   2.821   4.017  12.021 -0.2239 -0.4357 -0.5375
 4423SOL    HW124728   2.800   4.072  12.096  0.9832  0.2987 -0.7408
 4423SOL    HW224729   2.875   3.955  12.070  1.6848  1.0184 -0.7836
 4424SOL     OW24730   3.967   2.796   7.199 -0.3770 -0.2173  0.4537
 4424SOL    HW124731   4.030   2.762   7.262 -1.4970 -3.8371 -0.3568
 4424SOL    HW224732   3.917   2.718   7.174 -0.5743  0.2315 -0.5586
 4425SOL     OW24733   1.136   1.744   4.632  0.3950  0.2307  0.7379
 4425SOL    HW124734   1.110   1.833   4.657 -0.9754  0.0442 -0.0443
 4425SOL    HW224735   1.220   1.774   4.598 -0.6523  0.9099 -1.2594
 4426SOL     OW24736   4.533   1.806   8.334  0.3272 -0.4015 -0.3715
 4426SOL    HW124737   4.447   1.842   8.353  0.6334  0.2128 -0.1573
 4426SOL    HW224738   4.585   1.874   8.376 -0.3635  0.2438 -0.5765
 4427SOL     OW24739   0.832   0.741   4.796  0.0919 -0.5371 -0.1315
 4427SOL    HW124740   0.847   0.653   4.760 -1.0439 -0.1743 -1.4698
 4427SOL    HW224741   0.919   0.781   4.794  1.3899 -3.5413 -3.1085
 4428SOL     OW24742   2.783   3.777   1.856  0.2469 -0.0709  0.0007
 4428SOL    HW124743   2.806   3.834   1.782  3.0252  2.2163  2.6150
 4428SOL    HW224744   2.697   3.743   1.835  0.3660  0.2505 -1.0107
 4429SOL     OW24745   0.846   1.527   1.261  0.5114 -0.1469 -0.1550
 4429SOL    HW124746   0.868   1.495   1.173 -0.3860 -0.9190 -0.0998
 4429SOL    HW224747   0.905   1.471   1.312 -0.0319 -0.3933  0.1943
 4430SOL     OW24748   1.583   1.072   4.589  0.4887 -0.1886  0.2223
 4430SOL    HW124749   1.614   1.162   4.585  1.1281 -0.3304  1.7604
 4430SOL    HW224750   1.624   1.049   4.673 -0.2808  1.5033  1.0547
 4431SOL     OW24751   3.832   3.541   3.176 -0.2142 -0.4492 -0.2885
 4431SOL    HW124752   3.820   3.513   3.086 -0.5270  0.4683 -0.5278
 4431SOL    HW224753   3.909   3.491   3.204  0.3729 -0.9021 -2.7443
 4432SOL     OW24754   0.881   1.677   4.528 -0.7442  0.8672  0.1804
 4432SOL    HW124755   0.826   1.683   4.606 -2.0541  1.1170 -0.7734
 4432SOL    HW224756   0.969   1.685   4.566 -1.0343  1.3972  0.7309
 4433SOL     OW24757   1.967   3.884   8.793 -0.0719 -0.1390  0.1593
 4433SOL    HW124758   1.909   3.881   8.716 -1.0034 -2.5318  0.9574
 4433SOL    HW224759   1.998   3.795   8.801 -3.7600 -1.1695  3.1956
 4434SOL     OW24760   2.546   4.222   7.588  0.1778 -0.1380  0.1585
 4434SOL    HW124761   2.484   4.243   7.658 -0.3536  0.3408 -0.4573
 4434SOL    HW224762   2.564   4.128   7.593 -0.1301 -0.0859  2.0998
 4435SOL     OW24763   3.552   3.081   5.775  0.0393 -0.3474  0.0534
 4435SOL    HW124764   3.630   3.135   5.781  2.1313 -3.2571 -0.8653
 4435SOL    HW224765   3.583   3.001   5.819 -2.2601  0.9708  4.1115
 4436SOL     OW24766   0.480   1.156   3.352 -0.4483  0.1669  0.3160
 4436SOL    HW124767   0.493   1.250   3.358 -0.2623  0.2062 -0.7380
 4436SOL    HW224768   0.570   1.133   3.326 -0.1330  0.7095  0.9255
 4437SOL     OW24769   3.927   2.473   0.999 -0.3864 -0.1108 -0.1462
 4437SOL    HW124770   3.983   2.543   1.032 -0.4537 -0.8321  1.4986
 4437SOL    HW224771   3.876   2.521   0.935 -0.6723 -0.4280 -0.1577
 4438SOL     OW24772   3.184   2.426   7.404  0.2904 -0.4072 -0.4614
 4438SOL    HW124773   3.251   2.380   7.455 -0.7051 -1.9531 -0.5576
 4438SOL    HW224774   3.243   2.427   7.328  0.5066  0.9759 -0.2720
 4439SOL     OW24775   4.518   2.619   8.225 -0.7988 -0.0621  0.3870
 4439SOL    HW124776   4.579   2.547   8.210 -0.5190  0.4029 -0.6444
 4439SOL    HW224777   4.452   2.561   8.263 -0.1413  0.7537  2.7750
 4440SOL     OW24778   0.766   0.855   5.525 -0.1906  0.2769  0.0479
 4440SOL    HW124779   0.795   0.764   5.533 -1.4916 -0.2157 -0.8712
 4440SOL    HW224780   0.845   0.905   5.543 -1.9310  3.9746 -2.5367
 4441SOL     OW24781   3.788   3.287   3.732 -0.3040  0.7079 -0.0764
 4441SOL    HW124782   3.796   3.209   3.788  0.7008  0.0983 -1.0666
 4441SOL    HW224783   3.823   3.249   3.651 -2.3383  0.1203 -0.6777
 4442SOL     OW24784   2.529   0.252   1.144  0.4290 -0.1860 -0.1006
 4442SOL    HW124785   2.463   0.283   1.206  2.0246 -0.6868  1.8557
 4442SOL    HW224786   2.549   0.328   1.089 -0.1304  1.2114  1.6364
 4443SOL     OW24787   4.627   0.397   9.637  0.0033 -0.1953 -0.3787
 4443SOL    HW124788   4.642   0.481   9.680  0.3539 -1.0453  1.1719
 4443SOL    HW224789   4.699   0.350   9.679  1.1265  0.9632 -1.0143
 4444SOL     OW24790   1.720   1.011   9.389  0.3441 -0.3656  0.0924
 4444SOL    HW124791   1.727   0.917   9.377  3.4319 -0.3130  1.5088
 4444SOL    HW224792   1.749   1.034   9.301  0.7413  0.4065  0.4247
 4445SOL     OW24793   2.082   3.094   8.203  0.4199 -0.0543  0.3481
 4445SOL    HW124794   2.051   3.163   8.261  3.0836  0.2943  1.3686
 4445SOL    HW224795   2.007   3.110   8.145 -0.7206  0.7148  2.0427
 4446SOL     OW24796   2.241   1.822   0.687 -0.4683  0.2771 -0.0494
 4446SOL    HW124797   2.326   1.816   0.645 -0.5816 -0.6486 -0.1537
 4446SOL    HW224798   2.191   1.814   0.606  0.0958 -0.5822 -0.3065
 4447SOL     OW24799   2.704   4.607  17.134 -0.7345  0.0407 -0.1926
 4447SOL    HW124800   2.713   4.600  17.229  3.2010 -0.2829 -0.6174
 4447SOL    HW224801   2.789   4.572  17.109 -2.2055 -3.6724 -0.0104
 4448SOL     OW24802   0.620   4.347   9.073  0.2886  0.3740 -0.0004
 4448SOL    HW124803   0.662   4.393   9.000  2.1139 -0.9937  0.2017
 4448SOL    HW224804   0.696   4.316   9.121  0.0829 -0.5543 -0.2715
 4449SOL     OW24805   1.530   4.225  15.591  0.1959 -1.2010  0.9666
 4449SOL    HW124806   1.619   4.213  15.623  1.6186  1.5074 -1.9714
 4449SOL    HW224807   1.544   4.240  15.497 -0.5245  0.1886  1.0918
 4450SOL     OW24808   4.646   3.525  16.468  0.9579 -0.0985 -0.0309
 4450SOL    HW124809   4.556   3.558  16.462  0.6606 -1.0181 -0.5680
 4450SOL    HW224810   4.643   3.527  16.564 -0.8025 -1.0229 -0.0740
 4451SOL     OW24811   2.820   0.223   9.859  0.2021 -0.5567 -0.3945
 4451SOL    HW124812   2.732   0.213   9.893  1.0393  0.8738  2.1779
 4451SOL    HW224813   2.884   0.237   9.929  0.0449 -1.5495 -0.0475
 4452SOL     OW24814   0.064   1.976   5.671 -0.0447 -0.2448  0.8226
 4452SOL    HW124815   0.094   1.988   5.581 -4.1537 -0.4946 -0.5839
 4452SOL    HW224816   0.114   1.906   5.714 -0.1214 -1.2336 -0.7300
 4453SOL     OW24817   1.852   1.123  13.095  0.8585  0.1009  0.8539
 4453SOL    HW124818   1.938   1.085  13.115  1.2599 -0.4772 -1.8730
 4453SOL    HW224819   1.815   1.054  13.040 -0.3528  2.1212 -0.8654
 4454SOL     OW24820   0.852   0.111   4.341 -0.1825  0.4155  0.0720
 4454SOL    HW124821   0.775   0.062   4.314  0.9680 -0.7859 -1.0422
 4454SOL    HW224822   0.918   0.043   4.327 -0.1113  0.9641 -2.3591
 4455SOL     OW24823   2.042   4.068   0.332 -0.4202 -0.5688 -0.2285
 4455SOL    HW124824   2.126   4.079   0.287  1.0904 -1.9596  2.2430
 4455SOL    HW224825   2.074   4.036   0.416  0.8376  0.0457 -0.4575
 4456SOL     OW24826   1.784   3.960   7.334 -0.1665  0.2083  0.5999
 4456SOL    HW124827   1.765   4.047   7.300  1.3178 -0.4231 -1.8907
 4456SOL    HW224828   1.836   3.976   7.412  0.5294  0.0038  0.1799
 4457SOL     OW24829   4.684   1.198   4.517 -0.0417 -0.0398 -0.8492
 4457SOL    HW124830   4.648   1.284   4.537 -1.6409 -1.4888  2.4210
 4457SOL    HW224831   0.021   1.219   4.444  1.1939 -1.4418 -0.2856
 4458SOL     OW24832   0.137   0.761   8.447 -0.0466 -0.1864 -0.1550
 4458SOL    HW124833   0.062   0.804   8.407 -0.9181 -2.5515 -1.0412
 4458SOL    HW224834   0.200   0.750   8.376  0.7075  0.6534  0.3850
 4459SOL     OW24835   0.869   1.657   1.545 -0.7962 -0.4352  0.4097
 4459SOL    HW124836   0.920   1.645   1.465  0.1238  0.6655  0.8326
 4459SOL    HW224837   0.841   1.567   1.559 -0.2324 -0.6687  0.0514
 4460SOL     OW24838   3.201   2.040  12.471  0.3550  0.0880 -0.2630
 4460SOL    HW124839   3.138   1.973  12.444 -0.9045  2.4760 -3.2430
 4460SOL    HW224840   3.203   2.094  12.392  0.4261  3.0087  1.7755
 4461SOL     OW24841   1.756   0.544   5.114 -0.4871 -0.4154  0.3790
 4461SOL    HW124842   1.804   0.626   5.127 -1.0137 -0.3037  1.5741
 4461SOL    HW224843   1.761   0.539   5.018  0.9577  0.4454  0.4128
 4462SOL     OW24844   3.902   1.408   4.911 -0.1451 -0.2082 -0.1785
 4462SOL    HW124845   3.901   1.485   4.969  0.9652 -0.6398  0.3986
 4462SOL    HW224846   3.835   1.439   4.850 -0.4954  2.1683  1.3836
 4463SOL     OW24847   4.707   3.037   7.600  0.3239 -0.1916 -0.2024
 4463SOL    HW124848   0.041   3.107   7.634  0.5313  0.7307 -2.4612
 4463SOL    HW224849   4.715   2.967   7.665  0.2637  0.2969  0.3329
 4464SOL     OW24850   0.948   4.150   5.203  0.1012  0.1402 -0.1544
 4464SOL    HW124851   0.915   4.182   5.287 -0.8444  1.4983 -1.0410
 4464SOL    HW224852   1.005   4.225   5.186 -0.4220  0.2658 -1.3551
 4465SOL     OW24853   3.862   4.158   6.310 -0.7292 -0.4670 -0.0370
 4465SOL    HW124854   3.927   4.134   6.244 -2.6335 -2.7726 -1.0895
 4465SOL    HW224855   3.906   4.237   6.341 -1.0215 -1.5357  3.1119
 4466SOL     OW24856   1.287   3.704   1.885  0.0705 -0.6261 -0.1163
 4466SOL    HW124857   1.356   3.721   1.820  0.8906 -1.2587  0.5813
 4466SOL    HW224858   1.254   3.792   1.904  0.3922 -0.6198  0.4134
 4467SOL     OW24859   1.498   0.760   0.618  0.1180 -0.0731 -0.1445
 4467SOL    HW124860   1.574   0.702   0.619 -0.5273 -0.9487 -2.9152
 4467SOL    HW224861   1.431   0.709   0.572 -1.3579  2.0696 -0.4041
 4468SOL     OW24862   0.087   3.465   4.107 -0.2175 -0.5551  0.3541
 4468SOL    HW124863   4.717   3.445   4.089  0.0408 -3.1212  1.8409
 4468SOL    HW224864   0.117   3.507   4.026  0.3555  2.1592  1.9848
 4469SOL     OW24865   0.534   2.691   3.748 -0.1515  0.2571  0.2847
 4469SOL    HW124866   0.615   2.740   3.764  0.6080 -1.3649  1.4594
 4469SOL    HW224867   0.563   2.619   3.691 -0.6734  1.3832 -1.3826
 4470SOL     OW24868   0.861   0.399   7.004 -0.5684  0.7655 -0.2783
 4470SOL    HW124869   0.902   0.313   7.010  0.2923  0.9868 -2.9047
 4470SOL    HW224870   0.830   0.388   6.914  1.6563 -1.0365 -0.8191
 4471SOL     OW24871   2.227   4.419  16.143 -0.3021 -0.1005 -0.2374
 4471SOL    HW124872   2.194   4.350  16.085  0.7632 -0.8296  0.0434
 4471SOL    HW224873   2.163   4.483  16.112  0.5425  0.7701 -0.1665
 4472SOL     OW24874   4.716   0.684   1.139 -0.3153 -0.1438  0.6046
 4472SOL    HW124875   4.702   0.594   1.110  3.2305 -0.6292  0.3907
 4472SOL    HW224876   0.090   0.690   1.149 -0.5051  1.3012  1.5721
 4473SOL     OW24877   2.741   1.234   7.651  0.0491 -1.0595  0.4912
 4473SOL    HW124878   2.783   1.243   7.566  0.0033 -0.8587  0.4896
 4473SOL    HW224879   2.766   1.319   7.688 -0.9988  0.2175 -1.7557
 4474SOL     OW24880   3.295   2.930  14.390 -0.4861 -0.0904  0.3301
 4474SOL    HW124881   3.294   2.836  14.371 -3.6736  0.0643 -0.3643
 4474SOL    HW224882   3.330   2.953  14.304 -1.4931 -0.0522 -0.0710
 4475SOL     OW24883   4.549   3.893   5.164  0.4967 -0.0065 -0.0164
 4475SOL    HW124884   4.614   3.923   5.101  2.2650 -0.0223  1.8294
 4475SOL    HW224885   4.553   3.958   5.235  0.9254 -1.8512  1.6332
 4476SOL     OW24886   0.042   3.053   3.942  0.0749 -0.0550 -0.2990
 4476SOL    HW124887   0.036   3.065   4.037  1.8271  1.1960 -0.3552
 4476SOL    HW224888   0.085   3.132   3.910  1.0677 -0.2193  0.6541
 4477SOL     OW24889   1.510   4.079   2.562 -0.1280  0.5538 -0.3932
 4477SOL    HW124890   1.442   4.143   2.539 -1.6642 -1.0458 -0.3361
 4477SOL    HW224891   1.577   4.098   2.496  0.8647 -0.6323  0.3012
 4478SOL     OW24892   1.948   1.680   9.274 -0.3098  0.1895  0.3035
 4478SOL    HW124893   2.033   1.665   9.316 -1.1510  0.4848  2.1394
 4478SOL    HW224894   1.917   1.593   9.250  0.2272  0.1641 -0.3109
 4479SOL     OW24895   3.570   3.769   3.705 -0.0687 -0.6376  0.3845
 4479SOL    HW124896   3.622   3.689   3.714  0.3013 -0.2190  2.0110
 4479SOL    HW224897   3.619   3.822   3.642  1.0217 -0.2536  1.5696
 4480SOL     OW24898   0.266   2.085   2.865  0.0789 -0.3291  0.0238
 4480SOL    HW124899   0.312   2.131   2.936 -0.5293  1.1334 -0.5135
 4480SOL    HW224900   0.181   2.127   2.878 -0.3010 -1.0345 -0.2276
 4481SOL     OW24901   4.234   1.814  13.435 -0.2628  0.2971 -0.2607
 4481SOL    HW124902   4.245   1.838  13.527 -1.9641  1.1615 -0.2847
 4481SOL    HW224903   4.288   1.738  13.416  0.9874  0.7213  1.5530
 4482SOL     OW24904   1.459   2.152  14.637  0.5424  0.1319 -0.1511
 4482SOL    HW124905   1.432   2.095  14.709  3.5862 -0.6233  0.4012
 4482SOL    HW224906   1.536   2.199  14.672 -0.3661  1.4553  0.0725
 4483SOL     OW24907   3.161   3.170  17.585  0.3022 -0.7103  0.2076
 4483SOL    HW124908   3.125   3.082  17.593  0.1450 -0.6431  0.2335
 4483SOL    HW224909   3.131   3.176  17.494 -0.5860  0.4144  0.5833
 4484SOL     OW24910   4.007   2.628  10.920  0.5353 -1.0335 -0.4984
 4484SOL    HW124911   4.042   2.598  11.004  1.1945  0.2124 -0.3364
 4484SOL    HW224912   4.077   2.602  10.860  3.0329 -1.7534  2.7066
 4485SOL     OW24913   3.223   1.887   3.914 -0.1138  0.1451 -0.2055
 4485SOL    HW124914   3.152   1.839   3.957 -1.4867  3.3803  1.1120
 4485SOL    HW224915   3.298   1.829   3.925 -0.5192 -0.0900  1.3163
 4486SOL     OW24916   2.350   1.373   0.332 -0.3434  1.1886 -0.0358
 4486SOL    HW124917   2.362   1.282   0.305 -0.6814  0.3970  2.5492
 4486SOL    HW224918   2.259   1.369   0.362 -0.8758  1.1009 -1.6232
 4487SOL     OW24919   2.784   4.110  11.765 -0.2929  0.4283  0.3608
 4487SOL    HW124920   2.806   4.052  11.839 -2.2401 -1.7917 -0.7917
 4487SOL    HW224921   2.869   4.151  11.746 -0.3880  0.3609 -0.2213
 4488SOL     OW24922   2.535   4.682   7.466 -0.2109 -0.9557 -0.3005
 4488SOL    HW124923   2.543   4.669   7.371 -4.0184 -0.3761 -0.6935
 4488SOL    HW224924   2.465   0.026   7.463  1.5489  0.9908  1.5229
 4489SOL     OW24925   0.604   0.485   3.040  0.0009  0.0486  0.2586
 4489SOL    HW124926   0.621   0.572   3.075 -0.1791 -0.1088  0.7309
 4489SOL    HW224927   0.518   0.496   2.999  0.8422 -0.0829 -1.5791
 4490SOL     OW24928   2.824   0.290   1.014 -0.1236  1.4747  0.1470
 4490SOL    HW124929   2.761   0.349   0.974  1.0112  1.7524 -1.2336
 4490SOL    HW224930   2.782   0.206   0.994 -1.0791  1.4238  2.3909
 4491SOL     OW24931   4.104   0.381   8.251 -0.1633  0.4799  0.4885
 4491SOL    HW124932   4.108   0.476   8.243 -3.0141  0.7201  1.8485
 4491SOL    HW224933   4.184   0.367   8.302  0.2842  0.2156 -0.2846
 4492SOL     OW24934   4.109   2.616   1.806 -0.0070  0.4454 -0.0217
 4492SOL    HW124935   4.073   2.581   1.724  1.6422  0.2461 -0.6688
 4492SOL    HW224936   4.203   2.597   1.799 -0.0264  0.5218 -0.5106
 4493SOL     OW24937   3.766   2.652  10.770  0.8464 -0.5947  0.2496
 4493SOL    HW124938   3.841   2.663  10.828  0.4452  0.9879  0.4497
 4493SOL    HW224939   3.721   2.578  10.812 -0.5578  0.8447  1.2694
 4494SOL     OW24940   4.416   2.300  15.494  0.2995 -0.2030 -0.2985
 4494SOL    HW124941   4.449   2.235  15.557  2.0990  0.7949 -0.2231
 4494SOL    HW224942   4.447   2.250  15.418  1.0456  0.7795 -0.6239
 4495SOL     OW24943   0.891   0.403  11.769  0.0026 -0.4384 -0.0890
 4495SOL    HW124944   0.882   0.409  11.674  1.0879  0.8545 -0.1103
 4495SOL    HW224945   0.876   0.309  11.780 -0.5619 -0.2809  0.4777
 4496SOL     OW24946   1.862   2.075   2.389 -0.2382 -0.8449  0.0375
 4496SOL    HW124947   1.771   2.082   2.360  0.0191 -0.2333 -0.6063
 4496SOL    HW224948   1.901   2.117   2.313 -0.5850 -1.6571 -0.5956
 4497SOL     OW24949   2.436   0.235   1.649 -0.1946  0.5718 -0.3225
 4497SOL    HW124950   2.487   0.312   1.627  1.8930 -0.6341  0.3055
 4497SOL    HW224951   2.448   0.225   1.743  2.9988 -2.0359 -0.9891
 4498SOL     OW24952   0.089   3.046   5.707  0.0944 -0.2020  0.2035
 4498SOL    HW124953   0.085   2.965   5.656  0.6989  1.1312 -1.9715
 4498SOL    HW224954   0.127   3.021   5.791  1.3698 -0.9507 -0.5967
 4499SOL     OW24955   3.477   2.248  15.288 -0.5499  0.2564  0.0376
 4499SOL    HW124956   3.487   2.343  15.293 -0.7923  0.4242 -2.6767
 4499SOL    HW224957   3.386   2.248  15.257 -0.4855 -1.1804 -0.1711
 4500SOL     OW24958   4.416   2.544  11.299 -1.1116 -0.0966 -0.2945
 4500SOL    HW124959   4.337   2.598  11.300  0.3048  1.8473  4.3226
 4500SOL    HW224960   4.409   2.498  11.215 -3.5374 -1.5466  0.7124
 4501SOL     OW24961   1.544   2.861   2.486  0.4123 -0.6489 -1.0117
 4501SOL    HW124962   1.585   2.900   2.409  1.1377 -0.6055 -0.6076
 4501SOL    HW224963   1.449   2.870   2.476  0.1008 -3.2166 -0.4005
 4502SOL     OW24964   2.324   1.028  16.005  0.1367 -0.5778  0.3165
 4502SOL    HW124965   2.238   0.990  16.024 -0.2826 -0.8185 -2.1824
 4502SOL    HW224966   2.329   1.075  16.089 -0.2126 -2.1531  1.2294
 4503SOL     OW24967   3.573   2.732   2.408 -0.3826 -0.1944  0.3543
 4503SOL    HW124968   3.485   2.749   2.375 -1.1870 -0.0205  2.6323
 4503SOL    HW224969   3.568   2.636   2.409  2.0231 -0.3311 -1.0735
 4504SOL     OW24970   3.186   4.246   5.830 -0.2674  0.8631  0.3820
 4504SOL    HW124971   3.112   4.307   5.832  0.6584  2.0261 -0.4686
 4504SOL    HW224972   3.177   4.199   5.912  1.9532  1.1528  0.7959
 4505SOL     OW24973   3.042   0.844  17.309  0.2150  0.5755  0.5093
 4505SOL    HW124974   3.088   0.760  17.305 -1.0618 -0.2512  3.4912
 4505SOL    HW224975   3.088   0.891  17.239  1.1038 -0.3200  0.4831
 4506SOL     OW24976   0.370   0.912   9.018  1.0484  0.2289 -0.0679
 4506SOL    HW124977   0.390   0.876   9.104 -0.5704 -0.4345  0.0391
 4506SOL    HW224978   0.430   0.986   9.009 -0.3131  1.5764  1.8125
 4507SOL     OW24979   4.533   0.722   6.874  0.2939  0.7519  0.7617
 4507SOL    HW124980   4.600   0.780   6.838  0.8629  1.3380  2.7451
 4507SOL    HW224981   4.555   0.740   6.966 -0.3216  5.9104 -0.0549
 4508SOL     OW24982   2.431   3.401  11.278 -0.0617  0.3343  0.4420
 4508SOL    HW124983   2.432   3.337  11.206 -0.7373 -0.6278  1.2881
 4508SOL    HW224984   2.371   3.364  11.343  1.2217 -0.0723  1.4036
 4509SOL     OW24985   1.669   2.033   6.524 -0.0104  0.3788 -0.3273
 4509SOL    HW124986   1.674   2.111   6.578  0.7791  0.4093 -0.4466
 4509SOL    HW224987   1.633   1.968   6.585  1.2335  2.5568  2.7070
 4510SOL     OW24988   4.128   1.613   5.834  0.2811  0.2841  0.0179
 4510SOL    HW124989   4.184   1.601   5.911 -1.6501 -0.9054  1.2492
 4510SOL    HW224990   4.103   1.704   5.845  2.1440  1.1508 -3.0058
 4511SOL     OW24991   1.180   2.271   2.994  0.0944 -0.0370  0.2958
 4511SOL    HW124992   1.140   2.197   2.948  2.2780 -1.0446  0.0167
 4511SOL    HW224993   1.210   2.322   2.919 -0.8172 -0.4057 -0.3213
 4512SOL     OW24994   4.453   3.038   6.234 -0.2045 -0.6510 -0.3318
 4512SOL    HW124995   4.423   3.016   6.322  1.2302 -2.0933 -0.2092
 4512SOL    HW224996   4.412   3.124   6.227  0.2464 -0.4485 -0.4735
 4513SOL     OW24997   0.238   1.875   7.718 -0.1291 -0.2263  0.1411
 4513SOL    HW124998   0.162   1.817   7.718  1.1446 -1.8860 -0.1486
 4513SOL    HW224999   0.256   1.890   7.811 -0.2607  1.8431 -0.1764
 4514SOL     OW25000   4.336   2.878   6.722  0.0921  0.3725 -0.2094
 4514SOL    HW125001   4.327   2.971   6.744  1.6170  0.4591  0.0585
 4514SOL    HW225002   4.250   2.848   6.692 -0.5166  0.8435  1.0910
 4515SOL     OW25003   3.638   3.948  11.622 -0.0842  0.1544  0.5658
 4515SOL    HW125004   3.626   3.937  11.716  0.9822 -0.2872  0.6542
 4515SOL    HW225005   3.571   4.013  11.603 -0.1257  0.1737  0.7910
 4516SOL     OW25006   0.226   0.073   7.643  0.6637  0.0318 -0.3130
 4516SOL    HW125007   0.142   0.071   7.690  2.2024  0.7839  2.4789
 4516SOL    HW225008   0.260   4.716   7.684  1.1381  0.6602  0.5006
 4517SOL     OW25009   1.989   0.394  15.530  0.1171 -0.0537 -0.0682
 4517SOL    HW125010   2.023   0.408  15.619 -0.4887  0.2530  0.1139
 4517SOL    HW225011   2.010   0.471  15.477 -0.4448  0.2082  0.0956
 4518SOL     OW25012   3.515   1.922  12.052 -0.2153  0.8265  0.3642
 4518SOL    HW125013   3.461   1.916  12.131 -1.0788 -4.2504 -0.6299
 4518SOL    HW225014   3.600   1.922  12.095 -0.0565  1.2512  0.0511
 4519SOL     OW25015   2.958   3.813  12.222 -0.1563  0.2396  0.2096
 4519SOL    HW125016   2.950   3.718  12.216  0.4841  0.1826  0.2915
 4519SOL    HW225017   3.048   3.815  12.253 -0.4530  2.5494  0.9057
 4520SOL     OW25018   2.892   3.362  11.174 -0.3189 -0.2839  0.0655
 4520SOL    HW125019   2.852   3.421  11.110  0.8359 -0.4680 -0.8235
 4520SOL    HW225020   2.816   3.304  11.187  0.0425 -0.4378  1.4674
 4521SOL     OW25021   1.919   4.038   3.803  0.0621  0.2654 -0.2672
 4521SOL    HW125022   1.968   4.009   3.880  0.2026 -0.7814 -0.7555
 4521SOL    HW225023   1.888   3.950   3.784  0.8042  0.4091 -2.1830
 4522SOL     OW25024   1.665   1.549  11.067  0.1876  0.6624  0.2218
 4522SOL    HW125025   1.740   1.562  11.009  0.2358 -2.5847 -0.4590
 4522SOL    HW225026   1.681   1.605  11.143  0.5778  2.2154 -0.9967
 4523SOL     OW25027   1.144   2.559   5.746  0.3426 -0.0768 -0.0652
 4523SOL    HW125028   1.202   2.581   5.819 -1.4918  1.8263  0.8241
 4523SOL    HW225029   1.120   2.643   5.705 -2.2935 -0.6962  0.2267
 4524SOL     OW25030   3.610   3.682   8.417  0.0811 -0.3221  0.9889
 4524SOL    HW125031   3.625   3.774   8.442  2.9880 -0.4908 -0.0891
 4524SOL    HW225032   3.520   3.660   8.440 -1.0546  0.1873 -2.9837
 4525SOL     OW25033   4.189   3.920   4.610  0.6673  0.8450 -0.3601
 4525SOL    HW125034   4.156   3.933   4.699 -1.0897  0.6370 -0.9866
 4525SOL    HW225035   4.155   3.832   4.598  0.4841  0.5999  1.9958
 4526SOL     OW25036   2.398   3.728  13.924  0.0633  0.2817 -0.2298
 4526SOL    HW125037   2.342   3.753  13.998  1.8047  2.9883  0.2039
 4526SOL    HW225038   2.333   3.672  13.884  1.6901 -0.4399 -1.8412
 4527SOL     OW25039   2.011   3.086  14.549  0.0843  0.1593 -0.3642
 4527SOL    HW125040   1.970   3.101  14.635  1.3121  0.6102  0.1427
 4527SOL    HW225041   2.023   2.991  14.552  1.4954  0.3191 -1.1188
 4528SOL     OW25042   1.995   2.027   5.534  0.0286 -0.1372  0.6003
 4528SOL    HW125043   1.916   2.079   5.546  0.2336  0.2944  0.0769
 4528SOL    HW225044   1.996   1.992   5.445  0.6133 -0.5837  0.7770
 4529SOL     OW25045   4.243   1.617  10.825  0.1185  0.4647  0.1989
 4529SOL    HW125046   4.305   1.567  10.877 -1.2394 -0.8325  0.5693
 4529SOL    HW225047   4.310   1.627  10.757  0.2356  3.3768  0.7559
 4530SOL     OW25048   2.066   2.190  12.564  0.4965  0.1312 -0.5919
 4530SOL    HW125049   2.102   2.252  12.627  1.1707 -0.7355 -0.1125
 4530SOL    HW225050   1.974   2.185  12.591  0.2640 -0.8101 -1.5383
 4531SOL     OW25051   4.054   2.720   5.170  0.3552 -0.5522  0.4509
 4531SOL    HW125052   4.146   2.698   5.161  0.4513 -0.3864  1.0041
 4531SOL    HW225053   4.062   2.815   5.180 -2.0822 -0.4251  1.3132
 4532SOL     OW25054   0.875   2.365  12.484  0.2417 -0.0666 -0.1004
 4532SOL    HW125055   0.785   2.340  12.506  0.8951 -0.6557  1.8951
 4532SOL    HW225056   0.881   2.343  12.391 -3.1847 -3.0718  0.4129
 4533SOL     OW25057   2.608   4.277  11.636  0.5452 -0.5070 -0.3263
 4533SOL    HW125058   2.639   4.222  11.708 -1.7849 -0.2673  0.8678
 4533SOL    HW225059   2.684   4.278  11.578  1.0382 -1.3792  0.2899
 4534SOL     OW25060   3.678   3.021   3.060 -0.2447 -0.6920 -0.1808
 4534SOL    HW125061   3.747   2.985   3.004 -0.4133 -2.1431  0.5430
 4534SOL    HW225062   3.631   2.937   3.062 -1.8262  0.1398 -2.2700
 4535SOL     OW25063   1.327   3.060   6.199  0.0952  0.6873  0.0314
 4535SOL    HW125064   1.304   3.102   6.116  1.6776  1.1607 -0.1615
 4535SOL    HW225065   1.277   3.107   6.266 -0.7650  0.3960 -0.4049
 4536SOL     OW25066   3.743   3.554   3.735  0.1375  0.5738 -0.3321
 4536SOL    HW125067   3.740   3.459   3.723 -2.2743  0.7534 -1.3135
 4536SOL    HW225068   3.762   3.559   3.829  1.7226 -0.7235 -0.5827
 4537SOL     OW25069   3.972   3.364   8.062  0.0000  0.1594 -0.1427
 4537SOL    HW125070   3.936   3.276   8.073 -1.2766  0.8983  1.5809
 4537SOL    HW225071   3.952   3.401   8.148  0.8315  1.5547 -0.5403
 4538SOL     OW25072   1.676   2.691   3.174 -0.0321  0.4060 -0.5497
 4538SOL    HW125073   1.601   2.646   3.137  0.5635  1.0984 -2.5979
 4538SOL    HW225074   1.750   2.639   3.142 -0.3631 -1.0723  1.0545
 4539SOL     OW25075   2.716   4.621   6.962 -0.5453 -0.3554  0.0192
 4539SOL    HW125076   2.786   4.680   6.992  0.5635 -2.1871  1.0348
 4539SOL    HW225077   2.711   4.553   7.029 -0.5867 -0.8440 -0.4886
 4540SOL     OW25078   2.323   4.120   5.737 -0.1695 -0.5185 -0.3825
 4540SOL    HW125079   2.234   4.088   5.751 -0.4185  0.5382  0.5103
 4540SOL    HW225080   2.374   4.059   5.790 -0.7036 -0.4392  0.2258
 4541SOL     OW25081   3.584   3.170  14.002 -0.5037 -0.5207  0.3324
 4541SOL    HW125082   3.571   3.264  14.017 -1.1616 -0.3265 -1.4414
 4541SOL    HW225083   3.520   3.159  13.931  0.0710 -0.2078 -0.2371
 4542SOL     OW25084   0.192   0.124   3.574  0.8046 -0.0738 -0.3042
 4542SOL    HW125085   0.144   0.205   3.594  2.1557  0.4194  0.9792
 4542SOL    HW225086   0.264   0.138   3.636  1.2969 -0.4964 -0.7710
 4543SOL     OW25087   4.253   0.015  13.910 -0.7330  0.4298  0.2110
 4543SOL    HW125088   4.195   0.090  13.898  1.2246  1.6178 -1.7624
 4543SOL    HW225089   4.218   4.677  13.843  1.0537 -2.2867  1.6545
 4544SOL     OW25090   0.991   3.476   3.826  0.3014 -0.4367 -0.5354
 4544SOL    HW125091   1.043   3.398   3.804  4.1293  1.3046  2.3387
 4544SOL    HW225092   0.953   3.494   3.740  0.5844  4.4051  0.3216
 4545SOL     OW25093   0.460   4.016   9.551 -0.2096  0.1397 -0.0546
 4545SOL    HW125094   0.421   3.933   9.527  1.1351 -0.4974 -0.0227
 4545SOL    HW225095   0.483   3.994   9.641 -0.2362 -3.2314 -0.8805
 4546SOL     OW25096   2.432   2.251   2.959  0.2263 -0.7194  0.1116
 4546SOL    HW125097   2.451   2.224   3.048 -0.5234 -1.6761 -0.0205
 4546SOL    HW225098   2.470   2.176   2.915 -0.5201 -1.3160  0.4802
 4547SOL     OW25099   4.406   4.654   6.959  0.3938 -0.1032 -0.4001
 4547SOL    HW125100   4.329   4.685   6.911 -0.8588 -0.8997  1.0810
 4547SOL    HW225101   4.366   4.642   7.045  0.0030 -0.2358 -0.5987
 4548SOL     OW25102   2.758   1.038  12.611  0.0262  0.0629  0.0391
 4548SOL    HW125103   2.676   1.083  12.588  0.0109 -0.1635 -0.3435
 4548SOL    HW225104   2.803   1.050  12.528  0.7047 -1.4825  0.1879
 4549SOL     OW25105   3.997   4.631   3.383  0.2881 -0.3998  0.1106
 4549SOL    HW125106   3.903   4.628   3.366  0.1710  1.0458  0.5114
 4549SOL    HW225107   4.015   4.720   3.353 -0.2918 -0.6670 -0.9989
 4550SOL     OW25108   3.695   1.598   1.688  0.5812 -0.2765 -0.6549
 4550SOL    HW125109   3.712   1.690   1.668 -3.5348  0.7628  0.7098
 4550SOL    HW225110   3.657   1.607   1.775  1.7012 -1.3164 -0.0615
 4551SOL     OW25111   1.591   0.284   3.943 -0.7679  0.1685 -0.0900
 4551SOL    HW125112   1.547   0.343   4.004 -0.7610 -0.3549  0.4174
 4551SOL    HW225113   1.516   0.226   3.928 -0.7389 -0.2859  1.5087
 4552SOL     OW25114   1.367   2.463   2.186 -0.0292  0.2640  0.0045
 4552SOL    HW125115   1.407   2.550   2.179 -0.7825  0.6135  0.0150
 4552SOL    HW225116   1.384   2.445   2.278  1.4012  0.1554 -0.2893
 4553SOL     OW25117   4.659   1.779  11.799 -0.2120 -0.1749  0.2933
 4553SOL    HW125118   0.001   1.790  11.727  1.6636  1.8861  2.2822
 4553SOL    HW225119   4.594   1.724  11.756  0.0521 -1.3380  1.3928
 4554SOL     OW25120   4.582   1.716  12.339  0.1770 -0.0329  0.3647
 4554SOL    HW125121   4.512   1.690  12.399 -1.8037 -1.1693 -2.4468
 4554SOL    HW225122   4.651   1.731  12.404  1.0080 -1.0274 -0.2781
 4555SOL     OW25123   2.685   1.778  14.270  0.1228 -0.1362  0.0125
 4555SOL    HW125124   2.724   1.866  14.268 -1.9332  0.7656  0.2603
 4555SOL    HW225125   2.750   1.745  14.333  0.1438 -0.5921 -0.2452
 4556SOL     OW25126   1.841   1.507   8.047 -0.5914  0.2523 -0.2810
 4556SOL    HW125127   1.769   1.561   8.079 -1.9198 -1.7319  0.0644
 4556SOL    HW225128   1.802   1.478   7.965 -0.2189  0.3609 -0.4962
 4557SOL     OW25129   3.073   3.181   4.632  0.6632 -0.0891 -0.3246
 4557SOL    HW125130   3.090   3.272   4.658  1.1310 -0.3369  0.2167
 4557SOL    HW225131   3.008   3.199   4.564  2.4443  1.1572 -1.6866
 4558SOL     OW25132   0.911   3.104   8.506 -0.0342  0.4660  0.2536
 4558SOL    HW125133   0.826   3.104   8.551  1.3490 -0.1755  2.8915
 4558SOL    HW225134   0.941   3.015   8.527 -0.1327  0.5769  0.8700
 4559SOL     OW25135   1.577   2.518  14.542  0.2481 -0.4735  0.3212
 4559SOL    HW125136   1.530   2.446  14.498 -0.0616 -0.5407  0.7650
 4559SOL    HW225137   1.536   2.592  14.497 -2.0581 -1.7657  0.3074
 4560SOL     OW25138   1.896   3.338   9.926 -0.1351 -0.4209  0.1116
 4560SOL    HW125139   1.967   3.363   9.867  1.1520 -1.7744  1.0833
 4560SOL    HW225140   1.873   3.416   9.975  0.1841  0.5776 -1.3183
 4561SOL     OW25141   2.007   2.954   7.162  0.3792 -0.4246  0.0048
 4561SOL    HW125142   2.028   2.907   7.243  0.5512 -0.7033 -0.2029
 4561SOL    HW225143   2.009   2.883   7.098  1.4555  0.1143 -0.5739
 4562SOL     OW25144   3.435   3.498   4.224  0.1793 -0.1982  0.3553
 4562SOL    HW125145   3.430   3.534   4.313 -0.9277 -2.0306  1.0311
 4562SOL    HW225146   3.522   3.521   4.191 -1.0922  1.6002 -1.7418
 4563SOL     OW25147   0.814   2.489   3.814 -0.0659 -0.0380 -0.1928
 4563SOL    HW125148   0.793   2.477   3.722 -0.9633 -3.4140  0.4535
 4563SOL    HW225149   0.866   2.411   3.830  0.9976  0.6023 -0.5049
 4564SOL     OW25150   2.747   3.044  15.479 -0.6241  0.6816  0.3352
 4564SOL    HW125151   2.835   3.036  15.440 -1.6670 -0.6301 -1.7163
 4564SOL    HW225152   2.693   2.992  15.420 -0.2183 -0.3385  0.8587
 4565SOL     OW25153   1.695   2.629   2.513  0.2660 -0.4407 -0.1313
 4565SOL    HW125154   1.713   2.613   2.420  0.9102  0.7534 -0.2125
 4565SOL    HW225155   1.628   2.696   2.499  2.4868  1.9161  0.6036
 4566SOL     OW25156   3.915   3.092   8.096  0.0428  0.2206  0.0060
 4566SOL    HW125157   3.983   3.031   8.124 -0.1319 -0.3033 -0.7278
 4566SOL    HW225158   3.917   3.087   8.001 -0.4334 -2.3520  0.1573
 4567SOL     OW25159   4.267   0.591   9.445  0.3559 -0.8979  0.3169
 4567SOL    HW125160   4.300   0.505   9.470  1.5108 -0.1867  1.2480
 4567SOL    HW225161   4.293   0.643   9.521  0.4793 -2.5595  1.4069
 4568SOL     OW25162   4.586   2.716   5.077  0.2060  0.7319 -1.1042
 4568SOL    HW125163   4.668   2.677   5.109  0.5137  2.8363  0.6640
 4568SOL    HW225164   4.560   2.649   5.014 -0.8221 -1.1213  1.2941
 4569SOL     OW25165   2.425   3.428   4.949  0.0415 -0.0879  0.0107
 4569SOL    HW125166   2.445   3.481   5.026 -1.1734 -1.8610  1.5601
 4569SOL    HW225167   2.512   3.443   4.913  0.7592 -0.2997  1.6661
 4570SOL     OW25168   1.209   0.243   1.357  0.5172 -0.1520  0.4083
 4570SOL    HW125169   1.242   0.245   1.446 -0.2819 -1.4142  0.7302
 4570SOL    HW225170   1.292   0.225   1.312  0.2544  1.1660 -0.6121
 4571SOL     OW25171   2.053   2.822  13.460  0.2067  0.3343  0.5391
 4571SOL    HW125172   2.094   2.902  13.427 -0.1880  0.2932 -0.0609
 4571SOL    HW225173   2.019   2.793  13.375  0.5877  0.9510  0.1769
 4572SOL     OW25174   0.137   1.879   9.979  0.3688  0.0162 -0.5605
 4572SOL    HW125175   0.216   1.878   9.924  0.0424  1.7226 -1.0720
 4572SOL    HW225176   0.138   1.970  10.009  0.1591 -0.6764  1.4810
 4573SOL     OW25177   2.889   0.405   4.494  0.2060 -0.2408  0.6519
 4573SOL    HW125178   2.944   0.391   4.417 -2.4810 -0.3485 -1.2481
 4573SOL    HW225179   2.895   0.322   4.542  0.5556  0.1740  1.3207
 4574SOL     OW25180   1.296   2.439   7.731  0.4083  0.4757  0.3878
 4574SOL    HW125181   1.306   2.487   7.648 -2.6339  0.5110  0.0514
 4574SOL    HW225182   1.247   2.499   7.788  0.9580  3.1131 -1.8834
 4575SOL     OW25183   4.361   1.323  12.760  0.2788  1.0317  0.2543
 4575SOL    HW125184   4.404   1.238  12.775 -0.7595  0.5418  0.4835
 4575SOL    HW225185   4.316   1.304  12.678  0.0127  1.5423  0.2889
 4576SOL     OW25186   0.661   1.958   2.398 -0.2408 -0.0627 -0.6968
 4576SOL    HW125187   0.748   1.964   2.359 -0.4058 -0.7700 -1.1890
 4576SOL    HW225188   0.608   1.950   2.319 -0.2776 -1.9341 -0.4885
 4577SOL     OW25189   0.047   0.350   7.244 -0.5048  0.2517 -0.2501
 4577SOL    HW125190   4.682   0.373   7.208 -0.5364 -1.9908 -1.5951
 4577SOL    HW225191   0.100   0.396   7.179  0.8445 -1.1002 -0.0946
 4578SOL     OW25192   2.903   2.538  12.464 -0.6014 -0.1544 -0.1450
 4578SOL    HW125193   2.822   2.504  12.501 -1.9958  2.2496 -0.9825
 4578SOL    HW225194   2.919   2.608  12.527  3.4256 -2.2296  1.1349
 4579SOL     OW25195   4.500   0.589  13.197 -0.3725 -0.2773 -0.3196
 4579SOL    HW125196   4.418   0.540  13.187  0.7124 -2.2524  0.5928
 4579SOL    HW225197   4.566   0.525  13.171 -2.1952 -1.7230 -1.3624
 4580SOL     OW25198   4.456   3.135   3.091 -0.2618  0.3853  0.0333
 4580SOL    HW125199   4.532   3.079   3.076 -0.8358 -0.2901 -0.3829
 4580SOL    HW225200   4.462   3.145   3.186 -1.3533  0.1253  0.1342
 4581SOL     OW25201   0.756   4.192   9.249 -0.0394 -0.3085  1.0250
 4581SOL    HW125202   0.738   4.138   9.326  0.9675 -1.6925  0.2832
 4581SOL    HW225203   0.823   4.245   9.292  0.4656  0.0407 -0.1795
 4582SOL     OW25204   4.386   2.782  10.124  0.0539  0.1530 -0.5698
 4582SOL    HW125205   4.474   2.791  10.089 -0.5772 -1.5009 -2.5469
 4582SOL    HW225206   4.324   2.802  10.054 -1.1547 -1.2806  0.0669
 4583SOL     OW25207   4.505   3.213   7.620 -0.1730  0.0976  0.3750
 4583SOL    HW125208   4.514   3.230   7.526 -0.5527 -3.1236 -0.2653
 4583SOL    HW225209   4.556   3.132   7.627  0.0807  0.3403  1.2998
 4584SOL     OW25210   0.991   0.491  12.946  0.0765  0.0485 -0.4309
 4584SOL    HW125211   1.013   0.580  12.973  0.2535  0.3140 -1.4553
 4584SOL    HW225212   0.969   0.508  12.855  1.4574 -0.1694 -0.8050
 4585SOL     OW25213   3.891   0.692   6.307  0.4526 -0.1580 -0.0293
 4585SOL    HW125214   3.819   0.633   6.287 -0.1997  0.6866 -0.1370
 4585SOL    HW225215   3.925   0.650   6.386  0.3528 -1.7128 -0.8264
 4586SOL     OW25216   4.718   4.533   2.736  0.4524  0.0962  0.0648
 4586SOL    HW125217   4.683   4.615   2.771 -0.3466 -0.4551  0.5629
 4586SOL    HW225218   4.645   4.475   2.757  0.3650 -0.0267 -0.5749
 4587SOL     OW25219   1.751   3.279   2.649  0.5367  0.1203 -0.0834
 4587SOL    HW125220   1.669   3.266   2.698 -0.8280  0.6404 -2.2313
 4587SOL    HW225221   1.766   3.372   2.637  0.7274  0.0902 -0.0781
 4588SOL     OW25222   3.691   4.110   9.723 -0.2293  0.2217 -0.2888
 4588SOL    HW125223   3.670   4.202   9.738 -0.5810 -0.7720  5.2837
 4588SOL    HW225224   3.607   4.067   9.707  0.2169 -1.2323  1.2258
 4589SOL     OW25225   3.249   2.962  16.390 -0.5200 -0.4127 -0.0483
 4589SOL    HW125226   3.291   2.977  16.305 -1.8189 -0.8154 -0.7632
 4589SOL    HW225227   3.272   2.869  16.402 -0.8285 -0.4851 -0.0108
 4590SOL     OW25228   3.125   2.160   5.268 -0.0350  0.6339  0.2664
 4590SOL    HW125229   3.193   2.131   5.207 -2.9214 -1.3693 -2.0099
 4590SOL    HW225230   3.069   2.083   5.271 -0.5056  0.9631 -0.1444
 4591SOL     OW25231   1.876   3.096   1.145 -0.1363  0.6642  0.1867
 4591SOL    HW125232   1.796   3.061   1.183 -0.3207  0.1083 -0.7014
 4591SOL    HW225233   1.852   3.188   1.136  0.9508  0.9266 -0.1230
 4592SOL     OW25234   1.117   3.279   8.863  0.2301 -0.2234 -0.3235
 4592SOL    HW125235   1.026   3.253   8.883 -0.0429  0.8981 -0.1335
 4592SOL    HW225236   1.121   3.372   8.885 -0.7796 -0.4659  0.9213
 4593SOL     OW25237   3.764   1.311   5.740 -1.0601  0.6378  0.3995
 4593SOL    HW125238   3.838   1.343   5.792  0.6247 -0.1389 -1.5264
 4593SOL    HW225239   3.698   1.373   5.771 -0.9467  1.9084 -1.9186
 4594SOL     OW25240   3.124   0.939   3.528  0.3825 -0.7005 -0.2470
 4594SOL    HW125241   3.096   0.864   3.581  1.3996 -0.2534  0.9262
 4594SOL    HW225242   3.214   0.959   3.555  0.3327 -1.4910  0.4901
 4595SOL     OW25243   2.764   2.512  17.541 -0.6224 -0.3193  0.2095
 4595SOL    HW125244   2.832   2.569  17.578 -0.3684 -0.4244 -0.0935
 4595SOL    HW225245   2.746   2.564  17.463 -0.5206  1.0341  1.0916
 4596SOL     OW25246   2.637   3.205   2.694 -0.4111 -0.7559  0.5480
 4596SOL    HW125247   2.588   3.209   2.612 -1.1663  1.5571  1.1254
 4596SOL    HW225248   2.568   3.214   2.760 -1.4147  1.6301 -0.8476
 4597SOL     OW25249   2.949   4.391   5.854 -0.3385  0.0282 -0.2454
 4597SOL    HW125250   2.875   4.353   5.902 -0.0297 -0.1577  0.0799
 4597SOL    HW225251   2.976   4.465   5.908 -1.5107  0.2437  0.0578
 4598SOL     OW25252   0.109   0.534   5.806  0.4362  0.1291  0.5629
 4598SOL    HW125253   0.075   0.560   5.720  0.4113 -0.1755  0.4812
 4598SOL    HW225254   0.153   0.452   5.785 -1.4489 -0.8370  0.4292
 4599SOL     OW25255   4.437   1.335   4.257  0.3190 -0.2934 -0.5073
 4599SOL    HW125256   4.372   1.385   4.207  0.6816  1.5684  0.8514
 4599SOL    HW225257   4.383   1.301   4.328  0.4182  0.4219 -0.0916
 4600SOL     OW25258   3.199   2.204   6.253 -0.4013  0.1385  0.0542
 4600SOL    HW125259   3.214   2.280   6.197 -0.5984 -0.4270 -0.7522
 4600SOL    HW225260   3.227   2.241   6.337 -0.6749  2.1232 -0.7095
 4601SOL     OW25261   2.492   1.429   9.604  0.5323 -0.1204  0.0638
 4601SOL    HW125262   2.481   1.419   9.510  0.0507  0.3400  0.0694
 4601SOL    HW225263   2.432   1.362   9.638  2.8825 -1.6718  1.1395
 4602SOL     OW25264   3.494   1.742   5.957 -0.0224 -0.5271  0.3129
 4602SOL    HW125265   3.442   1.771   6.032  1.1013 -0.9793  1.2599
 4602SOL    HW225266   3.575   1.787   5.979 -0.4536  1.1066 -1.3388
 4603SOL     OW25267   1.731   4.295   7.597 -0.2124 -0.7835 -0.2267
 4603SOL    HW125268   1.808   4.271   7.546  0.4086 -0.9858  0.7966
 4603SOL    HW225269   1.700   4.369   7.546  1.5558  0.5294  0.6145
 4604SOL     OW25270   1.059   3.840   2.605  0.0414 -0.4787  0.2044
 4604SOL    HW125271   1.050   3.929   2.573  2.7247 -0.4178 -0.4111
 4604SOL    HW225272   1.011   3.788   2.541 -1.1454  0.1872  0.5531
 4605SOL     OW25273   1.461   3.072   3.270 -0.0519  0.1687 -1.1172
 4605SOL    HW125274   1.402   3.147   3.260 -0.6025 -0.0578  0.3785
 4605SOL    HW225275   1.493   3.057   3.181  0.2432  0.2101 -1.0168
 4606SOL     OW25276   4.539   1.303   6.891 -0.3346  0.6992  0.0597
 4606SOL    HW125277   4.505   1.331   6.976  1.1401 -0.5667  1.0648
 4606SOL    HW225278   4.527   1.208   6.889  1.5707  0.3993  4.1791
 4607SOL     OW25279   2.320   3.332  16.892  0.2240  0.0099 -0.1721
 4607SOL    HW125280   2.263   3.397  16.850  0.4210 -0.1562 -0.7013
 4607SOL    HW225281   2.397   3.353  16.840 -0.0387  0.1926 -0.4883
 4608SOL     OW25282   3.791   0.526   8.306 -0.1860 -0.5140 -0.5254
 4608SOL    HW125283   3.859   0.593   8.295 -0.4069  0.1225  1.9340
 4608SOL    HW225284   3.756   0.517   8.218 -0.9649  0.5910 -0.3202
 4609SOL     OW25285   1.698   0.506  15.652  0.3481  0.5237  0.5847
 4609SOL    HW125286   1.757   0.452  15.706  1.3434  0.7680 -0.2665
 4609SOL    HW225287   1.615   0.489  15.697 -0.6009  2.8084 -0.3199
 4610SOL     OW25288   2.467   1.571   6.183 -0.5523  0.0005 -0.2606
 4610SOL    HW125289   2.423   1.653   6.208 -0.5186  0.3427 -1.3228
 4610SOL    HW225290   2.419   1.514   6.243  0.2980 -0.0105  0.4153
 4611SOL     OW25291   4.045   2.496   4.884  0.3253  0.6727  0.6666
 4611SOL    HW125292   4.124   2.518   4.932  2.0349 -0.5377 -1.5912
 4611SOL    HW225293   4.061   2.404   4.866 -0.5540  0.5034  0.7385
 4612SOL     OW25294   0.905   1.708  11.086  0.2616 -0.2716 -0.3033
 4612SOL    HW125295   0.957   1.749  11.017  1.1546 -1.3879 -0.3009
 4612SOL    HW225296   0.918   1.763  11.164 -1.5511 -0.0347 -0.1789
 4613SOL     OW25297   4.577   3.134   5.238 -0.5459  0.7137  0.1918
 4613SOL    HW125298   4.647   3.070   5.224  1.4105  2.3032  2.7830
 4613SOL    HW225299   4.612   3.203   5.294  0.1962 -1.2096  2.0566
 4614SOL     OW25300   0.537   4.000   1.587  0.3707 -0.3694  0.2627
 4614SOL    HW125301   0.528   4.053   1.508 -1.3663 -2.5741 -1.0010
 4614SOL    HW225302   0.632   3.991   1.595  0.7264  1.7848 -1.4163
 4615SOL     OW25303   4.280   0.441   9.033  0.0963  0.0192  0.1803
 4615SOL    HW125304   4.209   0.432   9.097  0.2942  2.0226  0.6734
 4615SOL    HW225305   4.339   0.383   9.081  0.7393 -0.5214 -1.2764
 4616SOL     OW25306   0.939   2.670  16.534 -0.1580 -0.0867  0.2566
 4616SOL    HW125307   1.014   2.726  16.519 -0.6663  0.4214 -0.4118
 4616SOL    HW225308   0.961   2.635  16.620  4.4095  0.2488 -0.7994
 4617SOL     OW25309   3.907   1.670   6.972 -0.0544 -0.3187  0.3504
 4617SOL    HW125310   3.919   1.576   6.955  2.5819 -0.0471  0.6875
 4617SOL    HW225311   3.813   1.682   6.960  0.0995  0.0351 -0.5802
 4618SOL     OW25312   4.158   4.041   3.055  0.5252 -1.0797 -0.7158
 4618SOL    HW125313   4.250   4.059   3.072 -0.2709  2.3978 -0.0473
 4618SOL    HW225314   4.159   3.952   3.089  0.6624 -1.7022 -2.3182
 4619SOL     OW25315   3.449   4.283  17.390  0.2199  0.5649 -0.2379
 4619SOL    HW125316   3.473   4.193  17.413 -1.7722  0.1663  0.3133
 4619SOL    HW225317   3.353   4.281  17.398  0.1995 -0.8317 -0.7984
 4620SOL     OW25318   3.212   4.687   5.247  0.4694  0.0760 -0.1756
 4620SOL    HW125319   3.219   4.631   5.169  2.4918  0.3850 -0.2187
 4620SOL    HW225320   3.207   0.052   5.207 -0.1225 -0.7021 -1.7958
 4621SOL     OW25321   3.299   0.636   1.209  0.2554  0.2385  0.8399
 4621SOL    HW125322   3.349   0.561   1.242  1.7600  1.0847  0.4577
 4621SOL    HW225323   3.355   0.678   1.144  1.0257 -0.6107  0.9531
 4622SOL     OW25324   4.482   2.622  13.341  0.8080  0.8100  0.6202
 4622SOL    HW125325   4.478   2.639  13.435 -0.6026 -0.3192  0.7659
 4622SOL    HW225326   4.387   2.614  13.329  1.1686 -2.7783  0.2712
 4623SOL     OW25327   2.681   3.910   2.852  0.2877  0.1763  0.4541
 4623SOL    HW125328   2.678   3.942   2.941  0.3291  2.4694 -0.3844
 4623SOL    HW225329   2.594   3.936   2.822 -0.2731 -1.4557  0.6270
 4624SOL     OW25330   3.018   2.967   6.949  0.7139  0.1868 -0.1869
 4624SOL    HW125331   2.936   2.923   6.930  0.0000  1.5923 -0.4102
 4624SOL    HW225332   3.025   2.955   7.044 -0.0586 -1.0786 -0.3028
 4625SOL     OW25333   3.811   0.410  10.490  0.4615 -0.4304  0.1673
 4625SOL    HW125334   3.895   0.457  10.493  0.0022  0.5326 -1.9366
 4625SOL    HW225335   3.765   0.469  10.430  0.5843 -1.9719 -1.4630
 4626SOL     OW25336   3.946   2.119   5.285  0.1391  0.1949  0.4048
 4626SOL    HW125337   3.898   2.166   5.217  1.2038  1.4655  0.5180
 4626SOL    HW225338   3.943   2.034   5.241  0.5234  0.0780  0.6031
 4627SOL     OW25339   4.691   1.514   3.009 -0.1666 -0.1904  0.4776
 4627SOL    HW125340   4.644   1.552   3.083 -1.4398 -2.8033  1.0410
 4627SOL    HW225341   4.687   1.419   3.025  0.0256 -0.2794 -0.0206
 4628SOL     OW25342   2.719   1.886   7.314 -0.3528 -0.7777  0.8538
 4628SOL    HW125343   2.720   1.948   7.241 -1.3689  1.7267  2.9167
 4628SOL    HW225344   2.711   1.948   7.387  3.4861  0.9055 -0.1202
 4629SOL     OW25345   0.140   2.608   4.408 -0.0106  0.2452 -0.7331
 4629SOL    HW125346   0.065   2.638   4.460  2.2959  1.3812  1.9969
 4629SOL    HW225347   0.209   2.671   4.432 -0.7978  1.2951 -1.2262
 4630SOL     OW25348   2.108   0.702   3.645  0.2574  0.3814 -0.2759
 4630SOL    HW125349   2.083   0.639   3.712  1.9329  1.7225  1.5761
 4630SOL    HW225350   2.092   0.650   3.566 -1.8838  0.7770 -0.0966
 4631SOL     OW25351   2.075   1.389   0.634 -0.3524  0.4936  0.0107
 4631SOL    HW125352   2.000   1.435   0.594 -1.4124 -0.9141  0.3761
 4631SOL    HW225353   2.109   1.363   0.549  1.0096  0.5610  0.5386
 4632SOL     OW25354   2.697   2.181   7.412  0.0267 -0.4959 -0.2009
 4632SOL    HW125355   2.711   2.232   7.333 -2.6882  0.1106 -0.2996
 4632SOL    HW225356   2.673   2.262   7.458 -1.5967 -0.4472 -1.1607
 4633SOL     OW25357   1.776   1.283   4.607 -0.1254  0.0699  0.3232
 4633SOL    HW125358   1.810   1.364   4.568  1.3071  0.6497  2.7330
 4633SOL    HW225359   1.855   1.229   4.604  0.2242  0.4347  2.7742
 4634SOL     OW25360   0.870   1.785   6.722 -0.8007 -0.3504  0.0384
 4634SOL    HW125361   0.847   1.716   6.783  0.5570 -0.9293 -0.1098
 4634SOL    HW225362   0.891   1.859   6.779 -1.3756  0.1239 -0.3599
 4635SOL     OW25363   2.847   0.185  14.267  0.1832  0.2131 -0.4175
 4635SOL    HW125364   2.936   0.209  14.293 -0.0757  0.8840 -0.1541
 4635SOL    HW225365   2.818   0.265  14.221  0.8471  0.7885  0.1750
 4636SOL     OW25366   0.622   4.041  13.248  0.0320 -0.2795 -0.2739
 4636SOL    HW125367   0.643   4.040  13.155 -0.8827 -0.8892 -0.4774
 4636SOL    HW225368   0.633   3.946  13.259 -0.8270 -0.2229  1.0824
 4637SOL     OW25369   2.735   3.036   3.654  0.2387  0.4768 -0.7523
 4637SOL    HW125370   2.646   3.015   3.684 -0.4356 -0.4969 -3.4513
 4637SOL    HW225371   2.768   3.071   3.737 -0.4082  0.8231 -0.6380
 4638SOL     OW25372   2.952   0.999  13.392 -0.5437 -0.0326  0.9706
 4638SOL    HW125373   2.989   1.083  13.367 -1.8760 -0.5746 -2.7791
 4638SOL    HW225374   2.979   0.933  13.328 -2.3197  0.5051 -0.3107
 4639SOL     OW25375   1.178   3.942   2.832  0.0928 -0.2698 -0.3020
 4639SOL    HW125376   1.198   4.035   2.819  2.9935 -0.6556  1.3982
 4639SOL    HW225377   1.139   3.920   2.748  1.5233  0.9656 -1.2868
 4640SOL     OW25378   2.397   0.399  17.052 -0.1625  0.2617  0.2480
 4640SOL    HW125379   2.445   0.475  17.084  3.7868 -1.4433 -1.5106
 4640SOL    HW225380   2.457   0.326  17.069 -0.2398  0.6693  2.2186
 4641SOL     OW25381   4.337   0.369   8.399 -0.4319  0.3879 -0.3326
 4641SOL    HW125382   4.394   0.343   8.327 -0.8432 -1.6184  0.0714
 4641SOL    HW225383   4.403   0.390   8.464 -0.9337  0.9267  0.0066
 4642SOL     OW25384   1.058   3.541   4.835 -0.6894 -0.2148  0.0094
 4642SOL    HW125385   1.045   3.548   4.929  0.2962 -0.4197  0.1557
 4642SOL    HW225386   1.114   3.617   4.824 -0.8227  0.0607  1.3291
 4643SOL     OW25387   0.666   0.554   9.970  0.1466  0.5594  0.2411
 4643SOL    HW125388   0.597   0.581  10.031  0.1138  0.8395  0.0799
 4643SOL    HW225389   0.730   0.517  10.032 -0.7868 -1.7748 -0.1951
 4644SOL     OW25390   3.001   1.158   1.711 -0.4382 -0.5599 -0.3539
 4644SOL    HW125391   3.008   1.172   1.806  0.1347  1.1235 -0.6326
 4644SOL    HW225392   3.057   1.231   1.683 -0.1925 -0.5489  0.1755
 4645SOL     OW25393   2.954   0.007   8.001 -0.0642 -0.5125  0.2622
 4645SOL    HW125394   2.887   0.028   7.936  0.4658  0.0534 -0.0993
 4645SOL    HW225395   2.996   0.092   8.014 -0.6955  0.2153 -2.3099
 4646SOL     OW25396   0.365   0.712   8.252  0.1171 -0.3723  0.0049
 4646SOL    HW125397   0.354   0.705   8.157 -2.6372  0.5528  0.2582
 4646SOL    HW225398   0.403   0.627   8.274  0.8217  0.3700  1.6339
 4647SOL     OW25399   1.678   1.112   6.895 -0.2625 -0.0847  0.5510
 4647SOL    HW125400   1.617   1.078   6.960  1.9100 -2.1065  1.5313
 4647SOL    HW225401   1.620   1.151   6.830  0.7062  2.1131  1.0088
 4648SOL     OW25402   2.486   4.104   4.553  0.1642  0.7227 -0.6547
 4648SOL    HW125403   2.407   4.130   4.601  0.3944 -0.0991  0.1715
 4648SOL    HW225404   2.455   4.137   4.469 -0.2702 -1.2876 -1.2828
 4649SOL     OW25405   4.681   3.289   3.570 -0.3093 -0.3813  0.0823
 4649SOL    HW125406   0.046   3.309   3.606  0.2208 -0.5051 -1.1257
 4649SOL    HW225407   4.614   3.312   3.634  2.2055 -0.8934  2.8627
 4650SOL     OW25408   3.403   2.755   4.159 -0.0730  0.1985 -0.6164
 4650SOL    HW125409   3.391   2.835   4.107  0.0098  1.5221  1.4196
 4650SOL    HW225410   3.378   2.686   4.098  1.0012  1.3958 -2.4133
 4651SOL     OW25411   4.592   2.249   2.012 -0.0923 -0.4406  0.3321
 4651SOL    HW125412   4.498   2.234   2.006 -0.0139 -0.2666 -1.3463
 4651SOL    HW225413   4.594   2.339   2.044  2.1022 -0.0012 -0.9986
 4652SOL     OW25414   3.880   0.694   9.669 -0.5371  0.3407 -0.7151
 4652SOL    HW125415   3.897   0.617   9.616 -2.2700 -1.3006  1.1530
 4652SOL    HW225416   3.805   0.728   9.621 -0.2709 -0.4879 -1.7165
 4653SOL     OW25417   4.055   3.549   6.589  0.6191 -0.1784 -0.2884
 4653SOL    HW125418   4.018   3.564   6.676  1.4448 -0.4656  0.1113
 4653SOL    HW225419   4.129   3.610   6.591 -0.0472  0.5918  1.2829
 4654SOL     OW25420   3.409   0.639   5.699  0.4184  0.4012  0.2541
 4654SOL    HW125421   3.381   0.549   5.716  0.3019  0.8033  2.1533
 4654SOL    HW225422   3.377   0.674   5.782  0.6330  0.0878  0.4697
 4655SOL     OW25423   3.436   4.176   4.641  0.6188 -0.2526  0.4002
 4655SOL    HW125424   3.398   4.133   4.718  1.9943 -2.1884 -0.0290
 4655SOL    HW225425   3.473   4.255   4.682  1.9761  0.3480 -1.9971
 4656SOL     OW25426   1.290   3.974   8.429  0.3625  0.3777  0.2724
 4656SOL    HW125427   1.256   3.966   8.519 -0.3829  0.3089 -0.0173
 4656SOL    HW225428   1.241   4.049   8.396 -0.6903  0.1966  1.3963
 4657SOL     OW25429   1.538   4.607  12.209  0.1705 -0.6374  0.0591
 4657SOL    HW125430   1.459   4.561  12.237  0.1488 -0.8709 -0.3825
 4657SOL    HW225431   1.511   4.643  12.125 -1.8173 -2.9355 -0.2895
 4658SOL     OW25432   4.545   0.481   7.144  0.3597  0.1629  0.2287
 4658SOL    HW125433   4.456   0.508   7.168 -0.7043 -2.5222 -0.7294
 4658SOL    HW225434   4.589   0.565   7.160  0.4980  0.4985 -1.8319
 4659SOL     OW25435   1.902   1.975   7.926 -0.0757  0.5618 -0.4752
 4659SOL    HW125436   1.860   1.931   8.000  0.1287  0.1264 -0.6185
 4659SOL    HW225437   1.865   1.924   7.854  2.2006 -0.0223 -1.2286
 4660SOL     OW25438   2.473   3.228   9.269  0.2153 -0.1900  0.3349
 4660SOL    HW125439   2.421   3.155   9.301 -0.4655 -0.1335 -0.6238
 4660SOL    HW225440   2.430   3.306   9.305  0.5628  0.5384 -0.8103
 4661SOL     OW25441   2.324   2.609   3.484  0.0996 -0.3422 -0.1312
 4661SOL    HW125442   2.408   2.563   3.483 -0.3745 -1.1997 -0.5635
 4661SOL    HW225443   2.300   2.610   3.391 -0.9133 -1.4535  0.1072
 4662SOL     OW25444   4.159   4.122  15.955  0.2375  0.3845 -0.4802
 4662SOL    HW125445   4.202   4.207  15.957  0.8461  0.0491  0.4266
 4662SOL    HW225446   4.070   4.150  15.936  0.0848 -0.0063 -0.3393
 4663SOL     OW25447   0.760   2.501  10.022 -0.5457  0.1241 -0.5410
 4663SOL    HW125448   0.689   2.528   9.965 -2.7096 -2.5867  0.8969
 4663SOL    HW225449   0.759   2.406  10.014 -0.3134 -0.2026  3.1598
 4664SOL     OW25450   0.529   0.661   6.620 -0.1950 -0.0003  0.8448
 4664SOL    HW125451   0.557   0.620   6.538 -0.6674  1.2072  0.0731
 4664SOL    HW225452   0.439   0.629   6.626 -0.2639 -0.0296 -0.4347
 4665SOL     OW25453   2.321   2.037   4.933 -0.3368 -0.1524 -0.2600
 4665SOL    HW125454   2.309   2.132   4.942 -2.2904 -0.3307 -1.1741
 4665SOL    HW225455   2.304   2.008   4.844  0.1050 -0.5478 -0.2157
 4666SOL     OW25456   1.197   1.559   9.401  0.2074 -0.0717 -0.8105
 4666SOL    HW125457   1.104   1.541   9.382  0.3252 -1.5248 -0.0212
 4666SOL    HW225458   1.191   1.544   9.495  1.9519 -2.4370 -1.0647
 4667SOL     OW25459   4.180   2.951  15.469 -0.0200 -0.7037  0.1736
 4667SOL    HW125460   4.151   2.871  15.513  0.2391 -2.3137 -2.6003
 4667SOL    HW225461   4.220   2.994  15.544 -1.4799 -1.3691  1.3389
 4668SOL     OW25462   4.493   1.576   1.145 -0.0002  0.0143  0.1363
 4668SOL    HW125463   4.574   1.548   1.188 -0.0006 -2.8741 -1.7916
 4668SOL    HW225464   4.479   1.651   1.203 -2.4676 -0.8127  0.6087
 4669SOL     OW25465   1.267   1.299  11.076 -0.1062 -0.1270  0.4331
 4669SOL    HW125466   1.332   1.342  11.020 -1.0694  0.0056 -0.5960
 4669SOL    HW225467   1.273   1.206  11.055  1.9961 -0.2536  1.6111
 4670SOL     OW25468   4.480   1.384   3.884 -0.7506 -0.4361  0.4982
 4670SOL    HW125469   4.476   1.316   3.952 -0.3574  0.1324  1.0815
 4670SOL    HW225470   4.389   1.413   3.892 -0.5247 -0.1509  2.1765
 4671SOL     OW25471   1.372   3.130   9.080 -0.1210 -0.9487 -0.0829
 4671SOL    HW125472   1.277   3.117   9.083 -0.2104 -0.1961  0.3215
 4671SOL    HW225473   1.374   3.224   9.096 -0.9645 -1.0192  0.3988
 4672SOL     OW25474   1.863   0.856   0.417 -0.1056  1.1982  0.2262
 4672SOL    HW125475   1.823   0.810   0.491  0.5158  0.4647  0.0977
 4672SOL    HW225476   1.858   0.799   0.341  0.7714  0.8443  0.4414
 4673SOL     OW25477   2.942   2.555  15.067 -0.6838 -0.3024 -0.0409
 4673SOL    HW125478   2.852   2.567  15.039 -0.1144  1.6197 -1.0173
 4673SOL    HW225479   2.987   2.587  14.990  1.6776 -1.0191  1.0379
 4674SOL     OW25480   0.352   4.048   7.021 -0.1092  0.0006  0.2913
 4674SOL    HW125481   0.280   3.996   7.057  1.9291 -1.2951  2.4618
 4674SOL    HW225482   0.417   3.979   7.008  1.9650  1.4927  2.9116
 4675SOL     OW25483   2.427   4.637  17.283 -0.3861 -0.3234  0.3500
 4675SOL    HW125484   2.479   4.692  17.341 -0.4225 -0.3501  0.4074
 4675SOL    HW225485   2.497   4.626  17.218 -0.4428  0.1237  0.2113
 4676SOL     OW25486   1.953   1.036   6.548 -0.5596 -0.1921 -0.3461
 4676SOL    HW125487   1.925   1.004   6.634  0.9066 -2.3144 -0.6558
 4676SOL    HW225488   1.878   1.022   6.490  0.4406 -0.1786 -1.6455
 4677SOL     OW25489   3.947   4.533   5.098 -0.3907  0.8097  0.0104
 4677SOL    HW125490   3.936   4.579   5.181  1.8439 -2.8043  2.2840
 4677SOL    HW225491   4.041   4.536   5.081 -0.2043 -1.8840  0.5228
 4678SOL     OW25492   0.670   4.397   2.750  0.3569  0.4958  0.2027
 4678SOL    HW125493   0.624   4.475   2.780 -0.5630 -0.0518  0.2164
 4678SOL    HW225494   0.681   4.423   2.658 -0.9812  2.1260  0.5115
 4679SOL     OW25495   3.600   4.453  13.562  0.0116  0.3003  0.6456
 4679SOL    HW125496   3.544   4.377  13.577 -0.0444  0.0851 -0.6497
 4679SOL    HW225497   3.580   4.498  13.644 -1.6300  2.3886 -0.8909
 4680SOL     OW25498   3.638   0.293   4.770  0.1837 -0.3977 -0.2865
 4680SOL    HW125499   3.721   0.255   4.796  0.6969  3.0165  3.1183
 4680SOL    HW225500   3.589   0.283   4.851 -1.0596  2.7874 -0.6233
 4681SOL     OW25501   2.079   0.967  16.109  0.3698  0.1896 -0.4830
 4681SOL    HW125502   2.017   0.915  16.058 -0.8636  1.6490 -0.4605
 4681SOL    HW225503   2.030   0.993  16.187  2.4494  2.2076  0.1627
 4682SOL     OW25504   0.588   3.363  13.699 -0.1754  0.7358 -0.4123
 4682SOL    HW125505   0.665   3.355  13.643  0.3938 -0.9402  0.5991
 4682SOL    HW225506   0.519   3.333  13.640 -0.8389  1.4981 -0.0186
 4683SOL     OW25507   4.312   2.567   9.864  0.2391  0.2992  0.3026
 4683SOL    HW125508   4.342   2.545   9.952  0.9804 -1.6746 -0.4381
 4683SOL    HW225509   4.261   2.488   9.842  1.1109 -1.0681  3.1819
 4684SOL     OW25510   0.969   2.651   7.018  0.3868  0.0235 -0.2567
 4684SOL    HW125511   1.000   2.736   6.986  2.9894 -0.5457  0.7939
 4684SOL    HW225512   1.033   2.613   7.078 -0.6089 -1.2392 -0.0038
 4685SOL     OW25513   4.648   0.209   3.871 -0.2077  0.1188 -0.3312
 4685SOL    HW125514   4.713   0.147   3.904 -1.8182 -2.5143 -2.1092
 4685SOL    HW225515   4.643   0.178   3.780  1.8027  3.1493 -1.5016
 4686SOL     OW25516   2.987   0.286   7.059  0.0657 -0.1613  0.8654
 4686SOL    HW125517   3.037   0.206   7.074  0.2192 -0.0723  0.8319
 4686SOL    HW225518   2.900   0.263   7.091 -0.2300 -1.3539 -0.7822
 4687SOL     OW25519   1.662   2.085   3.937  0.7261  0.7518 -0.0997
 4687SOL    HW125520   1.630   2.175   3.943  1.2300  1.1741 -3.8085
 4687SOL    HW225521   1.669   2.072   3.843  0.5459 -3.2630  0.4507
 4688SOL     OW25522   0.058   4.318   3.402  0.5398 -0.2901 -0.1392
 4688SOL    HW125523   0.035   4.309   3.309 -0.2458  1.7492 -0.1460
 4688SOL    HW225524   4.704   4.275   3.443  1.5746 -2.7430 -0.7569
 4689SOL     OW25525   0.915   2.183  15.340 -0.1266  0.0484 -0.0563
 4689SOL    HW125526   0.922   2.167  15.435  2.0681 -0.7524 -0.3318
 4689SOL    HW225527   0.823   2.199  15.322  0.1232  3.6195  1.9688
 4690SOL     OW25528   2.151   3.839   1.132  0.1600  0.4025 -0.1112
 4690SOL    HW125529   2.074   3.890   1.109  0.2060 -0.5999 -2.5809
 4690SOL    HW225530   2.224   3.897   1.154  0.5161 -0.6364  1.4725
 4691SOL     OW25531   0.244   4.686   2.662  0.1352 -0.2109 -0.9878
 4691SOL    HW125532   0.280   4.693   2.574  1.7644 -0.5867 -0.3507
 4691SOL    HW225533   0.154   4.715   2.645 -0.0345  0.1429  0.4979
 4692SOL     OW25534   2.644   0.161   5.999  0.3983  0.2381 -0.3212
 4692SOL    HW125535   2.619   0.235   5.943  0.1772 -2.2831 -3.6075
 4692SOL    HW225536   2.565   0.113   5.977  0.3461  0.0569  0.2713
 4693SOL     OW25537   2.139   3.152  15.288 -0.1498 -0.0200  0.7604
 4693SOL    HW125538   2.077   3.208  15.242 -0.3033 -0.2687  0.6672
 4693SOL    HW225539   2.225   3.192  15.275 -0.6785  1.2258  1.1456
 4694SOL     OW25540   4.484   0.388   9.972 -0.2121 -0.7234  0.1827
 4694SOL    HW125541   4.472   0.474   9.931 -0.6813 -0.3184  1.1901
 4694SOL    HW225542   4.395   0.371  10.001  0.3955 -0.0917  2.3804
 4695SOL     OW25543   1.609   2.682  12.492 -0.3051 -0.1946 -0.2088
 4695SOL    HW125544   1.554   2.605  12.478  0.7279 -0.8236 -0.8619
 4695SOL    HW225545   1.677   2.671  12.425 -1.5185  0.7945 -1.5888
 4696SOL     OW25546   2.855   2.723   8.227  0.0571 -0.3845  0.6573
 4696SOL    HW125547   2.823   2.693   8.312  1.0535  2.4142  2.0109
 4696SOL    HW225548   2.949   2.717   8.247  0.2077  3.7566  1.2380
 4697SOL     OW25549   0.588   0.505   7.114  0.3202  0.6951 -0.1801
 4697SOL    HW125550   0.673   0.525   7.075  0.3787  0.6537 -0.0736
 4697SOL    HW225551   0.570   0.423   7.067 -1.1994 -0.2870  2.1057
 4698SOL     OW25552   2.105   0.391   4.356 -0.2128  0.0638  0.3625
 4698SOL    HW125553   2.169   0.338   4.309  0.7032 -0.6582  2.4336
 4698SOL    HW225554   2.022   0.349   4.331 -0.2206  0.5967 -0.5242
 4699SOL     OW25555   3.325   0.595   3.467  0.2357 -0.3001 -0.2702
 4699SOL    HW125556   3.278   0.609   3.549 -1.1140 -1.9135 -0.7614
 4699SOL    HW225557   3.245   0.579   3.417  1.2459 -2.2813 -1.2446
 4700SOL     OW25558   0.104   3.600   4.638 -0.4296  0.0512 -0.2286
 4700SOL    HW125559   0.109   3.524   4.697 -2.1481 -0.8049 -1.2078
 4700SOL    HW225560   0.167   3.659   4.681  1.3680 -0.9919 -1.4492
 4701SOL     OW25561   3.248   0.845   5.519 -0.1129  0.1670  0.5364
 4701SOL    HW125562   3.208   0.762   5.544 -1.1610  0.7981  0.9168
 4701SOL    HW225563   3.297   0.827   5.438 -0.2464 -0.7885  0.6735
 4702SOL     OW25564   4.638   2.335  12.445  0.0983  0.4431  0.0615
 4702SOL    HW125565   4.561   2.319  12.499 -1.0703 -1.1844 -2.1210
 4702SOL    HW225566   4.601   2.352  12.359  0.7122 -1.4349 -0.5698
 4703SOL     OW25567   1.476   3.194   8.012 -0.1919  0.0592  0.6632
 4703SOL    HW125568   1.497   3.102   8.000  3.7790  1.0460  0.1716
 4703SOL    HW225569   1.387   3.193   8.049 -0.9010 -1.3518 -1.0543
 4704SOL     OW25570   0.709   2.905   3.768 -0.3730  0.2046  0.7446
 4704SOL    HW125571   0.621   2.942   3.774 -0.0926  0.9956  0.0055
 4704SOL    HW225572   0.732   2.957   3.691  0.0406  0.9439  1.3744
 4705SOL     OW25573   0.414   1.125   8.375  0.2594  0.3033  0.5708
 4705SOL    HW125574   0.491   1.076   8.347  0.0104  1.0495 -1.4329
 4705SOL    HW225575   0.365   1.050   8.408 -1.2644  1.0984  0.1264
 4706SOL     OW25576   1.240   2.175  17.348  0.0574 -0.6306 -0.6734
 4706SOL    HW125577   1.148   2.150  17.356 -0.1582  0.6210  0.6726
 4706SOL    HW225578   1.255   2.196  17.440 -2.1594 -0.5120 -0.3432
 4707SOL     OW25579   3.294   1.338   7.754 -0.3744 -0.0525 -0.3839
 4707SOL    HW125580   3.340   1.255   7.766  0.4711  0.6066  0.8992
 4707SOL    HW225581   3.293   1.379   7.841  0.1906 -1.7429  0.4174
 4708SOL     OW25582   3.801   1.983   2.642  0.0702  0.1834  0.0614
 4708SOL    HW125583   3.731   1.944   2.694 -0.4090 -1.0966 -1.5544
 4708SOL    HW225584   3.840   2.041   2.708  2.7950  0.5312 -1.8979
 4709SOL     OW25585   1.855   0.652   3.122 -0.7285  0.0581 -0.1523
 4709SOL    HW125586   1.823   0.638   3.210  0.9238  0.7206  0.5543
 4709SOL    HW225587   1.846   0.571   3.072  2.5533 -0.3279 -0.0895
 4710SOL     OW25588   4.011   1.012   3.588  0.2152 -0.2769 -0.3624
 4710SOL    HW125589   3.920   1.001   3.561 -0.4380  1.9757  0.8907
 4710SOL    HW225590   4.055   0.937   3.549 -0.2040  0.3030 -1.9165
 4711SOL     OW25591   3.579   2.729   3.659  0.8069 -0.1109  0.1287
 4711SOL    HW125592   3.617   2.795   3.717 -0.7878  0.3417  0.6712
 4711SOL    HW225593   3.551   2.669   3.728 -2.1813 -0.2764 -1.2133
 4712SOL     OW25594   3.576   0.584  11.130 -0.0887  0.3663  0.0395
 4712SOL    HW125595   3.583   0.557  11.221 -1.8814  1.7007  0.5846
 4712SOL    HW225596   3.595   0.678  11.135  0.3864  0.3300 -1.0433
 4713SOL     OW25597   0.411   3.500   8.482 -0.4951  0.3644  0.0443
 4713SOL    HW125598   0.487   3.441   8.473 -0.3760  0.3696  1.0173
 4713SOL    HW225599   0.447   3.577   8.527  0.1597  0.6836 -1.0407
 4714SOL     OW25600   0.207   2.788   8.163  0.3589  0.2143 -0.3404
 4714SOL    HW125601   0.210   2.734   8.242  0.9703 -0.0850 -0.5676
 4714SOL    HW225602   0.123   2.832   8.174  2.0107  3.1290  0.8800
 4715SOL     OW25603   1.771   0.075   2.429  0.2590 -0.0836 -0.2119
 4715SOL    HW125604   1.763   4.703   2.451 -0.9406  0.3107  1.0146
 4715SOL    HW225605   1.831   0.099   2.499 -0.3211  2.7947 -0.7147
 4716SOL     OW25606   3.013   2.587   8.016  0.3449  0.4774 -0.5459
 4716SOL    HW125607   3.006   2.650   8.087  0.8560 -0.1570  0.0670
 4716SOL    HW225608   2.989   2.506   8.060 -0.3967  0.7605 -0.4365
 4717SOL     OW25609   2.986   1.687   5.201 -0.8886 -0.1089 -0.2264
 4717SOL    HW125610   3.076   1.702   5.171 -0.7685 -0.2219  0.0814
 4717SOL    HW225611   2.992   1.611   5.259 -0.4186 -1.8111 -2.5133
 4718SOL     OW25612   3.123   3.177   9.955 -0.3710 -0.0644  0.1633
 4718SOL    HW125613   3.151   3.268   9.968 -0.1901 -0.1901  0.6566
 4718SOL    HW225614   3.213   3.145   9.955 -0.1138  0.6498 -0.9813
 4719SOL     OW25615   3.989   1.039   2.656 -0.2160  0.1805  0.4170
 4719SOL    HW125616   3.928   1.082   2.598  2.7148  2.7545 -0.7788
 4719SOL    HW225617   3.938   1.002   2.728  0.1697  0.8539  1.0366
 4720SOL     OW25618   0.946   0.461   7.261  0.1160 -0.2590  0.4908
 4720SOL    HW125619   0.914   0.445   7.172  3.3297  1.3806 -0.9527
 4720SOL    HW225620   1.038   0.441   7.241  0.2032  0.2124  0.4332
 4721SOL     OW25621   4.199   2.221  13.415  0.1746 -0.0193 -0.5989
 4721SOL    HW125622   4.158   2.153  13.362  0.1738 -0.0179 -0.6002
 4721SOL    HW225623   4.158   2.302  13.383 -0.6905  0.0793  0.7360
 4722SOL     OW25624   2.398   1.098   2.678 -0.9700 -0.0065  0.3957
 4722SOL    HW125625   2.372   1.092   2.771 -0.8835  1.1122  0.4829
 4722SOL    HW225626   2.311   1.089   2.637 -0.8307 -1.7828  0.4864
 4723SOL     OW25627   3.723   3.467  13.501 -0.2673  0.4740 -0.5159
 4723SOL    HW125628   3.671   3.521  13.443 -0.5519 -0.6704 -1.3207
 4723SOL    HW225629   3.807   3.477  13.456 -0.3624 -0.0364 -0.8076
 4724SOL     OW25630   2.855   0.501  17.274 -0.0411  0.2936  0.0777
 4724SOL    HW125631   2.880   0.424  17.222  0.5905 -1.6787  3.2702
 4724SOL    HW225632   2.935   0.550  17.291 -0.4827  0.6287  1.1872
 4725SOL     OW25633   2.755   0.062   7.829 -0.3117 -0.0600  0.2974
 4725SOL    HW125634   2.679   0.096   7.876 -0.6504  0.4961 -0.6339
 4725SOL    HW225635   2.742   0.098   7.741  2.4758  1.2442  0.4186
 4726SOL     OW25636   0.468   1.013   3.969  0.2826 -0.7438 -0.2717
 4726SOL    HW125637   0.522   1.088   3.945  1.5590 -1.3086  0.8394
 4726SOL    HW225638   0.429   1.000   3.882 -2.1886  0.6467  0.6288
 4727SOL     OW25639   0.034   1.067   5.683 -0.4862 -0.5732  0.4679
 4727SOL    HW125640   0.099   1.055   5.615  2.0331  0.7936  2.6169
 4727SOL    HW225641   0.070   1.140   5.735 -0.4501  0.0044 -0.3765
 4728SOL     OW25642   0.362   2.493   3.642  0.2214 -0.2158 -0.2839
 4728SOL    HW125643   0.357   2.586   3.662 -0.7063  0.1257 -2.1695
 4728SOL    HW225644   0.443   2.483   3.591  2.2988  1.1622  2.6868
 4729SOL     OW25645   0.668   3.857  10.607 -0.1420  0.5891  0.2849
 4729SOL    HW125646   0.613   3.890  10.678  1.7853  0.8418  1.6517
 4729SOL    HW225647   0.646   3.919  10.537  0.4830 -2.1880 -2.4253
 4730SOL     OW25648   3.123   0.073  10.452  0.2621 -0.5003 -0.7765
 4730SOL    HW125649   3.133   0.067  10.547  0.5676 -0.8046 -0.8304
 4730SOL    HW225650   3.040   0.030  10.433 -0.5204  0.7971 -0.2951
 4731SOL     OW25651   3.776   1.033   5.817 -0.2547  0.3025 -0.0035
 4731SOL    HW125652   3.844   0.983   5.773  0.7944  1.3038  0.4643
 4731SOL    HW225653   3.799   1.122   5.789  0.4422  0.8469  2.2584
 4732SOL     OW25654   1.682   2.039   8.468 -0.2282 -0.4859  0.0429
 4732SOL    HW125655   1.601   1.993   8.445 -0.6517  0.8780 -1.2055
 4732SOL    HW225656   1.744   1.973   8.439  0.6491  0.4488 -0.2069
 4733SOL     OW25657   0.676   1.205   3.902 -0.2789 -0.1167  0.2524
 4733SOL    HW125658   0.672   1.300   3.904 -2.2781 -0.2126  0.5708
 4733SOL    HW225659   0.718   1.191   3.817 -1.6861  1.2623 -0.6575
 4734SOL     OW25660   3.477   4.704   2.857  0.0893 -0.4436 -0.0182
 4734SOL    HW125661   3.408   4.679   2.796 -1.9262  2.4580  1.0699
 4734SOL    HW225662   3.432   0.053   2.903 -0.2893 -0.4334 -0.4034
 4735SOL     OW25663   1.693   2.578   6.080  0.1014 -0.1591  0.1641
 4735SOL    HW125664   1.671   2.670   6.090 -1.0963 -0.3040 -1.1512
 4735SOL    HW225665   1.677   2.542   6.167 -0.6448  0.2594  0.1973
 4736SOL     OW25666   0.575   4.671  16.758  0.2585  0.1338 -0.2070
 4736SOL    HW125667   0.489   4.667  16.800  1.1468  1.0927  1.7034
 4736SOL    HW225668   0.625   4.619  16.821  0.8294  0.5974 -0.2793
 4737SOL     OW25669   0.267   0.205  11.044  0.0473 -0.3838  0.1149
 4737SOL    HW125670   0.233   0.292  11.067  1.6886 -0.2250  1.9231
 4737SOL    HW225671   0.336   0.204  11.110  0.9548  1.7629 -0.8079
 4738SOL     OW25672   0.374   2.996   2.959  0.3853 -0.0310  0.8103
 4738SOL    HW125673   0.356   3.088   2.979  1.4411  0.0206  1.5144
 4738SOL    HW225674   0.330   2.987   2.874  1.0540 -0.8554  0.5510
 4739SOL     OW25675   2.362   3.185   3.233  0.1739  0.2299  0.7868
 4739SOL    HW125676   2.420   3.118   3.270  0.9272  0.3155 -0.2444
 4739SOL    HW225677   2.302   3.197   3.307  0.0253  1.2034  0.5016
 4740SOL     OW25678   0.812   3.902   5.587  0.2418  0.3598 -0.1262
 4740SOL    HW125679   0.796   3.820   5.540 -1.0951 -0.5733  1.9226
 4740SOL    HW225680   0.741   3.905   5.651 -1.4286  0.3237 -1.9681
 4741SOL     OW25681   1.932   1.889  10.192  0.1394  0.6028 -0.4904
 4741SOL    HW125682   1.941   1.951  10.120 -0.5923 -1.1866 -2.1439
 4741SOL    HW225683   1.841   1.908  10.215  0.0956  1.8443 -1.6563
 4742SOL     OW25684   4.399   4.260   8.320  0.0095  0.6373  0.0594
 4742SOL    HW125685   4.354   4.176   8.322 -0.2921  0.8382  1.2150
 4742SOL    HW225686   4.478   4.226   8.362 -0.5881  1.2544  1.6650
 4743SOL     OW25687   3.125   4.436   2.552  0.0860  0.3934 -0.1802
 4743SOL    HW125688   3.084   4.401   2.473 -0.1017  0.3378 -0.0584
 4743SOL    HW225689   3.173   4.510   2.515  0.4654 -0.3365 -1.1665
 4744SOL     OW25690   3.700   4.286   4.330 -0.5305  0.1146 -0.0399
 4744SOL    HW125691   3.634   4.340   4.287 -0.5497  0.4227  0.3657
 4744SOL    HW225692   3.691   4.317   4.421 -0.3224 -0.1049  0.0556
 4745SOL     OW25693   4.719   3.098   4.222 -0.0111 -0.3848 -0.4344
 4745SOL    HW125694   4.709   3.122   4.314  3.6365 -0.5042 -0.0093
 4745SOL    HW225695   4.675   3.014   4.229 -1.0819  0.4390  2.8353
 4746SOL     OW25696   3.458   3.174   1.030 -0.3420 -0.3626 -0.6927
 4746SOL    HW125697   3.545   3.178   1.069 -0.1117 -0.5540 -1.1902
 4746SOL    HW225698   3.475   3.102   0.970  1.7872  0.0339 -0.5551
 4747SOL     OW25699   2.748   0.203   3.102 -0.0852  0.7161 -0.0474
 4747SOL    HW125700   2.715   0.170   3.018  0.5065  1.7295 -0.6814
 4747SOL    HW225701   2.737   0.127   3.159 -2.2119  1.4532  0.5290
 4748SOL     OW25702   0.948   1.379   4.878 -0.3937  0.0394 -0.7991
 4748SOL    HW125703   0.911   1.303   4.834 -1.8395  0.6421 -0.6610
 4748SOL    HW225704   0.999   1.416   4.806  0.5835 -0.3214 -0.2942
 4749SOL     OW25705   4.287   4.141  12.263 -0.3286  0.2799  0.6034
 4749SOL    HW125706   4.349   4.101  12.324  0.2839  3.2337  1.9164
 4749SOL    HW225707   4.279   4.232  12.293  0.9964  0.4758  0.3821
 4750SOL     OW25708   1.480   4.447   7.829  0.1197 -0.4217  0.2712
 4750SOL    HW125709   1.396   4.401   7.834 -1.4160  2.5543  2.1276
 4750SOL    HW225710   1.443   4.514   7.771 -1.0337 -1.5978 -0.3536
 4751SOL     OW25711   0.162   3.220   7.674 -0.0662 -0.2041  0.3274
 4751SOL    HW125712   0.220   3.258   7.608 -1.4762  0.2638 -0.6435
 4751SOL    HW225713   0.168   3.291   7.737  0.0107  1.5670 -1.6745
 4752SOL     OW25714   2.392   2.156   8.921 -0.0442  0.3794  0.1376
 4752SOL    HW125715   2.411   2.231   8.978  0.3263 -0.0895  0.6322
 4752SOL    HW225716   2.297   2.146   8.927 -0.1418  0.3413 -1.5029
 4753SOL     OW25717   3.607   2.980   7.345 -0.4071 -0.7609  0.5726
 4753SOL    HW125718   3.687   2.962   7.396 -1.2555 -0.8170  1.9017
 4753SOL    HW225719   3.601   2.902   7.290 -1.5381  0.2487 -0.7410
 4754SOL     OW25720   2.562   2.186   8.103 -0.4538  0.1520 -0.7618
 4754SOL    HW125721   2.507   2.262   8.120  2.1719  2.0647 -0.7437
 4754SOL    HW225722   2.572   2.194   8.008  2.9074  0.3404 -0.4226
 4755SOL     OW25723   0.792   2.480  13.817  0.0933 -0.2639  0.0208
 4755SOL    HW125724   0.851   2.537  13.767  1.3011 -1.2474  0.3073
 4755SOL    HW225725   0.819   2.396  13.781  0.2385 -0.0416 -0.3874
 4756SOL     OW25726   1.113   0.407   0.151 -0.1295  0.0517 -0.7183
 4756SOL    HW125727   1.091   0.500   0.160  0.7747 -0.0131  1.9962
 4756SOL    HW225728   1.186   0.414   0.090 -0.6215  2.6678 -0.9983
 4757SOL     OW25729   4.044   0.113   7.240 -0.5096  0.3556 -0.2342
 4757SOL    HW125730   3.963   0.163   7.235 -0.8059  0.0056  1.1659
 4757SOL    HW225731   4.031   0.062   7.320  1.9414 -0.6440 -0.4641
 4758SOL     OW25732   1.008   1.771   8.789 -0.1959  0.2108  0.3766
 4758SOL    HW125733   1.084   1.819   8.821 -1.3832  1.0267  2.0404
 4758SOL    HW225734   0.944   1.842   8.783  0.1720  0.5040  0.0023
 4759SOL     OW25735   4.407   0.431   7.442 -0.0632  0.3411  0.0794
 4759SOL    HW125736   4.360   0.426   7.359 -0.6440 -0.6001  0.4621
 4759SOL    HW225737   4.372   0.518   7.462 -2.0696 -0.1853 -1.1632
 4760SOL     OW25738   4.501   0.502   6.168 -0.9601 -0.1093 -0.2804
 4760SOL    HW125739   4.564   0.574   6.169 -0.9724 -0.1009 -0.1476
 4760SOL    HW225740   4.536   0.449   6.239  4.1567  1.2992 -1.7106
 4761SOL     OW25741   1.662   3.773   0.141 -0.2132 -0.9093  0.0411
 4761SOL    HW125742   1.623   3.748   0.058  3.7129 -0.4187 -1.9525
 4761SOL    HW225743   1.592   3.769   0.207 -1.4300  2.1813 -1.0361
 4762SOL     OW25744   3.122   3.579   2.308 -0.1130  0.1557  0.2959
 4762SOL    HW125745   3.135   3.515   2.378  2.0247  0.2186 -0.0581
 4762SOL    HW225746   3.205   3.567   2.262  0.7693  1.9716  1.3904
 4763SOL     OW25747   0.898   1.597   2.349  0.2741  0.5670  0.1837
 4763SOL    HW125748   0.896   1.576   2.442 -0.4584 -0.2352 -0.0200
 4763SOL    HW225749   0.939   1.518   2.314 -0.2226  0.1171  0.6238
 4764SOL     OW25750   3.711   1.956   8.263 -0.4357 -0.2803  0.8454
 4764SOL    HW125751   3.690   1.863   8.275  0.8995 -0.4967  1.4533
 4764SOL    HW225752   3.694   1.984   8.353 -2.1007  2.0773 -0.1930
 4765SOL     OW25753   0.158   4.469   8.650 -0.2351  0.0597 -0.3470
 4765SOL    HW125754   0.098   4.523   8.600 -0.0208 -1.3297 -2.0739
 4765SOL    HW225755   0.165   4.383   8.609  0.2400 -0.8065  1.5086
 4766SOL     OW25756   1.716   4.309   6.765  0.1182 -0.1999  0.1887
 4766SOL    HW125757   1.798   4.266   6.740  1.2494  1.5186  0.9737
 4766SOL    HW225758   1.661   4.294   6.687  1.5639 -1.5245 -0.5899
 4767SOL     OW25759   0.865   2.183   4.325 -0.1120  0.0109 -0.3780
 4767SOL    HW125760   0.925   2.256   4.311 -0.4068  0.3565  0.2120
 4767SOL    HW225761   0.915   2.124   4.381  0.5152  1.0248  0.1358
 4768SOL     OW25762   0.953   1.890  13.133  0.6279 -0.3301 -0.8681
 4768SOL    HW125763   0.867   1.919  13.165 -0.0045 -3.0381 -0.0715
 4768SOL    HW225764   0.984   1.965  13.082  0.0097  0.8872  0.5572
 4769SOL     OW25765   1.283   3.000   0.919  0.0559  0.8987  0.2261
 4769SOL    HW125766   1.365   2.998   0.967 -1.2863  1.3351  2.5187
 4769SOL    HW225767   1.226   2.990   0.995 -0.2444 -1.8236 -0.3821
 4770SOL     OW25768   3.676   2.152  13.315  0.5160 -0.5493 -0.3591
 4770SOL    HW125769   3.758   2.136  13.269  0.4171  2.3895 -1.5496
 4770SOL    HW225770   3.637   2.218  13.258  0.5222 -0.0473  0.2147
 4771SOL     OW25771   2.808   4.203  10.179  0.2009 -0.3239  0.0727
 4771SOL    HW125772   2.778   4.289  10.151 -1.4700 -1.1364 -0.6255
 4771SOL    HW225773   2.885   4.219  10.233  0.2820 -1.8081  0.3879
 4772SOL     OW25774   3.455   1.281   7.325  0.0107 -0.0231 -0.0111
 4772SOL    HW125775   3.437   1.188   7.342 -0.0515 -0.0255 -0.0898
 4772SOL    HW225776   3.524   1.303   7.388 -0.0569  0.1240  0.0122
 4773SOL     OW25777   3.955   2.659   3.356 -0.0051 -0.8278 -0.3185
 4773SOL    HW125778   4.041   2.695   3.335 -1.0722  1.0228 -1.4345
 4773SOL    HW225779   3.978   2.569   3.332 -0.1741 -0.4943 -1.7260
 4774SOL     OW25780   1.216   2.967   7.236 -0.1304  0.6551 -0.4832
 4774SOL    HW125781   1.241   2.876   7.255  2.6492  1.4011 -0.7039
 4774SOL    HW225782   1.123   2.963   7.261  0.1450 -0.0164  0.4471
 4775SOL     OW25783   1.557   3.046   3.021 -0.3113  0.0854 -0.0777
 4775SOL    HW125784   1.629   2.984   3.011 -1.8742 -1.4629 -1.7618
 4775SOL    HW225785   1.606   3.125   2.997 -1.1618 -0.0540 -2.3282
 4776SOL     OW25786   3.604   0.689   3.703 -0.0557 -0.5290 -0.5361
 4776SOL    HW125787   3.612   0.605   3.658 -1.6658 -1.3641  0.7595
 4776SOL    HW225788   3.550   0.667   3.779 -0.3462 -0.6862 -0.7936
 4777SOL     OW25789   2.478   1.629   5.895  0.2891  0.5101  0.3042
 4777SOL    HW125790   2.457   1.623   5.988  0.1915  0.1031  0.2523
 4777SOL    HW225791   2.482   1.724   5.883  2.0939 -0.0011 -3.0893
 4778SOL     OW25792   3.800   1.021  13.689  0.1554 -0.2157 -0.7052
 4778SOL    HW125793   3.799   0.955  13.620 -1.0630 -0.7836 -0.1295
 4778SOL    HW225794   3.708   1.028  13.712  0.8757 -0.4627  2.3082
 4779SOL     OW25795   4.035   3.079   2.669  0.2131 -0.6273 -0.0670
 4779SOL    HW125796   4.048   3.060   2.576 -0.9941  0.9377 -0.5649
 4779SOL    HW225797   4.112   3.135   2.680 -0.4814 -0.4795  3.8694
 4780SOL     OW25798   0.216   0.086   7.370 -0.3903  0.0970  0.2721
 4780SOL    HW125799   0.197   0.081   7.463  1.3868  0.1914  0.6433
 4780SOL    HW225800   0.175   0.170   7.348  1.0180  0.6694 -0.2277
 4781SOL     OW25801   3.248   0.259   3.944 -0.9902  0.2681  0.3993
 4781SOL    HW125802   3.274   0.211   4.022 -0.8150 -1.3735 -0.6597
 4781SOL    HW225803   3.332   0.256   3.898 -0.8794 -0.6856  0.6700
 4782SOL     OW25804   0.346   4.385   4.002 -0.2624 -0.1935  0.3897
 4782SOL    HW125805   0.259   4.399   4.040 -0.2086  2.0698 -0.3124
 4782SOL    HW225806   0.376   4.301   4.036  1.5803  0.6867  0.8936
 4783SOL     OW25807   1.957   3.566   4.763 -0.0819  0.1393 -0.0157
 4783SOL    HW125808   2.023   3.621   4.720  0.4342 -0.5156 -0.0629
 4783SOL    HW225809   2.006   3.503   4.816  1.1439 -0.8660 -2.3463
 4784SOL     OW25810   4.355   2.653  10.883 -0.5537 -0.2182 -0.4558
 4784SOL    HW125811   4.328   2.602  10.807 -1.9798  0.0527 -0.1263
 4784SOL    HW225812   4.358   2.583  10.949 -1.2110  0.6593  0.5030
 4785SOL     OW25813   0.426   1.866   8.465  0.2975  0.3273 -0.2525
 4785SOL    HW125814   0.414   1.772   8.476 -2.5387  0.6212 -0.7318
 4785SOL    HW225815   0.431   1.887   8.558  1.7500 -0.0676 -0.2486
 4786SOL     OW25816   4.024   3.343  10.131 -0.5548 -0.0680 -0.7275
 4786SOL    HW125817   4.052   3.346  10.222  1.0016  3.3303 -1.3543
 4786SOL    HW225818   3.992   3.431  10.113 -3.1259 -1.1188 -1.3594
 4787SOL     OW25819   0.028   1.819   1.509  0.1265  0.2127  0.1903
 4787SOL    HW125820   0.089   1.874   1.460  0.8979 -0.0919  0.8069
 4787SOL    HW225821   4.674   1.827   1.451 -0.5234 -0.3627  0.9555
 4788SOL     OW25822   1.011   2.509   3.444 -0.0174 -0.1316 -0.0389
 4788SOL    HW125823   1.079   2.451   3.407 -0.1151 -0.3373  0.1065
 4788SOL    HW225824   0.978   2.558   3.369 -1.6635 -0.0849  0.7316
 4789SOL     OW25825   0.160   0.759   4.171  0.4544 -0.0621  0.5325
 4789SOL    HW125826   0.246   0.717   4.163  0.5424 -0.2237  2.2562
 4789SOL    HW225827   0.104   0.683   4.153 -0.1376  0.4002  0.4507
 4790SOL     OW25828   2.559   0.085   5.268  0.0827 -0.0192  0.1830
 4790SOL    HW125829   2.577   0.035   5.188 -0.5528  0.9430 -0.5597
 4790SOL    HW225830   2.537   0.168   5.225 -2.1280 -0.9738 -0.5441
 4791SOL     OW25831   0.326   1.290   3.007  0.6842  0.0397 -0.2197
 4791SOL    HW125832   0.339   1.356   3.074 -2.8280  1.5792 -1.0788
 4791SOL    HW225833   0.258   1.319   2.946 -0.4830  1.9241  2.0113
 4792SOL     OW25834   2.944   3.465   5.008 -0.4843 -0.2085  0.4629
 4792SOL    HW125835   2.914   3.535   5.066 -0.3669 -0.6168  1.0158
 4792SOL    HW225836   2.968   3.391   5.063  2.2596 -0.4328 -1.0490
 4793SOL     OW25837   2.373   3.029   1.296  0.2963  0.1209  0.1401
 4793SOL    HW125838   2.418   3.101   1.252 -0.5175 -0.1530 -1.1274
 4793SOL    HW225839   2.356   2.966   1.226 -3.1057  1.0901  0.1159
 4794SOL     OW25840   2.186   1.733   5.853  0.4354  0.3903  0.3897
 4794SOL    HW125841   2.230   1.649   5.868 -0.9001 -0.4384 -0.2884
 4794SOL    HW225842   2.217   1.766   5.768 -0.4260 -1.9189 -0.8411
 4795SOL     OW25843   0.982   2.924   7.571  0.6279 -0.0197 -0.3713
 4795SOL    HW125844   0.932   2.967   7.502 -0.1262  1.2692  0.9584
 4795SOL    HW225845   1.004   2.998   7.627  0.8751 -0.2342 -0.1822
 4796SOL     OW25846   3.880   1.650   2.354  0.2402 -0.1907  0.1552
 4796SOL    HW125847   3.891   1.555   2.359  1.0337 -0.0576  1.0238
 4796SOL    HW225848   3.968   1.681   2.374 -0.2627  1.4864 -0.2614
 4797SOL     OW25849   3.235   1.768   6.657 -0.4306  0.1372 -0.2322
 4797SOL    HW125850   3.233   1.804   6.746  1.8977  1.5466 -0.7639
 4797SOL    HW225851   3.205   1.678   6.668  3.1560 -1.0393 -0.2711
 4798SOL     OW25852   4.512   1.685   6.988  0.0688  0.0135  0.1949
 4798SOL    HW125853   4.468   1.770   6.982  1.0365  0.3092 -2.7736
 4798SOL    HW225854   4.446   1.629   6.948  0.1889 -0.2756  0.4072
 4799SOL     OW25855   1.656   0.873   6.394  0.7318  0.6874  0.1839
 4799SOL    HW125856   1.667   0.782   6.424  0.3773  0.1193 -1.4310
 4799SOL    HW225857   1.605   0.894   6.472  3.7459  1.0469  2.0860
 4800SOL     OW25858   1.861   4.320   7.867  0.0438  0.1839 -0.0626
 4800SOL    HW125859   1.771   4.293   7.886  0.3346 -1.9082 -1.6891
 4800SOL    HW225860   1.849   4.329   7.772  0.9229  1.3847 -0.0590
 4801SOL     OW25861   2.813   2.442   4.779 -0.2561 -0.1184  0.1764
 4801SOL    HW125862   2.817   2.519   4.835  2.5637  0.2351 -0.5187
 4801SOL    HW225863   2.724   2.447   4.744  0.4846 -1.1982 -1.9179
 4802SOL     OW25864   0.730   3.477   4.871 -0.1206 -0.1502 -0.1148
 4802SOL    HW125865   0.781   3.483   4.791  1.2836  3.4397  1.0334
 4802SOL    HW225866   0.737   3.570   4.889  0.1292 -0.4111  1.1685
 4803SOL     OW25867   0.003   3.943   3.548 -0.5862 -0.7161  0.3800
 4803SOL    HW125868   4.711   3.851   3.523 -0.5875 -0.9328  1.1528
 4803SOL    HW225869   4.632   3.960   3.533 -0.4187 -0.0011  0.1706
 4804SOL     OW25870   2.652   3.536  15.419 -0.1915  0.0141 -0.4351
 4804SOL    HW125871   2.574   3.481  15.432 -1.1117  0.8849 -2.2658
 4804SOL    HW225872   2.726   3.474  15.415 -0.3265 -0.1235 -0.8459
 4805SOL     OW25873   3.880   1.684   8.914  0.0886 -0.2501 -0.2419
 4805SOL    HW125874   3.802   1.677   8.969  1.7315  1.9100  2.3953
 4805SOL    HW225875   3.942   1.708   8.984  1.5854 -1.2124 -1.2377
 4806SOL     OW25876   2.694   1.795  15.935 -0.5391  0.0965 -0.3535
 4806SOL    HW125877   2.648   1.877  15.953 -2.7277 -1.2392  0.2123
 4806SOL    HW225878   2.617   1.738  15.931 -0.1645 -0.5057  1.0603
 4807SOL     OW25879   4.205   2.512   7.992  0.7490 -0.1343  0.1810
 4807SOL    HW125880   4.127   2.568   7.990 -0.3461 -1.6456  1.0891
 4807SOL    HW225881   4.239   2.511   8.081 -1.0725 -2.6971  0.8514
 4808SOL     OW25882   1.988   2.166   2.151  0.4011  0.4743 -0.2650
 4808SOL    HW125883   2.079   2.187   2.175  0.8334 -1.0454 -0.5580
 4808SOL    HW225884   1.988   2.187   2.058 -1.8391  0.0072 -0.3564
 4809SOL     OW25885   4.458   2.686  14.303  0.0903  0.2091  0.3019
 4809SOL    HW125886   4.531   2.732  14.262  1.2168 -1.4986  0.3978
 4809SOL    HW225887   4.398   2.760  14.312  1.5587  1.4655 -0.2856
 4810SOL     OW25888   3.948   4.014  14.079  0.3329 -0.2732 -0.3957
 4810SOL    HW125889   3.853   4.025  14.076  0.5310  1.1465 -1.5659
 4810SOL    HW225890   3.967   3.951  14.009 -1.2927 -1.8870  0.6306
 4811SOL     OW25891   3.820   1.947  10.898  0.2065  0.2147  0.0946
 4811SOL    HW125892   3.824   1.915  10.808  0.3543 -0.2344  0.2624
 4811SOL    HW225893   3.766   1.879  10.937 -0.5742 -0.6387 -2.5367
 4812SOL     OW25894   1.221   0.036   5.064 -0.0580  0.4460 -0.5364
 4812SOL    HW125895   1.300   0.038   5.118 -2.2698 -3.3266  2.8209
 4812SOL    HW225896   1.158   0.009   5.131 -0.4460  0.1159 -1.0326
 4813SOL     OW25897   1.733   2.142  14.297 -0.5580  0.0486 -0.0674
 4813SOL    HW125898   1.823   2.143  14.328  0.4844  0.5209 -3.0692
 4813SOL    HW225899   1.685   2.095  14.365 -0.2409  0.6274  0.5657
 4814SOL     OW25900   3.400   0.432   2.779 -0.3776  0.0014 -0.5989
 4814SOL    HW125901   3.322   0.481   2.752 -0.3011  0.6224  0.3191
 4814SOL    HW225902   3.459   0.507   2.788 -0.3152  0.0758 -1.6457
 4815SOL     OW25903   0.262   2.102   3.879  0.5417 -0.3729 -0.2034
 4815SOL    HW125904   0.276   2.196   3.894 -3.4975 -0.0075  1.2770
 4815SOL    HW225905   0.170   2.115   3.854  0.2745 -0.1290  0.8854
 4816SOL     OW25906   4.432   4.083   6.855 -0.2370  0.1110  0.2584
 4816SOL    HW125907   4.419   4.091   6.950 -3.0133  0.0362 -0.1071
 4816SOL    HW225908   4.504   4.143   6.838 -0.5625  1.1069  2.3634
 4817SOL     OW25909   2.045   4.471   6.405 -0.0438  0.4155 -0.1492
 4817SOL    HW125910   2.138   4.485   6.422  0.1626 -1.4013  0.2597
 4817SOL    HW225911   2.032   4.378   6.427 -3.0455  0.8975  0.1505
 4818SOL     OW25912   4.325   0.719   8.792  0.2334 -0.5736 -0.5126
 4818SOL    HW125913   4.229   0.710   8.791 -0.0390  2.2057  0.4628
 4818SOL    HW225914   4.348   0.638   8.838  1.1368  0.9605  1.7124
 4819SOL     OW25915   2.556   0.807   9.430  0.1711  0.1301 -0.3416
 4819SOL    HW125916   2.500   0.730   9.416 -0.2978  0.4910 -0.4261
 4819SOL    HW225917   2.578   0.792   9.522  0.7872 -0.7075 -0.6197
 4820SOL     OW25918   3.153   1.749   2.586 -0.2193  0.3414  0.3736
 4820SOL    HW125919   3.218   1.767   2.518 -0.4257 -0.2857  0.0104
 4820SOL    HW225920   3.067   1.757   2.543 -2.0305  1.9719  4.3251
 4821SOL     OW25921   1.356   1.904   7.667 -0.0620  0.1670 -0.3721
 4821SOL    HW125922   1.283   1.963   7.648 -0.4003 -0.1106  0.0822
 4821SOL    HW225923   1.416   1.951   7.609  0.7156 -3.0348 -2.1299
 4822SOL     OW25924   1.117   2.366   5.116  0.7481 -0.0460  0.2117
 4822SOL    HW125925   1.141   2.332   5.202  1.9117  0.6183  0.1438
 4822SOL    HW225926   1.098   2.456   5.143 -1.9075 -0.5163 -0.1030
 4823SOL     OW25927   3.185   3.420   5.331 -0.0110 -0.4922  0.5692
 4823SOL    HW125928   3.201   3.355   5.400  0.2525  0.7408  1.6517
 4823SOL    HW225929   3.102   3.388   5.296  1.0116  0.1289 -2.4104
 4824SOL     OW25930   2.540   2.754   6.192  0.2578  0.4159 -0.5486
 4824SOL    HW125931   2.492   2.800   6.124 -1.1351  1.2871  1.0209
 4824SOL    HW225932   2.471   2.717   6.247  0.1612  1.8769  0.3039
 4825SOL     OW25933   1.089   4.049   3.764  0.1893 -0.2038  0.8097
 4825SOL    HW125934   1.177   4.023   3.737  0.6490  1.4599  0.6747
 4825SOL    HW225935   1.043   4.022   3.685  0.6086  2.8056 -0.4841
 4826SOL     OW25936   0.812   4.595   6.420 -0.3335  0.4938  0.0817
 4826SOL    HW125937   0.866   4.607   6.342  3.2433 -0.9693  2.3246
 4826SOL    HW225938   0.781   4.505   6.416 -2.2366  1.0694  1.7804
 4827SOL     OW25939   4.191   0.665   8.274  0.1647 -0.4125  0.7230
 4827SOL    HW125940   4.104   0.686   8.239  0.2204 -2.6280 -0.7822
 4827SOL    HW225941   4.171   0.657   8.367 -0.6949 -2.5555  0.3487
 4828SOL     OW25942   1.723   3.830   6.474  0.2552 -0.3571  0.0215
 4828SOL    HW125943   1.721   3.734   6.475  1.3629 -0.3760  0.2735
 4828SOL    HW225944   1.779   3.845   6.550  1.4906  1.1352 -1.1746
 4829SOL     OW25945   1.659   1.058   2.138 -0.1733 -0.3352 -0.7902
 4829SOL    HW125946   1.588   1.118   2.115 -0.8038 -1.4600 -1.7532
 4829SOL    HW225947   1.668   1.020   2.051  2.9559  1.8039 -1.3961
 4830SOL     OW25948   3.219   4.525   0.677 -0.0685  0.2667  0.9248
 4830SOL    HW125949   3.149   4.460   0.678 -1.3509  1.6344  0.1090
 4830SOL    HW225950   3.264   4.498   0.597 -1.0530 -0.0177  0.4684
 4831SOL     OW25951   1.659   2.867   4.136 -0.0111  0.7784 -0.2891
 4831SOL    HW125952   1.628   2.849   4.225  0.2049  1.2460 -0.1177
 4831SOL    HW225953   1.575   2.862   4.090  0.4712  0.8238 -1.1752
 4832SOL     OW25954   4.330   2.940   9.810  0.0626  0.1784 -0.5158
 4832SOL    HW125955   4.361   3.029   9.826  4.8828 -1.8270  1.3376
 4832SOL    HW225956   4.404   2.879   9.804  0.0072  0.0808 -0.2352
 4833SOL     OW25957   2.603   0.004   4.097  0.2041 -0.0795  0.3143
 4833SOL    HW125958   2.677   4.713   4.037  1.2151 -2.4172  2.0284
 4833SOL    HW225959   2.655   0.053   4.161 -0.8680  2.5681 -0.8572
 4834SOL     OW25960   3.673   3.495   8.934  0.3177  0.3097 -0.4792
 4834SOL    HW125961   3.768   3.504   8.929  0.5053 -1.9078 -0.8522
 4834SOL    HW225962   3.658   3.403   8.957  0.3889  0.3954 -0.1045
 4835SOL     OW25963   3.589   2.238   7.232 -0.5036 -0.8599  0.4878
 4835SOL    HW125964   3.552   2.152   7.252 -1.2599 -0.9854 -1.4956
 4835SOL    HW225965   3.677   2.223   7.268 -1.5190 -0.7633  3.0011
 4836SOL     OW25966   0.535   3.140   3.446  0.6955  0.2910  0.5118
 4836SOL    HW125967   0.517   3.232   3.466 -1.4325  0.1673 -0.8136
 4836SOL    HW225968   0.472   3.136   3.374  4.1202 -0.5322 -2.3925
 4837SOL     OW25969   3.593   2.384   4.033  0.0020 -0.1113  0.0693
 4837SOL    HW125970   3.648   2.429   4.097 -0.3322  0.5959 -0.1425
 4837SOL    HW225971   3.538   2.328   4.088  0.8684  0.2722  1.3098
 4838SOL     OW25972   3.401   4.264   8.117  0.2151 -0.3188 -0.1297
 4838SOL    HW125973   3.439   4.182   8.085  0.8398  0.6298 -1.8648
 4838SOL    HW225974   3.413   4.260   8.212  0.1086 -4.3455 -0.2865
 4839SOL     OW25975   1.276   2.616   3.899  0.1028  0.2426  0.2222
 4839SOL    HW125976   1.207   2.603   3.834 -0.9308  0.2466  1.2962
 4839SOL    HW225977   1.308   2.528   3.919  0.2260  0.4118  0.7871
 4840SOL     OW25978   1.279   0.926   4.074  0.4231  0.4054 -0.1132
 4840SOL    HW125979   1.190   0.959   4.090 -0.1622 -0.9434 -0.6161
 4840SOL    HW225980   1.301   0.970   3.992  2.8192 -1.0751 -0.2480
 4841SOL     OW25981   0.350   1.061  11.959 -0.1458  0.0801  0.0852
 4841SOL    HW125982   0.339   1.136  12.017  0.1234  1.2909 -1.4337
 4841SOL    HW225983   0.258   1.037  11.942 -0.8793  1.4530  2.1350
 4842SOL     OW25984   3.638   3.057   4.760  0.1087 -0.3397 -0.2680
 4842SOL    HW125985   3.682   3.094   4.836  1.2638  0.1093 -1.1514
 4842SOL    HW225986   3.619   3.140   4.716  0.5598  0.4900  1.1133
 4843SOL     OW25987   1.014   4.047  13.686  0.1252 -0.2049 -0.0346
 4843SOL    HW125988   0.937   4.008  13.645  0.3567 -0.5070 -0.1847
 4843SOL    HW225989   1.029   4.128  13.638  1.2165 -0.0568  0.5485
 4844SOL     OW25990   2.046   2.711   1.311  0.3668 -0.3928  0.5430
 4844SOL    HW125991   2.090   2.765   1.376  2.3472  0.1728 -1.2277
 4844SOL    HW225992   2.047   2.763   1.230  0.9638 -0.9645  0.1808
 4845SOL     OW25993   3.350   3.315  12.640  0.2492 -0.8378  0.2779
 4845SOL    HW125994   3.360   3.400  12.682  0.4460 -0.5774 -0.2832
 4845SOL    HW225995   3.383   3.321  12.550  2.0191 -0.4390  0.9626
 4846SOL     OW25996   2.783   4.385   8.336 -0.1307 -0.0111 -0.2057
 4846SOL    HW125997   2.840   4.309   8.343 -0.7635 -0.5541 -1.0327
 4846SOL    HW225998   2.785   4.407   8.243  1.1648  1.7724  0.2350
 4847SOL     OW25999   4.584   3.169   6.901  0.4941  0.0434 -0.1199
 4847SOL    HW126000   4.616   3.118   6.976  0.8620  1.1600  0.4815
 4847SOL    HW226001   4.493   3.143   6.886 -0.0841  1.4187  1.0784
 4848SOL     OW26002   4.199   1.134   3.751  0.2110 -0.2980 -0.2751
 4848SOL    HW126003   4.145   1.095   3.682  0.5477 -1.5678  0.1856
 4848SOL    HW226004   4.285   1.106   3.719  0.3801  0.0146 -0.0905
 4849SOL     OW26005   2.708   3.655  11.299 -0.2128  0.1024  0.3432
 4849SOL    HW126006   2.782   3.618  11.348 -2.0443 -2.7835  0.9421
 4849SOL    HW226007   2.753   3.708  11.233 -2.8953  2.9433  0.8154
 4850SOL     OW26008   0.576   0.705  15.394 -0.2749  0.5889 -0.2625
 4850SOL    HW126009   0.531   0.621  15.395  1.6264 -0.4334  0.2643
 4850SOL    HW226010   0.646   0.684  15.333 -1.2700  0.2110 -1.2719
 4851SOL     OW26011   2.760   3.991   2.565  0.3347 -0.2466 -0.1110
 4851SOL    HW126012   2.712   3.974   2.646  1.0128 -4.8338 -0.6972
 4851SOL    HW226013   2.694   4.047   2.524  2.7006  1.1367 -1.9893
 4852SOL     OW26014   2.065   4.465   7.964  0.1081 -0.0426  0.8282
 4852SOL    HW126015   2.038   4.512   8.043 -0.1837 -0.6312  1.0814
 4852SOL    HW226016   1.994   4.401   7.962 -1.1031  1.2789  1.7526
 4853SOL     OW26017   1.845   0.206  10.908  0.1434 -0.3012 -0.5358
 4853SOL    HW126018   1.778   0.229  10.844 -0.7907 -0.2708  0.4466
 4853SOL    HW226019   1.838   0.284  10.963 -2.5233 -0.4580 -0.6745
 4854SOL     OW26020   3.363   3.153  14.717  0.1337 -0.1639  0.0150
 4854SOL    HW126021   3.415   3.160  14.637  0.9773 -0.3989  0.5431
 4854SOL    HW226022   3.327   3.065  14.707  0.0063 -0.0965 -0.1221
 4855SOL     OW26023   1.737   4.251   7.190 -0.3174  0.0366 -0.6877
 4855SOL    HW126024   1.812   4.308   7.170 -1.0298  0.8457 -1.0957
 4855SOL    HW226025   1.706   4.227   7.103  0.4902  0.8256 -1.1980
 4856SOL     OW26026   2.172   4.031   4.377 -0.2069 -0.0714 -0.1048
 4856SOL    HW126027   2.167   4.095   4.448  1.0173  0.2182 -0.2731
 4856SOL    HW226028   2.115   3.973   4.428 -0.0720 -0.0782  0.0410
 4857SOL     OW26029   3.705   0.297  16.111 -0.9845 -0.9386  0.1419
 4857SOL    HW126030   3.747   0.351  16.178  0.2624 -0.8415 -0.7095
 4857SOL    HW226031   3.709   0.346  16.029  0.3779  1.2422  1.5045
 4858SOL     OW26032   2.892   3.372   2.713 -0.6437  0.0886  0.4256
 4858SOL    HW126033   2.872   3.457   2.752  0.2975  0.6664 -0.3375
 4858SOL    HW226034   2.806   3.330   2.713 -0.6837  0.1663  0.0463
 4859SOL     OW26035   3.856   4.531   4.408  0.2909 -0.0510 -0.4214
 4859SOL    HW126036   3.885   4.622   4.403  0.9973 -0.3208 -1.1658
 4859SOL    HW226037   3.926   4.498   4.464 -0.7897 -0.7959  0.4948
 4860SOL     OW26038   4.533   2.149  15.216 -0.0038 -0.5393  0.8523
 4860SOL    HW126039   4.536   2.102  15.300  0.3771 -0.2292  1.0151
 4860SOL    HW226040   4.554   2.078  15.156  0.5046  0.5282 -0.2173
 4861SOL     OW26041   1.062   1.622   6.545 -0.0674 -0.2231 -0.4227
 4861SOL    HW126042   0.994   1.675   6.587 -0.6556 -0.8658 -0.5511
 4861SOL    HW226043   1.122   1.603   6.617 -0.3681 -2.4771 -0.7465
 4862SOL     OW26044   1.611   4.041   3.125 -0.0059 -0.1568 -0.0913
 4862SOL    HW126045   1.625   4.054   3.031  2.1492  0.8229  0.3449
 4862SOL    HW226046   1.523   4.006   3.125 -0.9248  2.1399  0.8333
 4863SOL     OW26047   3.138   0.487   6.322  0.2354 -0.2963  0.2005
 4863SOL    HW126048   3.213   0.529   6.279 -1.1620  1.4838 -0.4735
 4863SOL    HW226049   3.180   0.402   6.332  0.2566 -0.1208  1.6114
 4864SOL     OW26050   3.962   3.086  10.785  0.5700  0.3002 -0.1039
 4864SOL    HW126051   3.935   3.033  10.861 -0.7797  1.7646  0.4495
 4864SOL    HW226052   4.012   3.026  10.731  1.1201 -1.4584  2.3392
 4865SOL     OW26053   2.278   0.982   8.745 -0.1885 -0.1680 -0.5106
 4865SOL    HW126054   2.215   1.054   8.754 -1.2818 -1.1571 -0.1512
 4865SOL    HW226055   2.353   1.010   8.797  1.2068 -0.3149 -2.4495
 4866SOL     OW26056   4.110   2.615   6.580 -0.9276 -0.2126 -0.5336
 4866SOL    HW126057   4.199   2.589   6.556 -0.0517  1.3521  0.9742
 4866SOL    HW226058   4.052   2.569   6.519 -0.2760 -2.2969  0.4134
 4867SOL     OW26059   2.094   2.918  10.624 -0.2090 -0.1717 -0.0235
 4867SOL    HW126060   2.018   2.975  10.612  0.7268  0.4836 -2.8638
 4867SOL    HW226061   2.167   2.965  10.583 -1.0293  1.5277  0.5002
 4868SOL     OW26062   3.147   3.618   2.702  0.2142 -0.1210  0.0152
 4868SOL    HW126063   3.240   3.614   2.679  0.1619  0.4484 -0.2997
 4868SOL    HW226064   3.156   3.588   2.792 -1.0272  0.8552  0.4576
 4869SOL     OW26065   3.438   4.721   8.393  0.1091 -0.2528  0.3884
 4869SOL    HW126066   3.344   4.714   8.411  0.1404  1.6682  1.3420
 4869SOL    HW226067   3.456   4.673   8.312 -0.9612  1.0500 -0.6218
 4870SOL     OW26068   2.331   3.479   6.119 -0.0300 -0.0764  0.2941
 4870SOL    HW126069   2.385   3.423   6.174 -1.1577 -1.2262  0.2102
 4870SOL    HW226070   2.390   3.491   6.044 -1.2464 -1.2084 -0.8343
 4871SOL     OW26071   3.564   0.351   1.066 -0.6051 -0.4998  0.2532
 4871SOL    HW126072   3.616   0.354   1.146 -0.6689  0.3552  0.2614
 4871SOL    HW226073   3.569   0.258   1.044  0.0432 -0.1788 -0.9561
 4872SOL     OW26074   4.129   2.590   7.485  0.4862  0.2300 -0.0652
 4872SOL    HW126075   4.171   2.577   7.569 -2.8884 -0.4709  1.5033
 4872SOL    HW226076   4.037   2.566   7.498 -0.1095  1.8826 -1.1317
 4873SOL     OW26077   2.251   3.666   7.425  0.0625 -0.0229 -0.0047
 4873SOL    HW126078   2.180   3.617   7.465 -1.8211  0.5703 -2.6509
 4873SOL    HW226079   2.330   3.646   7.475 -0.7559 -0.7064  1.0148
 4874SOL     OW26080   4.556   1.397   2.684  0.3855 -0.1686  0.3140
 4874SOL    HW126081   4.473   1.416   2.639 -0.2675 -3.3384  0.1379
 4874SOL    HW226082   4.536   1.306   2.706 -0.4125  0.4519  2.1859
 4875SOL     OW26083   1.078   0.888  10.002 -0.1394  0.1409  0.4161
 4875SOL    HW126084   1.101   0.963  10.056 -2.1525  1.2139 -0.2607
 4875SOL    HW226085   1.155   0.838  10.031 -2.2838 -1.8038  2.7589
 4876SOL     OW26086   4.532   0.968   7.303 -0.1735 -0.1213  0.1712
 4876SOL    HW126087   4.482   0.944   7.381  0.6129  0.2486  0.7839
 4876SOL    HW226088   4.468   1.019   7.252  2.8571  1.0546 -2.4840
 4877SOL     OW26089   3.124   0.112   5.885 -0.2103  0.4365  0.0126
 4877SOL    HW126090   3.101   0.136   5.795  1.9085 -1.7042 -1.0680
 4877SOL    HW226091   3.173   0.031   5.874 -0.9194 -0.2807  2.1765
 4878SOL     OW26092   4.273   3.100   7.627  0.4615  0.2872  0.5432
 4878SOL    HW126093   4.365   3.119   7.608  0.8645 -0.8303  1.3873
 4878SOL    HW226094   4.236   3.148   7.552  0.9024  0.9908  0.7761
 4879SOL     OW26095   3.812   0.877   3.954  0.1815 -0.2601 -0.0602
 4879SOL    HW126096   3.793   0.829   4.034  1.8193  0.2080  0.6074
 4879SOL    HW226097   3.903   0.847   3.948 -0.0906 -1.1667  0.2798
 4880SOL     OW26098   1.079   1.915   2.401  0.9975 -0.4256 -0.0843
 4880SOL    HW126099   1.113   1.988   2.350  0.5231 -0.4588 -0.4393
 4880SOL    HW226100   1.008   1.883   2.346 -0.1975  1.2141  0.5179
 4881SOL     OW26101   1.401   1.575   5.019 -0.2684  0.8767  0.1956
 4881SOL    HW126102   1.432   1.553   5.108  1.3388 -1.4330 -0.9240
 4881SOL    HW226103   1.485   1.594   4.978  1.0024 -1.7318  1.5730
 4882SOL     OW26104   3.380   0.377   8.288 -0.4377 -0.5866  0.5410
 4882SOL    HW126105   3.303   0.420   8.251 -1.4702 -1.8103  1.2662
 4882SOL    HW226106   3.384   0.418   8.375  0.7456 -2.0729  1.1857
 4883SOL     OW26107   3.248   1.993  16.704  0.1421  0.1142 -0.4091
 4883SOL    HW126108   3.296   2.039  16.635 -0.8618  0.0315 -1.1618
 4883SOL    HW226109   3.280   2.019  16.790 -0.4064  1.0858 -0.5085
 4884SOL     OW26110   1.334   3.532  10.728  0.2029  0.1174  0.3380
 4884SOL    HW126111   1.262   3.478  10.694  1.6472 -0.1107 -2.3950
 4884SOL    HW226112   1.288   3.580  10.797 -1.5053  0.0683 -0.7571
 4885SOL     OW26113   1.528   1.845  16.936  0.1649 -0.0022 -0.4332
 4885SOL    HW126114   1.487   1.863  16.852 -0.6950  0.6962  0.1393
 4885SOL    HW226115   1.549   1.935  16.962 -0.5182  0.7843 -2.6774
 4886SOL     OW26116   1.134   3.191   5.620  0.2146  0.3419 -0.2502
 4886SOL    HW126117   1.063   3.137   5.654  1.2262 -1.6302 -1.3108
 4886SOL    HW226118   1.088   3.276   5.621  0.1957  0.3208  0.5496
 4887SOL     OW26119   2.605   1.068   5.588  0.4898  0.2336  0.4288
 4887SOL    HW126120   2.692   1.045   5.556  0.4348  1.6868 -0.7267
 4887SOL    HW226121   2.631   1.156   5.617 -1.0921  1.1895 -1.1319
 4888SOL     OW26122   1.735   2.700   2.802  0.1629  0.1839  0.5594
 4888SOL    HW126123   1.642   2.704   2.783  0.3748  1.4399 -0.2226
 4888SOL    HW226124   1.763   2.704   2.711 -1.3517 -1.4531  0.0335
 4889SOL     OW26125   3.175   3.998   2.019 -0.2979 -0.5713 -0.4434
 4889SOL    HW126126   3.269   4.011   2.028 -0.4379  0.2020 -0.0477
 4889SOL    HW226127   3.161   4.057   1.945 -0.8232  0.0448  0.1400
 4890SOL     OW26128   3.460   1.279   3.365 -0.3435 -0.0897  0.0471
 4890SOL    HW126129   3.408   1.285   3.285  0.2093 -0.9568 -0.3754
 4890SOL    HW226130   3.543   1.311   3.329  0.1930 -1.1840  0.3105
 4891SOL     OW26131   4.164   1.577   7.157 -0.4248 -0.0623  0.0477
 4891SOL    HW126132   4.095   1.516   7.180 -1.5120  0.4219 -1.9732
 4891SOL    HW226133   4.113   1.656   7.174  0.4250  0.0997  1.9287
 4892SOL     OW26134   2.956   2.344   3.047 -0.0246 -0.4741 -0.3986
 4892SOL    HW126135   2.889   2.275   3.046  0.3423 -0.8481  0.7031
 4892SOL    HW226136   3.000   2.328   2.964  1.0175  0.2971  0.0079
 4893SOL     OW26137   2.208   3.830   2.712 -0.1364 -0.4539  0.2809
 4893SOL    HW126138   2.148   3.862   2.780  0.2859  0.1506  0.3684
 4893SOL    HW226139   2.152   3.817   2.635 -2.2481  1.5821  1.4519
 4894SOL     OW26140   0.836   1.198  14.002 -0.7186  0.3134 -0.2827
 4894SOL    HW126141   0.837   1.206  13.906 -0.5000 -1.0743 -0.4041
 4894SOL    HW226142   0.747   1.221  14.029 -0.8000  0.8474 -1.0079
 4895SOL     OW26143   1.730   2.797   1.340 -0.4890 -0.8273  0.4893
 4895SOL    HW126144   1.798   2.775   1.404  0.0816  0.0413  0.1861
 4895SOL    HW226145   1.751   2.738   1.269 -1.4694 -2.4490  1.5516
 4896SOL     OW26146   2.220   0.941   5.875 -0.4403 -0.3070  0.4402
 4896SOL    HW126147   2.232   0.941   5.970  0.1968 -1.1292  0.3575
 4896SOL    HW226148   2.155   0.873   5.860 -0.5201 -0.1678  0.1629
 4897SOL     OW26149   2.504   1.389   6.783 -0.0165  0.2355  0.2789
 4897SOL    HW126150   2.469   1.456   6.724  0.4055 -0.5341 -0.8344
 4897SOL    HW226151   2.463   1.412   6.867  0.9257 -0.5411  0.9395
 4898SOL     OW26152   2.165   3.276   0.138 -0.1238  0.2888  0.2331
 4898SOL    HW126153   2.237   3.241   0.087 -0.3585 -0.1479  0.1995
 4898SOL    HW226154   2.122   3.338   0.079 -0.4283  1.5282  1.7595
 4899SOL     OW26155   2.062   0.996  10.381  0.8272 -0.4752 -0.0272
 4899SOL    HW126156   2.121   1.000  10.456 -0.3909  2.6372  0.7625
 4899SOL    HW226157   2.102   0.925  10.331 -0.4290  0.1051 -1.8798
 4900SOL     OW26158   4.226   0.538   1.249 -0.4767 -0.1714 -0.3105
 4900SOL    HW126159   4.228   0.572   1.159 -0.3669 -0.2760 -0.3472
 4900SOL    HW226160   4.311   0.563   1.283 -1.1375 -1.4247  2.2470
 4901SOL     OW26161   4.101   1.403   3.029  0.5500  0.4100  0.1321
 4901SOL    HW126162   4.110   1.348   2.951 -0.7158  1.3541 -0.6863
 4901SOL    HW226163   4.183   1.398   3.077  0.1108 -3.4951  0.4650
 4902SOL     OW26164   2.550   0.427   2.842 -0.3320  0.3640  0.7331
 4902SOL    HW126165   2.608   0.500   2.864  0.7838 -0.3247  0.0489
 4902SOL    HW226166   2.507   0.447   2.759  0.0530 -0.8939  0.2451
 4903SOL     OW26167   2.956   0.581   1.643 -0.1790 -0.4781 -0.3661
 4903SOL    HW126168   2.912   0.560   1.725  2.1315  1.5654  1.4422
 4903SOL    HW226169   2.879   0.578   1.587 -0.4078  1.9058 -0.2016
 4904SOL     OW26170   0.669   3.212   5.360  0.1501 -0.0369  0.3124
 4904SOL    HW126171   0.677   3.278   5.291 -0.3130  1.2893  1.5433
 4904SOL    HW226172   0.578   3.235   5.377  0.0105  0.6898 -1.4118
 4905SOL     OW26173   2.688   4.123   0.901  0.2989  0.2856  0.1917
 4905SOL    HW126174   2.595   4.112   0.882  0.9389 -2.6739 -1.2266
 4905SOL    HW226175   2.690   4.218   0.892  2.5337  0.4149  1.9334
 4906SOL     OW26176   3.856   0.023  11.416 -0.3426 -0.6106  0.0635
 4906SOL    HW126177   3.891   4.662  11.451 -1.4707 -1.8420 -1.6937
 4906SOL    HW226178   3.884   0.009  11.326  2.4889  1.7206  0.6119
 4907SOL     OW26179   1.232   1.413   1.659  0.1325 -0.3103 -0.0986
 4907SOL    HW126180   1.155   1.382   1.706 -1.6096  1.6288 -1.7194
 4907SOL    HW226181   1.207   1.380   1.573  2.2095  0.1187 -0.8853
 4908SOL     OW26182   2.954   2.407   4.484 -0.1785  0.3380 -0.2319
 4908SOL    HW126183   2.983   2.325   4.525 -0.9216  0.6252  0.8844
 4908SOL    HW226184   3.016   2.423   4.413 -1.1137  0.7136 -0.9770
 4909SOL     OW26185   3.332   1.727  16.102 -0.1164  0.3642  0.8410
 4909SOL    HW126186   3.427   1.718  16.100 -0.2222 -0.1726 -2.5261
 4909SOL    HW226187   3.316   1.789  16.173  0.8370  0.2017  1.1982
 4910SOL     OW26188   4.633   0.319   2.791 -0.6604 -0.1429 -0.4198
 4910SOL    HW126189   4.556   0.264   2.797 -1.5650  1.1178 -0.5256
 4910SOL    HW226190   4.691   0.287   2.722  2.0869  1.9619  0.8648
 4911SOL     OW26191   0.405   3.436   6.374  0.0025  0.5359 -0.0441
 4911SOL    HW126192   0.446   3.522   6.385  0.7534  0.5013 -2.7095
 4911SOL    HW226193   0.484   3.388   6.348 -0.0365 -1.0078  2.6973
 4912SOL     OW26194   1.370   4.663   3.921 -0.1434 -0.4835  0.1862
 4912SOL    HW126195   1.465   4.677   3.926 -0.7042  3.0640  0.9614
 4912SOL    HW226196   1.331   0.010   3.867 -0.2470 -1.1918 -0.6354
 4913SOL     OW26197   1.562   2.732   8.743  0.1012 -0.2642  0.6814
 4913SOL    HW126198   1.634   2.757   8.800  1.5108 -1.6708 -0.4818
 4913SOL    HW226199   1.595   2.778   8.665  0.1566 -1.5419 -0.0544
 4914SOL     OW26200   2.555   3.850   9.149 -0.3876  0.1339 -0.4053
 4914SOL    HW126201   2.576   3.932   9.104  0.5598  0.5476  0.7961
 4914SOL    HW226202   2.640   3.808   9.158 -0.7505  0.4007  4.2048
 4915SOL     OW26203   3.373   3.112  15.159  0.1012  0.2713  0.6282
 4915SOL    HW126204   3.411   3.053  15.093 -1.7713 -1.8113  1.3934
 4915SOL    HW226205   3.360   3.058  15.237  0.2180 -2.4682 -1.2418
 4916SOL     OW26206   2.413   2.045  16.268  0.0805 -0.0366 -0.0510
 4916SOL    HW126207   2.388   1.955  16.250  0.2291 -0.6639  2.8940
 4916SOL    HW226208   2.360   2.067  16.345  1.8197  2.4528  0.4457
 4917SOL     OW26209   0.538   4.400   4.256  0.4953  0.5502 -0.7424
 4917SOL    HW126210   0.624   4.357   4.265 -0.2248 -1.1391 -1.9855
 4917SOL    HW226211   0.476   4.332   4.281  3.4150 -1.2814  1.4610
 4918SOL     OW26212   4.343   1.241  15.482 -0.3470 -0.1368  0.6522
 4918SOL    HW126213   4.319   1.259  15.573 -1.5986 -2.8060  0.8308
 4918SOL    HW226214   4.259   1.210  15.447 -0.0547 -0.4406  0.2306
 4919SOL     OW26215   3.888   0.101   6.906  0.8609 -0.7562  0.4045
 4919SOL    HW126216   3.828   0.115   6.833  1.0965  0.5373  0.4606
 4919SOL    HW226217   3.828   0.081   6.977 -0.5825  3.5938  0.4120
 4920SOL     OW26218   1.528   2.397  17.599 -0.4675 -0.0961 -0.2365
 4920SOL    HW126219   1.548   2.304  17.604 -0.5897  0.1299  4.2793
 4920SOL    HW226220   1.508   2.417   0.002 -2.4216  0.8286 -0.8546
 4921SOL     OW26221   0.339   1.123  15.693 -0.4467 -0.0642 -0.0901
 4921SOL    HW126222   0.359   1.100  15.602  1.5896 -0.4924  0.4707
 4921SOL    HW226223   0.393   1.058  15.737  1.3612  2.2588  1.1158
 4922SOL     OW26224   3.597   0.561  11.409  0.1337 -0.1028 -0.6200
 4922SOL    HW126225   3.680   0.608  11.411 -0.8593  1.5762  0.1476
 4922SOL    HW226226   3.606   0.527  11.498 -1.8691  1.6035  0.2431
 4923SOL     OW26227   4.108   1.739  14.702 -0.1503  0.1133 -0.3497
 4923SOL    HW126228   4.180   1.702  14.752  0.6113  2.4075  0.2343
 4923SOL    HW226229   4.054   1.661  14.716  0.6765 -0.6241 -1.2690
 4924SOL     OW26230   1.161   2.925   8.861  0.1868  0.2876  0.4170
 4924SOL    HW126231   1.144   2.919   8.956  2.0397  0.8284  0.7710
 4924SOL    HW226232   1.171   2.830   8.847  0.5202  0.3103  0.4976
 4925SOL     OW26233   2.233   0.185   0.197  0.1276 -0.5092 -0.1954
 4925SOL    HW126234   2.309   0.243   0.195 -1.8923  2.1486  0.1566
 4925SOL    HW226235   2.178   0.215   0.269 -1.1723  0.3528 -1.5420
 4926SOL     OW26236   2.324   1.614   3.267 -0.0052  0.4652  0.0494
 4926SOL    HW126237   2.394   1.618   3.201  1.5264 -0.4244  1.6158
 4926SOL    HW226238   2.289   1.703   3.268  0.2811  0.5954 -1.7131
 4927SOL     OW26239   0.169   2.673  17.055 -0.0547  0.6861  0.0852
 4927SOL    HW126240   0.194   2.620  16.979 -1.0444 -0.8344  0.8103
 4927SOL    HW226241   0.215   2.756  17.043  2.3337 -0.7289 -0.4481
 4928SOL     OW26242   0.340   2.837   7.541  0.5786 -0.0922 -0.4981
 4928SOL    HW126243   0.353   2.825   7.447 -2.5068  0.9715 -1.0398
 4928SOL    HW226244   0.266   2.777   7.552  0.4345  0.1263 -0.2631
 4929SOL     OW26245   4.679   0.197   5.749 -0.0835  0.4416  0.0665
 4929SOL    HW126246   4.687   0.113   5.795  1.4485 -0.1223 -1.2221
 4929SOL    HW226247   4.602   0.229   5.797  0.8351  2.0879  0.4394
 4930SOL     OW26248   0.768   0.716  10.937 -0.9242 -0.2935 -0.1685
 4930SOL    HW126249   0.711   0.671  10.875  1.1030 -2.7900 -0.2497
 4930SOL    HW226250   0.843   0.730  10.879 -0.8049  0.3545  0.1406
 4931SOL     OW26251   2.598   2.479  12.220  0.1221  0.4940  1.2413
 4931SOL    HW126252   2.578   2.411  12.285 -0.6144 -0.1266  0.3660
 4931SOL    HW226253   2.526   2.541  12.233  0.1501  0.6135  0.8246
 4932SOL     OW26254   1.869   1.114   5.359  0.1179  0.6048 -0.2191
 4932SOL    HW126255   1.894   1.206   5.354 -1.9700  0.9733 -4.0217
 4932SOL    HW226256   1.889   1.093   5.267  0.2685 -2.5972  0.5396
 4933SOL     OW26257   0.056   1.771   6.540 -0.0996  0.5568  0.2441
 4933SOL    HW126258   4.687   1.787   6.567 -0.0327  1.2803  0.0169
 4933SOL    HW226259   0.062   1.676   6.550 -0.3057  0.4308 -0.8750
 4934SOL     OW26260   4.355   3.451  17.149 -0.2102 -0.1273 -0.6123
 4934SOL    HW126261   4.415   3.503  17.095  1.4745 -2.2073 -0.7750
 4934SOL    HW226262   4.415   3.384  17.182  0.8880  0.3940 -1.5350
 4935SOL     OW26263   1.374   1.898   8.119  0.0729 -0.0282  0.0103
 4935SOL    HW126264   1.339   1.987   8.114 -1.4422 -0.8120 -3.1619
 4935SOL    HW226265   1.449   1.910   8.062  0.1080 -1.8006 -0.3335
 4936SOL     OW26266   2.841   0.444  14.095  0.1482  0.0686 -0.3785
 4936SOL    HW126267   2.763   0.497  14.112 -0.1241 -1.0211  1.7411
 4936SOL    HW226268   2.795   0.375  14.049 -2.5976  1.2627  0.5986
 4937SOL     OW26269   1.884   1.624   7.592  0.1387 -0.2211 -1.1132
 4937SOL    HW126270   1.887   1.568   7.514 -1.1379 -1.5318 -0.2337
 4937SOL    HW226271   1.979   1.635   7.602 -0.3560  3.2928 -0.5199
 4938SOL     OW26272   2.720   0.007   1.033 -0.3856  0.2641 -0.1761
 4938SOL    HW126273   2.673   0.037   1.110 -0.5804  1.7841 -0.8847
 4938SOL    HW226274   2.784   4.672   1.077 -0.7176 -1.1482 -1.4957
 4939SOL     OW26275   1.398   3.369   0.619 -0.7058  0.1960 -0.5612
 4939SOL    HW126276   1.314   3.324   0.632 -1.5703  2.1572  0.7496
 4939SOL    HW226277   1.455   3.293   0.627 -0.2143  0.6467  0.2325
 4940SOL     OW26278   1.742   3.546  16.099  0.1634 -0.1482  0.1273
 4940SOL    HW126279   1.782   3.552  16.012 -3.9448  1.4583 -1.6432
 4940SOL    HW226280   1.759   3.456  16.126  2.3934  0.0491 -0.6202
 4941SOL     OW26281   1.203   4.109   6.305 -0.2411  0.2921 -0.1523
 4941SOL    HW126282   1.142   4.150   6.366  1.1689  2.4672 -0.2082
 4941SOL    HW226283   1.280   4.114   6.361  0.8948 -0.0126 -1.6761
 4942SOL     OW26284   1.358   3.447   3.556 -0.7418 -0.7250  0.2738
 4942SOL    HW126285   1.316   3.391   3.491  0.5288 -1.6074  0.2155
 4942SOL    HW226286   1.419   3.384   3.593 -0.4961 -0.7455 -0.1702
 4943SOL     OW26287   3.849   3.500   4.408 -0.0389  0.0966 -0.2287
 4943SOL    HW126288   3.910   3.536   4.344  0.3061  1.4997  0.8971
 4943SOL    HW226289   3.804   3.436   4.353 -0.6852  1.1445 -0.9152
 4944SOL     OW26290   1.917   3.979   7.965 -0.1697  0.1354 -0.2215
 4944SOL    HW126291   1.928   4.052   8.027 -0.1371 -1.9433  2.2189
 4944SOL    HW226292   1.867   4.011   7.891  1.7442 -2.2165 -2.5182
 4945SOL     OW26293   4.275   4.673   4.383 -0.6140 -0.3315  0.4222
 4945SOL    HW126294   4.241   4.590   4.415  0.3902 -0.5257  1.0021
 4945SOL    HW226295   4.302   4.708   4.468 -1.5987  1.4988 -0.0146
 4946SOL     OW26296   2.953   2.806   3.736 -0.4838  0.0001  0.5399
 4946SOL    HW126297   2.898   2.839   3.666  0.4998 -0.3228 -0.3804
 4946SOL    HW226298   2.897   2.731   3.758 -1.2014  1.0898  2.4060
 4947SOL     OW26299   0.438   2.336   6.385  0.1713 -0.5774 -0.3316
 4947SOL    HW126300   0.450   2.252   6.342 -0.9906 -0.0384 -1.6756
 4947SOL    HW226301   0.516   2.343   6.441 -1.1574 -0.4435  1.4841
 4948SOL     OW26302   2.431   1.031   1.676  0.1706  0.3889  0.8555
 4948SOL    HW126303   2.383   1.078   1.744 -1.8831  0.5165 -0.6922
 4948SOL    HW226304   2.421   1.099   1.609  0.4213 -1.4622 -1.0437
 4949SOL     OW26305   3.789   1.655   1.334 -0.5370 -0.5566 -0.1522
 4949SOL    HW126306   3.852   1.644   1.406  1.7811  0.7375 -1.9611
 4949SOL    HW226307   3.826   1.605   1.262  1.4436 -1.6839  1.6396
 4950SOL     OW26308   0.734   1.311   6.816  0.5526  0.8176  0.1344
 4950SOL    HW126309   0.707   1.402   6.814 -0.2742  0.5975  0.8995
 4950SOL    HW226310   0.651   1.268   6.839  0.7315  0.4268  0.0582
 4951SOL     OW26311   2.976   3.051  11.982  0.1343 -0.0816 -0.4394
 4951SOL    HW126312   2.947   3.090  12.065 -1.8898  3.7625 -2.9426
 4951SOL    HW226313   3.049   3.110  11.963 -1.4293  1.5468 -1.3823
 4952SOL     OW26314   4.566   0.832  11.718  0.2191 -0.0960  0.1048
 4952SOL    HW126315   4.552   0.888  11.641  2.0232  1.7991  1.1676
 4952SOL    HW226316   4.480   0.821  11.759 -0.5842  1.1449 -1.2377
 4953SOL     OW26317   3.179   2.937   3.563  0.2959 -0.1976 -0.1265
 4953SOL    HW126318   3.093   2.898   3.574 -0.7781  2.0896 -0.4730
 4953SOL    HW226319   3.153   3.028   3.579 -3.0321 -1.3030  0.7499
 4954SOL     OW26320   2.002   3.879   6.012  0.1238  1.0801 -0.0200
 4954SOL    HW126321   2.055   3.919   6.081  0.6676  1.8763 -0.8959
 4954SOL    HW226322   1.992   3.791   6.047  2.4167  0.4607 -0.9216
 4955SOL     OW26323   3.439   4.405   5.131 -0.4139  0.2118  0.2002
 4955SOL    HW126324   3.450   4.365   5.217 -1.5578 -0.5083  0.0090
 4955SOL    HW226325   3.490   4.352   5.070 -0.8481  0.9427 -0.7961
 4956SOL     OW26326   1.424   2.514   8.643  0.1543  0.3911  0.3428
 4956SOL    HW126327   1.485   2.579   8.679 -0.5091 -0.4033  2.9089
 4956SOL    HW226328   1.415   2.455   8.718 -1.4445 -0.5936 -0.6291
 4957SOL     OW26329   2.594   1.620  11.455 -0.1117  0.0600  0.2540
 4957SOL    HW126330   2.516   1.602  11.508 -0.1689 -0.2843  0.0501
 4957SOL    HW226331   2.657   1.554  11.483  0.7591  0.6776 -0.2294
 4958SOL     OW26332   3.660   0.615  14.894 -0.6678  0.3505 -0.6905
 4958SOL    HW126333   3.672   0.680  14.826  0.1402  0.1068 -0.7781
 4958SOL    HW226334   3.672   0.531  14.851 -2.8258  0.5997 -1.7683
 4959SOL     OW26335   3.578   0.325   5.504  0.7009  0.9169 -0.6312
 4959SOL    HW126336   3.645   0.341   5.570 -0.2227  1.5828  0.1498
 4959SOL    HW226337   3.505   0.361   5.556  1.2812 -1.6019  1.8860
 4960SOL     OW26338   1.121   4.612   2.871 -0.3583 -0.8994 -0.1629
 4960SOL    HW126339   1.198   4.556   2.863  0.2809 -0.0205 -0.2171
 4960SOL    HW226340   1.154   4.701   2.860 -0.7389 -0.4994  1.9560
 4961SOL     OW26341   1.142   1.922   3.445 -0.6042  0.0974 -0.2211
 4961SOL    HW126342   1.090   1.873   3.508 -0.8314  0.2254 -0.3116
 4961SOL    HW226343   1.189   1.855   3.396 -2.2174  1.2477 -3.2996
 4962SOL     OW26344   4.271   2.992  16.673 -0.2056  0.4636 -0.0459
 4962SOL    HW126345   4.325   2.952  16.605 -1.5830  0.1923 -0.9709
 4962SOL    HW226346   4.272   2.916  16.732 -0.0127  0.0737 -0.5503
 4963SOL     OW26347   0.193   0.033   0.666  0.2265  0.0356 -0.4065
 4963SOL    HW126348   0.239   4.711   0.594  1.1143 -1.4194  1.0266
 4963SOL    HW226349   0.192   0.118   0.623 -2.3810  0.6934  0.9449
 4964SOL     OW26350   4.121   3.843  16.415  0.3182  0.7146 -0.1316
 4964SOL    HW126351   4.074   3.760  16.407 -0.9673  1.2974  1.3134
 4964SOL    HW226352   4.142   3.860  16.323 -0.7906 -3.4188 -1.1346
 4965SOL     OW26353   4.393   2.747   1.778  0.5823 -0.0708  0.1797
 4965SOL    HW126354   4.385   2.688   1.703  0.0607 -0.5022  0.5837
 4965SOL    HW226355   4.335   2.813   1.741  1.7138  2.0496  2.1686
 4966SOL     OW26356   2.919   0.211   2.317  0.2027  0.1997  0.0601
 4966SOL    HW126357   2.955   0.164   2.242 -1.0315 -0.0427 -0.3739
 4966SOL    HW226358   2.828   0.183   2.310  0.2716  0.7630 -3.1867
 4967SOL     OW26359   3.640   3.370   3.508 -0.0249 -0.0408 -0.1110
 4967SOL    HW126360   3.669   3.355   3.598 -1.0513 -1.8094 -0.0691
 4967SOL    HW226361   3.590   3.289   3.496 -1.3773  0.7049  0.5024
 4968SOL     OW26362   0.225   1.815   7.371  0.2927  0.4491  0.7275
 4968SOL    HW126363   0.138   1.805   7.410  0.4245  2.2023  1.4490
 4968SOL    HW226364   0.272   1.741   7.410 -0.7521 -1.4833 -1.7109
 4969SOL     OW26365   1.687   2.964  10.948 -0.7699  0.8386 -0.3038
 4969SOL    HW126366   1.649   3.044  10.984  1.1575  1.5266  0.1797
 4969SOL    HW226367   1.777   2.985  10.975 -0.7085  1.2260 -0.8281
 4970SOL     OW26368   1.482   0.980   4.330  0.3731 -0.3595 -0.4029
 4970SOL    HW126369   1.390   0.966   4.350  0.3940  1.2954  0.7792
 4970SOL    HW226370   1.515   1.005   4.416  0.5126  1.9566 -1.1327
 4971SOL     OW26371   0.730   1.946   6.938 -0.4270 -0.0672 -0.2716
 4971SOL    HW126372   0.702   1.855   6.950  1.2523 -0.2439  2.1933
 4971SOL    HW226373   0.715   1.975   7.027 -0.3176 -0.4884 -0.1162
 4972SOL     OW26374   1.866   1.488  13.701  0.0901 -0.2691  0.1193
 4972SOL    HW126375   1.907   1.401  13.701  0.4098 -0.1170  1.3747
 4972SOL    HW226376   1.814   1.489  13.781 -1.6161 -3.0154 -0.9536
 4973SOL     OW26377   0.525   3.313   7.311 -0.5354 -0.1896  0.4878
 4973SOL    HW126378   0.615   3.345   7.306  0.2579 -2.5646 -0.3867
 4973SOL    HW226379   0.507   3.304   7.217  1.9084  0.5393 -0.0443
 4974SOL     OW26380   0.641   3.362   8.569  0.7043 -0.2023  0.7566
 4974SOL    HW126381   0.613   3.369   8.661  0.1744 -0.4070  0.6081
 4974SOL    HW226382   0.681   3.275   8.567 -1.6002 -1.2008 -1.2842
 4975SOL     OW26383   4.113   0.703   4.548  0.1270  0.4769 -0.6309
 4975SOL    HW126384   4.164   0.773   4.589  1.2781 -0.4859 -0.4062
 4975SOL    HW226385   4.052   0.755   4.496 -0.1299  0.9867  0.1769
 4976SOL     OW26386   1.646   2.807   3.471  0.5767  0.4003 -0.7654
 4976SOL    HW126387   1.679   2.773   3.388 -1.5415 -3.2871 -0.1038
 4976SOL    HW226388   1.556   2.803   3.440  0.7204  1.3676 -1.3137
 4977SOL     OW26389   2.925   3.074   5.716 -0.0297  0.4071  0.6811
 4977SOL    HW126390   2.837   3.036   5.718 -0.3679  1.3063  3.8380
 4977SOL    HW226391   2.986   3.012   5.756 -0.5810  0.1973  1.2001
 4978SOL     OW26392   3.667   3.476   7.804 -0.4763  0.1327  0.1472
 4978SOL    HW126393   3.613   3.556   7.797 -1.5264 -0.6156 -0.3363
 4978SOL    HW226394   3.703   3.478   7.716 -0.0974 -1.0418  0.2854
 4979SOL     OW26395   3.454   3.276  14.935  0.2080 -0.3254 -0.1832
 4979SOL    HW126396   3.392   3.237  14.996 -2.0622  0.6959 -1.8154
 4979SOL    HW226397   3.420   3.236  14.855 -0.1003 -1.5795  0.5801
 4980SOL     OW26398   1.757   2.785   5.842  0.7069  0.2714  0.1610
 4980SOL    HW126399   1.808   2.707   5.821  0.1170  0.1852 -0.9464
 4980SOL    HW226400   1.673   2.752   5.813  0.5853  0.9341 -0.2455
 4981SOL     OW26401   1.596   0.234  12.130 -0.0800  0.1461 -0.1210
 4981SOL    HW126402   1.601   0.155  12.184  0.8644 -0.2257 -0.7623
 4981SOL    HW226403   1.512   0.272  12.157 -0.6700 -0.1094 -1.5823
 4982SOL     OW26404   4.558   4.282  12.908  0.2118 -0.1849  0.6371
 4982SOL    HW126405   4.638   4.229  12.914  0.3997  0.0168 -0.0526
 4982SOL    HW226406   4.512   4.272  12.991  1.0651  2.3238  1.4108
 4983SOL     OW26407   4.303   2.726   8.950 -1.0652 -0.6360 -0.4965
 4983SOL    HW126408   4.371   2.695   9.010 -0.7499 -0.0210 -0.5304
 4983SOL    HW226409   4.223   2.728   9.002  0.1183 -0.5953  1.3169
 4984SOL     OW26410   1.780   3.154   6.268  0.1203  0.4447  0.2307
 4984SOL    HW126411   1.820   3.174   6.353 -2.3956  1.0108  1.2810
 4984SOL    HW226412   1.851   3.109   6.222 -0.5237  0.0582 -0.3756
 4985SOL     OW26413   3.878   3.655   4.659  0.1110  0.6732 -0.4707
 4985SOL    HW126414   3.851   3.629   4.570  2.2985 -1.7267 -0.4469
 4985SOL    HW226415   3.833   3.738   4.673 -1.7539 -0.8586  2.4192
 4986SOL     OW26416   0.099   0.326   1.238 -0.1636 -0.5131  0.0713
 4986SOL    HW126417   0.138   0.288   1.316 -0.7441  0.6998  0.9574
 4986SOL    HW226418   0.169   0.357   1.181  1.2245 -0.8642  1.5820
 4987SOL     OW26419   0.347   2.257   2.094 -0.2527  0.4909 -0.0067
 4987SOL    HW126420   0.406   2.312   2.146  0.2952 -1.6076  1.5753
 4987SOL    HW226421   0.290   2.221   2.162  0.0317 -0.0781 -0.0755
 4988SOL     OW26422   3.262   0.591   6.851  0.0617  0.8026  0.0814
 4988SOL    HW126423   3.189   0.539   6.817 -0.6140  1.7281  0.1252
 4988SOL    HW226424   3.246   0.671   6.801  0.1579 -0.1639 -1.5087
 4989SOL     OW26425   0.910   0.217   9.379 -0.5309 -0.3392  0.0378
 4989SOL    HW126426   0.828   0.234   9.332 -0.8235 -0.4819  0.4968
 4989SOL    HW226427   0.881   0.245   9.466  1.3530 -1.7218  1.1044
 4990SOL     OW26428   3.476   3.365  15.257  0.8691 -0.0515 -0.0398
 4990SOL    HW126429   3.390   3.323  15.261  0.1019  1.5738  0.6063
 4990SOL    HW226430   3.521   3.298  15.205  3.3565  1.8623 -0.3490
 4991SOL     OW26431   4.375   0.568   3.547 -0.3070 -0.4786 -0.0671
 4991SOL    HW126432   4.462   0.603   3.532 -0.7029  1.5437  2.3252
 4991SOL    HW226433   4.395   0.477   3.528  0.5676 -0.6014  1.4172
 4992SOL     OW26434   0.474   2.768  11.672 -0.1378  0.0141 -0.2003
 4992SOL    HW126435   0.506   2.858  11.677  0.7542 -0.3621  0.9675
 4992SOL    HW226436   0.401   2.790  11.615  0.0224 -1.0137 -0.8120
 4993SOL     OW26437   4.102   3.097   9.968  0.5946  0.4827 -0.2805
 4993SOL    HW126438   4.047   3.151  10.026 -0.5593 -0.6037 -0.3805
 4993SOL    HW226439   4.065   3.009   9.973  0.5159  0.5538  0.4832
 4994SOL     OW26440   0.664   1.441   8.665  0.2501  0.5309  0.1291
 4994SOL    HW126441   0.579   1.449   8.710 -0.2195  0.2040 -0.6994
 4994SOL    HW226442   0.628   1.430   8.577  0.9062  1.5712 -0.2649
 4995SOL     OW26443   4.592   3.216   5.802 -0.4822 -0.6963 -0.3967
 4995SOL    HW126444   4.525   3.162   5.844  0.5997 -0.7184  1.2784
 4995SOL    HW226445   4.638   3.148   5.752 -0.6256  0.3148 -1.8895
 4996SOL     OW26446   3.798   1.275   2.106  0.2663 -0.6559 -0.3690
 4996SOL    HW126447   3.859   1.336   2.064 -1.3365  1.0146 -0.2655
 4996SOL    HW226448   3.837   1.188   2.100 -0.2432 -0.8692 -0.6136
 4997SOL     OW26449   0.291   4.549   6.432  0.4170 -0.7005 -0.0069
 4997SOL    HW126450   0.261   4.561   6.342 -0.0625 -0.8674  0.1328
 4997SOL    HW226451   0.381   4.576   6.413  0.8453 -0.9482  1.6060
 4998SOL     OW26452   2.008   1.867   5.981 -0.0706  0.4977  0.0567
 4998SOL    HW126453   1.923   1.851   5.939  0.1510 -0.8785  0.1463
 4998SOL    HW226454   2.070   1.821   5.924  0.1268  0.2633  0.4576
 4999SOL     OW26455   0.351   4.319   5.166 -0.3892  0.5999 -0.4175
 4999SOL    HW126456   0.280   4.320   5.230 -0.5198  0.4327 -0.5613
 4999SOL    HW226457   0.425   4.300   5.224 -1.0500  0.9547  0.5417
 5000SOL     OW26458   4.415   4.408   7.527 -0.0284  0.0443  0.6210
 5000SOL    HW126459   4.446   4.498   7.514  0.8543  0.1522  3.3882
 5000SOL    HW226460   4.499   4.374   7.558 -0.0607  1.1595  1.9522
 5001SOL     OW26461   0.858   3.026  15.691 -0.0381 -0.7666  0.0145
 5001SOL    HW126462   0.939   3.076  15.691  1.0114 -2.5049  0.4039
 5001SOL    HW226463   0.798   3.083  15.740  1.1065 -0.6367  1.2598
 5002SOL     OW26464   3.739   2.490   4.268  0.1343 -0.2713 -0.2048
 5002SOL    HW126465   3.732   2.583   4.246  4.3728 -0.4130 -2.1982
 5002SOL    HW226466   3.685   2.489   4.347 -0.5806 -2.0209 -0.7303
 5003SOL     OW26467   4.283   3.396   8.231  0.4899 -0.4011  0.3642
 5003SOL    HW126468   4.258   3.326   8.291  0.1388  0.2718  1.0114
 5003SOL    HW226469   4.371   3.418   8.260  0.3973 -1.4122  1.3851
 5004SOL     OW26470   0.976   2.919   4.809  0.7030 -0.3013 -0.0693
 5004SOL    HW126471   1.029   2.842   4.830 -1.4332 -1.3864  1.2906
 5004SOL    HW226472   0.919   2.920   4.886  0.0684  0.7225 -0.5515
 5005SOL     OW26473   1.244   1.486   5.333 -0.2654  0.0340 -0.4804
 5005SOL    HW126474   1.269   1.575   5.309  0.7026 -0.5065 -1.4482
 5005SOL    HW226475   1.315   1.452   5.388 -1.3703 -1.9815 -0.2620
 5006SOL     OW26476   2.406   2.034   7.384  0.0978  0.3422 -0.6488
 5006SOL    HW126477   2.479   2.093   7.399 -0.3304  0.3511  1.3664
 5006SOL    HW226478   2.429   1.965   7.445 -1.3386 -0.0260 -0.5035
 5007SOL     OW26479   1.922   2.027   0.527 -0.3277  0.7556 -0.0971
 5007SOL    HW126480   1.914   2.071   0.611  0.5456 -1.4597  1.1516
 5007SOL    HW226481   1.972   2.093   0.480  1.6943  1.3677  2.9014
 5008SOL     OW26482   2.353   4.476   7.891  0.0330  0.4860 -0.2214
 5008SOL    HW126483   2.316   4.459   7.804  1.4344  1.7352 -1.0710
 5008SOL    HW226484   2.271   4.486   7.940 -1.4944 -1.6571 -2.2946
 5009SOL     OW26485   3.804   3.755   5.879 -0.0836 -0.2414  0.0160
 5009SOL    HW126486   3.860   3.832   5.888 -0.2380 -0.1385  0.1098
 5009SOL    HW226487   3.783   3.752   5.786 -0.2486 -1.7597  0.1085
 5010SOL     OW26488   2.207   2.685  14.754 -0.5085 -0.3741  0.0192
 5010SOL    HW126489   2.236   2.663  14.666 -0.2287  0.7258 -0.1704
 5010SOL    HW226490   2.163   2.766  14.729  1.8513  1.1949  0.8806
 5011SOL     OW26491   3.356   3.332  15.521 -0.5649 -0.1107 -0.5778
 5011SOL    HW126492   3.330   3.367  15.606  0.8354 -0.1672 -0.1159
 5011SOL    HW226493   3.448   3.358  15.511 -0.3518  0.0830  1.7713
 5012SOL     OW26494   1.762   2.410   9.546  0.1729 -0.2160 -0.1819
 5012SOL    HW126495   1.725   2.322   9.543 -1.0240  0.3051 -0.5917
 5012SOL    HW226496   1.847   2.407   9.591  1.1960 -0.9246 -2.1735
 5013SOL     OW26497   2.873   4.002  11.510  0.1643 -0.2036  0.2844
 5013SOL    HW126498   2.830   4.033  11.590 -1.2345  1.3202 -1.0878
 5013SOL    HW226499   2.920   4.081  11.485 -0.0777 -0.4533 -0.9381
 5014SOL     OW26500   0.816   1.641  12.005 -0.9247 -0.0738 -0.2955
 5014SOL    HW126501   0.868   1.709  12.048 -0.3948  0.5362 -1.8886
 5014SOL    HW226502   0.863   1.560  12.025 -1.1616 -1.3181 -4.8345
 5015SOL     OW26503   2.573   1.327   4.046 -0.3525  0.4639  0.0644
 5015SOL    HW126504   2.601   1.398   3.989 -0.7773  1.6738  1.3813
 5015SOL    HW226505   2.478   1.334   4.053 -0.4137 -0.4102  0.0883
 5016SOL     OW26506   1.794   3.754  17.483 -0.1124  0.3150 -0.3228
 5016SOL    HW126507   1.773   3.747  17.390 -2.2456  0.3801  0.1650
 5016SOL    HW226508   1.807   3.664  17.512  0.5353  1.2381  2.2773
 5017SOL     OW26509   0.603   0.174   7.353  0.6123  0.0312  0.7853
 5017SOL    HW126510   0.658   0.253   7.352 -0.2492  0.6570  2.3240
 5017SOL    HW226511   0.519   0.219   7.356  1.3002  1.5246 -1.7060
 5018SOL     OW26512   4.283   2.701  17.480  0.3373  0.7346  0.0669
 5018SOL    HW126513   4.261   2.786  17.517 -0.5637  1.7612 -2.8592
 5018SOL    HW226514   4.373   2.727  17.461 -0.7777  2.6873 -2.4391
 5019SOL     OW26515   1.061   2.058   5.810 -0.6649 -0.0365  0.3843
 5019SOL    HW126516   1.080   2.147   5.779 -1.6157 -0.3682 -1.1360
 5019SOL    HW226517   0.986   2.053   5.751  0.0879 -1.1023 -0.4857
 5020SOL     OW26518   1.834   2.368   7.539  0.7395 -0.1325 -0.0628
 5020SOL    HW126519   1.773   2.339   7.607  0.1914  0.6320 -0.2288
 5020SOL    HW226520   1.889   2.439   7.573 -0.3861  0.1228  1.2319
 5021SOL     OW26521   4.276   3.700   4.100  0.6185  0.1878 -0.2517
 5021SOL    HW126522   4.256   3.743   4.183 -0.5473  1.9090 -1.4470
 5021SOL    HW226523   4.358   3.654   4.120  0.9051 -0.0333 -1.9072
 5022SOL     OW26524   1.155   1.631   2.044 -0.3417  0.1200  0.1569
 5022SOL    HW126525   1.147   1.726   2.050  3.5945  0.5131 -0.6248
 5022SOL    HW226526   1.062   1.612   2.032 -0.2720 -0.4361  0.5252
 5023SOL     OW26527   1.044   4.090  14.947 -0.4182 -0.0428 -0.7645
 5023SOL    HW126528   0.991   4.018  14.916  1.7474 -2.0714  0.1954
 5023SOL    HW226529   1.133   4.058  14.932 -0.3782  0.4471 -1.5646
 5024SOL     OW26530   3.605   1.558  13.193  0.5665  0.1509 -0.1944
 5024SOL    HW126531   3.606   1.469  13.158  3.0831 -0.6812  2.0301
 5024SOL    HW226532   3.635   1.546  13.283  1.5155  0.0427 -0.5314
 5025SOL     OW26533   3.719   1.179   7.699 -0.1533 -0.1829 -0.0391
 5025SOL    HW126534   3.702   1.117   7.770  3.5593 -1.3127 -0.1820
 5025SOL    HW226535   3.767   1.247   7.746  0.2622 -0.6995  0.2804
 5026SOL     OW26536   3.059   2.001   2.697 -0.7526 -0.1899  0.0552
 5026SOL    HW126537   3.072   2.093   2.717  1.4165  0.4185 -4.2246
 5026SOL    HW226538   3.146   1.976   2.666 -0.6095  0.3420  0.0251
 5027SOL     OW26539   2.982   2.774  11.773  0.2577 -0.0469  0.0245
 5027SOL    HW126540   2.904   2.828  11.759  0.3879  0.0876 -0.1871
 5027SOL    HW226541   3.047   2.830  11.729 -1.2430  1.2188 -0.5794
 5028SOL     OW26542   3.845   4.699  12.340  0.1046  0.2043 -0.3173
 5028SOL    HW126543   3.847   4.683  12.435  0.0298 -2.1765 -0.7063
 5028SOL    HW226544   3.773   0.040  12.330 -1.1931 -1.4097 -1.1308
 5029SOL     OW26545   2.157   0.136  16.050  0.0900  0.2955 -0.8163
 5029SOL    HW126546   2.218   0.068  16.021 -0.5751  0.1620 -1.9157
 5029SOL    HW226547   2.098   0.139  15.974  0.0047 -0.1308 -0.7669
 5030SOL     OW26548   2.580   0.479   3.181  0.3896 -0.0878 -0.0442
 5030SOL    HW126549   2.581   0.401   3.125  1.1385 -0.2701  0.2176
 5030SOL    HW226550   2.543   0.441   3.261  2.3173  0.5337  1.1419
 5031SOL     OW26551   3.747   1.339  13.629 -0.0614 -0.2651 -0.0031
 5031SOL    HW126552   3.712   1.324  13.717  1.7140  0.3375  0.7932
 5031SOL    HW226553   3.832   1.295  13.630  0.9658  1.7928  1.5230
 5032SOL     OW26554   3.099   0.259   7.827 -0.8182  0.7011  0.5236
 5032SOL    HW126555   3.017   0.307   7.840 -0.3965  1.4498  0.4164
 5032SOL    HW226556   3.053   0.190   7.780 -0.9487  1.1112  0.0529
 5033SOL     OW26557   2.762   2.439  16.649  0.0509 -0.0043 -0.2211
 5033SOL    HW126558   2.811   2.506  16.696 -1.4970  0.0952  1.2081
 5033SOL    HW226559   2.675   2.455  16.684 -0.3529 -1.9244 -0.3357
 5034SOL     OW26560   2.211   0.207   8.077 -0.2164  0.5314  0.1373
 5034SOL    HW126561   2.160   0.155   8.138  1.3349 -2.1371 -0.8244
 5034SOL    HW226562   2.273   0.141   8.045 -0.3441  0.6272 -0.3129
 5035SOL     OW26563   0.415   4.190   5.700 -0.6782 -0.3744  0.0715
 5035SOL    HW126564   0.429   4.139   5.621 -3.0060 -1.0026  0.0497
 5035SOL    HW226565   0.502   4.215   5.730 -0.3457 -0.4597 -0.8422
 5036SOL     OW26566   2.938   2.353   7.544  0.2187  0.2487  0.2312
 5036SOL    HW126567   2.960   2.266   7.509 -2.5744 -0.2576 -0.2047
 5036SOL    HW226568   3.013   2.400   7.507  1.4098 -0.0872  2.2329
 5037SOL     OW26569   1.052   0.956   7.169  0.1780  0.3086 -0.0922
 5037SOL    HW126570   0.984   0.893   7.194  1.6489 -0.9405  0.8147
 5037SOL    HW226571   1.099   0.916   7.243  0.7679  2.3556  0.6306
 5038SOL     OW26572   1.306   1.464  17.680  0.1382  0.2548  0.0276
 5038SOL    HW126573   1.272   1.444  17.593 -0.3915  1.1976  0.0157
 5038SOL    HW226574   1.334   1.376   0.016 -0.5412  0.0235 -0.0374
 5039SOL     OW26575   2.222   2.478  10.279 -0.2615 -0.1917  0.4409
 5039SOL    HW126576   2.127   2.483  10.292 -0.3480 -2.4767  0.8298
 5039SOL    HW226577   2.238   2.387  10.254  0.2689 -0.2009  0.8183
 5040SOL     OW26578   4.116   0.974   6.193  0.4302 -0.0081 -0.2544
 5040SOL    HW126579   4.082   0.885   6.206 -0.0685  0.3692  1.0729
 5040SOL    HW226580   4.099   0.962   6.100 -3.4231 -0.5033  0.5263
 5041SOL     OW26581   2.614   4.454   1.609 -0.1954 -0.0747 -0.2566
 5041SOL    HW126582   2.632   4.509   1.684 -0.5131  2.4966 -2.0634
 5041SOL    HW226583   2.636   4.515   1.539  0.0251  0.4870  0.3062
 5042SOL     OW26584   2.772   0.619  13.161  0.2975 -0.2447  0.4356
 5042SOL    HW126585   2.864   0.593  13.159  0.7161  1.1583  1.4959
 5042SOL    HW226586   2.735   0.598  13.076 -0.7833  0.7236  0.6763
 5043SOL     OW26587   1.436   0.066   8.682  0.6845  0.4916 -0.0632
 5043SOL    HW126588   1.512   0.117   8.710  0.1055 -0.6825  3.6707
 5043SOL    HW226589   1.470   4.698   8.677 -0.2547  0.1933 -0.9931
 5044SOL     OW26590   2.310   4.203   2.457  0.1549  0.1722 -0.0702
 5044SOL    HW126591   2.243   4.169   2.517 -1.2650  1.5312 -0.8949
 5044SOL    HW226592   2.276   4.174   2.373 -0.2006  1.0236 -0.2197
 5045SOL     OW26593   2.064   1.016  13.501 -0.0091  0.5536 -0.1544
 5045SOL    HW126594   2.154   0.990  13.486 -1.0468 -2.4925 -1.0002
 5045SOL    HW226595   2.020   0.966  13.432  0.2377 -0.9731  0.7964
 5046SOL     OW26596   0.981   3.995  10.645  0.1254 -0.2402  0.2556
 5046SOL    HW126597   0.894   4.007  10.683  0.2583  0.7425  0.2484
 5046SOL    HW226598   0.973   3.900  10.640  0.2292 -0.1462 -1.7532
 5047SOL     OW26599   2.597   1.813  16.571  0.0699  0.1806 -0.0250
 5047SOL    HW126600   2.687   1.784  16.556  0.1916  0.3867  0.3244
 5047SOL    HW226601   2.601   1.904  16.601 -1.0721  1.3643 -3.3859
 5048SOL     OW26602   0.516   0.531   9.755  0.2004  0.3096  0.7078
 5048SOL    HW126603   0.564   0.533   9.838  0.7420 -1.6718  0.4345
 5048SOL    HW226604   0.446   0.594   9.773 -0.3694 -0.2171  0.3242
 5049SOL     OW26605   3.911   4.186   9.462 -0.2165 -0.0910 -0.9079
 5049SOL    HW126606   4.005   4.192   9.445 -0.0857 -1.1779 -0.5881
 5049SOL    HW226607   3.919   4.167   9.555  0.1586 -0.3252 -0.9868
 5050SOL     OW26608   2.057   1.805   2.114  0.0291  0.0662 -0.0384
 5050SOL    HW126609   2.110   1.884   2.110 -3.1865  2.1059 -2.3773
 5050SOL    HW226610   1.994   1.815   2.042 -1.2248 -1.3227  0.8587
 5051SOL     OW26611   3.581   2.415   6.945 -0.1288  0.0429  0.2086
 5051SOL    HW126612   3.533   2.484   6.898 -0.4622 -1.7380 -2.0651
 5051SOL    HW226613   3.624   2.372   6.871  1.2734  0.8297  0.5747
 5052SOL     OW26614   4.673   1.758   2.774  0.1915 -0.6223 -0.3817
 5052SOL    HW126615   4.640   1.794   2.692  0.2715 -0.2476 -0.2507
 5052SOL    HW226616   4.591   1.714   2.795 -0.4328  0.1026 -1.3206
 5053SOL     OW26617   4.213   3.831   0.970  0.0537  0.0555 -0.1516
 5053SOL    HW126618   4.144   3.765   0.974  0.1315 -0.0099  0.1172
 5053SOL    HW226619   4.288   3.783   1.003 -0.3858 -1.7376 -1.8112
 5054SOL     OW26620   2.553   1.378   8.535  0.2596 -0.1020 -0.0758
 5054SOL    HW126621   2.476   1.396   8.588 -0.0561  2.8495 -1.5174
 5054SOL    HW226622   2.517   1.396   8.448 -0.6174 -0.2490  0.2590
 5055SOL     OW26623   1.634   2.029   4.344 -0.0787 -1.0385  0.0807
 5055SOL    HW126624   1.564   2.064   4.287  0.9157  0.2448 -0.3498
 5055SOL    HW226625   1.620   2.089   4.418 -3.4473  1.0170 -2.1778
 5056SOL     OW26626   2.573   2.051  14.873 -0.3574 -0.1212  0.1692
 5056SOL    HW126627   2.630   2.065  14.798  1.3807 -2.0204  1.1483
 5056SOL    HW226628   2.632   2.048  14.947  0.9940 -3.0947 -1.0150
 5057SOL     OW26629   3.238   1.966   7.071 -1.1610 -0.3032  0.1378
 5057SOL    HW126630   3.203   1.889   7.025 -0.2138 -0.8308  0.2944
 5057SOL    HW226631   3.269   2.010   6.991  1.0245  0.8227  1.6178
 5058SOL     OW26632   1.641   0.103   5.780 -0.0139 -0.7834  0.8918
 5058SOL    HW126633   1.737   0.107   5.784  0.0780 -2.1655  0.0738
 5058SOL    HW226634   1.624   0.129   5.690 -0.0108  0.0830  1.1393
 5059SOL     OW26635   4.455   2.404  10.063  0.2657 -0.0985  0.1158
 5059SOL    HW126636   4.435   2.313  10.082  0.9604 -0.2749  0.0195
 5059SOL    HW226637   4.538   2.424  10.107  0.7274 -1.8658  0.0503
 5060SOL     OW26638   0.294   4.479   8.928 -0.0757 -0.8451 -0.7135
 5060SOL    HW126639   0.355   4.427   8.876  3.1331 -0.3435  2.5029
 5060SOL    HW226640   0.236   4.473   8.852  1.3229  0.9126 -1.9092
 5061SOL     OW26641   0.496   4.324   1.826 -0.6025  0.4315  0.4220
 5061SOL    HW126642   0.521   4.287   1.742 -1.3357 -1.2231  0.9194
 5061SOL    HW226643   0.574   4.307   1.880  0.2665  2.1220 -0.2942
 5062SOL     OW26644   4.450   1.285  16.735  0.2721 -0.1020  0.4225
 5062SOL    HW126645   4.375   1.232  16.760 -1.1616  1.4465 -0.6141
 5062SOL    HW226646   4.409   1.319  16.656 -0.4182 -0.5052  0.6118
 5063SOL     OW26647   4.194   3.279   3.433  0.3949 -0.1599  0.1637
 5063SOL    HW126648   4.176   3.243   3.520  0.3365  0.1020  0.2621
 5063SOL    HW226649   4.258   3.216   3.400 -0.1835 -0.9445  0.5626
 5064SOL     OW26650   0.116   4.368   4.153  0.2005 -0.4850 -0.3859
 5064SOL    HW126651   0.129   4.384   4.246  0.5898 -2.9884  0.0011
 5064SOL    HW226652   0.028   4.404   4.144  1.3744  2.8199  1.3786
 5065SOL     OW26653   1.874   4.695   6.761 -0.1094  0.1399 -0.3371
 5065SOL    HW126654   1.798   4.677   6.706 -1.2475 -0.1769  1.3422
 5065SOL    HW226655   1.942   4.665   6.701 -0.0945 -1.0152  0.2571
 5066SOL     OW26656   4.266   3.527   0.715 -0.0674 -0.4581  0.3779
 5066SOL    HW126657   4.302   3.572   0.792  2.2431  0.3271 -1.1568
 5066SOL    HW226658   4.310   3.443   0.727 -1.3037 -1.2064 -0.2881
 5067SOL     OW26659   4.028   1.718  14.448 -0.4688  0.2705 -0.4005
 5067SOL    HW126660   3.965   1.654  14.482 -1.5288  2.2553  1.4393
 5067SOL    HW226661   4.082   1.730  14.527 -2.1511 -3.3740  1.2989
 5068SOL     OW26662   4.509   4.282   0.619  0.2257  0.0592 -0.1321
 5068SOL    HW126663   4.459   4.358   0.588  1.2190  1.0620  0.7236
 5068SOL    HW226664   4.446   4.253   0.685 -0.7809 -0.0464 -1.1292
 5069SOL     OW26665   1.564   3.463   0.877 -0.1657 -0.0313  0.3311
 5069SOL    HW126666   1.512   3.431   0.803  0.1037  1.6223 -0.5619
 5069SOL    HW226667   1.489   3.511   0.912 -1.0945 -1.2076 -0.0410
 5070SOL     OW26668   2.938   4.503  11.282 -0.0126  0.0679 -0.2621
 5070SOL    HW126669   3.033   4.514  11.276  0.2944 -1.1641  2.3664
 5070SOL    HW226670   2.913   4.581  11.232  0.0838 -0.5130 -1.2056
 5071SOL     OW26671   2.231   2.842  14.513  0.0006  0.1760  0.0260
 5071SOL    HW126672   2.317   2.805  14.492  0.3500  0.5356  0.8391
 5071SOL    HW226673   2.211   2.865  14.423  2.0767  1.4276 -0.1236
 5072SOL     OW26674   2.110   0.717   5.095 -0.4764  0.2487 -0.0512
 5072SOL    HW126675   2.172   0.768   5.148 -0.2583 -0.7843  0.6927
 5072SOL    HW226676   2.027   0.764   5.102  0.7051  1.9199  2.6635
 5073SOL     OW26677   2.224   0.501  15.762 -0.0277 -0.1353  0.2920
 5073SOL    HW126678   2.319   0.489  15.757 -0.2666 -1.7695 -0.5333
 5073SOL    HW226679   2.184   0.420  15.796 -2.2783  0.5636 -0.7206
 5074SOL     OW26680   3.186   3.004   4.786 -0.1303 -0.1473  0.3511
 5074SOL    HW126681   3.132   2.927   4.768 -2.0332  1.3475 -0.3792
 5074SOL    HW226682   3.152   3.075   4.731  0.1855  1.0089  1.6522
 5075SOL     OW26683   4.166   0.743   3.567 -0.0387 -0.4169 -0.2746
 5075SOL    HW126684   4.089   0.690   3.583  1.0120 -2.7970 -3.2374
 5075SOL    HW226685   4.232   0.676   3.584  1.8683  1.9529  1.7904
 5076SOL     OW26686   0.405   3.126   8.608  0.2548 -0.3474 -0.1388
 5076SOL    HW126687   0.321   3.084   8.591 -0.5514  0.7596  1.0801
 5076SOL    HW226688   0.379   3.195   8.670  0.2494 -0.8581  0.4311
 5077SOL     OW26689   3.944   2.335   3.735 -0.2539  0.2215  0.1163
 5077SOL    HW126690   3.921   2.409   3.791  1.1646  0.2203  0.6944
 5077SOL    HW226691   4.036   2.319   3.758 -0.4397  1.9416  2.0568
 5078SOL     OW26692   3.698   0.014   7.101 -0.4344  0.3131 -0.3452
 5078SOL    HW126693   3.605   0.038   7.092 -0.6102  0.1869  1.1707
 5078SOL    HW226694   3.697   4.691   7.186 -1.8809  1.6146  0.3172
 5079SOL     OW26695   2.531   1.574   0.262  0.0745 -0.2841  0.1491
 5079SOL    HW126696   2.452   1.520   0.274 -0.7810  0.9445  0.0478
 5079SOL    HW226697   2.493   1.642   0.207  1.2028 -1.2252 -1.7827
 5080SOL     OW26698   2.633   3.105  16.361 -0.4427 -0.3046 -0.0512
 5080SOL    HW126699   2.695   3.084  16.291 -1.4568  0.1024 -1.0809
 5080SOL    HW226700   2.639   3.019  16.402  1.8734 -0.0390  0.1672
 5081SOL     OW26701   3.102   0.277  15.231  0.0113  0.4464 -0.6426
 5081SOL    HW126702   3.059   0.347  15.181  0.3596  0.0210 -1.5446
 5081SOL    HW226703   3.138   0.331  15.301 -1.8199 -2.0400  2.1988
 5082SOL     OW26704   0.376   0.095   5.651  0.3585 -0.1215  0.6011
 5082SOL    HW126705   0.322   0.016   5.646  0.2272  0.1557 -2.8643
 5082SOL    HW226706   0.459   0.050   5.663  0.7808  0.3595 -0.4832
 5083SOL     OW26707   1.373   4.506  10.807  0.9064 -0.6476  0.2790
 5083SOL    HW126708   1.382   4.554  10.724 -0.0704 -1.3771 -0.2493
 5083SOL    HW226709   1.411   4.574  10.864 -2.0980  0.7162  0.6603
 5084SOL     OW26710   1.953   4.551   7.509 -0.5168  0.1496 -0.1947
 5084SOL    HW126711   1.858   4.536   7.507 -0.6213  0.7043  0.5123
 5084SOL    HW226712   1.962   4.593   7.423 -0.8756 -1.1188 -0.8559
 5085SOL     OW26713   1.219   3.192   6.416  0.3580 -0.3110  0.4368
 5085SOL    HW126714   1.199   3.247   6.491 -0.1486  1.7513 -1.1985
 5085SOL    HW226715   1.256   3.113   6.455 -2.1563 -0.8438  1.7377
 5086SOL     OW26716   3.007   1.986   3.193 -0.3877  0.2602  0.1287
 5086SOL    HW126717   3.085   2.002   3.140 -0.8377  1.9977  0.0131
 5086SOL    HW226718   3.034   1.904   3.236  0.8371 -0.2551 -1.6146
 5087SOL     OW26719   2.416   3.841   3.810 -0.5158 -0.0754  0.8010
 5087SOL    HW126720   2.482   3.772   3.812 -1.7378 -1.2496  0.0792
 5087SOL    HW226721   2.351   3.795   3.757 -2.0937  2.4726  0.5226
 5088SOL     OW26722   2.371   1.283   7.032 -0.2382  0.8962 -0.5471
 5088SOL    HW126723   2.294   1.283   6.975 -1.1657  1.6302  0.7159
 5088SOL    HW226724   2.383   1.376   7.054  1.9670  0.5838 -0.4050
 5089SOL     OW26725   1.069   2.234   8.013  0.0138  0.8147 -0.1932
 5089SOL    HW126726   1.156   2.261   7.986  0.7749  0.1107  1.5522
 5089SOL    HW226727   1.010   2.276   7.950  0.5942  1.1417 -0.5112
 5090SOL     OW26728   3.176   2.268   9.829 -0.3670 -0.7153 -0.1997
 5090SOL    HW126729   3.168   2.173   9.820 -0.7785 -0.8269  1.4570
 5090SOL    HW226730   3.163   2.301   9.740  1.7604  1.7745  0.4393
 5091SOL     OW26731   3.118   1.065  17.455 -0.5391 -0.4362  0.1801
 5091SOL    HW126732   3.119   1.015  17.537  1.1883  1.9677  1.5924
 5091SOL    HW226733   3.082   0.991  17.404 -0.3947 -1.3483  1.4026
 5092SOL     OW26734   4.475   1.696   5.235  0.2800  0.2790  0.4414
 5092SOL    HW126735   4.518   1.741   5.308 -1.4751 -0.2201  1.7639
 5092SOL    HW226736   4.450   1.612   5.274 -1.7884  0.8897  0.4190
 5093SOL     OW26737   1.449   3.290   2.229  0.4897 -0.0837 -0.7560
 5093SOL    HW126738   1.398   3.355   2.278  1.1475 -1.0186  1.1589
 5093SOL    HW226739   1.527   3.281   2.285 -0.1618  0.0557  0.1801
 5094SOL     OW26740   1.106   3.877   7.160  0.1355 -0.1674 -0.2517
 5094SOL    HW126741   1.070   3.937   7.094  3.6716  1.9667 -0.2355
 5094SOL    HW226742   1.193   3.916   7.171 -0.3336  0.8141 -0.0293
 5095SOL     OW26743   3.787   2.668  16.974  0.2242 -0.1483 -0.4021
 5095SOL    HW126744   3.731   2.661  17.052 -0.1987  0.9385 -0.6031
 5095SOL    HW226745   3.779   2.584  16.929  0.7140  0.5644 -1.7998
 5096SOL     OW26746   1.292   1.076   9.745 -0.2656  0.1168 -0.4248
 5096SOL    HW126747   1.366   1.080   9.685 -0.5425  1.7656 -0.6713
 5096SOL    HW226748   1.333   1.027   9.816 -0.9180  0.7720  0.4096
 5097SOL     OW26749   4.594   1.687   3.514  0.1787 -0.3219 -0.2656
 5097SOL    HW126750   4.592   1.651   3.603  1.6845 -1.1848 -0.5872
 5097SOL    HW226751   4.521   1.750   3.515  2.5213  2.3757 -0.0919
 5098SOL     OW26752   1.285   0.286   1.613 -0.0014  0.0616  0.4262
 5098SOL    HW126753   1.256   0.374   1.636  0.3639  0.3884 -0.3509
 5098SOL    HW226754   1.235   0.235   1.677 -1.3868 -0.1034 -0.7927
 5099SOL     OW26755   3.756   0.116  10.541  0.1403  1.2067 -0.2730
 5099SOL    HW126756   3.753   0.151  10.630  0.0646 -1.0159  0.6122
 5099SOL    HW226757   3.785   0.192  10.491 -0.0657  0.7309 -1.1240
 5100SOL     OW26758   2.722   2.828   6.370  0.3347 -0.2329  0.0176
 5100SOL    HW126759   2.644   2.808   6.318  1.1758 -2.7612 -0.2584
 5100SOL    HW226760   2.687   2.863   6.452  2.7177  0.6269  0.6661
 5101SOL     OW26761   1.207   0.133   2.938 -0.3710 -0.0057  1.0649
 5101SOL    HW126762   1.230   0.114   3.029 -2.4932  1.6139  1.9340
 5101SOL    HW226763   1.161   0.217   2.943  1.3120  1.0170 -0.5259
 5102SOL     OW26764   2.014   3.589  15.548  0.3287  0.1696 -0.8474
 5102SOL    HW126765   1.975   3.505  15.570 -1.0824  1.3619  1.1445
 5102SOL    HW226766   1.975   3.598  15.461 -0.0438  0.6504 -0.6299
 5103SOL     OW26767   2.159   2.303   2.412 -0.3611 -0.3704  0.0333
 5103SOL    HW126768   2.117   2.385   2.385 -1.5641 -0.3050  2.1142
 5103SOL    HW226769   2.206   2.266   2.336 -0.2545  2.2227 -1.1765
 5104SOL     OW26770   2.565   2.811  14.037  0.4163 -0.2348  0.3659
 5104SOL    HW126771   2.544   2.883  13.978  0.6270  0.9052  1.6840
 5104SOL    HW226772   2.524   2.844  14.116  0.1769  1.3999 -0.4440
 5105SOL     OW26773   3.129   0.066   3.051  0.1642 -0.0502 -0.4831
 5105SOL    HW126774   3.115   0.004   2.979  0.1276 -1.6789  0.9002
 5105SOL    HW226775   3.189   0.128   3.010 -0.7517  1.9227  1.1869
 5106SOL     OW26776   1.593   3.723   6.900 -0.5761  0.2481 -0.4460
 5106SOL    HW126777   1.663   3.767   6.948  0.7031 -1.6367 -0.5827
 5106SOL    HW226778   1.569   3.795   6.841  2.0212  2.8324  1.6893
 5107SOL     OW26779   3.186   4.170   2.354 -0.4650 -0.1891 -0.8701
 5107SOL    HW126780   3.142   4.170   2.440  0.4213 -1.0361 -0.4139
 5107SOL    HW226781   3.133   4.098   2.320 -4.0540  2.6576 -1.2893
 5108SOL     OW26782   1.303   3.498   3.140 -0.3159  0.0648 -0.1614
 5108SOL    HW126783   1.348   3.518   3.222  0.1473 -1.9186  0.0778
 5108SOL    HW226784   1.302   3.402   3.142 -2.8789  0.0858 -0.4847
 5109SOL     OW26785   3.690   1.300   5.451  0.1936  0.0330  0.2897
 5109SOL    HW126786   3.713   1.344   5.533  0.4385 -0.1860  0.3366
 5109SOL    HW226787   3.655   1.219   5.486  0.3252  0.2451  0.9009
 5110SOL     OW26788   0.546   2.322   2.278 -0.4532 -0.2211 -0.3297
 5110SOL    HW126789   0.625   2.270   2.267 -1.1919 -1.2139 -0.9989
 5110SOL    HW226790   0.573   2.408   2.309  1.3763 -1.5661  1.7753
 5111SOL     OW26791   4.602   0.930   2.651 -0.2189 -0.7403  0.1923
 5111SOL    HW126792   4.612   1.009   2.598  1.5058  0.1806  1.8837
 5111SOL    HW226793   4.672   0.932   2.717  1.2317  3.8780 -1.4961
 5112SOL     OW26794   0.962   1.786   9.233 -0.0823 -0.1091 -0.0397
 5112SOL    HW126795   0.901   1.712   9.235  1.4381 -1.3047  2.5649
 5112SOL    HW226796   0.915   1.844   9.293  0.3565 -0.1242  0.3201
 5113SOL     OW26797   0.721   0.630   1.159  0.1248  0.2182  0.6643
 5113SOL    HW126798   0.791   0.585   1.206 -0.5651 -0.9976  0.5331
 5113SOL    HW226799   0.678   0.557   1.115  0.9519 -0.0312  0.2535
 5114SOL     OW26800   1.420   0.674  16.025  0.0770 -0.2241  0.2049
 5114SOL    HW126801   1.416   0.766  16.000  2.0556 -0.3170 -0.4218
 5114SOL    HW226802   1.330   0.645  16.010 -0.7556  2.5204 -0.2105
 5115SOL     OW26803   0.588   0.185   7.717  0.1270 -0.0533  0.3998
 5115SOL    HW126804   0.512   0.168   7.662 -0.7064  0.5367  1.3551
 5115SOL    HW226805   0.566   0.141   7.799 -1.9814 -0.0517 -0.1607
 5116SOL     OW26806   3.517   1.090   2.544  0.1272  0.1021 -0.5842
 5116SOL    HW126807   3.538   1.080   2.451 -0.4981  0.0180 -0.7151
 5116SOL    HW226808   3.484   1.000   2.555  1.7185 -0.3672  0.4342
 5117SOL     OW26809   4.012   0.875  11.343  0.0839  0.1955  0.6110
 5117SOL    HW126810   4.074   0.875  11.270 -1.1616 -0.8249 -0.4305
 5117SOL    HW226811   3.972   0.789  11.331  1.0614 -0.3708  1.4118
 5118SOL     OW26812   2.270   2.194   2.206 -0.1169 -0.2515  0.5667
 5118SOL    HW126813   2.339   2.130   2.191 -0.0876 -0.2551  0.7182
 5118SOL    HW226814   2.298   2.265   2.148  0.2765  0.6588  1.8518
 5119SOL     OW26815   2.318   1.448   5.031  0.0444  0.3051  0.8578
 5119SOL    HW126816   2.257   1.384   5.069 -0.1402  1.3913  2.3790
 5119SOL    HW226817   2.361   1.395   4.964  1.5144  1.8364  0.5747
 5120SOL     OW26818   0.578   3.024   4.600  0.1756  0.6546 -0.3418
 5120SOL    HW126819   0.588   2.955   4.666  1.2240  0.9951 -0.1411
 5120SOL    HW226820   0.645   3.084   4.632 -2.7678  2.4251  2.4494
 5121SOL     OW26821   0.905   2.623   8.345 -0.0479  0.3059 -0.1504
 5121SOL    HW126822   0.860   2.674   8.413 -1.4417 -1.1278  0.0001
 5121SOL    HW226823   0.853   2.641   8.267 -0.4608  0.9660  0.2750
 5122SOL     OW26824   0.547   2.974  15.808  0.0421  0.3583 -0.6506
 5122SOL    HW126825   0.463   3.010  15.835  0.3375  1.0343 -0.6191
 5122SOL    HW226826   0.611   2.981  15.879  0.0096 -0.1532 -0.5684
 5123SOL     OW26827   1.411   1.820   4.568  0.0366 -0.3131 -0.5349
 5123SOL    HW126828   1.409   1.906   4.526 -0.7022 -0.8859 -1.6931
 5123SOL    HW226829   1.500   1.811   4.602  0.1256  2.3019 -0.0739
 5124SOL     OW26830   1.716   3.443   1.864 -0.3469 -0.4392 -0.5813
 5124SOL    HW126831   1.691   3.508   1.929  0.1290  0.8591 -1.6879
 5124SOL    HW226832   1.748   3.504   1.796  0.8275 -1.1874 -0.7072
 5125SOL     OW26833   1.876   4.650   2.932 -0.0299 -0.1094  0.1678
 5125SOL    HW126834   1.814   4.644   2.859  2.4670 -2.9747 -1.6928
 5125SOL    HW226835   1.880   0.024   2.935  1.8225 -0.2670  2.3117
 5126SOL     OW26836   3.197   1.787   4.891  0.6014  0.5557 -0.1401
 5126SOL    HW126837   3.148   1.784   4.809 -0.5427  1.8810  0.4887
 5126SOL    HW226838   3.177   1.705   4.936 -0.2050 -0.4242 -2.2984
 5127SOL     OW26839   0.315   4.540   7.459  0.3389  0.2811 -0.2991
 5127SOL    HW126840   0.288   4.632   7.458 -2.4972 -0.5666 -2.2622
 5127SOL    HW226841   0.251   4.496   7.403  0.9182 -0.2805 -0.5320
 5128SOL     OW26842   2.534   0.010  10.300  0.5324 -0.5469  0.1533
 5128SOL    HW126843   2.566   0.077  10.361 -0.0421 -0.1220 -0.0119
 5128SOL    HW226844   2.618   4.686  10.290  0.8998  0.7830 -2.7681
 5129SOL     OW26845   4.423   2.312   1.300 -0.0444  0.2160 -0.2926
 5129SOL    HW126846   4.433   2.378   1.232  0.3012 -2.2822 -2.6998
 5129SOL    HW226847   4.342   2.342   1.341  0.0096  0.2763 -0.2302
 5130SOL     OW26848   0.037   2.977   6.722 -0.0005 -0.1636 -0.2048
 5130SOL    HW126849   4.707   3.036   6.776 -0.8016  0.5659 -1.7729
 5130SOL    HW226850   4.711   2.894   6.725 -0.8791  0.3429 -0.2456
 5131SOL     OW26851   2.235   1.487   6.329 -0.5719  0.1061  0.0445
 5131SOL    HW126852   2.164   1.547   6.305  0.0191  1.1299  0.8323
 5131SOL    HW226853   2.216   1.404   6.285 -1.4787 -0.8704  2.2822
 5132SOL     OW26854   2.937   0.011   8.310  0.6307 -0.2809 -0.1721
 5132SOL    HW126855   2.946   4.707   8.218  0.3878 -2.6552  0.4704
 5132SOL    HW226856   2.878   0.085   8.297  1.9217  0.7700 -0.0426
 5133SOL     OW26857   4.662   0.487   0.959 -0.2096 -0.6231  0.0714
 5133SOL    HW126858   4.601   0.421   0.990 -2.6142  1.6643  0.2273
 5133SOL    HW226859   0.007   0.428   0.923 -0.0031 -0.9405  0.9861
 5134SOL     OW26860   3.238   3.524   8.667 -0.9384  0.1189 -0.3243
 5134SOL    HW126861   3.189   3.448   8.698 -2.1086  0.0494 -2.3767
 5134SOL    HW226862   3.177   3.556   8.601  0.5037  2.8110 -0.3817
 5135SOL     OW26863   3.772   1.129   2.887  0.0470 -0.0596 -0.2969
 5135SOL    HW126864   3.764   1.133   2.982 -2.5090 -1.1597 -0.4879
 5135SOL    HW226865   3.812   1.042   2.887 -0.4848 -0.2814  1.5357
 5136SOL     OW26866   1.115   3.301   6.192  0.2045 -0.2829  0.1518
 5136SOL    HW126867   1.090   3.379   6.241  0.1525  1.2962 -2.3864
 5136SOL    HW226868   1.141   3.248   6.268  0.7441 -0.7472 -0.3551
 5137SOL     OW26869   0.450   2.563   5.054  0.1206  0.5080 -0.8053
 5137SOL    HW126870   0.526   2.591   5.105 -1.7385  0.2488  2.0998
 5137SOL    HW226871   0.488   2.487   5.010 -1.2568 -0.7518  0.1809
 5138SOL     OW26872   0.978   3.712  10.641  0.1830 -0.3379 -0.4363
 5138SOL    HW126873   1.063   3.694  10.681 -1.3386 -2.4263  1.8351
 5138SOL    HW226874   1.004   3.693  10.551  0.1625  2.4888 -1.0398
 5139SOL     OW26875   2.096   0.957   3.364 -0.4695  0.2895  0.2426
 5139SOL    HW126876   2.002   0.939   3.362 -0.5251  0.6540 -0.4144
 5139SOL    HW226877   2.120   0.895   3.295 -0.6733 -0.5033  0.8855
 5140SOL     OW26878   1.555   3.542   9.946 -0.2645 -0.5809  0.1106
 5140SOL    HW126879   1.609   3.488  10.003  0.8304 -0.0023 -0.3949
 5140SOL    HW226880   1.528   3.595  10.022  1.2815 -1.8530  1.5313
 5141SOL     OW26881   2.967   4.571   2.316 -0.4053 -0.0489 -0.2262
 5141SOL    HW126882   2.991   4.640   2.254 -1.4364  1.2416  0.8220
 5141SOL    HW226883   2.999   4.493   2.269  0.8351  0.0481  0.4797
 5142SOL     OW26884   4.644   4.678   5.858 -0.4878  0.1521 -0.2393
 5142SOL    HW126885   4.637   4.585   5.839  3.7717 -0.2532  0.0575
 5142SOL    HW226886   4.642   4.671   5.953 -3.6032 -0.2091 -0.3581
 5143SOL     OW26887   2.786   2.127   3.012 -0.4779 -0.2092  0.0204
 5143SOL    HW126888   2.754   2.103   2.926 -0.0408  0.7435 -0.4087
 5143SOL    HW226889   2.769   2.049   3.066 -3.1354 -0.0731 -0.6406
 5144SOL     OW26890   3.989   2.056   4.225  0.0215  0.6544 -0.3088
 5144SOL    HW126891   3.993   2.151   4.231 -0.2016  0.6051  0.6164
 5144SOL    HW226892   4.038   2.021   4.300 -0.7662 -1.2881 -0.7036
 5145SOL     OW26893   2.824   3.849   6.554 -0.1086  0.3373 -0.2034
 5145SOL    HW126894   2.900   3.890   6.594  0.0284 -1.8940  1.8502
 5145SOL    HW226895   2.757   3.878   6.617  2.0668  1.2887  1.6638
 5146SOL     OW26896   2.154   4.588   4.232  0.0021  0.4916  0.1837
 5146SOL    HW126897   2.164   4.512   4.290 -0.0564 -1.4465 -2.3408
 5146SOL    HW226898   2.064   4.571   4.203  0.4195  1.7982 -1.8081
 5147SOL     OW26899   0.228   1.693   6.344  0.6165  0.6212  0.0877
 5147SOL    HW126900   0.179   1.616   6.316  0.6930  0.3488  0.6976
 5147SOL    HW226901   0.160   1.735   6.397  0.2833 -0.3929  0.4578
 5148SOL     OW26902   2.990   0.756   3.704 -0.4086 -0.5028  0.4996
 5148SOL    HW126903   3.030   0.778   3.789 -0.7017 -1.4948  0.8953
 5148SOL    HW226904   2.905   0.798   3.713 -0.2382 -0.3556  1.4583
 5149SOL     OW26905   2.689   3.507   1.329 -0.5516 -0.1800 -0.3126
 5149SOL    HW126906   2.724   3.423   1.357  1.6812  1.0551  0.5604
 5149SOL    HW226907   2.680   3.550   1.414  3.2338  0.1759 -0.1153
 5150SOL     OW26908   2.789   1.050   2.418 -0.1744  0.8787  0.1632
 5150SOL    HW126909   2.859   1.098   2.462  0.6552 -0.4708  0.3436
 5150SOL    HW226910   2.825   1.059   2.329  0.0995  1.6799  0.3584
 5151SOL     OW26911   4.273   3.877   6.094  0.4842  0.1343 -0.2517
 5151SOL    HW126912   4.282   3.815   6.022 -1.7868 -1.4934  0.8836
 5151SOL    HW226913   4.236   3.810   6.152 -0.1951  0.0375 -0.7880
 5152SOL     OW26914   2.493   2.023   5.151 -0.1163 -0.2676 -0.1405
 5152SOL    HW126915   2.553   1.950   5.139  1.2804  0.7003  0.9076
 5152SOL    HW226916   2.426   2.007   5.085 -1.0792  2.2393  0.2081
 5153SOL     OW26917   3.334   0.283  10.125  0.3034  0.0775  0.1666
 5153SOL    HW126918   3.376   0.206  10.164  0.7421  0.1607 -0.1355
 5153SOL    HW226919   3.284   0.325  10.194 -0.4034  0.8196 -0.7884
 5154SOL     OW26920   3.125   1.716  14.538 -0.3919 -0.8634  0.4678
 5154SOL    HW126921   3.195   1.744  14.597  0.2301  1.1936 -1.2774
 5154SOL    HW226922   3.179   1.659  14.483  3.4498  3.0920  0.0876
 5155SOL     OW26923   2.819   0.196   6.188  0.2755 -0.5328 -0.4453
 5155SOL    HW126924   2.768   0.205   6.269  0.1317  1.3663 -0.7318
 5155SOL    HW226925   2.759   0.193   6.113 -0.9084 -1.5703  0.5496
 5156SOL     OW26926   1.082   0.477   7.567 -0.4951 -0.9062 -0.2079
 5156SOL    HW126927   1.081   0.548   7.502  1.7979 -0.9316 -0.2663
 5156SOL    HW226928   0.992   0.443   7.565 -1.0558  0.5920 -1.2782
 5157SOL     OW26929   0.629   3.674  16.563 -0.2760 -0.2752  0.0228
 5157SOL    HW126930   0.696   3.606  16.569 -0.7165 -0.8296 -1.5298
 5157SOL    HW226931   0.573   3.657  16.639  1.4694 -0.6094  1.2419
 5158SOL     OW26932   2.627   2.394   0.628 -0.0311 -0.4887  0.5383
 5158SOL    HW126933   2.630   2.481   0.667 -2.4205  0.2975 -1.0424
 5158SOL    HW226934   2.551   2.359   0.676 -0.0110 -0.0404  0.9002
 5159SOL     OW26935   3.878   3.399   8.311  0.4782 -0.0938 -0.1919
 5159SOL    HW126936   3.865   3.479   8.362  1.9456 -2.3324  3.7096
 5159SOL    HW226937   3.934   3.354   8.375 -1.1378 -1.7538  0.0587
 5160SOL     OW26938   1.492   4.261   6.979 -0.1215  0.5774 -0.6437
 5160SOL    HW126939   1.551   4.304   6.917 -0.3668 -0.1091 -1.3600
 5160SOL    HW226940   1.497   4.168   6.958  0.6897  0.2961  0.7871
 5161SOL     OW26941   1.566   1.028   7.932 -0.2273 -0.2082 -0.2325
 5161SOL    HW126942   1.610   0.990   8.008 -1.4683  0.1081  0.6374
 5161SOL    HW226943   1.640   1.051   7.875 -0.6713 -0.9693 -1.1054
 5162SOL     OW26944   1.319   3.908   3.710  0.1274 -0.5936 -0.7201
 5162SOL    HW126945   1.357   3.931   3.794 -0.1391 -0.0116 -0.7607
 5162SOL    HW226946   1.274   3.827   3.735  1.6369 -1.5893 -1.2347
 5163SOL     OW26947   1.889   1.128   8.144  0.7085  0.5076  0.3380
 5163SOL    HW126948   1.807   1.078   8.144  1.1667 -0.2398 -1.2423
 5163SOL    HW226949   1.920   1.105   8.231  2.3356 -1.2025 -0.6661
 5164SOL     OW26950   3.016   1.440   2.512  0.8957  0.3225 -0.7639
 5164SOL    HW126951   3.100   1.463   2.472  1.9395 -0.8472  0.7524
 5164SOL    HW226952   2.976   1.525   2.495  1.7399  0.9522  0.3961
 5165SOL     OW26953   4.581   2.946   3.773 -0.1191 -0.0920 -0.0295
 5165SOL    HW126954   4.621   2.972   3.856 -0.9713  1.4854 -0.1297
 5165SOL    HW226955   4.648   2.961   3.706  1.0013  1.0258  1.3460
 5166SOL     OW26956   4.659   2.012   8.511 -0.5327  0.5633  0.7324
 5166SOL    HW126957   4.616   2.087   8.553 -0.6178  0.4529  0.8427
 5166SOL    HW226958   0.025   2.005   8.549  0.7754  1.0864 -2.2166
 5167SOL     OW26959   1.059   2.996   3.525  0.4182 -0.3958 -0.2092
 5167SOL    HW126960   0.979   2.944   3.534 -0.2407  0.7907  0.6593
 5167SOL    HW226961   1.071   3.007   3.430 -1.0089  0.4087 -0.2915
 5168SOL     OW26962   1.413   2.371  14.372  0.4534  0.0706 -0.2388
 5168SOL    HW126963   1.465   2.371  14.292  0.2660 -1.4797 -0.3509
 5168SOL    HW226964   1.384   2.462  14.382  1.5242  0.2936  0.8826
 5169SOL     OW26965   3.314   3.006   4.025 -0.4709  0.5926 -0.0646
 5169SOL    HW126966   3.276   3.087   4.057  0.1464  1.0125 -0.3996
 5169SOL    HW226967   3.239   2.947   4.011 -0.1362 -0.7922  4.1104
 5170SOL     OW26968   0.683   1.308   4.141 -0.5553  0.1930 -0.2031
 5170SOL    HW126969   0.677   1.230   4.085 -1.7697  0.6068 -0.6417
 5170SOL    HW226970   0.652   1.375   4.080  1.6234  0.8884 -0.5382
 5171SOL     OW26971   4.277   3.543   0.130  0.5095  0.8234 -0.2885
 5171SOL    HW126972   4.364   3.569   0.160  0.3566  1.7155 -0.6254
 5171SOL    HW226973   4.219   3.617   0.149 -0.3481 -0.7339  3.2561
 5172SOL     OW26974   1.653   0.785  16.131 -0.0959 -0.1323  0.6271
 5172SOL    HW126975   1.597   0.710  16.115 -0.9985  0.1866  2.2701
 5172SOL    HW226976   1.661   0.790  16.226  0.1271 -0.5863  0.6321
 5173SOL     OW26977   1.775   0.286   7.558 -0.0729 -0.1285 -0.4334
 5173SOL    HW126978   1.768   0.276   7.463 -2.5968 -0.4868 -0.2023
 5173SOL    HW226979   1.688   0.319   7.579 -0.4846 -0.3237 -1.8076
 5174SOL     OW26980   2.053   0.831   8.105  0.2566 -0.5144 -0.5799
 5174SOL    HW126981   1.969   0.788   8.125 -0.1045 -0.6802 -2.4628
 5174SOL    HW226982   2.092   0.827   8.192 -1.7129 -1.4602  0.2738
 5175SOL     OW26983   2.444   4.036   3.998 -0.5446  0.6164 -0.1820
 5175SOL    HW126984   2.403   3.996   4.075 -1.3863  0.3954 -0.7515
 5175SOL    HW226985   2.444   3.964   3.935 -0.1823 -0.0341  0.5689
 5176SOL     OW26986   4.199   2.074   3.774 -0.4020  0.2328 -0.2011
 5176SOL    HW126987   4.161   2.062   3.688 -0.9769  1.2074 -0.0808
 5176SOL    HW226988   4.228   2.165   3.763 -0.2656  0.1444 -0.5587
 5177SOL     OW26989   0.982   3.387   4.613 -0.6602 -0.4872 -0.0790
 5177SOL    HW126990   1.018   3.449   4.676 -3.3910 -0.0129  1.0272
 5177SOL    HW226991   0.900   3.420   4.576  0.5367  1.4662 -1.0166
 5178SOL     OW26992   0.629   3.246  10.281 -0.2708 -0.0462 -0.0024
 5178SOL    HW126993   0.610   3.322  10.337 -0.1765  0.7766 -1.0839
 5178SOL    HW226994   0.688   3.285  10.216  1.2468 -3.2582 -0.5330
 5179SOL     OW26995   3.532   1.990   1.144  0.0415 -0.2022  0.3161
 5179SOL    HW126996   3.588   2.069   1.146  1.1712 -0.9880 -0.1933
 5179SOL    HW226997   3.557   1.936   1.218  0.9097  0.8329  0.7863
 5180SOL     OW26998   2.901   4.269   0.037  0.0727  0.1132  0.3193
 5180SOL    HW126999   2.895   4.221   0.120  0.4349  0.1877  0.3910
 5180SOL    HW227000   2.910   4.195  17.666 -0.3072  0.0281  0.3713
 5181SOL     OW27001   2.434   4.464   5.375 -0.3493 -0.0824  0.5393
 5181SOL    HW127002   2.389   4.546   5.355 -1.2020 -0.9491 -1.1225
 5181SOL    HW227003   2.509   4.459   5.316 -0.0946 -0.4869  0.8985
 5182SOL     OW27004   2.505   2.085   4.171 -0.4864  0.1406 -0.3107
 5182SOL    HW127005   2.518   2.170   4.128 -0.6710  0.5000  0.3476
 5182SOL    HW227006   2.493   2.034   4.091  0.3501  1.2535 -1.1567
 5183SOL     OW27007   3.911   0.322   4.455  0.2364 -0.3085 -0.1773
 5183SOL    HW127008   3.838   0.382   4.464 -0.6874 -1.4833  0.1283
 5183SOL    HW227009   3.985   0.381   4.441  0.5343 -0.4623  0.7796
 5184SOL     OW27010   0.520   1.273   9.570 -0.0983 -0.4507  0.1055
 5184SOL    HW127011   0.493   1.207   9.634 -1.4169 -0.8864 -0.8827
 5184SOL    HW227012   0.556   1.212   9.505  0.0202 -0.9852  0.6695
 5185SOL     OW27013   3.798   1.194   2.553  0.3633  0.7519 -0.2947
 5185SOL    HW127014   3.736   1.221   2.485  0.3016  0.3151 -0.4122
 5185SOL    HW227015   3.744   1.198   2.632 -0.8997  0.3098 -1.1225
 5186SOL     OW27016   0.907   0.746   6.800 -0.4735 -0.2508  0.0382
 5186SOL    HW127017   0.892   0.653   6.818  0.8207 -0.6767 -1.0711
 5186SOL    HW227018   0.831   0.782   6.845 -0.1420  2.0816 -1.2268
 5187SOL     OW27019   2.999   1.464   8.451  0.1051 -0.3172  0.4622
 5187SOL    HW127020   3.024   1.378   8.484  1.5586 -1.0523 -2.5365
 5187SOL    HW227021   2.919   1.481   8.500  0.0594 -1.9964  0.9636
 5188SOL     OW27022   0.085   1.539   7.087 -0.3440 -0.0290 -0.5899
 5188SOL    HW127023   4.716   1.535   7.116 -0.4459  0.3708 -0.8553
 5188SOL    HW227024   0.073   1.583   7.003  0.6866  0.4873 -0.4680
 5189SOL     OW27025   3.844   0.975   1.826 -0.1878 -0.7220  0.0945
 5189SOL    HW127026   3.904   0.900   1.828  0.2802 -0.3543 -0.1397
 5189SOL    HW227027   3.824   0.982   1.732 -0.3159  1.0149  0.2550
 5190SOL     OW27028   1.896   0.240   5.672  0.3361  0.1353 -0.2054
 5190SOL    HW127029   1.855   0.224   5.587 -0.5836 -1.3780  0.5317
 5190SOL    HW227030   1.951   0.164   5.686 -0.1354 -0.2852 -0.6420
 5191SOL     OW27031   0.825   2.380   9.010 -0.1593  0.9281 -0.1209
 5191SOL    HW127032   0.862   2.452   9.061  0.6606  0.1186  0.4352
 5191SOL    HW227033   0.736   2.402   8.981 -0.7419 -1.6234 -0.2616
 5192SOL     OW27034   3.663   2.767   4.263 -0.3128  0.3373  0.1114
 5192SOL    HW127035   3.569   2.758   4.248 -0.6011 -2.9601  3.8900
 5192SOL    HW227036   3.664   2.854   4.304  1.5542 -0.5786  2.0200
 5193SOL     OW27037   0.551   0.365   4.248 -0.1696 -0.2565 -0.1169
 5193SOL    HW127038   0.553   0.289   4.306 -0.4798  0.4801  0.8648
 5193SOL    HW227039   0.576   0.432   4.311  0.3592  0.1223 -0.7239
 5194SOL     OW27040   0.821   1.088   6.696  0.5516  0.0722 -0.3849
 5194SOL    HW127041   0.890   1.034   6.734  0.6146 -1.0454 -2.0827
 5194SOL    HW227042   0.798   1.144   6.770  2.5357  1.6110 -0.9569
 5195SOL     OW27043   0.714   4.572   3.906  0.0662  0.2994 -0.2589
 5195SOL    HW127044   0.640   4.523   3.870  1.4680 -0.7045 -1.7647
 5195SOL    HW227045   0.765   4.514   3.963 -0.7928  0.9241  1.1644
 5196SOL     OW27046   4.282   4.065  16.887  0.3430  0.1444 -0.2943
 5196SOL    HW127047   4.238   3.983  16.867  0.2725  0.0007  0.4530
 5196SOL    HW227048   4.313   4.074  16.797  1.1966 -3.0462 -0.3182
 5197SOL     OW27049   0.413   0.221   8.539 -0.6917  0.9596 -0.2726
 5197SOL    HW127050   0.319   0.205   8.537 -0.2569 -1.4256 -1.1459
 5197SOL    HW227051   0.431   0.302   8.586 -0.8571  0.3380  0.8468
 5198SOL     OW27052   2.741   2.072  14.254 -0.1903  0.7626 -0.1711
 5198SOL    HW127053   2.684   2.091  14.179  2.4579  2.7952 -1.6434
 5198SOL    HW227054   2.694   2.114  14.326 -1.5122  0.6574 -0.9672
 5199SOL     OW27055   1.496   2.143   4.162 -0.3085 -0.5872  0.2389
 5199SOL    HW127056   1.409   2.103   4.157 -0.5787 -0.0765  0.8782
 5199SOL    HW227057   1.516   2.156   4.069 -0.1756  0.4754  0.4221
 5200SOL     OW27058   2.450   1.518   7.698 -0.8623 -0.2833 -0.2121
 5200SOL    HW127059   2.531   1.554   7.663 -0.4582 -1.4420 -0.4665
 5200SOL    HW227060   2.424   1.586   7.760 -0.7587 -0.5878  0.1688
 5201SOL     OW27061   3.680   4.026  14.060 -0.5804  0.1979 -0.0456
 5201SOL    HW127062   3.661   3.944  14.106  1.0209 -0.0576  0.1659
 5201SOL    HW227063   3.642   4.007  13.975  0.8900 -4.1212  0.2329
 5202SOL     OW27064   2.651   3.813   7.019  0.5203 -0.0515 -0.0457
 5202SOL    HW127065   2.716   3.787   7.085  0.0539 -2.6569 -0.6191
 5202SOL    HW227066   2.637   3.898   7.062  0.8383  0.6169 -1.2628
 5203SOL     OW27067   1.089   0.487   0.479  0.0945 -0.0243 -0.0417
 5203SOL    HW127068   1.025   0.493   0.408  0.9756  2.9099 -0.5724
 5203SOL    HW227069   1.039   0.517   0.555  1.6000 -1.9857  1.7357
 5204SOL     OW27070   1.400   3.043  10.222 -0.2196  0.2719  0.5211
 5204SOL    HW127071   1.443   3.043  10.136 -1.0910  1.1190  0.0730
 5204SOL    HW227072   1.346   3.122  10.222  1.8325  1.6572  2.5211
 5205SOL     OW27073   1.799   4.040   8.956 -0.1256  0.2986 -0.0336
 5205SOL    HW127074   1.869   4.002   8.903  0.3399 -0.6482  1.2730
 5205SOL    HW227075   1.728   4.038   8.892 -0.8764  2.9367  0.7198
 5206SOL     OW27076   2.627   3.151   7.724 -0.6689 -0.0542 -0.0986
 5206SOL    HW127077   2.686   3.076   7.719  0.8575  1.0987  0.6713
 5206SOL    HW227078   2.665   3.194   7.800  1.9997 -2.6474  0.0534
 5207SOL     OW27079   3.947   4.513   7.895  0.0827  0.0992 -0.2921
 5207SOL    HW127080   3.927   4.530   7.802  2.0294  3.6800 -0.0556
 5207SOL    HW227081   3.856   4.516   7.923  0.2807 -1.2729  0.4812
 5208SOL     OW27082   1.981   3.645   9.360  0.0970  0.0832  0.4380
 5208SOL    HW127083   2.071   3.621   9.342  0.0165 -1.4102  1.9644
 5208SOL    HW227084   1.969   3.711   9.292 -1.8890 -2.0521 -1.3028
 5209SOL     OW27085   1.370   4.490   4.353 -0.2993 -0.2043 -0.4345
 5209SOL    HW127086   1.397   4.463   4.265  0.4232 -1.6414  0.2366
 5209SOL    HW227087   1.451   4.539   4.372 -0.6291  1.0626 -2.2736
 5210SOL     OW27088   0.478   4.475   3.768  0.0822 -0.2222 -0.1675
 5210SOL    HW127089   0.448   4.404   3.711  0.7208 -0.8338  0.2610
 5210SOL    HW227090   0.442   4.443   3.850  1.0083 -1.2231 -0.1506
 5211SOL     OW27091   4.715   0.729  16.085 -0.2314  0.0058  0.6925
 5211SOL    HW127092   4.689   0.727  16.177  1.0729 -0.8434  1.0387
 5211SOL    HW227093   4.693   0.816  16.050 -0.8435  0.0617  1.2083
 5212SOL     OW27094   1.497   1.630  16.452 -0.0963 -0.4446  0.2081
 5212SOL    HW127095   1.481   1.631  16.358  1.1813 -3.2851 -0.0182
 5212SOL    HW227096   1.579   1.581  16.455 -0.2856 -0.7263  0.8554
 5213SOL     OW27097   0.354   1.126   4.195 -0.3180 -0.2536 -0.6745
 5213SOL    HW127098   0.304   1.049   4.221 -0.0548 -0.3772 -0.5391
 5213SOL    HW227099   0.404   1.098   4.118 -1.2189 -2.8843 -0.2934
 5214SOL     OW27100   2.597   2.280   1.090  0.0566 -0.2586  0.4053
 5214SOL    HW127101   2.575   2.268   1.182  0.2867 -0.7788  0.3931
 5214SOL    HW227102   2.665   2.348   1.095  0.4416 -0.6901  0.9705
 5215SOL     OW27103   3.291   2.997   4.353 -0.2910  0.0151 -0.2902
 5215SOL    HW127104   3.272   2.903   4.350  1.7164 -0.4078  0.0879
 5215SOL    HW227105   3.216   3.041   4.313 -0.3143 -2.2680 -2.8186
 5216SOL     OW27106   0.310   2.825  13.701  0.1700  0.1235  0.1575
 5216SOL    HW127107   0.388   2.781  13.670 -0.7415  0.0488 -2.0287
 5216SOL    HW227108   0.248   2.755  13.679  1.1277 -0.3445 -1.0132
 5217SOL     OW27109   3.034   3.523   4.283 -0.2284 -0.5626 -0.4728
 5217SOL    HW127110   2.973   3.478   4.225  0.4740 -2.6227  0.3662
 5217SOL    HW227111   3.071   3.592   4.228 -1.5335  0.0926 -0.5325
 5218SOL     OW27112   3.208   0.338   9.462  0.2482 -0.1219 -0.4808
 5218SOL    HW127113   3.245   0.402   9.401  1.2039  0.0701  0.2948
 5218SOL    HW227114   3.133   0.389   9.492  0.4890 -1.0763  1.7370
 5219SOL     OW27115   4.658   3.672   3.519 -0.1895 -0.0131  0.4994
 5219SOL    HW127116   4.684   3.591   3.476  0.9682  0.4888  0.2577
 5219SOL    HW227117   4.630   3.641   3.605 -1.8958  0.5627  0.1405
 5220SOL     OW27118   3.563   4.177  15.612 -0.0791  0.2139  0.2679
 5220SOL    HW127119   3.567   4.245  15.679  0.0654  2.1847 -1.7530
 5220SOL    HW227120   3.622   4.209  15.543  0.3775 -1.7738 -0.2654
 5221SOL     OW27121   2.261   2.386  16.002 -0.5001 -0.1254  0.0183
 5221SOL    HW127122   2.337   2.436  16.032  0.3400 -1.4460  0.0845
 5221SOL    HW227123   2.309   2.340  15.934  0.6483 -0.5543  1.1171
 5222SOL     OW27124   2.464   1.436   9.330 -0.6061  0.1436  0.3724
 5222SOL    HW127125   2.451   1.379   9.255  0.0675 -1.5772  1.5737
 5222SOL    HW227126   2.536   1.488   9.296  0.0962 -0.0940  1.5149
 5223SOL     OW27127   4.119   3.124  10.352 -0.2289  0.5063 -1.3338
 5223SOL    HW127128   4.057   3.193  10.373 -2.2992 -1.6299 -0.4386
 5223SOL    HW227129   4.200   3.159  10.389  0.1548  0.0866 -1.7735
 5224SOL     OW27130   1.565   3.291  17.681  0.1101  0.3654  0.1299
 5224SOL    HW127131   1.588   3.242  17.602  1.4366  0.7355  0.2888
 5224SOL    HW227132   1.635   3.259   0.050  0.3267 -2.0509 -1.4825
 5225SOL     OW27133   0.439   3.614   4.497 -0.0796 -0.3471 -0.1893
 5225SOL    HW127134   0.435   3.519   4.511 -2.1673 -0.0633  1.2089
 5225SOL    HW227135   0.361   3.626   4.442 -0.0759 -0.4818 -0.2233
 5226SOL     OW27136   3.910   1.988   6.830  0.2330 -0.2422 -0.3106
 5226SOL    HW127137   3.994   1.988   6.784 -0.2122 -0.0737 -1.1158
 5226SOL    HW227138   3.871   1.909   6.791  1.5799 -0.4955 -1.1337
 5227SOL     OW27139   2.613   3.197   5.487 -0.7338 -0.0897  0.4565
 5227SOL    HW127140   2.628   3.177   5.394  1.8333  0.8123  0.6659
 5227SOL    HW227141   2.633   3.291   5.483 -4.1582  0.5865 -0.8013
 5228SOL     OW27142   0.178   3.255   5.579 -0.1445 -0.1378 -0.1235
 5228SOL    HW127143   0.103   3.279   5.525 -1.2973 -1.5007  0.8416
 5228SOL    HW227144   0.145   3.173   5.617 -1.8164  1.6428  2.2703
 5229SOL     OW27145   1.774   0.756   5.767  0.1009 -0.3797  0.5489
 5229SOL    HW127146   1.773   0.844   5.806  1.1388 -0.1978  0.1761
 5229SOL    HW227147   1.722   0.777   5.690  2.2102  4.8788  0.5184
 5230SOL     OW27148   3.385   2.108   8.050 -0.2609 -0.4956 -0.3022
 5230SOL    HW127149   3.365   2.086   8.141  1.7269  0.6919  0.4178
 5230SOL    HW227150   3.475   2.138   8.058 -0.3621  0.3951 -2.5985
 5231SOL     OW27151   0.135   3.366  11.391  0.0213  0.6613  0.0505
 5231SOL    HW127152   0.230   3.360  11.384 -0.2150 -1.5889 -1.3686
 5231SOL    HW227153   0.115   3.328  11.306 -1.3634  2.4744 -0.4313
 5232SOL     OW27154   4.204   2.755   3.278  0.7108 -0.0400  0.5583
 5232SOL    HW127155   4.282   2.712   3.243 -1.6621 -3.6289 -0.2798
 5232SOL    HW227156   4.174   2.813   3.208  0.5163  1.2798  1.7368
 5233SOL     OW27157   1.091   1.505   6.826 -0.1750  0.3007 -0.5210
 5233SOL    HW127158   0.997   1.522   6.817 -0.5302 -0.7629  1.2687
 5233SOL    HW227159   1.089   1.424   6.877  1.9738  0.7745  0.3128
 5234SOL     OW27160   4.426   0.226   7.840 -0.0830 -0.3227  0.1846
 5234SOL    HW127161   4.353   0.187   7.792 -0.8224 -0.6803  1.6007
 5234SOL    HW227162   4.387   0.283   7.907  0.0697 -2.6357  2.2522
 5235SOL     OW27163   3.588   1.998   9.266 -0.0681  0.5700 -0.0126
 5235SOL    HW127164   3.665   2.046   9.295 -0.4523 -0.3551  2.4944
 5235SOL    HW227165   3.575   2.033   9.178 -3.1037 -2.5482 -0.8098
 5236SOL     OW27166   0.778   2.766   2.493  0.4210  0.9860 -0.0398
 5236SOL    HW127167   0.818   2.719   2.420 -0.1953  1.3899 -0.6429
 5236SOL    HW227168   0.703   2.708   2.501  0.3131  0.9147 -1.6393
 5237SOL     OW27169   1.660   0.368   7.870  0.4135 -0.0555 -0.0521
 5237SOL    HW127170   1.714   0.443   7.894  0.4336 -0.0396 -0.1458
 5237SOL    HW227171   1.735   0.308   7.863  0.2236 -0.2885 -0.1224
 5238SOL     OW27172   0.346   2.906   3.573 -0.1836 -0.1013  0.3608
 5238SOL    HW127173   0.428   2.869   3.605  0.0067  1.2505  1.4222
 5238SOL    HW227174   0.379   2.994   3.558  0.5606 -0.2834  0.9483
 5239SOL     OW27175   2.063   3.633   8.810 -0.2435 -0.1956 -0.0477
 5239SOL    HW127176   2.124   3.566   8.781 -0.2583 -0.1076 -0.2818
 5239SOL    HW227177   1.981   3.585   8.797 -0.5110  0.7997 -1.9047
 5240SOL     OW27178   2.054   3.580   4.268 -0.4732  0.5826 -0.2000
 5240SOL    HW127179   2.021   3.642   4.333 -1.4215  0.6255 -0.7203
 5240SOL    HW227180   1.991   3.512   4.291  1.0026  0.0249  2.1688
 5241SOL     OW27181   3.644   3.889   0.753  0.4390  0.7366 -0.0032
 5241SOL    HW127182   3.699   3.860   0.827 -1.4445 -2.1995  0.2612
 5241SOL    HW227183   3.659   3.820   0.688 -1.2499 -0.3950  0.8199
 5242SOL     OW27184   0.854   3.157  14.195  0.0206 -0.0556 -0.3834
 5242SOL    HW127185   0.901   3.240  14.192  0.2129 -0.1040  1.1425
 5242SOL    HW227186   0.924   3.104  14.234 -2.2602 -3.2211 -0.5718
 5243SOL     OW27187   1.064   3.840   5.393 -0.3127 -0.2381  0.2877
 5243SOL    HW127188   1.098   3.927   5.373 -0.7274 -0.9040 -3.1854
 5243SOL    HW227189   1.005   3.866   5.464 -0.0988 -1.8316  1.0537
 5244SOL     OW27190   2.055   2.794  10.289 -0.0142 -0.8982 -0.3513
 5244SOL    HW127191   2.025   2.707  10.262 -2.3043 -0.0677 -0.5476
 5244SOL    HW227192   2.011   2.856  10.230  0.2750  0.1803  0.5760
 5245SOL     OW27193   1.030   4.155   6.656  0.5040 -0.3013 -0.4507
 5245SOL    HW127194   1.008   4.207   6.578  2.3155  0.3494 -0.5470
 5245SOL    HW227195   1.012   4.219   6.724 -1.6065  0.9611 -2.2020
 5246SOL     OW27196   0.937   4.441  13.886  0.9521  0.5218 -0.2115
 5246SOL    HW127197   0.983   4.441  13.802  1.5938 -0.8822  0.1369
 5246SOL    HW227198   1.000   4.470  13.953 -0.9348  2.3339  0.7804
 5247SOL     OW27199   3.314   4.351   1.647  0.5902 -0.0860 -0.3221
 5247SOL    HW127200   3.349   4.264   1.631 -1.2428 -0.4348 -2.4239
 5247SOL    HW227201   3.220   4.345   1.630  0.6360  2.5698 -1.6509
 5248SOL     OW27202   2.111   2.059   1.200 -0.1683 -0.0801  0.5952
 5248SOL    HW127203   2.147   1.975   1.172 -0.9286 -0.4377  0.6731
 5248SOL    HW227204   2.030   2.059   1.148 -0.4021 -4.0052  0.9165
 5249SOL     OW27205   4.260   3.266   5.768  0.6202  0.0592 -0.9239
 5249SOL    HW127206   4.293   3.254   5.679 -2.5076 -1.9345 -1.8113
 5249SOL    HW227207   4.307   3.196   5.814  2.5904  0.6066 -2.1147
 5250SOL     OW27208   0.805   2.544   4.730  0.4482 -0.7162  0.6686
 5250SOL    HW127209   0.864   2.614   4.702 -2.8467  2.9173  2.8962
 5250SOL    HW227210   0.776   2.516   4.643  0.4458  1.4065 -0.0071
 5251SOL     OW27211   4.182   2.333  15.844  0.2876  0.1973 -0.0722
 5251SOL    HW127212   4.255   2.275  15.866 -1.5428 -2.1031 -0.1294
 5251SOL    HW227213   4.167   2.304  15.754  0.8337  0.1312 -0.1447
 5252SOL     OW27214   2.206   3.179   6.090 -0.1372  0.2603  0.3046
 5252SOL    HW127215   2.153   3.210   6.163  1.5813 -1.2590  2.2027
 5252SOL    HW227216   2.281   3.144   6.138  0.0216  2.9021  1.9777
 5253SOL     OW27217   2.995   2.148   7.369 -0.1763 -0.1265 -0.4437
 5253SOL    HW127218   3.041   2.182   7.293  1.8761  0.8755  1.2481
 5253SOL    HW227219   3.027   2.057   7.366  0.5510  0.0692  0.9610
 5254SOL     OW27220   3.363   1.760   6.205  0.3656  0.4855 -0.0685
 5254SOL    HW127221   3.376   1.817   6.281 -0.0821  0.4176  0.0584
 5254SOL    HW227222   3.304   1.693   6.238 -0.7309  1.3646 -0.2559
 5255SOL     OW27223   2.123   2.916   9.893 -0.5398 -0.3253  0.1812
 5255SOL    HW127224   2.076   2.971   9.955 -1.3176 -1.0319  0.2102
 5255SOL    HW227225   2.133   2.980   9.822  0.2718 -1.1095 -0.4191
 5256SOL     OW27226   0.909   2.106  12.116 -0.1671  0.5305  0.0793
 5256SOL    HW127227   0.829   2.149  12.146 -0.5592 -0.3923  0.3247
 5256SOL    HW227228   0.952   2.177  12.067  0.1084 -0.3945 -1.0147
 5257SOL     OW27229   1.999   4.271  16.034 -0.2399  0.7508  0.1477
 5257SOL    HW127230   1.906   4.263  16.016  0.5736 -1.5346 -3.0844
 5257SOL    HW227231   2.009   4.218  16.113 -0.0118 -0.9379 -1.0233
 5258SOL     OW27232   1.794   3.372   1.069 -0.4245 -0.2015  0.3693
 5258SOL    HW127233   1.856   3.443   1.059 -1.0467  0.4164  0.9379
 5258SOL    HW227234   1.768   3.359   0.978  0.5074  1.2050 -0.0917
 5259SOL     OW27235   2.578   1.985   1.153  0.4661 -0.6281  0.4619
 5259SOL    HW127236   2.518   1.911   1.168  1.3793 -1.4300  0.1503
 5259SOL    HW227237   2.602   2.006   1.243  1.0128  0.0967  0.1387
 5260SOL     OW27238   1.599   4.705  13.850 -0.4776 -0.0894  0.3122
 5260SOL    HW127239   1.693   4.712  13.866 -0.3887 -2.3448  0.8368
 5260SOL    HW227240   1.590   4.689  13.756 -5.7015 -1.5103  1.0560
 5261SOL     OW27241   2.490   2.750  14.757  0.0634 -0.3188 -0.9216
 5261SOL    HW127242   2.500   2.770  14.664 -1.6326 -0.3717 -1.1078
 5261SOL    HW227243   2.395   2.746  14.760 -0.1243  3.7150 -0.9881
 5262SOL     OW27244   3.648   0.083   6.740  0.0573  0.4197 -0.0432
 5262SOL    HW127245   3.557   0.082   6.768  0.4967 -0.8964  1.3609
 5262SOL    HW227246   3.659   0.175   6.715 -0.9145  0.5151 -0.1124
 5263SOL     OW27247   0.499   0.695   2.566  0.4927 -0.1495  0.4824
 5263SOL    HW127248   0.551   0.773   2.547 -1.3420  0.7704 -0.7266
 5263SOL    HW227249   0.448   0.722   2.643 -0.9192 -0.0820 -0.4708
 5264SOL     OW27250   0.194   3.964   6.154  0.7018  0.2739  0.3218
 5264SOL    HW127251   0.286   3.963   6.178  1.2028  1.6761 -1.5078
 5264SOL    HW227252   0.178   4.052   6.121 -0.0346 -0.5878 -1.6480
 5265SOL     OW27253   2.154   3.878   8.063 -0.5284 -0.2916 -0.2243
 5265SOL    HW127254   2.068   3.900   8.027 -0.8081 -0.1895  0.5049
 5265SOL    HW227255   2.146   3.791   8.100 -1.8604 -0.6892 -1.4774
 5266SOL     OW27256   1.689   1.480   1.335 -0.3192  0.0192  0.4092
 5266SOL    HW127257   1.649   1.563   1.310 -0.3648 -0.1222  0.0163
 5266SOL    HW227258   1.652   1.461   1.421  1.3422  2.4997  1.6507
 5267SOL     OW27259   4.352   4.467   5.626 -0.6256  0.0705  0.6235
 5267SOL    HW127260   4.446   4.454   5.641 -0.8634 -1.2575  1.0202
 5267SOL    HW227261   4.343   4.557   5.655 -2.0798  0.4710 -1.0746
 5268SOL     OW27262   0.849   2.173   3.534 -0.3745 -0.3041 -0.0654
 5268SOL    HW127263   0.855   2.262   3.500 -0.1486 -0.4240 -0.3430
 5268SOL    HW227264   0.839   2.130   3.449 -1.3559  1.0505 -0.6242
 5269SOL     OW27265   4.286   2.933   7.224 -0.2892  0.2798 -0.7332
 5269SOL    HW127266   4.279   3.006   7.163  0.9602  2.3190  1.5623
 5269SOL    HW227267   4.266   2.857   7.170  1.9196 -0.7571 -0.1117
 5270SOL     OW27268   0.263   2.198   3.350  0.3013 -0.0485  0.4961
 5270SOL    HW127269   0.336   2.141   3.373 -0.7786 -1.5195  0.2841
 5270SOL    HW227270   0.220   2.145   3.282  0.0247 -0.9709  1.3801
 5271SOL     OW27271   3.626   3.567   7.306 -0.0894  0.0254  0.2920
 5271SOL    HW127272   3.561   3.633   7.281  0.1640  0.5426  1.0005
 5271SOL    HW227273   3.616   3.500   7.238  0.0003  0.3966 -0.0878
 5272SOL     OW27274   1.714   0.754   7.034  0.2764 -0.3630 -0.2583
 5272SOL    HW127275   1.785   0.794   7.085  0.5636 -1.2673  0.0465
 5272SOL    HW227276   1.748   0.665   7.036 -0.4503 -0.6204  0.8581
 5273SOL     OW27277   1.950   3.382   4.444  0.0393 -0.0186 -0.4850
 5273SOL    HW127278   1.867   3.373   4.491 -0.3151 -0.3304 -1.1616
 5273SOL    HW227279   1.930   3.339   4.361  1.0343  0.2144 -0.8435
 5274SOL     OW27280   1.642   2.819   7.150 -0.2057 -0.3340 -0.1478
 5274SOL    HW127281   1.649   2.914   7.164  0.7527 -0.3476 -0.5085
 5274SOL    HW227282   1.620   2.821   7.057  0.3484 -2.7869 -0.3394
 5275SOL     OW27283   0.400   1.711   8.911  0.1614  0.2835  0.0042
 5275SOL    HW127284   0.317   1.747   8.879 -0.2194 -1.0959 -0.5608
 5275SOL    HW227285   0.387   1.689   9.003 -0.1601 -0.8153 -0.2989
 5276SOL     OW27286   2.777   1.189   1.342  0.4147  0.0236  0.6391
 5276SOL    HW127287   2.857   1.211   1.295 -2.2598  1.3229 -3.2794
 5276SOL    HW227288   2.803   1.225   1.427  2.8860  2.2485 -1.0525
 5277SOL     OW27289   4.465   3.996   3.480 -0.1986 -0.2525 -0.0186
 5277SOL    HW127290   4.473   4.044   3.563  1.7350  0.9401 -0.8679
 5277SOL    HW227291   4.387   3.944   3.497  0.4277 -0.4722  2.1648
 5278SOL     OW27292   0.804   4.065  11.544  0.7249 -0.0039 -0.3922
 5278SOL    HW127293   0.883   4.119  11.535  0.3566  0.7616  0.9364
 5278SOL    HW227294   0.842   3.982  11.517 -0.0979 -0.0426 -1.4331
 5279SOL     OW27295   3.071   2.046   9.944 -0.3888 -0.7018  0.1195
 5279SOL    HW127296   2.982   2.046   9.908 -0.5724  0.2039  0.5600
 5279SOL    HW227297   3.109   1.986   9.881  2.7118  1.7543 -0.3589
 5280SOL     OW27298   1.144   0.583  12.548  0.6856 -0.3412  0.6155
 5280SOL    HW127299   1.048   0.586  12.556  0.6621 -1.4260  0.6814
 5280SOL    HW227300   1.160   0.670  12.584 -0.6888 -0.6912  2.0658
 5281SOL     OW27301   1.276   2.277   1.763  0.0395  0.0818  0.2311
 5281SOL    HW127302   1.278   2.314   1.674 -0.4295 -1.5094 -0.4548
 5281SOL    HW227303   1.217   2.340   1.805 -0.5327  0.2314 -0.7859
 5282SOL     OW27304   2.683   2.694  13.115 -0.2945  0.6595 -0.2806
 5282SOL    HW127305   2.626   2.750  13.167  1.0973  0.9165  0.9615
 5282SOL    HW227306   2.731   2.742  13.049 -0.6846  0.0785 -0.9884
 5283SOL     OW27307   1.492   0.675   7.187  0.5035  0.5383 -0.3482
 5283SOL    HW127308   1.569   0.696   7.134  0.0744 -2.2723 -2.0524
 5283SOL    HW227309   1.478   0.765   7.218 -1.1822  0.7657 -1.7727
 5284SOL     OW27310   4.183   2.894   8.689  0.0688 -0.5621 -0.0307
 5284SOL    HW127311   4.276   2.915   8.684 -0.0852  0.2222  0.4967
 5284SOL    HW227312   4.190   2.828   8.758  0.4714 -1.0315 -0.5177
 5285SOL     OW27313   4.538   4.635  14.631  0.5053 -0.6759 -0.8905
 5285SOL    HW127314   4.565   4.546  14.609 -0.9783 -1.3425 -0.0314
 5285SOL    HW227315   4.468   4.621  14.695 -1.1128 -3.2534 -3.2133
 5286SOL     OW27316   1.748   3.293   4.640  0.7381  0.3440 -0.2282
 5286SOL    HW127317   1.752   3.272   4.733  0.1772 -0.2986 -0.3498
 5286SOL    HW227318   1.659   3.326   4.629  0.0456 -1.0335  1.2971
 5287SOL     OW27319   0.932   4.608  15.963  0.5161 -0.0632 -0.4088
 5287SOL    HW127320   0.901   4.659  16.038  1.3567  2.2671 -1.6300
 5287SOL    HW227321   0.903   4.525  15.999 -0.6548 -0.4763 -2.2803
 5288SOL     OW27322   4.111   0.766   9.858 -0.2714 -0.4194 -0.1668
 5288SOL    HW127323   4.082   0.826   9.927 -0.3548 -0.2784 -0.3243
 5288SOL    HW227324   4.044   0.772   9.791 -0.0766  0.4606 -0.2815
 5289SOL     OW27325   1.717   4.345   4.912 -0.5100 -0.3767  0.0558
 5289SOL    HW127326   1.729   4.254   4.938  1.1807  0.7429  3.2044
 5289SOL    HW227327   1.621   4.343   4.915 -0.4261 -3.0148  1.0918
 5290SOL     OW27328   1.251   2.531  10.498  0.1909  0.5218 -0.2062
 5290SOL    HW127329   1.173   2.587  10.498 -0.8716 -0.9759 -0.4826
 5290SOL    HW227330   1.221   2.448  10.535 -2.3464  0.6547 -2.0093
 5291SOL     OW27331   3.332   4.279  14.040 -0.2213  0.0686 -0.0610
 5291SOL    HW127332   3.310   4.243  13.955  1.2771  0.5664 -0.6605
 5291SOL    HW227333   3.246   4.319  14.051 -0.6394 -0.4569 -1.4764
 5292SOL     OW27334   0.537   4.251  12.335  0.3596  0.4859  0.2880
 5292SOL    HW127335   0.529   4.164  12.296  0.3630 -0.8069  3.1280
 5292SOL    HW227336   0.628   4.276  12.322  0.8464 -2.1872 -1.3744
 5293SOL     OW27337   2.069   3.180   5.572  0.3403 -0.2095 -0.0264
 5293SOL    HW127338   2.005   3.161   5.504 -1.5902  1.7012  1.2552
 5293SOL    HW227339   2.046   3.114   5.638  1.3837  0.8549  1.3959
 5294SOL     OW27340   2.399   1.583   3.733 -0.4545  0.3710 -0.6106
 5294SOL    HW127341   2.431   1.660   3.687  0.1666 -0.6081 -1.8181
 5294SOL    HW227342   2.480   1.548   3.770  0.4657  2.2075 -0.9148
 5295SOL     OW27343   2.387   4.706  16.931  0.1387  0.0352  0.5713
 5295SOL    HW127344   2.383   4.610  16.926 -1.3169  0.1872 -1.0303
 5295SOL    HW227345   2.475   4.718  16.895  0.4572  0.7388  1.6006
 5296SOL     OW27346   3.224   2.987   7.944 -0.4798 -0.3335 -0.4371
 5296SOL    HW127347   3.297   3.035   7.984  0.1913 -2.1522  0.5068
 5296SOL    HW227348   3.258   2.898   7.945  1.4093  0.4095  1.4515
 5297SOL     OW27349   2.779   0.786  17.322 -0.3677  0.3312  0.0924
 5297SOL    HW127350   2.870   0.816  17.322 -0.1611 -0.2800 -1.4572
 5297SOL    HW227351   2.791   0.694  17.299  2.9924  1.0097 -0.9428
 5298SOL     OW27352   0.272   3.598   4.883 -0.1851  0.3654 -0.0469
 5298SOL    HW127353   0.305   3.526   4.937  0.6740  2.1174  1.7257
 5298SOL    HW227354   0.219   3.649   4.944 -0.4707  0.1327 -0.0941
 5299SOL     OW27355   1.067   3.161   7.723  0.5951  0.4426  0.3670
 5299SOL    HW127356   1.075   3.238   7.779 -2.6978 -1.6656  3.6976
 5299SOL    HW227357   1.154   3.122   7.732  0.1008 -1.0694 -1.3606
 5300SOL     OW27358   1.844   1.749   5.299 -0.1457 -0.1029  0.3438
 5300SOL    HW127359   1.925   1.707   5.329  0.2088 -0.3488 -0.9524
 5300SOL    HW227360   1.781   1.710   5.359 -1.3298 -1.1703 -1.6093
 5301SOL     OW27361   2.339   2.771   9.037 -0.3466  0.2086  0.2213
 5301SOL    HW127362   2.408   2.796   9.098  0.1608  0.9477 -0.6441
 5301SOL    HW227363   2.294   2.691   9.065 -1.0513  0.1046 -1.2110
 5302SOL     OW27364   1.548   2.879   6.874  0.2109  0.6082  0.1136
 5302SOL    HW127365   1.524   2.788   6.890 -1.3223  1.6402  3.5165
 5302SOL    HW227366   1.640   2.866   6.848  0.6412  3.6336  0.0262
 5303SOL     OW27367   2.596   2.832   0.400 -0.1588  0.5546  0.9402
 5303SOL    HW127368   2.521   2.890   0.385 -1.6597 -1.9182 -1.1402
 5303SOL    HW227369   2.646   2.833   0.319  0.9473  1.9266  1.6475
 5304SOL     OW27370   2.197   2.492   3.985  0.5493 -1.0222 -0.3166
 5304SOL    HW127371   2.176   2.410   3.941  1.5757  0.0731 -2.8507
 5304SOL    HW227372   2.173   2.562   3.924 -0.9702 -0.6039  0.7819
 5305SOL     OW27373   2.744   0.213  16.166 -0.0433  0.5338 -0.0645
 5305SOL    HW127374   2.721   0.122  16.146  2.1345  0.4748 -2.3541
 5305SOL    HW227375   2.667   0.249  16.210 -0.7077 -1.2148  0.2235
 5306SOL     OW27376   4.092   0.177  11.549 -0.3900 -0.4357  0.1034
 5306SOL    HW127377   4.027   0.219  11.494  0.2967 -0.2167 -0.5416
 5306SOL    HW227378   4.042   0.178  11.630 -1.0588  1.5184 -0.3420
 5307SOL     OW27379   4.313   2.501   7.290  0.0226  0.3544 -0.0416
 5307SOL    HW127380   4.240   2.444   7.269 -0.0513  0.4414 -0.0212
 5307SOL    HW227381   4.302   2.528   7.381  0.1458 -0.2803  0.1585
 5308SOL     OW27382   2.336   1.721   0.126 -0.5433  0.0349  0.7808
 5308SOL    HW127383   2.257   1.743   0.174 -2.0629 -1.6757 -0.9482
 5308SOL    HW227384   2.317   1.758   0.040 -0.0602  3.4309  2.1210
 5309SOL     OW27385   0.479   3.310   1.805 -0.5037  0.6196  0.0093
 5309SOL    HW127386   0.463   3.279   1.894  0.3774 -2.4175 -0.9007
 5309SOL    HW227387   0.512   3.396   1.830 -2.6846  1.1031  1.2357
 5310SOL     OW27388   3.126   2.276   1.710  0.2124  0.0585 -0.0230
 5310SOL    HW127389   3.145   2.183   1.720  0.9207 -0.0090 -1.9300
 5310SOL    HW227390   3.210   2.307   1.744  0.5655  0.8340 -1.5869
 5311SOL     OW27391   2.477   4.590   4.320 -0.6115  0.0771  0.6654
 5311SOL    HW127392   2.499   4.512   4.269  1.0127 -0.5778  2.3820
 5311SOL    HW227393   2.458   4.651   4.248  0.7618 -0.5559 -0.2310
 5312SOL     OW27394   1.348   0.613  17.036 -0.5492 -0.2389  0.0349
 5312SOL    HW127395   1.253   0.626  17.036 -0.9344 -2.8815 -0.0283
 5312SOL    HW227396   1.365   0.557  16.961 -0.9556  0.9635 -0.9425
 5313SOL     OW27397   1.373   4.069   5.313 -0.5217  0.2432 -0.0491
 5313SOL    HW127398   1.368   4.091   5.221  0.2547  0.3607 -0.0599
 5313SOL    HW227399   1.290   4.092   5.356  0.2065  1.2247  0.8275
 5314SOL     OW27400   3.657   4.637   7.365 -0.2507  0.1824  0.3310
 5314SOL    HW127401   3.642   4.684   7.447 -0.5054 -1.4233  1.1966
 5314SOL    HW227402   3.730   4.579   7.388  0.2169  1.0418  0.9998
 5315SOL     OW27403   4.288   3.849   3.779 -0.0251  0.2026  0.2668
 5315SOL    HW127404   4.251   3.878   3.696 -1.4198  2.7860  1.7831
 5315SOL    HW227405   4.216   3.811   3.829 -0.3395  1.1672  0.5550
 5316SOL     OW27406   4.101   2.233   8.647  0.1641 -0.5470  0.8829
 5316SOL    HW127407   4.130   2.305   8.704  0.5176  2.4106 -3.0516
 5316SOL    HW227408   4.184   2.212   8.605 -0.8955 -0.4104 -1.3108
 5317SOL     OW27409   0.603   1.776   8.745 -0.1681  0.4585 -0.3725
 5317SOL    HW127410   0.516   1.774   8.785  0.2915  0.5293  0.6394
 5317SOL    HW227411   0.658   1.775   8.824 -1.8108  1.7709  0.7768
 5318SOL     OW27412   0.936   3.612   1.600 -0.4971  0.4181 -0.2230
 5318SOL    HW127413   0.945   3.643   1.510  1.5261  1.2651  0.2921
 5318SOL    HW227414   1.026   3.594   1.626 -0.6962 -1.3025 -0.7722
 5319SOL     OW27415   4.441   1.065   6.659 -0.3396 -0.3180 -0.1088
 5319SOL    HW127416   4.394   0.985   6.637  1.2494 -1.3911  0.3515
 5319SOL    HW227417   4.495   1.040   6.734 -1.6872 -1.1911  0.5539
 5320SOL     OW27418   2.319   1.597   0.809  0.5217  0.2897 -0.1772
 5320SOL    HW127419   2.271   1.667   0.764  0.6009  0.3426 -0.1779
 5320SOL    HW227420   2.267   1.602   0.890  0.8166  0.0778  0.0250
 5321SOL     OW27421   1.120   1.759   3.810 -0.6711  0.5544 -0.1586
 5321SOL    HW127422   1.131   1.836   3.867 -1.8980  0.9071 -0.3956
 5321SOL    HW227423   1.089   1.688   3.867  0.1910  0.0379 -0.3316
 5322SOL     OW27424   2.974   3.627   7.019 -0.3041  0.9330  0.2436
 5322SOL    HW127425   3.070   3.632   7.023 -0.4379  1.7166  2.2986
 5322SOL    HW227426   2.964   3.569   6.944  2.3975  0.3902  0.2788
 5323SOL     OW27427   2.711   1.420   5.170  0.0292 -0.3686 -0.4253
 5323SOL    HW127428   2.718   1.325   5.172  0.6288 -0.2514  2.0616
 5323SOL    HW227429   2.718   1.443   5.262  0.3582  1.5077 -0.9168
 5324SOL     OW27430   1.825   3.820   1.951 -0.1220 -0.2707 -0.3719
 5324SOL    HW127431   1.758   3.886   1.932  0.4185 -0.0237 -1.4175
 5324SOL    HW227432   1.896   3.865   1.905 -1.3198  2.3329  0.3399
 5325SOL     OW27433   3.672   1.667   4.101  0.2389 -0.3892  0.0357
 5325SOL    HW127434   3.753   1.633   4.140 -1.0616 -0.9837  2.1788
 5325SOL    HW227435   3.638   1.719   4.173 -2.4529 -0.3566 -1.2713
 5326SOL     OW27436   4.353   0.805   5.004  0.1028  0.0865 -0.2840
 5326SOL    HW127437   4.388   0.785   4.917  0.5902  0.2744 -0.1291
 5326SOL    HW227438   4.405   0.751   5.063 -0.1795  1.1439  0.9151
 5327SOL     OW27439   4.644   3.427   6.858  0.2154  0.1666 -0.5161
 5327SOL    HW127440   4.700   3.444   6.933 -1.4514  2.4288  0.1992
 5327SOL    HW227441   4.627   3.335   6.876  0.4651  0.1922 -0.1701
 5328SOL     OW27442   3.031   0.427  13.413  0.5704  0.3251  0.3527
 5328SOL    HW127443   3.002   0.368  13.343  1.0135  0.0335  0.4122
 5328SOL    HW227444   2.946   0.468  13.427 -0.1201 -0.0358 -2.7046
 5329SOL     OW27445   3.823   2.980  13.623  0.1971  0.4598 -0.1330
 5329SOL    HW127446   3.817   3.062  13.672 -1.1993  0.8858 -1.0199
 5329SOL    HW227447   3.741   2.974  13.573  0.2156  0.3235 -0.1468
 5330SOL     OW27448   1.387   0.985   9.985  0.0327  0.6253 -0.2341
 5330SOL    HW127449   1.411   1.048  10.053  0.2075 -0.8189  1.0163
 5330SOL    HW227450   1.377   0.908  10.040  1.3878  1.0350  0.5899
 5331SOL     OW27451   0.153   2.189  10.035  0.4156  0.5017  0.9522
 5331SOL    HW127452   0.233   2.237  10.058 -0.0593  1.3261  0.8613
 5331SOL    HW227453   0.123   2.143  10.114  0.2399  2.6199  2.1326
 5332SOL     OW27454   0.537   0.282   2.033 -0.1908 -0.1016 -0.3511
 5332SOL    HW127455   0.595   0.273   2.109  0.9921 -0.0108 -1.2592
 5332SOL    HW227456   0.560   0.369   2.003  0.1223 -0.0984 -0.0974
 5333SOL     OW27457   1.625   0.407   1.794 -0.4276  0.0385  0.1872
 5333SOL    HW127458   1.626   0.373   1.883  0.1033 -0.4335  0.0055
 5333SOL    HW227459   1.717   0.396   1.767 -0.5338  0.8958 -0.5467
 5334SOL     OW27460   0.138   4.430   5.013  0.3185 -0.0492  0.4446
 5334SOL    HW127461   0.185   4.484   4.949  1.6373  0.2508  1.6496
 5334SOL    HW227462   0.210   4.383   5.055  0.7533 -0.5949 -0.8872
 5335SOL     OW27463   0.519   2.546   4.400  0.5527 -0.0200  0.0514
 5335SOL    HW127464   0.481   2.491   4.331 -0.5795 -0.5476  1.0847
 5335SOL    HW227465   0.511   2.630   4.356  0.7846 -0.6311 -1.1554
 5336SOL     OW27466   4.456   3.565   3.273 -0.5435 -0.2771 -0.1810
 5336SOL    HW127467   4.533   3.607   3.235  0.1407 -1.4577 -0.1052
 5336SOL    HW227468   4.391   3.555   3.202  0.9917 -0.5834 -1.5398
 5337SOL     OW27469   3.979   1.440   3.829 -0.2185 -0.3137 -0.0081
 5337SOL    HW127470   3.944   1.459   3.742  1.9907 -1.8808 -1.2337
 5337SOL    HW227471   3.966   1.347   3.843 -0.0640 -0.5281 -1.2842
 5338SOL     OW27472   0.590   0.308  10.470  0.0678 -0.8042 -0.8761
 5338SOL    HW127473   0.679   0.311  10.434 -0.2931  1.9552 -1.5890
 5338SOL    HW227474   0.555   0.383  10.421 -1.6385  0.0461  1.6264
 5339SOL     OW27475   4.482   4.215   0.210 -0.4472 -0.1953 -0.3148
 5339SOL    HW127476   4.537   4.287   0.242  0.5500  0.3633 -3.2819
 5339SOL    HW227477   4.506   4.153   0.279 -0.3052  0.7671  0.5110
 5340SOL     OW27478   2.445   1.609   7.996  0.2196 -0.6004 -0.0529
 5340SOL    HW127479   2.468   1.524   8.033 -0.7187 -1.9781 -2.6200
 5340SOL    HW227480   2.456   1.668   8.071  0.7885 -0.4541 -0.2571
 5341SOL     OW27481   3.091   1.833  13.614 -0.0634  0.5161 -0.7038
 5341SOL    HW127482   3.065   1.839  13.706 -2.0437 -0.9703 -1.1588
 5341SOL    HW227483   3.186   1.826  13.626 -0.0864  0.0158 -0.8177
 5342SOL     OW27484   2.617   4.428   7.944  0.3063 -0.2402 -0.1292
 5342SOL    HW127485   2.584   4.401   8.030 -1.1658  0.5593 -0.4574
 5342SOL    HW227486   2.537   4.465   7.907 -0.0691 -0.7019  0.2166
 5343SOL     OW27487   2.377   3.992   3.498 -0.0508 -0.3255  0.2489
 5343SOL    HW127488   2.347   4.053   3.566 -2.0331 -1.6114  0.5461
 5343SOL    HW227489   2.311   4.010   3.430 -0.5703 -0.5436  0.6989
 5344SOL     OW27490   0.566   2.765   2.798 -0.1339  0.3859 -0.3492
 5344SOL    HW127491   0.564   2.696   2.864 -1.5921  0.1617 -0.6253
 5344SOL    HW227492   0.612   2.834   2.846 -0.5745  1.1397 -1.0046
 5345SOL     OW27493   2.797   3.770  15.453 -0.3342 -0.1704  0.0753
 5345SOL    HW127494   2.759   3.858  15.449  1.1624  0.5996  2.5790
 5345SOL    HW227495   2.720   3.715  15.442  1.4360 -2.4282 -1.0449
 5346SOL     OW27496   2.082   0.375  11.024 -0.0035  1.0925 -0.2389
 5346SOL    HW127497   2.054   0.331  11.104  0.0104 -0.2399 -0.9592
 5346SOL    HW227498   2.018   0.446  11.032 -1.6313 -0.4301  0.3031
 5347SOL     OW27499   3.605   2.862  14.389 -0.0913 -0.1140  0.0199
 5347SOL    HW127500   3.692   2.896  14.411 -1.1996  2.3804  0.5093
 5347SOL    HW227501   3.579   2.893  14.303  3.1520 -0.1999 -0.9805
 5348SOL     OW27502   2.429   2.912   4.532  0.5919 -0.3519 -0.3062
 5348SOL    HW127503   2.395   2.826   4.505  0.2291 -0.9028  1.9546
 5348SOL    HW227504   2.462   2.926   4.443 -0.5709 -1.9282 -0.9865
 5349SOL     OW27505   2.170   3.909   9.269 -0.5993  0.2330  0.0945
 5349SOL    HW127506   2.216   3.863   9.199  1.9988 -0.5011  2.3013
 5349SOL    HW227507   2.234   3.886   9.337 -0.5781  0.7944  0.2580
 5350SOL     OW27508   0.415   0.363   1.169 -0.7667  0.2027 -0.1684
 5350SOL    HW127509   0.385   0.276   1.196  2.9122 -1.3646 -1.1042
 5350SOL    HW227510   0.499   0.347   1.126  0.1604  0.5094  1.5386
 5351SOL     OW27511   0.097   3.262   9.989  0.3612  0.2516 -0.2172
 5351SOL    HW127512   0.188   3.252  10.017  0.9876 -2.8946 -3.3459
 5351SOL    HW227513   0.070   3.334  10.046 -1.5957  0.1633 -1.0323
 5352SOL     OW27514   3.588   0.229   8.365  0.7422 -0.2251  0.4448
 5352SOL    HW127515   3.537   0.147   8.369  0.3383  0.0638  1.1387
 5352SOL    HW227516   3.506   0.274   8.343  0.0693 -1.4128  0.4903
 5353SOL     OW27517   2.309   2.968  13.368  0.0858 -0.2357 -0.1771
 5353SOL    HW127518   2.228   3.017  13.352  0.5451  0.1525 -1.3350
 5353SOL    HW227519   2.375   3.037  13.368 -1.9978  1.7305  1.8893
 5354SOL     OW27520   4.514   2.169   6.338 -0.3792 -0.1631 -0.2757
 5354SOL    HW127521   4.494   2.179   6.431 -2.2583  1.6510 -0.8911
 5354SOL    HW227522   4.589   2.110   6.335 -0.2023 -0.0477  2.1731
 5355SOL     OW27523   4.250   1.658   7.847  0.6496 -0.3356 -0.0172
 5355SOL    HW127524   4.233   1.566   7.869 -0.7797  0.2680  1.3478
 5355SOL    HW227525   4.197   1.707   7.909 -0.6088 -2.6294  0.7106
 5356SOL     OW27526   3.497   1.867   9.548  0.3908  0.1315  0.4737
 5356SOL    HW127527   3.529   1.886   9.460  0.6653 -0.3535  0.4707
 5356SOL    HW227528   3.405   1.848   9.531 -0.4070  2.8453  1.7057
 5357SOL     OW27529   3.694   2.565   8.133  0.5412  0.5127 -0.3946
 5357SOL    HW127530   3.716   2.631   8.200  0.6299  0.9644 -0.8709
 5357SOL    HW227531   3.616   2.529   8.176  0.2604  2.8193  1.0704
 5358SOL     OW27532   2.440   0.009   1.045 -0.2787  0.0751 -0.1264
 5358SOL    HW127533   2.354   0.001   1.084  0.0978  1.0316  0.8819
 5358SOL    HW227534   2.465   0.099   1.067 -0.7219 -0.5566  2.9434
 5359SOL     OW27535   1.380   2.918  10.521 -0.2155  0.3651 -0.1324
 5359SOL    HW127536   1.315   2.883  10.581 -0.4525 -2.1666 -1.8702
 5359SOL    HW227537   1.322   2.969  10.464 -0.3850 -0.1026 -0.3715
 5360SOL     OW27538   1.893   0.468   2.784 -0.0164 -0.3418 -0.0750
 5360SOL    HW127539   1.860   0.556   2.800  1.8185  0.0546  1.4955
 5360SOL    HW227540   1.985   0.491   2.774 -0.1517  0.4588  0.5168
 5361SOL     OW27541   4.132   1.811   5.020 -0.8856  0.1904 -0.5564
 5361SOL    HW127542   4.059   1.849   5.069 -0.0693  2.0401 -0.7716
 5361SOL    HW227543   4.134   1.721   5.052  0.3489  0.9318  1.3893
 5362SOL     OW27544   0.498   4.594   7.642 -0.5519  0.0806  0.2726
 5362SOL    HW127545   0.583   4.610   7.600 -0.8465  0.2114 -0.2757
 5362SOL    HW227546   0.446   4.551   7.574 -0.1367  1.3312 -0.8420
 5363SOL     OW27547   0.095   0.870   9.140 -0.4710  0.6795  0.1380
 5363SOL    HW127548   0.047   0.949   9.165  2.0189  1.7207  1.6435
 5363SOL    HW227549   0.150   0.904   9.070  0.1082  1.6327  1.0382
 5364SOL     OW27550   3.327   3.583  12.753 -0.1895 -0.0058  0.1759
 5364SOL    HW127551   3.383   3.660  12.765  1.3226 -0.9381 -0.9156
 5364SOL    HW227552   3.349   3.530  12.829  2.5323  0.4355 -0.3355
 5365SOL     OW27553   1.946   2.007   6.524 -0.0294 -0.3044  0.1903
 5365SOL    HW127554   1.951   2.081   6.584  0.3472 -0.7448  0.6897
 5365SOL    HW227555   1.853   2.007   6.502  0.2206  0.7527 -0.8462
 5366SOL     OW27556   2.361   0.443   0.522 -0.1821 -0.0777 -0.4738
 5366SOL    HW127557   2.364   0.369   0.462 -3.0415  0.4229 -1.2688
 5366SOL    HW227558   2.419   0.415   0.592 -0.0702  1.3073 -0.0078
 5367SOL     OW27559   4.608   0.105  16.685 -0.2811 -1.0495  0.2664
 5367SOL    HW127560   4.691   0.067  16.715  0.7693  2.4508  1.8156
 5367SOL    HW227561   4.551   0.030  16.668 -0.9005 -0.9458  1.8958
 5368SOL     OW27562   1.688   0.034   7.178  0.2651  0.1200 -0.2808
 5368SOL    HW127563   1.629   4.690   7.216 -0.2318  0.8534  0.2346
 5368SOL    HW227564   1.649   0.045   7.091  1.0380  2.8164 -0.3033
 5369SOL     OW27565   4.628   4.140   6.648 -0.1255  0.2664 -0.0270
 5369SOL    HW127566   4.698   4.147   6.583  1.3035 -1.0412  1.3556
 5369SOL    HW227567   4.651   4.204   6.716  0.1586 -1.2083  1.2713
 5370SOL     OW27568   4.394   0.097  10.468 -0.1473 -0.0363  0.0748
 5370SOL    HW127569   4.321   0.067  10.413  1.1792 -0.9808 -1.1536
 5370SOL    HW227570   4.421   0.008  10.488  2.3811  0.7874  0.2960
 5371SOL     OW27571   0.235   4.702   4.290 -0.3117 -0.2193  0.2205
 5371SOL    HW127572   0.271   4.697   4.379 -2.7445  1.8160  1.3197
 5371SOL    HW227573   0.143   4.687   4.314 -0.8706  2.1555 -0.4550
 5372SOL     OW27574   3.022   3.140  15.383 -0.5697 -0.3410 -0.0120
 5372SOL    HW127575   3.008   3.220  15.433  2.2614 -0.7258  1.3568
 5372SOL    HW227576   3.114   3.120  15.397 -0.7297 -1.1613 -0.0869
 5373SOL     OW27577   3.943   0.619   3.649  0.4287  0.3088  0.0397
 5373SOL    HW127578   3.851   0.605   3.626  0.5605 -1.0720  0.3249
 5373SOL    HW227579   3.960   0.542   3.703  1.8334 -0.5741 -1.6538
 5374SOL     OW27580   1.596   1.720   8.794  0.3798 -0.0562 -0.2997
 5374SOL    HW127581   1.529   1.657   8.822  0.1837 -0.1956 -1.0702
 5374SOL    HW227582   1.639   1.668   8.726 -2.0676 -0.9715 -1.1677
 5375SOL     OW27583   0.649   3.738   5.427  0.0783 -0.0893  0.1774
 5375SOL    HW127584   0.588   3.683   5.475 -0.5149 -0.5668 -1.1155
 5375SOL    HW227585   0.629   3.721   5.335  3.2418  0.5574 -0.6575
 5376SOL     OW27586   4.417   1.892   3.218  0.1230  0.1745 -0.6471
 5376SOL    HW127587   4.337   1.840   3.223  0.3468 -0.1086 -0.0217
 5376SOL    HW227588   4.377   1.974   3.189  0.0412 -0.0871 -1.2726
 5377SOL     OW27589   1.701   1.912   6.146  0.2864  0.0616 -0.1363
 5377SOL    HW127590   1.676   1.897   6.055 -1.3233 -3.9229  0.9428
 5377SOL    HW227591   1.745   1.832   6.175 -0.1258 -0.1732 -0.1600
 5378SOL     OW27592   3.500   2.509   9.393  0.5601 -0.2043 -0.4083
 5378SOL    HW127593   3.435   2.529   9.461  0.5365  0.2555 -0.5648
 5378SOL    HW227594   3.533   2.422   9.416  0.9636  0.2278  0.6562
 5379SOL     OW27595   1.554   3.534  15.394  0.2396 -0.0729 -0.5465
 5379SOL    HW127596   1.509   3.592  15.333 -1.4506 -0.1573  0.6314
 5379SOL    HW227597   1.502   3.458  15.368 -0.7975  0.3844  0.2277
 5380SOL     OW27598   4.619   4.710   2.917 -0.0699  0.2732  0.2047
 5380SOL    HW127599   4.665   4.656   2.981  3.0013  0.6143 -1.6666
 5380SOL    HW227600   4.665   0.071   2.933  0.0977 -0.1492  1.9027
 5381SOL     OW27601   1.773   1.756  13.264 -0.6585  0.0076  0.4911
 5381SOL    HW127602   1.696   1.708  13.295 -0.5904  0.2449  1.0309
 5381SOL    HW227603   1.786   1.709  13.182 -0.3424 -0.6699  0.9263
 5382SOL     OW27604   3.624   2.508   3.501 -0.2759 -0.1005 -0.0352
 5382SOL    HW127605   3.628   2.576   3.569  1.0319  1.4417 -1.6441
 5382SOL    HW227606   3.615   2.571   3.430  0.4788  0.8180  0.6759
 5383SOL     OW27607   2.749   2.644  13.468  0.9160 -0.0793  0.3115
 5383SOL    HW127608   2.771   2.661  13.560 -0.4351  1.5744  0.3267
 5383SOL    HW227609   2.658   2.619  13.483  1.3276 -2.4242 -1.0351
 5384SOL     OW27610   1.961   1.090   0.899 -0.1893 -0.1509  0.0665
 5384SOL    HW127611   1.921   1.025   0.957  0.3357 -1.2611 -0.8155
 5384SOL    HW227612   2.039   1.047   0.862 -0.4458 -1.4712  1.0679
 5385SOL     OW27613   2.180   4.533   4.882 -0.3016  0.1538 -0.1559
 5385SOL    HW127614   2.153   4.515   4.792  0.1117 -1.5608  0.0627
 5385SOL    HW227615   2.113   4.483   4.928 -0.5344 -1.2162 -1.9930
 5386SOL     OW27616   1.359   0.445   2.728 -0.5839 -0.2302  0.2345
 5386SOL    HW127617   1.313   0.517   2.769 -0.0619 -0.6344  1.5175
 5386SOL    HW227618   1.301   0.427   2.654 -0.3118  1.6431 -0.4453
 5387SOL     OW27619   2.869   3.677   6.348  0.6563  0.0457  0.4497
 5387SOL    HW127620   2.854   3.748   6.410  0.6396  1.2839 -0.9616
 5387SOL    HW227621   2.784   3.634   6.349  0.5681  0.2580  1.4000
 5388SOL     OW27622   2.458   1.975   7.876  0.0935  0.4143 -0.3101
 5388SOL    HW127623   2.366   1.984   7.900 -0.0804 -0.4097 -0.6849
 5388SOL    HW227624   2.466   2.064   7.841  1.5457  0.5619  0.3846
 5389SOL     OW27625   0.268   1.206  11.054  0.4541  0.1484 -0.5450
 5389SOL    HW127626   0.302   1.228  11.141 -0.3434  2.9989 -0.9564
 5389SOL    HW227627   0.181   1.247  11.047  1.0875  1.3540 -1.3879
 5390SOL     OW27628   1.562   3.864   4.135 -0.1389  0.8072  0.2275
 5390SOL    HW127629   1.613   3.945   4.146  0.6446  0.5054 -1.2134
 5390SOL    HW227630   1.510   3.880   4.215 -3.5083  0.5713 -1.9100
 5391SOL     OW27631   0.078   2.750  15.079 -0.2887  0.6196  0.0055
 5391SOL    HW127632   0.090   2.840  15.108 -1.2663  0.9443 -0.6214
 5391SOL    HW227633   0.070   2.704  15.163 -0.1778  1.2990  0.3887
 5392SOL     OW27634   2.412   3.833   4.506  0.2889  0.0424  0.1700
 5392SOL    HW127635   2.480   3.833   4.439 -0.7244 -0.2195 -0.8600
 5392SOL    HW227636   2.437   3.914   4.550 -1.8920  0.8624 -0.0729
 5393SOL     OW27637   3.023   2.695  10.910 -0.1246  0.4162  0.0776
 5393SOL    HW127638   3.093   2.723  10.968  0.6076 -0.2442 -0.4848
 5393SOL    HW227639   2.958   2.764  10.922 -0.3579  0.3412 -0.7207
 5394SOL     OW27640   1.185   3.424   2.854 -0.7380  0.2544  0.1070
 5394SOL    HW127641   1.183   3.444   2.760 -0.0803  0.4393  0.1290
 5394SOL    HW227642   1.189   3.514   2.889 -2.4463  0.8415 -1.2125
 5395SOL     OW27643   0.980   4.382   5.985  0.1402 -0.1227 -0.2459
 5395SOL    HW127644   1.033   4.443   5.935  1.0797  0.1331  1.0597
 5395SOL    HW227645   1.008   4.305   5.936 -1.5025  0.2978 -1.8399
 5396SOL     OW27646   2.095   1.204   2.128  0.0489  0.0979 -0.0349
 5396SOL    HW127647   2.165   1.154   2.170  0.1713 -1.9573 -2.6936
 5396SOL    HW227648   2.074   1.253   2.208 -1.3540 -1.9775  0.8838
 5397SOL     OW27649   4.120   4.046  12.026 -0.2346 -0.0493  0.5741
 5397SOL    HW127650   4.188   4.044  12.092 -0.7601  3.2764  1.1853
 5397SOL    HW227651   4.049   4.093  12.070  0.3643  2.6375 -1.3638
 5398SOL     OW27652   2.809   0.454   3.777  0.0109  0.4111  0.5575
 5398SOL    HW127653   2.799   0.543   3.813 -2.4860  0.0092  0.8768
 5398SOL    HW227654   2.830   0.478   3.687 -1.0140  0.9620  0.4631
 5399SOL     OW27655   3.508   1.749  10.716  0.1773  0.5144 -0.2613
 5399SOL    HW127656   3.459   1.785  10.790  0.1337  0.9543 -0.5075
 5399SOL    HW227657   3.588   1.710  10.752 -0.5243  0.4934  1.2887
 5400SOL     OW27658   3.352   1.764  13.699 -0.0616 -0.3708  0.3829
 5400SOL    HW127659   3.433   1.717  13.680  0.3411  0.8518 -0.9296
 5400SOL    HW227660   3.375   1.808  13.781  1.6246  0.8643 -0.7518
 5401SOL     OW27661   0.647   0.673   5.139 -0.1580  0.3354  0.2261
 5401SOL    HW127662   0.561   0.678   5.097  0.0014 -1.5466 -0.3477
 5401SOL    HW227663   0.645   0.743   5.204 -0.1877 -1.6708  2.3551
 5402SOL     OW27664   0.258   1.214   3.899  0.0643 -0.2817  0.0881
 5402SOL    HW127665   0.245   1.177   3.812 -1.5663  1.6574 -0.5027
 5402SOL    HW227666   0.217   1.143   3.949 -0.6471 -0.3027 -0.5261
 5403SOL     OW27667   3.050   3.627   6.653  0.1084 -0.3958  0.5560
 5403SOL    HW127668   3.098   3.633   6.570 -2.4002  2.7752 -0.6565
 5403SOL    HW227669   3.108   3.630   6.730 -1.6974 -1.3403  1.9582
 5404SOL     OW27670   4.455   4.484   4.906 -0.9857  0.0922  0.2797
 5404SOL    HW127671   4.480   4.545   4.976  0.8366 -2.8807  2.1874
 5404SOL    HW227672   4.476   4.538   4.829 -1.2204 -0.6672 -0.3097
 5405SOL     OW27673   2.720   1.377   0.188  0.2062 -0.0928  0.0859
 5405SOL    HW127674   2.770   1.443   0.234 -1.3005 -0.0979  1.7307
 5405SOL    HW227675   2.639   1.426   0.171  0.4064  0.0807 -0.3516
 5406SOL     OW27676   0.651   0.283   4.960 -0.0388  0.4614  0.1229
 5406SOL    HW127677   0.716   0.237   4.907 -0.8265 -1.0341  0.4709
 5406SOL    HW227678   0.695   0.339   5.023  3.4154 -0.1005 -1.7879
 5407SOL     OW27679   3.945   1.387   2.351  0.4322 -0.1187  0.2536
 5407SOL    HW127680   4.032   1.387   2.311  0.6113  1.3044  0.6543
 5407SOL    HW227681   3.887   1.340   2.290 -0.3293  2.2078 -0.7928
 5408SOL     OW27682   2.037   2.660   7.623  0.1996 -0.7207  0.3035
 5408SOL    HW127683   2.068   2.570   7.639  0.1900 -0.4444  1.8357
 5408SOL    HW227684   2.119   2.703   7.648 -0.2412  1.3945 -1.8876
 5409SOL     OW27685   4.605   0.460  10.891 -0.0579  0.0078  0.6002
 5409SOL    HW127686   4.695   0.443  10.866 -0.0593  0.9803 -0.0599
 5409SOL    HW227687   4.564   0.489  10.809 -0.1176 -2.3681 -0.2038
 5410SOL     OW27688   1.751   3.823   8.135  0.0064 -0.3554 -0.7817
 5410SOL    HW127689   1.803   3.881   8.079  1.3621 -0.3114  0.5022
 5410SOL    HW227690   1.670   3.874   8.132  0.7282  0.8040 -0.7909
 5411SOL     OW27691   1.549   3.616   5.995  0.2154  0.5611  0.1460
 5411SOL    HW127692   1.603   3.629   6.073 -0.6305  0.5417  0.7408
 5411SOL    HW227693   1.588   3.675   5.931  0.8979 -0.9028 -0.7655
 5412SOL     OW27694   3.600   2.850   7.955  0.2489  0.4744 -0.4259
 5412SOL    HW127695   3.627   2.880   7.868  0.0438  0.8874 -0.3456
 5412SOL    HW227696   3.677   2.881   8.003  0.0881  1.7746 -1.0135
 5413SOL     OW27697   1.983   1.044   6.062 -0.4362 -0.1328  0.1950
 5413SOL    HW127698   2.025   1.092   6.134 -2.9534  0.6843  1.1278
 5413SOL    HW227699   1.963   0.963   6.109  1.6249  0.2443  1.7223
 5414SOL     OW27700   3.941   3.819  15.756  0.1667 -0.3774 -0.0845
 5414SOL    HW127701   3.977   3.818  15.667 -2.5404  1.6744 -1.1676
 5414SOL    HW227702   4.020   3.787  15.800  0.0628  1.0469  1.1114
 5415SOL     OW27703   4.114   3.653  14.771  0.4644 -0.0843 -0.0932
 5415SOL    HW127704   4.137   3.583  14.833 -1.4035 -1.0772 -0.5418
 5415SOL    HW227705   4.148   3.608  14.694  2.0530 -0.5870  0.8933
 5416SOL     OW27706   0.358   1.541   4.131 -0.3761 -0.0188 -0.5507
 5416SOL    HW127707   0.315   1.517   4.049 -0.1615 -0.3945 -0.5546
 5416SOL    HW227708   0.449   1.531   4.104 -0.3060 -0.3343 -0.1939
 5417SOL     OW27709   3.150   4.223   6.111 -0.8822 -0.1579 -0.0603
 5417SOL    HW127710   3.076   4.182   6.156 -1.5770  1.2524  0.0720
 5417SOL    HW227711   3.172   4.296   6.169 -0.2709  2.2483 -3.3742
 5418SOL     OW27712   2.377   0.703  17.533  0.3049 -0.6998  0.0448
 5418SOL    HW127713   2.431   0.717  17.454 -0.5196 -1.2332 -0.6089
 5418SOL    HW227714   2.290   0.708  17.494  0.1221 -0.6623  0.4614
 5419SOL     OW27715   3.700   3.256  15.154  0.1531 -0.4624  0.3001
 5419SOL    HW127716   3.790   3.274  15.127 -0.6746  2.8825 -0.2822
 5419SOL    HW227717   3.649   3.280  15.076 -1.9199 -0.6939  1.5657
 5420SOL     OW27718   0.918   2.229   1.324 -0.0489 -0.2571 -0.9475
 5420SOL    HW127719   0.887   2.272   1.244  1.1285 -0.4060 -1.4798
 5420SOL    HW227720   0.845   2.247   1.383  0.1105  1.8367 -1.4065
 5421SOL     OW27721   0.442   2.600   1.103 -0.1798  0.2153 -0.2674
 5421SOL    HW127722   0.423   2.673   1.162 -0.1950 -0.9353  1.1401
 5421SOL    HW227723   0.458   2.524   1.160 -1.5994  0.4728  0.4507
 5422SOL     OW27724   1.686   3.279   2.973 -0.7131 -1.0564  0.3374
 5422SOL    HW127725   1.692   3.293   3.068 -1.4022 -0.5372  0.3022
 5422SOL    HW227726   1.763   3.328   2.943 -1.6152  0.9831  1.3666
 5423SOL     OW27727   1.033   3.831   3.915  0.1008  0.3810 -0.7853
 5423SOL    HW127728   1.008   3.907   3.862  1.0674  1.3814  0.2239
 5423SOL    HW227729   1.110   3.799   3.869  0.2970  3.7275 -2.7878
 5424SOL     OW27730   1.100   4.280   2.993 -0.1346  0.0587 -0.2622
 5424SOL    HW127731   1.122   4.263   2.901 -1.7916  0.4365 -0.7249
 5424SOL    HW227732   1.006   4.260   2.993  0.3105 -2.0438 -0.7149
 5425SOL     OW27733   0.974   0.587  15.568 -0.0770 -0.0332 -0.3145
 5425SOL    HW127734   1.064   0.557  15.581 -0.6987 -0.4013  3.1021
 5425SOL    HW227735   0.960   0.646  15.642 -0.6103  0.7171 -1.0123
 5426SOL     OW27736   3.768   2.410   8.713  0.4140 -0.2849 -0.0053
 5426SOL    HW127737   3.824   2.438   8.785  0.1219 -0.6610  0.3678
 5426SOL    HW227738   3.755   2.493   8.667 -2.3546  1.3354  3.6632
 5427SOL     OW27739   2.815   4.477  14.106 -0.1796 -0.0774  0.2795
 5427SOL    HW127740   2.733   4.525  14.114  0.0357  0.3825 -0.3172
 5427SOL    HW227741   2.877   4.534  14.152  0.5690 -0.4011 -0.3438
 5428SOL     OW27742   4.596   4.427   7.088 -0.0511  0.1479  0.6870
 5428SOL    HW127743   4.669   4.481   7.118 -1.1110  1.8931  0.1086
 5428SOL    HW227744   4.521   4.472   7.128 -0.7616 -0.2951 -0.1493
 5429SOL     OW27745   3.457   4.691  14.955 -0.1102  0.4459  0.3545
 5429SOL    HW127746   3.392   4.705  14.886  1.1469 -0.9125 -1.0959
 5429SOL    HW227747   3.398   4.667  15.026 -0.1987 -0.6685 -0.1055
 5430SOL     OW27748   4.552   1.089   1.083 -0.6602  0.1697  0.0587
 5430SOL    HW127749   4.485   1.120   1.145 -2.2473 -2.3210 -0.4188
 5430SOL    HW227750   4.626   1.113   1.139 -0.6297  0.6654 -0.1910
 5431SOL     OW27751   3.440   0.138   3.466 -0.1637  0.3043  0.1488
 5431SOL    HW127752   3.503   0.183   3.523  1.0696  1.3355 -2.0095
 5431SOL    HW227753   3.424   0.216   3.412  2.0328  0.2559 -0.6002
 5432SOL     OW27754   2.420   1.730   7.348 -0.1701 -0.8454  1.2041
 5432SOL    HW127755   2.334   1.687   7.344 -0.1370 -0.9609  1.8203
 5432SOL    HW227756   2.444   1.730   7.440  0.2256  2.6353  1.0713
 5433SOL     OW27757   2.738   1.562   6.986 -0.6601 -0.1039 -0.1061
 5433SOL    HW127758   2.708   1.475   7.010 -0.5500  0.1056  0.8045
 5433SOL    HW227759   2.764   1.596   7.072 -0.3623  2.0598 -1.0618
 5434SOL     OW27760   3.642   0.722   1.652  0.0407 -0.2869 -0.2605
 5434SOL    HW127761   3.690   0.672   1.586  1.3844  1.1307 -0.3678
 5434SOL    HW227762   3.701   0.716   1.726  1.5019 -1.2347 -1.5086
 5435SOL     OW27763   4.041   1.199  12.871 -0.1918 -0.1555 -0.3842
 5435SOL    HW127764   4.033   1.280  12.921  0.6638 -0.1055 -0.3284
 5435SOL    HW227765   4.121   1.162  12.910 -2.0824 -1.6743  2.1055
 5436SOL     OW27766   1.366   1.613   4.419 -0.0912  0.3416 -0.1776
 5436SOL    HW127767   1.348   1.646   4.331  0.7737  0.3413 -0.3579
 5436SOL    HW227768   1.372   1.690   4.475  2.3472 -0.8191  1.1687
 5437SOL     OW27769   3.056   1.014   1.470  0.8604  0.0460  0.4927
 5437SOL    HW127770   3.112   1.069   1.416  1.9474 -0.0997  1.4682
 5437SOL    HW227771   3.024   1.076   1.536  0.5693  0.4246 -0.0033
 5438SOL     OW27772   2.746   3.500  10.268  0.0602 -0.0693 -0.0971
 5438SOL    HW127773   2.774   3.591  10.278  0.1491 -0.2108  0.9099
 5438SOL    HW227774   2.653   3.522  10.271 -0.1386 -0.6561 -2.1562
 5439SOL     OW27775   4.602   3.275  16.314 -0.2489  0.2829 -0.2833
 5439SOL    HW127776   4.697   3.268  16.307 -0.4227 -1.9616 -0.1869
 5439SOL    HW227777   4.600   3.351  16.373 -2.8572 -1.1680  1.4920
 5440SOL     OW27778   0.879   0.605  12.586 -0.1842  0.4257 -0.1764
 5440SOL    HW127779   0.861   0.699  12.590  1.3089  0.6242  1.6480
 5440SOL    HW227780   0.803   0.559  12.621  1.6951 -2.2188  0.3564
 5441SOL     OW27781   0.909   1.402   3.195  0.9476  0.1544  1.0120
 5441SOL    HW127782   0.989   1.350   3.186  0.6824 -0.1247  0.2843
 5441SOL    HW227783   0.895   1.448   3.112 -0.1211  1.9267  2.1768
 5442SOL     OW27784   2.965   1.026  15.722 -0.0921 -0.2146  0.2243
 5442SOL    HW127785   2.991   1.101  15.667  0.9715  1.0321  2.4325
 5442SOL    HW227786   3.016   1.040  15.802 -0.2852  1.5804  0.0489
 5443SOL     OW27787   0.484   2.179   3.019  0.1648 -0.1621  0.0586
 5443SOL    HW127788   0.545   2.137   2.958  0.1307 -0.7187  0.4052
 5443SOL    HW227789   0.497   2.120   3.093  1.2298 -1.2518 -0.9919
 5444SOL     OW27790   0.680   2.114   7.489  0.0744  0.2807  0.6985
 5444SOL    HW127791   0.654   2.110   7.581 -0.3461 -3.4313  0.3943
 5444SOL    HW227792   0.683   2.021   7.469 -1.0563 -0.1426  2.5021
 5445SOL     OW27793   4.643   0.745   7.155 -0.1602 -0.3622 -0.4254
 5445SOL    HW127794   4.574   0.796   7.197  0.8812 -1.3705  2.5335
 5445SOL    HW227795   4.714   0.783   7.207 -0.1835  0.5603 -1.0782
 5446SOL     OW27796   3.661   2.281   9.888 -0.1802  0.1321  0.4741
 5446SOL    HW127797   3.597   2.310   9.822 -0.4377 -0.0318  0.6556
 5446SOL    HW227798   3.734   2.266   9.828 -1.3225  1.3200 -1.2486
 5447SOL     OW27799   3.383   2.244   7.472  0.2127  0.2774  0.1655
 5447SOL    HW127800   3.398   2.166   7.418  1.0475 -1.1321  2.4301
 5447SOL    HW227801   3.432   2.204   7.544 -0.4843  0.0564  0.5206
 5448SOL     OW27802   4.319   3.603  15.090  0.2348 -0.3984 -0.6132
 5448SOL    HW127803   4.316   3.695  15.063  2.0544 -0.8733 -2.4426
 5448SOL    HW227804   4.248   3.565  15.037 -0.3887 -0.6020  0.3626
 5449SOL     OW27805   2.925   1.620   4.243  0.1723 -0.3317  0.3950
 5449SOL    HW127806   2.861   1.647   4.309 -1.5808 -1.8056 -0.7167
 5449SOL    HW227807   2.929   1.525   4.253 -0.0174 -0.2616  1.2081
 5450SOL     OW27808   3.972   4.596   2.282 -0.3829 -0.4121 -0.1371
 5450SOL    HW127809   3.919   4.517   2.293  0.1596 -0.5151  1.7890
 5450SOL    HW227810   4.055   4.550   2.267 -0.0270 -0.1705  1.0969
 5451SOL     OW27811   4.259   2.024   0.431  0.5547 -0.0370  0.5385
 5451SOL    HW127812   4.185   2.054   0.484 -0.5171  0.2335 -1.1261
 5451SOL    HW227813   4.286   1.943   0.476  0.5414  1.2725  2.9078
 5452SOL     OW27814   2.145   2.180  13.831  0.1837 -0.1885  0.4136
 5452SOL    HW127815   2.096   2.103  13.858  0.4005 -0.0365  1.2692
 5452SOL    HW227816   2.228   2.136  13.810 -0.0834 -0.8878  0.8386
 5453SOL     OW27817   3.337   1.762   5.694  0.5396  0.3310  0.1626
 5453SOL    HW127818   3.407   1.784   5.755 -0.0610  2.7372 -0.0067
 5453SOL    HW227819   3.277   1.708   5.745  2.2290  0.5763  2.4263
 5454SOL     OW27820   1.445   0.560  16.273 -0.5927  0.7558  0.4458
 5454SOL    HW127821   1.438   0.603  16.188 -1.6575  1.1628  0.7337
 5454SOL    HW227822   1.503   0.487  16.250  0.9196  1.6816  1.3147
 5455SOL     OW27823   0.863   1.765   5.686 -0.0242 -0.4931 -0.1994
 5455SOL    HW127824   0.819   1.712   5.619 -1.0903  0.3078 -0.1274
 5455SOL    HW227825   0.828   1.853   5.673 -1.0415 -0.8092  0.4320
 5456SOL     OW27826   1.545   2.618   4.858  0.1485 -0.0099 -0.2036
 5456SOL    HW127827   1.533   2.713   4.859 -0.8906 -0.1565  1.0401
 5456SOL    HW227828   1.548   2.597   4.951  0.1584 -1.5624 -0.5678
 5457SOL     OW27829   3.071   0.342   2.761 -0.3583  0.0421  0.2919
 5457SOL    HW127830   3.074   0.274   2.695  0.4459  0.1275  0.2336
 5457SOL    HW227831   3.114   0.418   2.720 -1.3498 -0.5552 -1.8423
 5458SOL     OW27832   3.381   4.613   5.443  0.3683  0.1018 -0.1499
 5458SOL    HW127833   3.337   4.628   5.527  2.4309 -0.4847  1.0428
 5458SOL    HW227834   3.308   4.630   5.384 -0.5001  0.5060  1.0332
 5459SOL     OW27835   2.872   2.232   4.180  0.4014  0.3970 -0.1791
 5459SOL    HW127836   2.940   2.166   4.187  2.2719  2.5833  2.5575
 5459SOL    HW227837   2.817   2.189   4.247 -0.3560  3.1030  0.9407
 5460SOL     OW27838   2.912   4.157   8.044 -0.2407 -0.3883 -0.4457
 5460SOL    HW127839   2.951   4.186   8.126 -0.4279  0.6881 -0.7286
 5460SOL    HW227840   2.818   4.158   8.060 -0.1046  0.2989  0.3099
 5461SOL     OW27841   4.107   3.900   5.330  0.1033 -0.4745  0.1833
 5461SOL    HW127842   4.108   3.995   5.317 -1.3224 -0.5637 -0.6181
 5461SOL    HW227843   4.176   3.867   5.272  2.0444 -0.0802  2.2812
 5462SOL     OW27844   3.203   0.114   7.087  0.8722 -0.0486  0.2822
 5462SOL    HW127845   3.268   0.172   7.046  0.8203  0.9940  1.6851
 5462SOL    HW227846   3.262   0.086   7.156  0.4966 -1.0867  0.1715
 5463SOL     OW27847   0.525   1.996  10.663 -0.3010 -0.1805 -0.2052
 5463SOL    HW127848   0.604   1.957  10.624 -0.8008 -2.2144  0.8160
 5463SOL    HW227849   0.552   2.087  10.673 -1.1265 -0.1868  1.9880
 5464SOL     OW27850   1.181   0.188   6.397 -0.7135  0.2602  0.2858
 5464SOL    HW127851   1.124   0.259   6.427 -3.8029 -2.3023  0.5858
 5464SOL    HW227852   1.207   0.147   6.479  0.2726 -1.1870 -0.7641
 5465SOL     OW27853   3.983   2.950   8.506 -0.4319 -0.2641  0.4013
 5465SOL    HW127854   3.917   2.927   8.571 -1.1665 -1.6997 -0.8501
 5465SOL    HW227855   4.063   2.931   8.556 -0.3944  0.4730  0.6196
 5466SOL     OW27856   4.119   3.678  15.915 -0.3262 -0.2100  0.5806
 5466SOL    HW127857   4.070   3.611  15.962  1.3303 -2.1358 -0.4441
 5466SOL    HW227858   4.156   3.641  15.834  1.2099  1.0948  0.6805
 5467SOL     OW27859   3.830   0.341  14.970 -0.3362  0.5696 -0.3134
 5467SOL    HW127860   3.837   0.405  14.900  0.9861  0.8961  0.1221
 5467SOL    HW227861   3.756   0.284  14.948 -0.3811  0.1753  0.8557
 5468SOL     OW27862   0.850   3.902   7.483 -0.2503 -0.1048 -0.0605
 5468SOL    HW127863   0.824   3.888   7.392  1.8385  0.3385 -0.7317
 5468SOL    HW227864   0.946   3.910   7.478 -0.2913  0.9134  0.9443
 5469SOL     OW27865   1.747   0.468   7.115 -1.3424 -0.1361  0.2645
 5469SOL    HW127866   1.756   0.406   7.187 -2.6545  0.5132  0.9842
 5469SOL    HW227867   1.773   0.414   7.040 -0.1838 -1.0864  1.3454
 5470SOL     OW27868   1.196   0.911  12.016 -0.3264  0.2711  0.0010
 5470SOL    HW127869   1.270   0.906  12.075 -0.4701  1.7205  0.3149
 5470SOL    HW227870   1.178   1.005  12.023  1.0458  0.4625  0.7597
 5471SOL     OW27871   3.595   1.772   7.179  0.2255 -0.4524 -0.1987
 5471SOL    HW127872   3.616   1.738   7.266 -0.1223 -0.4964 -0.1298
 5471SOL    HW227873   3.545   1.701   7.140 -1.6039  0.4542  0.4956
 5472SOL     OW27874   1.674   1.495  10.730 -0.0891 -1.3943  0.1747
 5472SOL    HW127875   1.713   1.536  10.807 -1.5461  0.1226  0.0989
 5472SOL    HW227876   1.753   1.481  10.678  0.8262  2.4283  0.5250
 5473SOL     OW27877   3.236   1.466   2.382  0.4367  0.0320 -0.2979
 5473SOL    HW127878   3.306   1.455   2.447  1.0185  0.2636 -0.8884
 5473SOL    HW227879   3.272   1.542   2.336  0.0636  0.5324  0.2345
 5474SOL     OW27880   0.853   0.884   7.459 -0.0000  0.2003  0.2725
 5474SOL    HW127881   0.874   0.915   7.548 -1.0627  1.5708  0.0437
 5474SOL    HW227882   0.804   0.955   7.418  0.1281  0.7186  1.0249
 5475SOL     OW27883   0.214   3.021   4.434 -0.0472  0.1946 -0.1051
 5475SOL    HW127884   0.257   2.936   4.451  1.8865  1.2884  0.4757
 5475SOL    HW227885   0.230   3.041   4.342 -1.5683 -2.0974 -0.8743
 5476SOL     OW27886   3.498   0.270   6.107 -0.4667  0.1738 -1.0016
 5476SOL    HW127887   3.516   0.180   6.080  0.8368  0.4514 -1.0920
 5476SOL    HW227888   3.575   0.312   6.068  0.4161 -1.3694 -0.8984
 5477SOL     OW27889   2.922   4.542   6.547 -0.1236 -0.4175  0.3363
 5477SOL    HW127890   2.941   4.563   6.455  0.8343 -1.5850  0.2655
 5477SOL    HW227891   2.934   4.448   6.559  1.9665 -0.3273 -1.0071
 5478SOL     OW27892   2.802   2.121   5.225 -0.4488 -0.2356 -0.2765
 5478SOL    HW127893   2.776   2.209   5.254 -3.2983 -0.5335 -1.9562
 5478SOL    HW227894   2.756   2.056   5.278  0.7718  0.3002  1.4660
 5479SOL     OW27895   2.554   3.510   0.902  0.0011  0.0732 -0.1689
 5479SOL    HW127896   2.614   3.497   0.828  0.6860  1.6044  0.1104
 5479SOL    HW227897   2.609   3.511   0.981  0.6718  0.0034 -0.6330
 5480SOL     OW27898   1.883   3.245  14.853 -0.0926  0.3696 -0.4605
 5480SOL    HW127899   1.870   3.314  14.788  1.1263 -0.1570 -1.2608
 5480SOL    HW227900   1.792   3.218  14.870  0.4440 -0.3087  1.3501
 5481SOL     OW27901   1.651   3.845   3.865  0.2422 -0.5982  0.4609
 5481SOL    HW127902   1.724   3.785   3.880  0.8638 -0.3026 -1.3508
 5481SOL    HW227903   1.611   3.836   3.951 -1.2838  3.5269  0.1512
 5482SOL     OW27904   3.453   2.596   4.932 -0.0883  0.3785 -0.1558
 5482SOL    HW127905   3.430   2.584   4.840  0.6437 -1.9324 -0.0241
 5482SOL    HW227906   3.542   2.626   4.913 -0.1640  0.1246 -0.9253
 5483SOL     OW27907   1.419   4.215   6.547 -0.2339  0.0154 -0.0138
 5483SOL    HW127908   1.461   4.150   6.489  1.2715 -1.3903  2.6260
 5483SOL    HW227909   1.379   4.157   6.612 -0.6468 -0.6628 -0.8638
 5484SOL     OW27910   3.935   2.347   5.738 -0.6962  0.0525  0.4997
 5484SOL    HW127911   3.895   2.331   5.653 -0.1301  0.4457  0.1624
 5484SOL    HW227912   4.027   2.368   5.721 -0.2443 -0.4807  2.2751
 5485SOL     OW27913   3.643   1.585   7.702  0.3648 -0.0733 -0.3226
 5485SOL    HW127914   3.705   1.612   7.770 -1.4466 -1.3146  1.8259
 5485SOL    HW227915   3.568   1.628   7.742  0.8485  0.1471  0.3528
 5486SOL     OW27916   1.132   0.380   9.498  0.4401  0.1411 -0.2579
 5486SOL    HW127917   1.196   0.395   9.428  1.5478 -2.8823  0.1188
 5486SOL    HW227918   1.093   0.303   9.458  0.6394 -0.7190  1.1867
 5487SOL     OW27919   1.758   1.151   0.711  0.0235 -0.4409 -0.0159
 5487SOL    HW127920   1.833   1.125   0.764  1.0553  0.6446 -0.9484
 5487SOL    HW227921   1.688   1.166   0.776  0.6162  2.8701 -0.1229
 5488SOL     OW27922   4.664   4.363   0.356 -0.0067 -0.1573  0.0702
 5488SOL    HW127923   4.666   4.456   0.378  0.1071 -0.1083 -0.1415
 5488SOL    HW227924   4.656   4.317   0.439 -0.4185 -0.1902  0.0137
 5489SOL     OW27925   3.791   0.789  14.650  0.4526 -0.2145 -0.1637
 5489SOL    HW127926   3.793   0.760  14.559 -0.9893  0.6282 -0.4645
 5489SOL    HW227927   3.872   0.770  14.698  2.2291  3.8358 -1.6326
 5490SOL     OW27928   2.690   1.918   4.627 -0.1090  0.1298 -0.1124
 5490SOL    HW127929   2.705   1.889   4.717 -0.4561 -0.5973 -0.2894
 5490SOL    HW227930   2.704   2.012   4.640 -1.0544  0.3542 -0.7704
 5491SOL     OW27931   1.225   2.645  16.315 -0.5734 -0.0841  0.0951
 5491SOL    HW127932   1.245   2.569  16.370  1.4225  0.0160 -0.5138
 5491SOL    HW227933   1.218   2.720  16.373 -0.5803  1.1558 -1.5175
 5492SOL     OW27934   3.501   3.708   1.558 -0.5396  0.6305  0.1736
 5492SOL    HW127935   3.461   3.631   1.600 -2.2166  0.8875 -0.9441
 5492SOL    HW227936   3.530   3.664   1.478 -0.4575 -0.0578  0.5781
 5493SOL     OW27937   0.411   2.091   7.103  0.4354  0.3947  0.7559
 5493SOL    HW127938   0.367   2.128   7.180 -0.0417 -0.7812  1.0447
 5493SOL    HW227939   0.476   2.159   7.085 -1.0144  1.0228 -1.9617
 5494SOL     OW27940   0.068   4.013   0.016 -0.0235 -0.6577 -0.4419
 5494SOL    HW127941   4.697   3.991   0.026  0.6533 -2.9886  0.5337
 5494SOL    HW227942   0.085   3.963  17.624  1.3097 -0.2802 -0.3920
 5495SOL     OW27943   3.250   2.665   0.441 -0.1725  0.0895 -0.0081
 5495SOL    HW127944   3.305   2.743   0.449  0.7717 -0.6472  0.6383
 5495SOL    HW227945   3.302   2.590   0.470  0.3133  0.6039  0.4495
 5496SOL     OW27946   0.820   2.513   5.623 -0.0524 -0.3869 -0.2254
 5496SOL    HW127947   0.860   2.491   5.539 -1.7440  1.9367 -1.6279
 5496SOL    HW227948   0.821   2.609   5.623 -0.7559 -0.3827 -2.2711
 5497SOL     OW27949   3.377   2.482   7.759  0.1816 -0.4108  0.1697
 5497SOL    HW127950   3.379   2.548   7.690  1.3076 -1.4640 -0.7959
 5497SOL    HW227951   3.464   2.484   7.798  1.3602  0.0647 -2.5072
 5498SOL     OW27952   1.679   0.359   9.296  0.2777 -0.2303  0.5050
 5498SOL    HW127953   1.699   0.433   9.239 -3.8969  0.8477  0.4610
 5498SOL    HW227954   1.675   0.287   9.234  0.0852  0.9091 -0.7965
 5499SOL     OW27955   3.270   2.509  14.684 -1.2041 -0.5518 -0.2500
 5499SOL    HW127956   3.217   2.488  14.606 -1.1992 -1.2085 -0.0766
 5499SOL    HW227957   3.355   2.538  14.652 -0.5185 -0.2054  1.9388
 5500SOL     OW27958   1.457   4.355   3.537 -0.2386  0.0126  0.0407
 5500SOL    HW127959   1.530   4.304   3.573 -0.1775  1.6530  2.2292
 5500SOL    HW227960   1.490   4.394   3.457  1.8262 -0.3435  0.7283
 5501SOL     OW27961   2.729   1.783   9.086 -0.2819 -0.0638  0.5077
 5501SOL    HW127962   2.736   1.863   9.138 -0.7571 -1.8810  3.3334
 5501SOL    HW227963   2.809   1.796   9.036  0.0597 -1.5922  0.6604
 5502SOL     OW27964   3.502   4.023   3.446 -0.3598 -0.5253  0.5413
 5502SOL    HW127965   3.507   3.963   3.372 -2.1010  0.0932 -0.0678
 5502SOL    HW227966   3.509   4.109   3.403 -0.7051 -0.3624  0.8104
 5503SOL     OW27967   4.612   0.683   4.556  0.2126 -0.7808 -0.7367
 5503SOL    HW127968   4.557   0.668   4.478  1.0626 -0.4973 -1.3882
 5503SOL    HW227969   4.643   0.770   4.531  0.5185 -0.0504  2.2391
 5504SOL     OW27970   3.562   4.084  16.801 -0.0706  0.3465 -0.2025
 5504SOL    HW127971   3.567   4.049  16.712  0.9896 -1.3741  0.5476
 5504SOL    HW227972   3.506   4.161  16.789 -0.2933  0.4514  1.5477
 5505SOL     OW27973   1.549   3.974  16.979  0.2914 -0.0806 -0.3209
 5505SOL    HW127974   1.492   4.007  17.048  0.4149 -0.3901 -0.0747
 5505SOL    HW227975   1.529   4.040  16.911 -0.3421  1.1717  1.0842
 5506SOL     OW27976   0.273   2.712   7.808  0.0446  0.0397 -0.4095
 5506SOL    HW127977   0.291   2.798   7.771  1.0631 -0.8812 -2.0761
 5506SOL    HW227978   0.183   2.686   7.789 -0.1303  0.2264  0.1625
 5507SOL     OW27979   1.734   1.101   9.104 -0.3144  0.0141  0.7663
 5507SOL    HW127980   1.800   1.152   9.056 -0.0018 -1.8082 -0.7519
 5507SOL    HW227981   1.698   1.174   9.154 -0.2789  0.9410 -0.5416
 5508SOL     OW27982   0.334   0.427   4.107 -0.5871  0.9223  0.9602
 5508SOL    HW127983   0.426   0.425   4.132 -0.1519  0.1296 -0.7410
 5508SOL    HW227984   0.298   0.489   4.171 -0.8908  2.3118 -0.5447
 5509SOL     OW27985   1.038   1.568  17.334 -0.2064  0.5434  0.7998
 5509SOL    HW127986   0.944   1.583  17.327 -0.2417 -0.7685 -1.7164
 5509SOL    HW227987   1.037   1.472  17.342 -1.7586  0.5118  0.1625
 5510SOL     OW27988   1.556   3.183  11.066  0.3501 -0.0691 -0.3226
 5510SOL    HW127989   1.563   3.264  11.016  1.1207 -0.9421 -1.6418
 5510SOL    HW227990   1.467   3.156  11.042  0.3711 -0.9319  0.5533
 5511SOL     OW27991   3.384   3.201  13.489  0.1234  0.2361 -0.5197
 5511SOL    HW127992   3.387   3.288  13.448  0.3046 -0.6707 -2.4172
 5511SOL    HW227993   3.298   3.198  13.531  1.0402 -0.4552  1.3054
 5512SOL     OW27994   2.308   2.734   9.994 -0.1170 -0.3229  0.3068
 5512SOL    HW127995   2.235   2.775   9.948 -0.4704 -1.7574 -0.4052
 5512SOL    HW227996   2.358   2.815  10.006 -0.7990  0.3465 -1.3982
 5513SOL     OW27997   0.707   4.095  13.849  0.0594 -0.5262  0.9787
 5513SOL    HW127998   0.738   4.137  13.768 -2.1460  1.9546  1.4315
 5513SOL    HW227999   0.705   4.004  13.821 -2.4663 -0.4789  0.9646
 5514SOL     OW28000   2.366   3.636   4.105  0.0097  0.2356  0.2876
 5514SOL    HW128001   2.459   3.628   4.082 -0.2388 -0.8800 -0.2967
 5514SOL    HW228002   2.361   3.729   4.127 -0.7704  0.1848  0.3131
 5515SOL     OW28003   0.694   2.855   1.655 -0.5216 -0.1308 -0.3154
 5515SOL    HW128004   0.615   2.881   1.608  0.2314  1.1301 -0.8751
 5515SOL    HW228005   0.670   2.762   1.663 -0.9231 -0.0579 -0.6633
 5516SOL     OW28006   2.456   0.038   1.434 -0.7549  0.2473  0.3686
 5516SOL    HW128007   2.371   0.047   1.390  0.8016  1.0268 -2.5104
 5516SOL    HW228008   2.456   0.121   1.482  0.6469  1.6312 -2.0001
 5517SOL     OW28009   2.567   4.428   6.821 -0.0763  0.3799  0.1043
 5517SOL    HW128010   2.571   4.462   6.910 -2.1417  1.3090 -0.1636
 5517SOL    HW228011   2.631   4.482   6.776  0.9230  0.9651  2.2411
 5518SOL     OW28012   3.287   1.261   8.630  1.1117  0.5970  1.0386
 5518SOL    HW128013   3.199   1.244   8.663  1.2983 -0.2882  1.0847
 5518SOL    HW228014   3.348   1.215   8.688  2.1693 -0.6255 -1.0061
 5519SOL     OW28015   1.199   2.152   7.653  0.3185 -0.5297  0.3671
 5519SOL    HW128016   1.220   2.240   7.683 -0.8698  0.2615 -1.0835
 5519SOL    HW228017   1.105   2.154   7.631 -0.0237  1.2503  2.0008
 5520SOL     OW28018   3.623   2.927  10.279  0.8172 -0.5194  0.3765
 5520SOL    HW128019   3.688   2.991  10.309  0.8378  0.0500 -0.8750
 5520SOL    HW228020   3.658   2.858  10.335 -0.4178 -0.4399  1.2442
 5521SOL     OW28021   1.307   3.249  17.643  0.5043 -0.3833  0.1916
 5521SOL    HW128022   1.295   3.204  17.559 -0.7753  1.5566 -0.6547
 5521SOL    HW228023   1.398   3.281  17.646  0.0049  1.1370 -0.7562
 5522SOL     OW28024   2.379   2.842  15.995 -0.0151 -0.6291 -0.8694
 5522SOL    HW128025   2.375   2.762  16.047 -2.0344  1.2381  1.8166
 5522SOL    HW228026   2.456   2.820  15.942  0.5739 -1.1914  0.2249
 5523SOL     OW28027   2.655   2.467   5.923 -0.0399 -0.3687 -0.1577
 5523SOL    HW128028   2.626   2.396   5.981  0.5891 -0.4696  0.0409
 5523SOL    HW228029   2.740   2.430   5.896  0.5376  0.4526  0.5216
 5524SOL     OW28030   1.742   3.097  10.255 -0.7557  0.2259 -0.4233
 5524SOL    HW128031   1.786   3.094  10.340 -0.6475  1.3586 -0.4329
 5524SOL    HW228032   1.680   3.025  10.267 -1.0389  0.6928  0.9686
 5525SOL     OW28033   0.303   4.478   5.517  0.0653 -0.0440  0.3340
 5525SOL    HW128034   0.261   4.411   5.464  3.1118 -0.2340 -1.8009
 5525SOL    HW228035   0.384   4.489   5.468  0.5591 -1.6290  0.8163
 5526SOL     OW28036   3.118   1.667   7.221  0.3329  0.2971  0.1396
 5526SOL    HW128037   3.197   1.623   7.255  2.9216  2.2255 -3.3783
 5526SOL    HW228038   3.125   1.753   7.263  2.0364 -0.4235  1.3544
 5527SOL     OW28039   2.546   1.542  16.435  0.0429  0.1264  0.4825
 5527SOL    HW128040   2.508   1.598  16.503 -0.6477 -0.0820  0.2664
 5527SOL    HW228041   2.570   1.607  16.367  0.4522  0.7451  1.2176
 5528SOL     OW28042   3.921   4.163   4.284 -0.3594 -0.0146  0.3724
 5528SOL    HW128043   3.838   4.209   4.300 -1.4145 -1.0743 -2.0832
 5528SOL    HW228044   3.972   4.180   4.363 -2.5395 -3.0182  2.4394
 5529SOL     OW28045   2.342   3.460   9.405  0.3724  0.0414  0.2764
 5529SOL    HW128046   2.302   3.510   9.334  1.2451 -0.8643 -0.8618
 5529SOL    HW228047   2.312   3.503   9.485  3.9433  0.8429  1.2142
 5530SOL     OW28048   3.168   1.554   8.836 -0.4643 -0.0443  0.6765
 5530SOL    HW128049   3.202   1.640   8.812  0.3198  0.0690  2.1639
 5530SOL    HW228050   3.086   1.580   8.879 -0.0652  0.8881  0.8775
 5531SOL     OW28051   3.343   0.657   6.212 -0.3068 -0.4712 -0.2382
 5531SOL    HW128052   3.331   0.707   6.131 -1.6526  0.5425  0.5897
 5531SOL    HW228053   3.396   0.582   6.184 -1.9186 -2.2167  1.3638
 5532SOL     OW28054   0.330   0.473   6.282  0.1589 -0.3837 -0.0903
 5532SOL    HW128055   0.261   0.458   6.218  0.4513  0.3760 -0.5800
 5532SOL    HW228056   0.320   0.396   6.338  0.8914 -1.6682 -1.7359
 5533SOL     OW28057   3.960   4.627   6.272  0.0063 -0.4512  0.1061
 5533SOL    HW128058   3.876   4.669   6.289  0.8006  1.0144  0.4034
 5533SOL    HW228059   3.990   4.614   6.362 -2.7420  1.8894  1.3696
 5534SOL     OW28060   3.518   2.510   3.810  0.0856  0.2487 -0.2200
 5534SOL    HW128061   3.579   2.452   3.856 -0.3488 -0.0886 -0.0750
 5534SOL    HW228062   3.486   2.450   3.743 -1.6152  1.8518 -0.8438
 5535SOL     OW28063   2.277   1.919  13.817 -0.5134 -0.6712  0.1380
 5535SOL    HW128064   2.302   1.828  13.831  0.3642 -0.5650 -0.7549
 5535SOL    HW228065   2.249   1.925  13.726 -1.8369 -3.4758  0.3534
 5536SOL     OW28066   3.132   0.004   4.011 -0.1912 -0.1756 -0.2142
 5536SOL    HW128067   3.080   0.069   3.965  0.2479 -1.1417 -2.0573
 5536SOL    HW228068   3.068   4.681   4.066 -1.5744  2.6604  0.4513
 5537SOL     OW28069   2.537   2.540  14.160 -0.5128 -0.1751 -1.1614
 5537SOL    HW128070   2.533   2.633  14.141 -0.4919 -0.3592 -2.0546
 5537SOL    HW228071   2.457   2.526  14.211 -0.4166 -0.4381 -1.0821
 5538SOL     OW28072   1.471   1.256   7.646  0.5593  0.7275  0.5653
 5538SOL    HW128073   1.393   1.310   7.650  0.5215  0.7570 -0.6305
 5538SOL    HW228074   1.457   1.209   7.728  0.8397 -1.4097 -0.6049
 5539SOL     OW28075   1.938   2.428   9.067 -0.3398  0.4625 -0.2712
 5539SOL    HW128076   1.899   2.368   9.004  0.7332 -0.5788  0.0649
 5539SOL    HW228077   1.871   2.430   9.136  0.9239  3.3667  0.8928
 5540SOL     OW28078   1.695   1.884   6.916  0.2732  0.2906 -0.2171
 5540SOL    HW128079   1.753   1.959   6.930  2.0203 -1.1057  0.0341
 5540SOL    HW228080   1.635   1.901   6.988  1.7601 -2.0289  1.5601
 5541SOL     OW28081   3.457   3.860   4.549 -0.1877  0.0757 -0.2790
 5541SOL    HW128082   3.435   3.941   4.504 -0.6709  0.2281  0.2261
 5541SOL    HW228083   3.404   3.871   4.628  0.8100  4.0249 -0.1644
 5542SOL     OW28084   1.308   1.667  11.512  0.3081  0.1518  0.3235
 5542SOL    HW128085   1.330   1.739  11.453 -1.5300  0.4086 -0.0231
 5542SOL    HW228086   1.381   1.604  11.506  0.4744  0.3800 -0.0180
 5543SOL     OW28087   1.338   3.633   7.135 -0.1300 -0.2958  0.1113
 5543SOL    HW128088   1.373   3.676   7.213 -0.2389  1.3367 -0.7386
 5543SOL    HW228089   1.248   3.616   7.164  0.4909 -0.3417  2.0431
 5544SOL     OW28090   4.560   2.934   8.436 -0.1597 -0.0386 -0.0027
 5544SOL    HW128091   4.525   2.995   8.502  1.6781 -0.4336  1.3395
 5544SOL    HW228092   4.474   2.896   8.420  0.1603 -0.9787  0.4972
 5545SOL     OW28093   0.683   2.376   4.528 -0.3352 -0.1004  0.0954
 5545SOL    HW128094   0.651   2.295   4.487  0.9481 -1.0138  0.8843
 5545SOL    HW228095   0.622   2.439   4.490  0.0892  0.7708  0.8566
 5546SOL     OW28096   2.368   0.254   8.383 -0.2249  0.2218 -0.3766
 5546SOL    HW128097   2.385   0.164   8.356 -1.0775 -0.0066 -0.1507
 5546SOL    HW228098   2.274   0.260   8.370 -0.5803  2.4495  3.1846
 5547SOL     OW28099   0.026   3.084   3.131  0.2534  0.2337  0.5155
 5547SOL    HW128100   0.038   3.117   3.220  1.6273  1.2760 -0.0458
 5547SOL    HW228101   0.095   3.017   3.128  1.4789  1.4906  0.1468
 5548SOL     OW28102   3.922   4.172   8.706  0.2588  0.6851  0.4814
 5548SOL    HW128103   4.011   4.173   8.742  0.0676  0.4611  0.9551
 5548SOL    HW228104   3.878   4.092   8.734  0.3445  0.0155 -1.2638
 5549SOL     OW28105   2.584   2.348   4.948  0.1681  0.3461  0.1642
 5549SOL    HW128106   2.562   2.269   4.897  4.7944 -0.0184 -1.2566
 5549SOL    HW228107   2.677   2.326   4.954 -0.0845 -0.5512  0.9874
 5550SOL     OW28108   3.269   3.374   7.152 -0.6230  0.3396 -0.1074
 5550SOL    HW128109   3.203   3.370   7.220 -1.4109 -0.1459 -0.8972
 5550SOL    HW228110   3.229   3.299   7.109 -1.2287  0.2233  0.6759
 5551SOL     OW28111   1.488   0.390   7.177  0.3055 -0.6225 -0.6806
 5551SOL    HW128112   1.496   0.381   7.082 -3.3600  1.0173 -1.1535
 5551SOL    HW228113   1.522   0.479   7.187 -3.0506  0.4980  0.6849
 5552SOL     OW28114   1.967   3.205  16.897 -0.2450 -0.2545 -0.0360
 5552SOL    HW128115   1.998   3.203  16.806 -0.1407 -5.0494  0.1336
 5552SOL    HW228116   1.944   3.297  16.911 -2.9783 -0.9343 -0.0886
 5553SOL     OW28117   4.191   1.824   4.300  0.5648  0.1876  0.1464
 5553SOL    HW128118   4.135   1.859   4.369  0.5595  0.3250  0.0714
 5553SOL    HW228119   4.244   1.901   4.279 -1.8402  1.3221 -1.7876
 5554SOL     OW28120   2.972   2.869   9.017 -0.1162  0.4979  0.0795
 5554SOL    HW128121   3.039   2.810   8.984  0.9975  1.2359  1.0047
 5554SOL    HW228122   2.912   2.887   8.945 -0.8197 -0.4420  0.4219
 5555SOL     OW28123   1.691   0.916   8.919 -0.0533 -0.3047 -0.4844
 5555SOL    HW128124   1.735   0.848   8.970  1.7597  3.3123  2.8146
 5555SOL    HW228125   1.696   0.982   8.988 -0.9390  0.0789 -0.7963
 5556SOL     OW28126   3.600   2.215   8.656 -0.7601 -0.1706 -0.3453
 5556SOL    HW128127   3.538   2.287   8.644 -1.1816 -0.1700  1.8656
 5556SOL    HW228128   3.671   2.270   8.688 -1.1605  0.2877 -0.2318
 5557SOL     OW28129   3.861   4.255   2.516  0.6346 -0.0068  0.5341
 5557SOL    HW128130   3.910   4.337   2.515  0.3746  0.1636  1.5910
 5557SOL    HW228131   3.778   4.294   2.543  0.1276  0.0999 -1.1848
 5558SOL     OW28132   4.035   0.751   2.597  0.1013 -0.4340 -0.3017
 5558SOL    HW128133   4.101   0.748   2.528  0.8639  0.7684  0.3681
 5558SOL    HW228134   3.957   0.784   2.553  0.4196  1.0859  0.2520
 5559SOL     OW28135   4.550   3.894   3.263 -0.1712 -0.2951 -0.3417
 5559SOL    HW128136   4.468   3.854   3.237  1.0017 -2.2699 -1.0464
 5559SOL    HW228137   4.530   3.930   3.349  0.1576  0.6974 -0.6831
 5560SOL     OW28138   2.889   2.443   6.558 -0.2667  0.3162 -0.7643
 5560SOL    HW128139   2.900   2.393   6.477 -1.0828  0.1291 -0.7551
 5560SOL    HW228140   2.798   2.427   6.584  0.1065 -0.4589  0.0395
 5561SOL     OW28141   4.666   1.257   3.682  0.3909  0.1446  0.4425
 5561SOL    HW128142   0.022   1.314   3.691 -0.5465  1.5703 -0.5460
 5561SOL    HW228143   4.607   1.293   3.749  1.3518  2.1252  0.2355
 5562SOL     OW28144   0.768   1.998  12.487  0.0809 -0.0408 -0.1886
 5562SOL    HW128145   0.743   2.015  12.396 -0.5189 -0.9631 -0.1934
 5562SOL    HW228146   0.745   2.084  12.521 -2.3112 -1.0387  0.6800
 5563SOL     OW28147   3.967   0.030   7.501  0.3745 -0.2544 -0.5491
 5563SOL    HW128148   3.944   0.092   7.570  2.5630  0.1461 -0.1950
 5563SOL    HW228149   3.885   4.701   7.508  2.0029 -2.8624 -0.0731
 5564SOL     OW28150   4.073   0.772  13.648 -0.0679  0.4793 -0.0353
 5564SOL    HW128151   3.988   0.794  13.609 -0.6214  0.3282  1.0474
 5564SOL    HW228152   4.038   0.724  13.724  1.0282  1.2445  0.9498
 5565SOL     OW28153   2.640   2.086   6.818  0.1135 -0.0332 -0.0661
 5565SOL    HW128154   2.613   2.177   6.828 -0.3097 -0.1137 -0.4754
 5565SOL    HW228155   2.601   2.062   6.734 -1.0939  3.0401 -0.3776
 5566SOL     OW28156   0.644   1.091   9.376 -0.4658  0.4115  0.6678
 5566SOL    HW128157   0.681   1.042   9.303 -3.4311 -1.3470  0.3357
 5566SOL    HW228158   0.708   1.086   9.447  1.1251  2.3356 -0.6326
 5567SOL     OW28159   1.349   0.766   7.598 -0.3189  0.2544  0.1946
 5567SOL    HW128160   1.325   0.703   7.666  0.8270  0.8962  1.1863
 5567SOL    HW228161   1.434   0.732   7.570 -0.1489  0.5115  0.3967
 5568SOL     OW28162   1.233   4.480   5.353  0.6070  0.2661  0.4760
 5568SOL    HW128163   1.298   4.445   5.414  2.2150  0.9711 -0.8331
 5568SOL    HW228164   1.209   4.560   5.401  1.7783  1.2602 -0.5971
 5569SOL     OW28165   0.392   3.291   5.180 -0.1665  0.2175  0.2493
 5569SOL    HW128166   0.458   3.252   5.122  0.2722  0.0733  0.8458
 5569SOL    HW228167   0.318   3.231   5.177 -0.3154  0.4780 -1.2890
 5570SOL     OW28168   0.371   0.145   2.453 -0.2568 -0.3549 -0.5054
 5570SOL    HW128169   0.363   0.137   2.358  1.3243  0.4054 -0.7131
 5570SOL    HW228170   0.340   0.236   2.459  1.8041  0.3757 -0.8967
 5571SOL     OW28171   4.165   3.061  11.113 -0.1358 -0.3449  0.1272
 5571SOL    HW128172   4.219   3.140  11.119 -0.9208  0.0980  1.4533
 5571SOL    HW228173   4.177   3.043  11.020  2.2686  3.7450 -0.3317
 5572SOL     OW28174   3.689   0.001   3.461 -0.4232 -1.0385  0.1093
 5572SOL    HW128175   3.605   4.707   3.418 -1.0052 -1.5038  1.4148
 5572SOL    HW228176   3.686   0.096   3.472  0.6876 -0.8517 -1.1040
 5573SOL     OW28177   0.913   3.167   9.558  0.4657 -0.0080 -0.2443
 5573SOL    HW128178   0.906   3.230   9.630  2.4087 -1.8804  1.5787
 5573SOL    HW228179   0.987   3.199   9.507 -1.2946 -1.9263 -4.0526
 5574SOL     OW28180   2.454   4.300   9.035  0.5610  0.0223 -0.3395
 5574SOL    HW128181   2.463   4.277   9.127  1.5596 -0.1865 -0.4940
 5574SOL    HW228182   2.382   4.239   9.019  1.1767 -0.4012 -1.4770
 5575SOL     OW28183   3.757   0.324   3.369 -0.3892 -0.3783 -0.3131
 5575SOL    HW128184   3.750   0.319   3.274  3.0725 -0.8669 -0.5348
 5575SOL    HW228185   3.846   0.294   3.389  0.5160  0.1273 -3.5368
 5576SOL     OW28186   0.903   4.491  15.425  0.2681 -0.4913 -0.2973
 5576SOL    HW128187   0.928   4.533  15.508 -1.8863  1.4019 -0.6182
 5576SOL    HW228188   0.811   4.513  15.411  0.6687  0.1312 -1.9458
 5577SOL     OW28189   3.757   4.055   5.438  0.3255  0.6509  0.2401
 5577SOL    HW128190   3.705   4.084   5.513  1.2793 -1.2925  1.6527
 5577SOL    HW228191   3.839   4.085   5.476  0.6398 -0.6669  0.5933
 5578SOL     OW28192   0.731   3.514   8.345 -0.4051  0.0106  0.3388
 5578SOL    HW128193   0.696   3.474   8.425  3.2270 -0.4406  1.7365
 5578SOL    HW228194   0.804   3.459   8.317 -1.2368 -1.5655  1.2517
 5579SOL     OW28195   4.176   2.602   0.232  0.1449 -0.5859  0.1793
 5579SOL    HW128196   4.183   2.604   0.327  0.5133  0.2599  0.1376
 5579SOL    HW228197   4.094   2.554   0.229 -0.1877  0.1432 -2.8479
 5580SOL     OW28198   0.695   0.930   2.665  0.8095 -0.2762 -0.7154
 5580SOL    HW128199   0.663   1.017   2.692  0.6106  0.1126 -2.1766
 5580SOL    HW228200   0.736   0.883   2.737 -1.8084 -1.0344  0.2941
 5581SOL     OW28201   2.449   1.190   6.246  0.0414  0.1242 -0.1063
 5581SOL    HW128202   2.482   1.149   6.166  0.6639  1.1655 -0.3895
 5581SOL    HW228203   2.398   1.124   6.293  0.4126 -0.2676 -0.2470
 5582SOL     OW28204   4.449   0.293   3.499  0.2093  0.0656 -0.5625
 5582SOL    HW128205   4.492   0.266   3.418  2.3153  1.7006  0.0328
 5582SOL    HW228206   4.487   0.246   3.573 -1.0911  1.5227  1.0279
 5583SOL     OW28207   1.623   1.117   3.036 -0.1982  0.2014  0.1811
 5583SOL    HW128208   1.580   1.185   2.986 -1.3863 -0.6248  0.0960
 5583SOL    HW228209   1.716   1.116   3.014  0.2956 -0.2859  2.2191
 5584SOL     OW28210   0.518   0.355  12.496 -0.2872  0.7706  0.0256
 5584SOL    HW128211   0.571   0.281  12.523 -0.6346  0.3187 -0.5067
 5584SOL    HW228212   0.574   0.424  12.532  3.0137 -1.1469 -1.4374
 5585SOL     OW28213   4.574   1.972   9.818 -0.4023 -0.1701 -0.2381
 5585SOL    HW128214   4.599   2.039   9.755 -2.0402 -0.3758 -1.1287
 5585SOL    HW228215   4.659   1.931   9.833 -1.0658 -0.9667  1.3155
 5586SOL     OW28216   2.665   0.214   8.234  0.3058  0.0491  0.0722
 5586SOL    HW128217   2.648   0.229   8.141  0.1467 -2.4476 -0.3147
 5586SOL    HW228218   2.587   0.160   8.244 -0.0961  0.8981  1.4314
 5587SOL     OW28219   4.674   2.600  13.042 -0.2297  0.3454 -0.1661
 5587SOL    HW128220   0.041   2.633  13.061 -0.6582  2.2711 -1.4662
 5587SOL    HW228221   4.696   2.529  12.982 -0.8837 -0.2315  0.2850
 5588SOL     OW28222   0.043   2.824   2.752 -0.4672 -0.2956 -0.1809
 5588SOL    HW128223   0.060   2.755   2.689 -1.7821 -2.0206  1.3401
 5588SOL    HW228224   0.120   2.877   2.731 -0.6263  0.2051  0.4900
 5589SOL     OW28225   2.063   0.095   8.320  0.4512 -0.3060 -0.5071
 5589SOL    HW128226   2.064   0.078   8.414 -2.2285 -0.3753 -0.5017
 5589SOL    HW228227   1.972   0.123   8.313  1.1497  2.3278  0.9900
 5590SOL     OW28228   2.510   4.171   5.567  0.1400  0.8385 -0.0635
 5590SOL    HW128229   2.456   4.133   5.637 -0.5905 -0.5408 -1.3730
 5590SOL    HW228230   2.575   4.101   5.558  0.9251  1.5459  0.0938
 5591SOL     OW28231   4.617   2.377   2.516  0.5141  0.1076  0.2119
 5591SOL    HW128232   4.522   2.367   2.515  0.4952  0.0620  2.8411
 5591SOL    HW228233   4.641   2.329   2.437  2.7701 -1.0803  1.6235
 5592SOL     OW28234   3.079   2.033   4.178 -0.0574  0.0679  0.2112
 5592SOL    HW128235   3.149   2.079   4.132  0.4041  0.2707  1.1157
 5592SOL    HW228236   3.084   1.942   4.149 -1.2744  0.4027 -1.0631
 5593SOL     OW28237   3.015   0.975  11.441  0.1602 -0.3025  0.1677
 5593SOL    HW128238   3.033   0.983  11.535  2.0334 -2.4637  0.0012
 5593SOL    HW228239   2.922   0.997  11.445 -0.1106 -1.3134 -0.5472
 5594SOL     OW28240   2.919   1.988   0.030  0.4261 -0.2238 -0.7370
 5594SOL    HW128241   2.943   2.066   0.079 -0.0503 -0.2839 -0.4061
 5594SOL    HW228242   2.962   2.001  17.634 -1.0596 -1.0632 -1.6376
 5595SOL     OW28243   0.999   3.666   9.580  0.5646 -0.4369  0.1864
 5595SOL    HW128244   1.033   3.578   9.597 -2.0463 -1.1443  1.7329
 5595SOL    HW228245   1.081   3.713   9.598 -0.8645  2.0240  0.1585
 5596SOL     OW28246   4.655   1.870   6.839  0.2244 -0.2446  0.0101
 5596SOL    HW128247   0.012   1.894   6.889  0.3981  0.5052 -0.6327
 5596SOL    HW228248   4.628   1.794   6.891 -0.4110 -1.5273 -2.2005
 5597SOL     OW28249   1.223   1.873   9.316 -0.1912  0.0672 -0.3582
 5597SOL    HW128250   1.153   1.824   9.273  0.2502  0.7658 -1.8486
 5597SOL    HW228251   1.226   1.829   9.402 -1.4257  0.5869 -0.0477
 5598SOL     OW28252   4.046   1.903   3.981 -0.7656 -0.0705  0.4343
 5598SOL    HW128253   4.085   1.965   3.920  1.0660  1.4223  3.1247
 5598SOL    HW228254   4.052   1.948   4.065  0.2574 -0.3422  0.5099
 5599SOL     OW28255   2.859   2.126   5.863  0.5807  0.2495 -0.1173
 5599SOL    HW128256   2.918   2.201   5.872 -1.2498  1.6162  0.6037
 5599SOL    HW228257   2.913   2.049   5.846  0.9936  0.0456  2.0818
 5600SOL     OW28258   3.788   3.179   2.462 -0.2965  0.2924  0.7795
 5600SOL    HW128259   3.792   3.229   2.380 -1.3691  1.0021  1.1475
 5600SOL    HW228260   3.872   3.134   2.458 -1.1999 -1.3457  0.5989
 5601SOL     OW28261   4.143   2.536  11.826 -0.6989 -0.5415 -0.6857
 5601SOL    HW128262   4.083   2.598  11.869 -0.6924  0.6255 -2.3784
 5601SOL    HW228263   4.130   2.467  11.891  0.0376 -0.6240 -0.6284
 5602SOL     OW28264   3.537   1.582   3.431 -0.1565  0.8644  0.2248
 5602SOL    HW128265   3.619   1.602   3.476  0.5078  1.6895 -1.3491
 5602SOL    HW228266   3.561   1.521   3.361 -0.8195 -1.3044  1.8827
 5603SOL     OW28267   4.199   3.328   7.894  0.2952  0.7196 -0.2246
 5603SOL    HW128268   4.141   3.260   7.860  1.5776 -0.7678  0.5756
 5603SOL    HW228269   4.154   3.342   7.977 -0.3300  0.8526 -0.5846
 5604SOL     OW28270   1.710   1.803   9.027 -0.7373 -0.0712  0.0798
 5604SOL    HW128271   1.675   1.802   8.938 -0.2432 -0.0126 -0.1181
 5604SOL    HW228272   1.791   1.844   8.997 -0.0825  0.0525  2.0273
 5605SOL     OW28273   3.632   0.976   3.658  0.2007 -0.1240  0.3137
 5605SOL    HW128274   3.665   0.889   3.681 -2.4203 -1.2627 -0.2262
 5605SOL    HW228275   3.614   1.019   3.742  1.4516  0.6322  0.2009
 5606SOL     OW28276   4.161   2.723   9.715 -0.5487  0.1013  0.1600
 5606SOL    HW128277   4.228   2.679   9.766 -0.2120  0.7579  0.2884
 5606SOL    HW228278   4.155   2.799   9.774 -0.7499 -1.6043  2.3337
 5607SOL     OW28279   3.992   3.615  16.420 -0.2613 -0.3882  0.0630
 5607SOL    HW128280   4.042   3.541  16.387  2.0206  0.1853  2.2701
 5607SOL    HW228281   3.907   3.579  16.445 -1.2304  2.6073  1.0593
 5608SOL     OW28282   0.908   0.537   1.332 -0.3440 -0.1788 -0.2279
 5608SOL    HW128283   1.002   0.520   1.337 -0.2706  0.3348  0.2003
 5608SOL    HW228284   0.874   0.565   1.417 -1.8209  1.1082 -1.2462
 5609SOL     OW28285   0.865   2.047   1.930 -0.0487 -0.0545  0.2843
 5609SOL    HW128286   0.806   2.098   1.985 -2.0881 -0.3566 -1.6543
 5609SOL    HW228287   0.933   2.112   1.911 -0.8336  1.5163  2.7827
 5610SOL     OW28288   2.181   2.695  11.272 -0.2812 -0.1932 -0.0028
 5610SOL    HW128289   2.178   2.714  11.178 -0.6746  0.0797  0.0655
 5610SOL    HW228290   2.160   2.602  11.274  0.4133 -0.2980  1.8704
 5611SOL     OW28291   3.647   3.681   0.326  0.3432  0.1661  0.3160
 5611SOL    HW128292   3.579   3.681   0.394  0.3217 -0.0664  0.2952
 5611SOL    HW228293   3.719   3.703   0.384  2.2785  0.8833 -2.3616
 5612SOL     OW28294   0.199   4.233   8.450  0.0263  0.0565  0.0031
 5612SOL    HW128295   0.214   4.185   8.532  0.2763 -0.6759 -0.4642
 5612SOL    HW228296   0.281   4.278   8.431  0.7548 -1.2109  0.1101
 5613SOL     OW28297   2.346   0.353   9.327 -0.5430  1.1460 -0.1170
 5613SOL    HW128298   2.411   0.282   9.325 -2.3241 -0.4853 -0.2907
 5613SOL    HW228299   2.287   0.325   9.398  1.1409 -0.5167  0.6382
 5614SOL     OW28300   0.914   3.629   7.515  0.5691  0.1458 -0.0078
 5614SOL    HW128301   0.840   3.576   7.544  1.3599 -0.6926  0.5031
 5614SOL    HW228302   0.905   3.703   7.575  0.4149 -0.0050  0.1575
 5615SOL     OW28303   0.457   0.743   4.119 -0.4456 -0.6152 -0.2607
 5615SOL    HW128304   0.464   0.790   4.202 -1.3508 -3.0441  1.1880
 5615SOL    HW228305   0.485   0.820   4.069 -0.4551 -0.7579 -0.4848
 5616SOL     OW28306   2.113   0.225  13.929 -0.2188  0.1296 -0.1551
 5616SOL    HW128307   2.127   0.188  13.842 -0.1758  1.3739 -0.6840
 5616SOL    HW228308   2.026   0.263  13.914  0.2823  0.8879 -1.1475
 5617SOL     OW28309   0.777   1.013   0.734 -0.0489  0.0290 -0.1697
 5617SOL    HW128310   0.851   1.069   0.713  0.4153 -0.9039 -1.0281
 5617SOL    HW228311   0.810   0.943   0.790  0.0153  1.1089  1.1343
 5618SOL     OW28312   4.128   4.677  14.204  0.0376  0.3375 -0.1257
 5618SOL    HW128313   4.211   4.702  14.244  0.5048 -2.1683  0.5103
 5618SOL    HW228314   4.152   4.635  14.121 -1.4169  1.1715 -0.9655
 5619SOL     OW28315   3.768   1.136   3.157 -0.4078 -0.0330  0.0816
 5619SOL    HW128316   3.736   1.219   3.194 -4.4403 -0.9232 -1.4247
 5619SOL    HW228317   3.807   1.086   3.229  2.8207  0.8060 -1.1276
 5620SOL     OW28318   1.421   4.327  14.526  0.4474  0.2251  0.1508
 5620SOL    HW128319   1.479   4.281  14.587  1.6667  1.7378  0.1502
 5620SOL    HW228320   1.417   4.263  14.456 -2.1042  0.4267  0.1090
 5621SOL     OW28321   1.631   1.154   2.635 -0.0604 -0.1052 -0.0924
 5621SOL    HW128322   1.568   1.113   2.695 -1.8221 -1.8611 -3.1073
 5621SOL    HW228323   1.598   1.115   2.554 -1.3765  0.6067  0.0877
 5622SOL     OW28324   4.051   4.184   3.490  0.1243  0.6893  0.5244
 5622SOL    HW128325   4.071   4.267   3.532  2.2945  0.3033  0.2685
 5622SOL    HW228326   3.956   4.182   3.476  0.0057 -0.0980  1.4316
 5623SOL     OW28327   1.813   0.244   8.395  0.0542  0.4209 -0.7759
 5623SOL    HW128328   1.804   0.314   8.460 -1.8806  0.4190 -1.0515
 5623SOL    HW228329   1.813   0.303   8.320  0.3765  3.2428  1.4449
 5624SOL     OW28330   1.817   1.932  11.631 -0.4551 -0.3987 -0.0697
 5624SOL    HW128331   1.749   1.981  11.586 -2.7712 -2.9189  0.6712
 5624SOL    HW228332   1.761   1.865  11.671 -0.1641 -0.0442  0.9313
 5625SOL     OW28333   2.308   1.382   7.504  0.0369 -0.3160  0.5289
 5625SOL    HW128334   2.397   1.382   7.471 -0.8432 -0.1083 -1.8867
 5625SOL    HW228335   2.322   1.401   7.597  3.4504 -0.5213  0.0534
 5626SOL     OW28336   1.304   0.790  10.156  0.4802 -0.1484  0.2450
 5626SOL    HW128337   1.377   0.727  10.157  1.4024  0.8923 -1.9103
 5626SOL    HW228338   1.275   0.801  10.247 -0.1160 -1.2029  0.1746
 5627SOL     OW28339   0.025   1.062   3.405  0.6989 -0.4593  0.3158
 5627SOL    HW128340   4.721   0.978   3.442 -0.9847 -0.0532  0.1091
 5627SOL    HW228341   0.091   1.038   3.339  2.7938 -1.4624  2.7910
 5628SOL     OW28342   2.898   2.400   3.962 -0.3940  0.1313 -1.0231
 5628SOL    HW128343   2.829   2.428   4.021 -0.7997 -1.1438 -0.9033
 5628SOL    HW228344   2.923   2.323   4.012  0.8195  1.8866  1.0878
 5629SOL     OW28345   0.639   1.004   8.293 -0.2028  0.1604  0.1699
 5629SOL    HW128346   0.609   0.932   8.349 -0.2806 -0.4230 -0.6183
 5629SOL    HW228347   0.693   1.061   8.347 -0.7427  1.2375 -0.4229
 5630SOL     OW28348   0.302   3.853   1.588 -0.2411  0.6809  0.1622
 5630SOL    HW128349   0.305   3.798   1.667 -0.4990 -0.1844 -0.4277
 5630SOL    HW228350   0.393   3.883   1.587 -0.0504  0.1618  2.2593
 5631SOL     OW28351   0.913   3.719   2.888  0.1179  0.4931  0.5910
 5631SOL    HW128352   1.000   3.705   2.925  0.9509  1.6337 -0.8900
 5631SOL    HW228353   0.923   3.814   2.876 -0.1045  0.4126 -0.2640
 5632SOL     OW28354   3.733   2.976  17.661  0.4891 -0.4377  0.0406
 5632SOL    HW128355   3.723   2.886  17.630  1.6175  0.2201 -2.2035
 5632SOL    HW228356   3.738   2.968   0.068 -1.8707  1.8530  0.3663
 5633SOL     OW28357   3.405   0.842  16.761  0.3904  0.0048 -0.4738
 5633SOL    HW128358   3.340   0.781  16.796  2.3430 -3.5711 -3.0711
 5633SOL    HW228359   3.458   0.788  16.703  1.3469 -0.7465  1.1038
 5634SOL     OW28360   2.828   3.690  16.683  0.6541  0.0371 -0.3313
 5634SOL    HW128361   2.888   3.753  16.643  2.8091 -2.6639 -1.3136
 5634SOL    HW228362   2.766   3.676  16.612  2.0009 -2.1368 -1.0647
 5635SOL     OW28363   1.192   0.242   8.377  0.0146  0.2081 -0.4143
 5635SOL    HW128364   1.148   0.231   8.461 -0.1321  0.6894 -0.4275
 5635SOL    HW228365   1.283   0.254   8.404 -0.2766 -0.3457  0.7866
 5636SOL     OW28366   4.415   1.932   7.583  0.1979 -0.3595 -0.1713
 5636SOL    HW128367   4.501   1.972   7.589  0.4203 -0.8228 -0.2764
 5636SOL    HW228368   4.410   1.918   7.489 -0.6026  1.9137 -0.4841
 5637SOL     OW28369   0.729   1.141   3.277  0.6499  0.3839  0.3201
 5637SOL    HW128370   0.755   1.071   3.217 -0.4168  0.2086  0.0652
 5637SOL    HW228371   0.753   1.221   3.231  0.1484  0.1809 -0.2859
 5638SOL     OW28372   1.027   1.215   6.249  0.7054 -0.0365  0.3279
 5638SOL    HW128373   1.048   1.302   6.283 -0.0536  1.2867 -2.6351
 5638SOL    HW228374   0.943   1.233   6.207  1.7131  0.0233 -1.6561
 5639SOL     OW28375   0.734   4.020  10.879 -0.7388  0.2523 -0.0334
 5639SOL    HW128376   0.726   4.113  10.899  1.9656  0.2946  0.8768
 5639SOL    HW228377   0.807   4.000  10.938 -1.7273  3.6548  2.3262
 5640SOL     OW28378   3.041   2.589  15.669  0.3588 -0.5680  0.4123
 5640SOL    HW128379   3.116   2.530  15.674 -0.8976 -2.1201  1.0949
 5640SOL    HW228380   3.082   2.648  15.606 -2.0642  1.6618  0.9165
 5641SOL     OW28381   0.480   3.491  14.735  0.5296  0.1740  0.2038
 5641SOL    HW128382   0.416   3.526  14.797  0.6432  2.4357 -0.9485
 5641SOL    HW228383   0.564   3.518  14.772  0.6226 -0.5160  0.5062
 5642SOL     OW28384   3.236   4.371   2.783 -0.0598 -0.1348 -0.6973
 5642SOL    HW128385   3.178   4.367   2.706  0.1132  1.1926 -0.8954
 5642SOL    HW228386   3.172   4.351   2.851  1.1183  2.3768  1.1427
 5643SOL     OW28387   2.256   1.854  11.410 -0.6420  0.0419 -0.6566
 5643SOL    HW128388   2.161   1.848  11.413 -0.4186 -3.0741 -0.6111
 5643SOL    HW228389   2.255   1.942  11.449 -1.4105  0.4875 -1.7007
 5644SOL     OW28390   3.110   0.444   8.241  0.2301 -0.0241  0.3442
 5644SOL    HW128391   3.040   0.509   8.231 -0.3599 -1.2402 -3.2386
 5644SOL    HW228392   3.103   0.418   8.333  2.2615  1.7941  1.0086
 5645SOL     OW28393   2.360   2.240   2.632  0.4268  0.4045  0.4108
 5645SOL    HW128394   2.444   2.203   2.659  1.0737  1.7908  0.2825
 5645SOL    HW228395   2.384   2.240   2.540  0.4891  0.3908  0.4274
 5646SOL     OW28396   0.516   0.011   9.221  0.0847  0.1130 -0.1719
 5646SOL    HW128397   0.536   4.694   9.306 -0.8201 -1.1791 -0.5586
 5646SOL    HW228398   0.468   4.659   9.184  0.9426 -0.1798 -0.7080
 5647SOL     OW28399   3.056   1.150   2.650 -0.4829  0.3407 -0.1602
 5647SOL    HW128400   3.144   1.184   2.633 -0.1441  0.2078  1.3607
 5647SOL    HW228401   3.010   1.232   2.668 -2.0237 -0.5217 -0.1373
 5648SOL     OW28402   1.399   2.591   3.130  0.3480 -0.0347  0.0839
 5648SOL    HW128403   1.423   2.565   3.041 -2.1303  1.5772 -1.0878
 5648SOL    HW228404   1.361   2.514   3.172  0.3057 -0.5740 -0.9236
 5649SOL     OW28405   2.590   1.774   6.780 -0.2340 -0.1864  0.1092
 5649SOL    HW128406   2.577   1.841   6.848 -1.1033  0.1821 -0.4162
 5649SOL    HW228407   2.657   1.723   6.826  0.2345  1.4294  1.2350
 5650SOL     OW28408   1.019   1.028   3.528  0.0309 -0.2109 -0.5181
 5650SOL    HW128409   1.040   1.075   3.609 -2.3179  2.2419 -1.3431
 5650SOL    HW228410   1.097   1.040   3.473  0.7208  0.1393  0.5360
 5651SOL     OW28411   1.505   2.508   9.931  0.4251 -0.0428 -0.0539
 5651SOL    HW128412   1.441   2.462   9.877  0.2175 -0.2884  0.3962
 5651SOL    HW228413   1.459   2.562   9.996  0.7181  2.3488 -1.8211
 5652SOL     OW28414   4.236   3.213  16.468  0.2580  0.0143 -0.6618
 5652SOL    HW128415   4.311   3.247  16.516  0.2949 -1.8940  0.6572
 5652SOL    HW228416   4.180   3.165  16.530 -1.0396  2.1035 -0.2348
 5653SOL     OW28417   2.475   2.153   5.388  0.4169  0.1466  0.0144
 5653SOL    HW128418   2.461   2.077   5.444 -0.5533 -1.6472 -2.6701
 5653SOL    HW228419   2.479   2.106   5.305 -0.0501  0.1391 -0.0054
 5654SOL     OW28420   2.331   2.828  10.314  0.5607 -0.8300 -0.2849
 5654SOL    HW128421   2.236   2.814  10.319  0.4627 -0.4232 -1.0655
 5654SOL    HW228422   2.345   2.913  10.356  1.7864 -2.0294  1.7447
 5655SOL     OW28423   2.458   2.825   5.625  0.0240 -0.5798  0.2402
 5655SOL    HW128424   2.393   2.845   5.692 -0.7097 -0.9711 -0.3640
 5655SOL    HW228425   2.402   2.824   5.548 -1.2950  0.7560  1.1808
 5656SOL     OW28426   3.715   0.786   7.303 -0.0157 -0.2381  0.4972
 5656SOL    HW128427   3.772   0.859   7.280 -2.0217  1.1188 -0.1364
 5656SOL    HW228428   3.667   0.825   7.376 -0.7835 -2.3125  1.0937
 5657SOL     OW28429   4.087   4.249   6.508  0.2433 -0.4655 -0.0305
 5657SOL    HW128430   4.138   4.196   6.568  1.0306 -0.5354 -0.7593
 5657SOL    HW228431   4.149   4.261   6.435  0.1812  0.1776  0.0154
 5658SOL     OW28432   1.578   2.385   8.197 -0.0839 -0.2616 -0.2555
 5658SOL    HW128433   1.627   2.464   8.177 -2.0500  0.8157 -0.8484
 5658SOL    HW228434   1.566   2.404   8.290 -1.2451  0.3075 -0.5190
 5659SOL     OW28435   4.359   0.146   1.560 -0.4420 -0.9104  0.1511
 5659SOL    HW128436   4.410   0.106   1.489  0.4318  0.8279 -0.1929
 5659SOL    HW228437   4.351   0.069   1.615 -1.4612 -1.1032 -0.2592
 5660SOL     OW28438   2.694   2.867   2.371  0.3192  0.1449 -0.7832
 5660SOL    HW128439   2.655   2.948   2.340  0.2798  0.4497  0.0617
 5660SOL    HW228440   2.628   2.830   2.429 -0.2796  0.6477 -1.1545
 5661SOL     OW28441   4.336   0.711   7.165  0.1511  0.1974  0.0627
 5661SOL    HW128442   4.327   0.697   7.259  2.7342 -1.6590  0.0268
 5661SOL    HW228443   4.256   0.666   7.137 -0.7092  1.2986  0.6904
 5662SOL     OW28444   0.383   1.039   0.551  0.1668 -0.4476 -0.3757
 5662SOL    HW128445   0.450   1.097   0.585  0.2979  0.3820 -2.0203
 5662SOL    HW228446   0.350   1.083   0.472  2.0524  0.5193 -0.6226
 5663SOL     OW28447   0.338   2.126   7.640  0.0096 -0.0076  0.8181
 5663SOL    HW128448   0.285   2.048   7.625 -0.7982  1.0058 -1.5982
 5663SOL    HW228449   0.285   2.183   7.696 -0.0531  0.3992  0.3378
 5664SOL     OW28450   1.391   3.179   4.294  0.4696  0.2466 -0.3204
 5664SOL    HW128451   1.325   3.179   4.363  0.3644  1.6832 -0.4228
 5664SOL    HW228452   1.440   3.260   4.285 -0.2798  0.8371  0.9879
 5665SOL     OW28453   2.942   3.312  10.279 -0.5227  0.7684 -0.1451
 5665SOL    HW128454   2.998   3.367  10.333 -1.3438  0.1658  1.3141
 5665SOL    HW228455   2.871   3.376  10.268 -1.2884 -0.1560 -0.6228
 5666SOL     OW28456   2.413   1.157  12.200  0.5102  0.3499  0.4125
 5666SOL    HW128457   2.471   1.132  12.127 -1.4093  3.1317 -2.0378
 5666SOL    HW228458   2.412   1.250  12.177  0.2634  0.4807  0.9564
 5667SOL     OW28459   2.968   0.307   0.088  0.5266 -0.3525  0.3440
 5667SOL    HW128460   3.002   0.396   0.095  0.4186 -0.4595  2.1124
 5667SOL    HW228461   3.037   0.248   0.057  1.0239 -1.1259  2.8925
 5668SOL     OW28462   2.858   2.162   3.350 -0.2748 -0.8726 -0.5028
 5668SOL    HW128463   2.819   2.113   3.423  0.6013  2.5161  2.2474
 5668SOL    HW228464   2.910   2.092   3.310 -0.6043 -2.6836  2.1381
 5669SOL     OW28465   0.674   2.352  12.932  0.1987 -0.3198 -0.0238
 5669SOL    HW128466   0.769   2.349  12.921  0.2166  0.4455 -0.1330
 5669SOL    HW228467   0.673   2.388  13.021  2.3350  0.5162 -0.3097
 5670SOL     OW28468   3.871   1.664   3.369 -0.1931  0.7911  0.4171
 5670SOL    HW128469   3.900   1.586   3.323 -2.9156  1.5194 -2.5894
 5670SOL    HW228470   3.861   1.622   3.454  1.9355  0.0325  0.2907
 5671SOL     OW28471   0.774   3.498   6.211 -0.1688  0.0334 -0.4878
 5671SOL    HW128472   0.825   3.539   6.281  2.2976 -3.9606  0.0081
 5671SOL    HW228473   0.823   3.522   6.132  0.7732  1.0764  0.4098
 5672SOL     OW28474   3.049   3.241   2.190  0.1988  0.4759  0.4030
 5672SOL    HW128475   3.140   3.260   2.167  0.4298 -2.0151 -0.7747
 5672SOL    HW228476   3.006   3.308   2.136  0.6822  1.3920  1.1583
 5673SOL     OW28477   0.120   1.396   6.062 -0.4304 -0.0269  0.3152
 5673SOL    HW128478   0.129   1.334   6.134  0.2827 -0.1533  0.1170
 5673SOL    HW228479   0.043   1.444   6.090  1.5018  3.9871 -1.3036
 5674SOL     OW28480   3.418   3.418   8.472 -0.4629  0.1373 -0.0795
 5674SOL    HW128481   3.365   3.465   8.536  0.4090  2.8466 -1.3293
 5674SOL    HW228482   3.473   3.376   8.539  0.8103  2.3230  0.2417
 5675SOL     OW28483   1.475   2.902   4.830 -0.1843 -0.2601  0.5468
 5675SOL    HW128484   1.552   2.953   4.807  0.2048 -0.8043  0.6548
 5675SOL    HW228485   1.402   2.964   4.820 -0.2334 -0.1911  1.3380
 5676SOL     OW28486   2.100   2.646   5.797  0.2332 -0.1546  0.0917
 5676SOL    HW128487   2.191   2.618   5.799 -0.1152 -1.1602  1.6461
 5676SOL    HW228488   2.078   2.627   5.706  1.5153  1.8365 -0.6466
 5677SOL     OW28489   1.199   3.213  14.413 -0.1289  0.9483 -0.0740
 5677SOL    HW128490   1.107   3.193  14.430  0.0441  0.4723  0.3107
 5677SOL    HW228491   1.221   3.259  14.495 -2.4352  0.4692  0.8277
 5678SOL     OW28492   4.406   2.770  11.576  0.0261 -0.4089  0.4027
 5678SOL    HW128493   4.449   2.723  11.505  3.2675 -1.2446  2.8777
 5678SOL    HW228494   4.312   2.778  11.560  0.0661 -0.4074  0.1761
 5679SOL     OW28495   2.993   1.954   8.367  0.8136  0.0813  0.1803
 5679SOL    HW128496   2.907   1.911   8.370  1.6089 -1.6830 -2.6630
 5679SOL    HW228497   2.978   1.981   8.277  3.7640  0.3649 -0.2206
 5680SOL     OW28498   3.593   2.620   9.990 -0.8416  0.1801  0.3960
 5680SOL    HW128499   3.553   2.618   9.903  0.1262  1.3409 -0.0752
 5680SOL    HW228500   3.533   2.567  10.042  0.7570 -0.5179  1.5575
 5681SOL     OW28501   2.986   1.554   6.821 -0.7115  0.0301  0.5175
 5681SOL    HW128502   2.892   1.541   6.832 -0.4966 -1.3034  0.8411
 5681SOL    HW228503   2.993   1.573   6.727 -0.8465 -4.5824 -0.4491
 5682SOL     OW28504   1.931   0.068  16.507  0.2939  0.4604  0.2712
 5682SOL    HW128505   1.894   0.038  16.425  2.3157 -1.9207  0.2243
 5682SOL    HW228506   2.024   0.077  16.484  0.5085 -1.9147  0.2490
 5683SOL     OW28507   2.988   2.488   3.274  0.4501  0.5819 -0.3802
 5683SOL    HW128508   2.972   2.425   3.205 -1.4159  0.3856  0.2087
 5683SOL    HW228509   3.034   2.426   3.330 -0.6212  1.3987  1.4516
 5684SOL     OW28510   2.746   4.060   4.634 -0.3596  0.4269 -0.4780
 5684SOL    HW128511   2.786   4.113   4.565  1.8007  1.0281  1.2432
 5684SOL    HW228512   2.655   4.069   4.605 -0.4627  0.5782 -0.1040
 5685SOL     OW28513   1.457   3.011   5.238  0.0432  0.0979 -0.8187
 5685SOL    HW128514   1.550   2.999   5.256 -0.3296 -2.6705 -0.7287
 5685SOL    HW228515   1.420   3.024   5.325 -0.6776  0.8360 -1.2333
 5686SOL     OW28516   2.167   3.214   7.634 -0.5523 -0.1436  0.2503
 5686SOL    HW128517   2.238   3.154   7.609  0.1485 -0.1581  2.2329
 5686SOL    HW228518   2.092   3.155   7.644  0.9417 -2.2292 -0.8203
 5687SOL     OW28519   1.276   1.891   6.747 -0.2569  0.1459  0.5292
 5687SOL    HW128520   1.317   1.974   6.771 -3.3528  2.3561 -1.7644
 5687SOL    HW228521   1.183   1.907   6.764 -0.3590  0.9814 -0.8782
 5688SOL     OW28522   1.935   1.329  10.397 -0.3041  0.7730  0.2762
 5688SOL    HW128523   1.942   1.400  10.461  1.2116  0.3391  0.5735
 5688SOL    HW228524   2.028   1.332  10.374 -0.1932  0.7951  0.7421
 5689SOL     OW28525   3.414   2.933   7.064  0.0948 -0.2731  0.2586
 5689SOL    HW128526   3.424   2.848   7.108  1.8663 -1.3739 -2.2395
 5689SOL    HW228527   3.440   2.906   6.976 -0.7351 -0.3419  0.0356
 5690SOL     OW28528   3.532   2.800   3.033  0.7094  0.2417 -0.3782
 5690SOL    HW128529   3.451   2.784   3.082  1.8544  2.3845  2.2110
 5690SOL    HW228530   3.532   2.714   2.991  0.0426  0.7134 -1.3417
 5691SOL     OW28531   1.526   2.204   0.356 -0.5003  1.0684  0.0456
 5691SOL    HW128532   1.445   2.153   0.361 -0.0845  0.3574 -0.3785
 5691SOL    HW228533   1.500   2.268   0.423 -0.0856  2.2987 -0.9687
 5692SOL     OW28534   2.697   4.092  11.210 -0.6262  0.3066 -0.0889
 5692SOL    HW128535   2.662   4.003  11.212 -2.5054  1.1138  2.6103
 5692SOL    HW228536   2.643   4.143  11.271 -3.5481  0.6154 -2.9610
 5693SOL     OW28537   3.877   0.219   7.708 -0.3259 -0.1433  0.0141
 5693SOL    HW128538   3.895   0.258   7.793 -0.5972  0.5195 -0.2293
 5693SOL    HW228539   3.784   0.198   7.718 -0.6154  0.2301 -1.9984
 5694SOL     OW28540   4.528   2.151  13.622  0.1327 -0.2630 -0.3050
 5694SOL    HW128541   4.511   2.118  13.534  2.1798 -1.4271 -0.2861
 5694SOL    HW228542   4.607   2.108  13.656  0.3952  0.5580  0.1199
 5695SOL     OW28543   3.902   4.013  10.271  0.1286  0.2931 -0.0985
 5695SOL    HW128544   3.871   4.092  10.316 -1.0537 -0.3300  0.1810
 5695SOL    HW228545   3.899   4.041  10.180 -0.0393 -0.4678 -0.3218
 5696SOL     OW28546   3.400   4.687   7.296  0.5202  0.9080  0.1762
 5696SOL    HW128547   3.349   4.658   7.372  0.3099  1.0992  0.1071
 5696SOL    HW228548   3.489   4.660   7.321  0.5866  2.4397  1.6012
 5697SOL     OW28549   0.459   2.407   2.869  0.1028 -0.0350 -0.1193
 5697SOL    HW128550   0.476   2.337   2.933  0.6893  0.3356  0.1241
 5697SOL    HW228551   0.504   2.480   2.910 -1.5092  0.8476  0.0932
 5698SOL     OW28552   3.214   1.649   4.296  0.0060  0.0363  0.5957
 5698SOL    HW128553   3.130   1.656   4.251  0.3919  1.7006  0.1351
 5698SOL    HW228554   3.182   1.608   4.376 -0.2976 -0.8240  0.0335
 5699SOL     OW28555   2.734   2.722   8.528  0.0229  0.5369  0.3853
 5699SOL    HW128556   2.688   2.657   8.473  0.2685  0.5541  0.1593
 5699SOL    HW228557   2.733   2.676   8.612 -0.6348  0.3482  0.2752
 5700SOL     OW28558   2.742   0.618   7.915 -0.3495  0.3623  0.0823
 5700SOL    HW128559   2.768   0.581   7.999 -1.0134  1.1708  0.6353
 5700SOL    HW228560   2.796   0.697   7.909 -0.8510  0.8769  2.6571
 5701SOL     OW28561   4.020   1.130   4.221  0.1639  0.6537 -0.6956
 5701SOL    HW128562   4.092   1.107   4.163  2.5009 -0.4565  2.7219
 5701SOL    HW228563   3.979   1.200   4.169 -1.5301  0.1608 -0.0252
 5702SOL     OW28564   2.927   3.325  15.665 -0.2902 -1.0034  0.1431
 5702SOL    HW128565   2.889   3.335  15.577 -0.1325 -0.9983  0.0744
 5702SOL    HW228566   2.896   3.412  15.691 -2.3814 -1.5124 -0.6658
 5703SOL     OW28567   3.002   4.240   4.015  0.5524 -0.3147 -0.0209
 5703SOL    HW128568   2.970   4.157   3.978  1.9963 -1.2326  0.8186
 5703SOL    HW228569   3.095   4.238   3.995  0.4439 -0.4839 -0.5102
 5704SOL     OW28570   1.144   4.596   4.661  0.1412  0.2188  0.0703
 5704SOL    HW128571   1.143   4.691   4.668 -2.2783  0.0727  1.7920
 5704SOL    HW228572   1.073   4.583   4.597 -0.4111  0.7322  0.5802
 5705SOL     OW28573   0.287   1.248   1.942  0.6129  0.0689  0.2967
 5705SOL    HW128574   0.381   1.254   1.960  1.0707  1.2364 -2.4646
 5705SOL    HW228575   0.276   1.325   1.887  4.8076  0.9326  0.6125
 5706SOL     OW28576   4.639   2.675   4.518 -0.4217 -0.1727  0.0664
 5706SOL    HW128577   4.626   2.759   4.562 -0.4008 -0.8057  1.2813
 5706SOL    HW228578   4.572   2.677   4.450 -1.8931  0.7262  1.5485
 5707SOL     OW28579   4.577   3.876   7.629  0.2227 -0.0046 -0.1190
 5707SOL    HW128580   4.529   3.798   7.657  2.5150 -2.0731 -1.8915
 5707SOL    HW228581   4.641   3.833   7.572 -0.4808 -0.2267 -0.7362
 5708SOL     OW28582   0.119   1.523   8.334 -0.1831  0.4543 -0.0429
 5708SOL    HW128583   0.041   1.531   8.279 -1.8793 -0.4697  2.2325
 5708SOL    HW228584   0.135   1.617   8.341 -2.1054  0.7523  0.3780
 5709SOL     OW28585   1.258   0.899   6.944  0.2444  0.1319  0.6643
 5709SOL    HW128586   1.234   0.913   6.853  1.8227 -0.5243  0.1436
 5709SOL    HW228587   1.177   0.890   6.994  0.2672 -1.8371  0.3514
 5710SOL     OW28588   3.095   0.972   0.026  0.6211  0.1813  0.8575
 5710SOL    HW128589   3.090   1.043   0.089  0.2483 -0.2924  1.3647
 5710SOL    HW228590   3.161   0.919   0.070  0.2245 -0.3319  0.8361
 5711SOL     OW28591   3.092   2.711   2.627  0.2143 -0.1639 -0.3735
 5711SOL    HW128592   3.026   2.720   2.558 -1.4559  1.0218  1.3947
 5711SOL    HW228593   3.140   2.637   2.590  2.4417  0.1597  1.8802
 5712SOL     OW28594   1.264   1.898   8.603 -0.0834  0.2151  0.6355
 5712SOL    HW128595   1.238   1.921   8.692 -0.0438  2.4164  0.0983
 5712SOL    HW228596   1.279   1.805   8.615 -1.2807  0.1447  1.6233
 5713SOL     OW28597   3.276   2.400   5.240  0.3400 -0.1227 -0.2225
 5713SOL    HW128598   3.215   2.336   5.276 -1.7496  1.9821 -0.0317
 5713SOL    HW228599   3.331   2.429   5.313 -0.1889 -0.7798  0.4379
 5714SOL     OW28600   3.316   1.456  13.315  0.6251 -0.0711  0.1384
 5714SOL    HW128601   3.306   1.487  13.405  2.8485  1.6366 -0.2015
 5714SOL    HW228602   3.379   1.519  13.281  0.1264 -0.0338 -0.7050
 5715SOL     OW28603   0.808   2.677   8.838  0.3613  0.3476  0.3406
 5715SOL    HW128604   0.797   2.599   8.784 -0.1036 -0.3131  1.3898
 5715SOL    HW228605   0.855   2.643   8.914  2.3428  0.8333 -0.6556
 5716SOL     OW28606   0.570   2.103  12.251  0.1455  0.1038 -0.2741
 5716SOL    HW128607   0.492   2.074  12.204 -1.3641  2.2724  0.8992
 5716SOL    HW228608   0.578   2.190  12.213  0.3192  0.3057  0.2256
 5717SOL     OW28609   2.085   2.985   4.484 -0.0754  0.0733 -0.2109
 5717SOL    HW128610   1.994   2.996   4.513 -0.7960 -1.6974 -1.8016
 5717SOL    HW228611   2.126   3.056   4.534  0.3013 -1.1910  1.2800
 5718SOL     OW28612   4.110   3.895  11.524 -0.2913 -0.2871  0.1804
 5718SOL    HW128613   4.170   3.886  11.598 -2.2103 -2.6465  1.4707
 5718SOL    HW228614   4.027   3.896  11.573 -0.1479  0.8535  0.4021
 5719SOL     OW28615   2.869   2.619   2.955 -0.5726  0.0112  0.6580
 5719SOL    HW128616   2.833   2.658   3.035 -0.0137  1.1655  0.3372
 5719SOL    HW228617   2.842   2.527   2.954  2.3911 -0.8627  2.8458
 5720SOL     OW28618   1.751   0.668   2.267  0.4572  0.0592  0.5911
 5720SOL    HW128619   1.657   0.655   2.255  0.5079 -2.3251  2.9375
 5720SOL    HW228620   1.784   0.658   2.178 -2.8188 -1.5160 -0.4313
 5721SOL     OW28621   0.151   4.263   6.516  0.1443 -0.2682 -0.1205
 5721SOL    HW128622   0.212   4.281   6.445  0.2141  0.9977  0.2608
 5721SOL    HW228623   0.209   4.302   6.581  0.9179 -0.8523 -0.4586
 5722SOL     OW28624   2.720   0.641   7.521  0.4289 -0.2770  0.2695
 5722SOL    HW128625   2.643   0.679   7.563  0.1560 -0.7531  0.2027
 5722SOL    HW228626   2.685   0.638   7.432  0.7971  0.1497  0.1133
 5723SOL     OW28627   2.737   3.297  10.940 -0.9940 -0.0509  0.2073
 5723SOL    HW128628   2.697   3.360  11.000  0.1505 -1.9865  2.9999
 5723SOL    HW228629   2.724   3.347  10.860 -0.4071  0.8648  0.6859
 5724SOL     OW28630   4.183   2.125  12.911 -0.5196 -0.2378  0.2590
 5724SOL    HW128631   4.259   2.068  12.900 -0.3194  0.0385  0.2235
 5724SOL    HW228632   4.116   2.080  12.859  0.9860 -0.6023 -1.3638
 5725SOL     OW28633   2.781   2.587   3.522  0.0695 -0.2594  0.1773
 5725SOL    HW128634   2.712   2.522   3.505 -0.6501  1.1388 -2.2588
 5725SOL    HW228635   2.850   2.548   3.468  1.3565 -2.6546  3.5781
 5726SOL     OW28636   1.910   3.527  17.565  0.5760 -0.1458 -0.5997
 5726SOL    HW128637   1.993   3.569  17.542  1.0718 -1.7504 -1.7229
 5726SOL    HW228638   1.924   3.522  17.660 -2.2961  0.7493 -0.1120
 5727SOL     OW28639   1.834   1.301   2.106 -0.2503 -0.6255  0.0235
 5727SOL    HW128640   1.924   1.271   2.094  0.9964  2.7218  0.9410
 5727SOL    HW228641   1.799   1.220   2.143  0.8348 -0.5817  1.1701
 5728SOL     OW28642   2.236   4.579   1.904 -0.1504 -0.5346  0.1309
 5728SOL    HW128643   2.183   4.610   1.831 -0.3693 -1.4539 -0.0953
 5728SOL    HW228644   2.287   4.656   1.931  1.5649 -1.2193 -1.1254
 5729SOL     OW28645   4.593   3.361   0.240 -0.1468 -0.1812 -0.1253
 5729SOL    HW128646   4.503   3.334   0.221 -0.9943  2.8929 -0.4883
 5729SOL    HW228647   4.585   3.376   0.334  1.2465 -1.0428  0.1377
 5730SOL     OW28648   3.274   2.163   2.553 -0.3625 -0.4227  0.1157
 5730SOL    HW128649   3.331   2.186   2.626  0.5662 -0.3123 -0.6428
 5730SOL    HW228650   3.339   2.114   2.503 -0.4222 -0.4581  0.0722
 5731SOL     OW28651   1.015   2.803   2.624 -0.0846  0.0886  0.2711
 5731SOL    HW128652   0.920   2.794   2.622  0.0885 -1.7509  0.1005
 5731SOL    HW228653   1.026   2.896   2.607  0.8125 -0.2751 -1.1543
 5732SOL     OW28654   0.077   3.459   7.124  0.0441  0.7415  0.0687
 5732SOL    HW128655   0.096   3.374   7.164  1.1850  0.1810 -1.6760
 5732SOL    HW228656   0.006   3.491   7.180 -0.2990 -0.9312  0.5908
 5733SOL     OW28657   3.168   2.554   8.702 -0.0622  0.3936  0.1662
 5733SOL    HW128658   3.141   2.542   8.793 -4.3114  0.1450 -1.1197
 5733SOL    HW228659   3.191   2.647   8.698 -2.0588  0.8200 -1.1039
 5734SOL     OW28660   3.217   2.956  10.838  0.3039  0.6387  0.0117
 5734SOL    HW128661   3.275   2.881  10.851 -1.3158 -0.4448  0.9803
 5734SOL    HW228662   3.172   2.943  10.754 -0.4941 -2.2808  0.9124
 5735SOL     OW28663   4.089   2.954   4.434 -0.0625 -0.4283  0.5525
 5735SOL    HW128664   4.027   2.892   4.473 -1.1388  1.4730  1.9114
 5735SOL    HW228665   4.029   3.014   4.389 -2.4611 -1.4172  2.4249
 5736SOL     OW28666   3.150   0.697  10.205 -0.3544  0.3290  1.5549
 5736SOL    HW128667   3.141   0.668  10.114  0.0201  0.7031  1.3976
 5736SOL    HW228668   3.213   0.766  10.186 -1.0460  0.3711 -0.6394
 5737SOL     OW28669   1.209   3.936   7.782  0.1367  0.4824  0.1779
 5737SOL    HW128670   1.185   3.846   7.761  0.6510  0.5954 -0.8876
 5737SOL    HW228671   1.153   3.988   7.725 -0.4308  0.0836  0.3773
 5738SOL     OW28672   3.318   2.227   6.932 -0.0769 -0.4200  0.1354
 5738SOL    HW128673   3.399   2.277   6.915 -0.7874  1.2362  1.5588
 5738SOL    HW228674   3.262   2.303   6.949  1.1505  0.1791  1.5226
 5739SOL     OW28675   3.008   4.667  14.248  0.2485  0.4434 -0.0541
 5739SOL    HW128676   2.941   4.716  14.200  0.3093  0.0845 -0.5031
 5739SOL    HW228677   2.996   4.697  14.338 -1.5253  0.1091 -0.1829
 5740SOL     OW28678   0.556   2.441   0.628  0.0562  0.0955 -0.2899
 5740SOL    HW128679   0.493   2.468   0.695  0.0853 -0.9693  0.1598
 5740SOL    HW228680   0.594   2.529   0.624  1.8417 -0.8352 -3.4691
 5741SOL     OW28681   1.498   0.576   2.192  0.5290 -0.5996 -0.4224
 5741SOL    HW128682   1.524   0.485   2.205 -1.4114 -1.2265 -1.0140
 5741SOL    HW228683   1.456   0.572   2.106 -2.9772 -0.9916  1.3389
 5742SOL     OW28684   1.411   0.504   8.783 -0.6327  0.2018 -0.7800
 5742SOL    HW128685   1.480   0.458   8.830 -1.4713  0.8480  1.0538
 5742SOL    HW228686   1.450   0.589   8.765  0.6946 -0.3641 -0.5739
 5743SOL     OW28687   1.634   4.591  14.588 -0.4918 -0.3457  0.0077
 5743SOL    HW128688   1.641   4.495  14.585 -0.8550 -0.3672 -0.2217
 5743SOL    HW228689   1.618   4.614  14.680  0.9831  0.7916 -0.0407
 5744SOL     OW28690   3.390   0.788   7.102  0.0061 -0.1576 -0.2155
 5744SOL    HW128691   3.347   0.809   7.019  1.1553  0.3002 -0.6961
 5744SOL    HW228692   3.455   0.859   7.105  0.5504 -0.6150 -0.9364
 5745SOL     OW28693   3.232   1.102  13.537 -0.4698  0.2229  0.1989
 5745SOL    HW128694   3.207   1.019  13.578  1.5156 -0.6778 -0.4426
 5745SOL    HW228695   3.260   1.079  13.448 -1.8702  2.8289 -0.9101
 5746SOL     OW28696   1.272   3.674   4.256  0.3716 -0.1172 -0.0299
 5746SOL    HW128697   1.203   3.740   4.267  0.9920  0.4925  0.2343
 5746SOL    HW228698   1.238   3.605   4.199 -1.3333  0.8423 -0.1611
 5747SOL     OW28699   4.460   0.937   6.255 -0.8718  0.2467  0.3478
 5747SOL    HW128700   4.452   0.886   6.336  1.2568 -0.7772 -0.1006
 5747SOL    HW228701   4.412   0.873   6.202  1.2379 -2.8296  2.1642
 5748SOL     OW28702   0.698   3.526  10.368 -0.3789  0.6394  0.0608
 5748SOL    HW128703   0.716   3.589  10.297  1.1671  0.0195 -0.1062
 5748SOL    HW228704   0.603   3.526  10.370 -0.3366  0.4746  1.5896
 5749SOL     OW28705   1.678   4.018  15.447 -0.2646 -0.1214  0.0582
 5749SOL    HW128706   1.588   4.023  15.417 -0.4172 -0.0247  0.5239
 5749SOL    HW228707   1.696   3.932  15.409  2.4236  0.1804  0.6155
 5750SOL     OW28708   4.644   2.283  17.125 -0.3018 -0.1989 -0.0578
 5750SOL    HW128709   4.714   2.221  17.147  1.4700  0.9251 -2.4859
 5750SOL    HW228710   4.671   2.357  17.180 -1.4613  1.0147 -1.1104
 5751SOL     OW28711   1.444   3.423   2.513 -0.3841  0.2462 -0.3592
 5751SOL    HW128712   1.472   3.364   2.583  0.1970  1.2929  0.2854
 5751SOL    HW228713   1.349   3.426   2.520 -0.4290  0.3229 -1.0323
 5752SOL     OW28714   2.536   3.702   5.550 -0.5597  0.5959 -0.4660
 5752SOL    HW128715   2.593   3.777   5.565 -1.8629  2.3012 -4.1007
 5752SOL    HW228716   2.473   3.710   5.621  0.0903 -5.0141  0.7521
 5753SOL     OW28717   0.784   3.969  13.551 -0.4677  0.1897 -0.5200
 5753SOL    HW128718   0.699   4.011  13.545 -0.0633  1.3272  1.6220
 5753SOL    HW228719   0.774   3.901  13.618  1.4189 -0.7006 -1.1403
 5754SOL     OW28720   0.579   3.573   8.111  0.5667 -0.2150  0.0753
 5754SOL    HW128721   0.522   3.650   8.106  0.5051 -0.3356 -1.1000
 5754SOL    HW228722   0.588   3.561   8.205  1.6284  0.1897  0.0312
 5755SOL     OW28723   3.870   3.889   0.921 -0.5844  0.5636 -0.0777
 5755SOL    HW128724   3.895   3.941   0.997 -1.6659  0.7344  0.1611
 5755SOL    HW228725   3.900   3.806   0.956 -2.4817 -0.2767 -0.4106
 5756SOL     OW28726   0.043   2.526   8.739 -0.4056 -0.0854 -0.0587
 5756SOL    HW128727   0.024   2.487   8.824 -0.4256 -0.3322 -0.1768
 5756SOL    HW228728   4.689   2.579   8.713  0.3746  1.1400  0.2062
 5757SOL     OW28729   1.149   2.157   1.244 -0.3153 -0.2397 -0.1361
 5757SOL    HW128730   1.181   2.078   1.288  1.9647  1.6364  1.5843
 5757SOL    HW228731   1.058   2.160   1.273 -1.1587  0.0651 -2.8485
 5758SOL     OW28732   1.421   3.997  12.672 -0.5052  0.1271 -0.0002
 5758SOL    HW128733   1.438   4.007  12.766 -1.3647  1.3829  0.0260
 5758SOL    HW228734   1.500   4.034  12.633 -1.6499  1.8776 -0.6894
 5759SOL     OW28735   2.608   4.092   9.870  0.0808  0.1643  0.5967
 5759SOL    HW128736   2.692   4.058   9.900 -1.5393 -1.2304  3.6246
 5759SOL    HW228737   2.604   4.177   9.916  3.1302  0.9526 -0.6142
 5760SOL     OW28738   1.706   2.468   9.287 -0.4997 -0.1494  0.1149
 5760SOL    HW128739   1.715   2.448   9.380  0.7012 -0.7897 -0.1407
 5760SOL    HW228740   1.741   2.557   9.286 -0.8935 -0.0050 -1.5010
 5761SOL     OW28741   2.419   2.314   6.782  0.7705  0.1827 -0.5877
 5761SOL    HW128742   2.351   2.283   6.722 -0.7826 -0.2471  1.3862
 5761SOL    HW228743   2.362   2.350   6.850 -0.6125 -1.2122 -1.0032
 5762SOL     OW28744   3.086   2.023   7.666 -0.6405 -0.6010  0.2788
 5762SOL    HW128745   3.059   2.017   7.758  1.2558 -0.3379  0.8598
 5762SOL    HW228746   3.142   2.100   7.666 -0.9431 -0.3810  1.0239
 5763SOL     OW28747   1.816   3.474   8.772 -0.5796 -0.3793  0.6053
 5763SOL    HW128748   1.778   3.386   8.766 -2.0864  0.2645  0.6083
 5763SOL    HW228749   1.782   3.498   8.858  0.3496  2.4996  0.1694
 5764SOL     OW28750   3.040   3.413   7.299 -0.5386  0.0173 -0.7019
 5764SOL    HW128751   3.084   3.356   7.362 -0.8943  0.2481 -0.2384
 5764SOL    HW228752   2.953   3.377   7.281 -0.4250  0.3695 -1.9155
 5765SOL     OW28753   2.713   0.431   5.184 -0.0698  0.0047 -0.4187
 5765SOL    HW128754   2.627   0.406   5.218  0.0986 -0.0035  0.0030
 5765SOL    HW228755   2.713   0.526   5.187 -0.2329 -0.0597  1.8205
 5766SOL     OW28756   0.466   3.975   8.623 -0.1808  0.3839  0.2634
 5766SOL    HW128757   0.407   4.043   8.655 -1.1784 -0.1933 -0.3417
 5766SOL    HW228758   0.421   3.957   8.541 -0.9825 -1.2526  1.0587
 5767SOL     OW28759   4.615   2.817   9.216 -0.7375 -0.0437 -0.3651
 5767SOL    HW128760   4.570   2.821   9.301  0.3368  0.0969  0.2044
 5767SOL    HW228761   4.662   2.900   9.223  0.1829 -0.5594 -0.5030
 5768SOL     OW28762   0.564   2.303  17.167 -0.5982  0.0682  0.0959
 5768SOL    HW128763   0.470   2.301  17.152 -0.5072 -0.1356 -0.4616
 5768SOL    HW228764   0.571   2.376  17.229 -1.3372  0.5818 -0.4350
 5769SOL     OW28765   2.452   0.462   7.118  0.1338 -0.1689 -0.1312
 5769SOL    HW128766   2.547   0.460   7.113  0.1204 -2.3986  0.7029
 5769SOL    HW228767   2.428   0.532   7.058 -0.0569  0.0901  0.2489
 5770SOL     OW28768   3.187   0.585   2.720  0.2486  0.5885 -0.0481
 5770SOL    HW128769   3.118   0.599   2.655 -0.1161 -0.6694  0.0850
 5770SOL    HW228770   3.188   0.671   2.763  1.4362  0.8685 -0.6367
 5771SOL     OW28771   0.977   1.851  12.119  0.2723  0.0291 -0.0133
 5771SOL    HW128772   0.939   1.936  12.100 -0.0848 -0.6143 -2.1152
 5771SOL    HW228773   1.045   1.876  12.181  0.5589  1.8599 -1.0927
 5772SOL     OW28774   0.832   3.964   2.747  0.1598 -0.1449 -0.2346
 5772SOL    HW128775   0.886   4.006   2.680  0.0356 -1.2005 -0.9991
 5772SOL    HW228776   0.793   3.896   2.693 -2.3507  0.4593  0.8319
 5773SOL     OW28777   3.404   3.921   2.513  0.0643 -0.3168  0.0547
 5773SOL    HW128778   3.332   3.898   2.453  0.9167 -2.9840  0.0435
 5773SOL    HW228779   3.354   3.974   2.575 -1.0893  1.1463 -2.1277
 5774SOL     OW28780   0.445   2.493   3.207 -0.6917  0.1210 -0.2951
 5774SOL    HW128781   0.378   2.546   3.250 -0.2751 -0.7552  1.4477
 5774SOL    HW228782   0.391   2.432   3.157 -0.3335  0.7661 -1.4860
 5775SOL     OW28783   2.259   4.659  11.741 -0.2164  0.2527 -0.7359
 5775SOL    HW128784   2.332   4.607  11.710  0.0829  0.4029 -0.2773
 5775SOL    HW228785   2.195   4.666  11.670 -2.4731 -1.1676  1.1464
 5776SOL     OW28786   3.606   2.730   6.571 -0.5139 -0.0401  0.0997
 5776SOL    HW128787   3.587   2.779   6.491  0.2655 -0.2331 -0.2083
 5776SOL    HW228788   3.560   2.788   6.631 -1.2639 -0.1463 -0.3728
 5777SOL     OW28789   0.413   2.956  12.979 -0.9718  0.0700  0.0238
 5777SOL    HW128790   0.361   2.937  12.901 -0.8313  3.0217 -0.7936
 5777SOL    HW228791   0.391   2.883  13.036  1.2841  0.0942  0.9230
 5778SOL     OW28792   0.705   0.573  10.705  0.0004  0.6026 -0.1538
 5778SOL    HW128793   0.714   0.631  10.629 -1.9838  0.9065 -0.1589
 5778SOL    HW228794   0.765   0.502  10.683 -0.8878 -0.1691 -0.0526
 5779SOL     OW28795   3.852   2.024   2.387 -0.3659 -0.9391  0.0819
 5779SOL    HW128796   3.942   1.996   2.401 -0.0436 -0.3528 -0.8331
 5779SOL    HW228797   3.825   2.033   2.478 -1.3240  1.7346 -0.4704
 5780SOL     OW28798   4.187   4.344   0.573 -0.4207 -0.5064 -0.5628
 5780SOL    HW128799   4.165   4.272   0.514 -0.3566 -0.0689 -1.1223
 5780SOL    HW228800   4.254   4.390   0.523  1.7090 -0.4152  2.3875
 5781SOL     OW28801   3.781   0.456   3.926 -0.6152 -0.0890 -0.5392
 5781SOL    HW128802   3.824   0.384   3.880  0.0123  0.4443 -0.7775
 5781SOL    HW228803   3.846   0.494   3.985 -1.2258  1.5797 -0.9566
 5782SOL     OW28804   0.330   2.392   4.598  0.1998  0.2125 -0.4043
 5782SOL    HW128805   0.383   2.436   4.531  1.6577  0.3452  0.8396
 5782SOL    HW228806   0.315   2.467   4.656 -0.4117 -1.0901  1.1019
 5783SOL     OW28807   2.139   1.163   4.544  0.2262  0.1684  0.6591
 5783SOL    HW128808   2.222   1.116   4.538  0.8906  1.4892 -0.6409
 5783SOL    HW228809   2.143   1.242   4.489 -0.9120  1.0699  1.8803
 5784SOL     OW28810   2.346   2.547  14.502  0.0523 -0.3528  0.4455
 5784SOL    HW128811   2.394   2.629  14.494  2.2093 -1.7565 -0.7368
 5784SOL    HW228812   2.328   2.526  14.410  1.5610 -0.0074  0.0777
 5785SOL     OW28813   3.493   1.894   4.882  0.1372 -1.0147  0.6040
 5785SOL    HW128814   3.399   1.901   4.864  0.0068 -1.4909  1.1012
 5785SOL    HW228815   3.529   1.911   4.795  0.6068 -0.4227  0.9196
 5786SOL     OW28816   3.119   3.332   6.470  0.1270  0.2835  0.2043
 5786SOL    HW128817   3.026   3.355   6.471 -0.3909 -1.8068  0.2718
 5786SOL    HW228818   3.122   3.262   6.405  1.4034  1.3103 -0.8314
 5787SOL     OW28819   0.732   4.680   7.514  0.1033 -0.0833 -0.6161
 5787SOL    HW128820   0.706   0.044   7.480  2.5196  0.4848 -1.0018
 5787SOL    HW228821   0.819   4.701   7.546  0.4728 -1.0276 -0.9827
 5788SOL     OW28822   4.247   3.057   4.168  0.0801  0.2120  0.1696
 5788SOL    HW128823   4.339   3.048   4.146 -0.5126  1.0644 -2.6274
 5788SOL    HW228824   4.241   3.145   4.205 -0.5935  0.2230  0.0488
 5789SOL     OW28825   0.541   3.549   1.884  0.0635  0.0798 -0.0964
 5789SOL    HW128826   0.635   3.562   1.896  0.4040 -0.8165 -1.7849
 5789SOL    HW228827   0.523   3.620   1.822  0.7281 -0.4286 -0.8630
 5790SOL     OW28828   1.542   1.446   2.129  0.2062 -0.6933  0.2633
 5790SOL    HW128829   1.528   1.366   2.079  1.2413  0.0263 -1.1991
 5790SOL    HW228830   1.635   1.426   2.140 -0.4663 -1.4342  4.2965
 5791SOL     OW28831   1.685   1.979   5.272 -0.6721  0.5729 -0.0470
 5791SOL    HW128832   1.759   1.919   5.282  0.1853  1.4836 -0.9702
 5791SOL    HW228833   1.727   2.063   5.290 -0.0868  0.0911  0.8382
 5792SOL     OW28834   2.774   2.791   5.261 -0.0706  0.0704  0.1697
 5792SOL    HW128835   2.713   2.821   5.193 -1.0029 -1.3478  0.3615
 5792SOL    HW228836   2.810   2.876   5.284 -0.0969 -0.2627  1.4105
 5793SOL     OW28837   1.418   4.325   9.023 -0.1044 -0.3187 -0.4667
 5793SOL    HW128838   1.438   4.415   9.051 -0.0953 -0.6101  0.4525
 5793SOL    HW228839   1.327   4.313   9.048  0.0933  2.3751  1.5374
 5794SOL     OW28840   3.392   0.361   3.348 -0.1098  0.0839  0.2370
 5794SOL    HW128841   3.390   0.440   3.401  1.1214 -0.3972  1.0053
 5794SOL    HW228842   3.380   0.393   3.258  0.4316 -1.9728 -0.5738
 5795SOL     OW28843   3.909   4.418   6.997 -0.4633  0.0869  0.0343
 5795SOL    HW128844   3.838   4.480   6.980 -0.3475  0.0193 -0.6938
 5795SOL    HW228845   3.909   4.370   6.914  0.1654  1.5846 -0.8186
 5796SOL     OW28846   0.587   3.226   6.027 -0.2353 -0.8301 -0.0911
 5796SOL    HW128847   0.532   3.296   5.989  0.3574 -0.2553  0.1131
 5796SOL    HW228848   0.514   3.170   6.054 -1.1000 -0.3577 -1.3995
 5797SOL     OW28849   0.550   0.399   5.268  0.3623  0.2289  0.0232
 5797SOL    HW128850   0.579   0.485   5.236  1.0100 -0.1734 -0.4676
 5797SOL    HW228851   0.456   0.401   5.253  0.0480 -2.1477  1.7742
 5798SOL     OW28852   1.139   4.647  14.328  0.0095 -0.1367  0.1281
 5798SOL    HW128853   1.099   4.599  14.400 -1.5022  0.4306 -0.3425
 5798SOL    HW228854   1.226   4.611  14.344  1.1839  1.3762 -2.8115
 5799SOL     OW28855   2.364   3.920   4.229 -0.2609  0.3912  0.1008
 5799SOL    HW128856   2.451   3.929   4.266  1.1808 -1.3238 -2.8789
 5799SOL    HW228857   2.306   3.960   4.294  0.5058  0.7733  0.5419
 5800SOL     OW28858   4.105   0.240   6.026  0.3779 -0.0387 -0.5494
 5800SOL    HW128859   4.049   0.302   6.073 -2.2516 -4.2126  1.7681
 5800SOL    HW228860   4.152   0.197   6.097 -0.4041 -1.1352 -0.6920
 5801SOL     OW28861   0.583   0.506   6.359  0.9255 -0.5979  0.1416
 5801SOL    HW128862   0.495   0.473   6.340  0.6297  0.2100  0.1143
 5801SOL    HW228863   0.586   0.582   6.302 -2.9028 -1.1300 -0.8108
 5802SOL     OW28864   2.446   0.568   2.351  0.4970 -0.0408 -0.6259
 5802SOL    HW128865   2.513   0.628   2.318 -0.0906  1.3725  0.7804
 5802SOL    HW228866   2.434   0.507   2.278  1.9397  1.8492 -2.4418
 5803SOL     OW28867   2.038   0.185  15.812 -0.2579 -0.0851  0.2602
 5803SOL    HW128868   1.957   0.237  15.807 -0.0148  0.0373 -2.6486
 5803SOL    HW228869   2.005   0.101  15.779 -1.9746  0.1439  1.3948
 5804SOL     OW28870   2.333   4.493  10.234 -0.1747 -0.4242 -0.3651
 5804SOL    HW128871   2.328   4.575  10.283 -1.0870 -1.8000  1.8599
 5804SOL    HW228872   2.288   4.516  10.153 -2.4370 -1.0902  0.6994
 5805SOL     OW28873   0.415   0.649   9.455  0.1386  0.1097 -0.3375
 5805SOL    HW128874   0.446   0.704   9.527  1.7298  0.2085 -1.1154
 5805SOL    HW228875   0.320   0.641   9.469 -0.0866 -0.2237 -2.0698
 5806SOL     OW28876   0.676   0.492  16.285 -0.1343  0.4713 -0.2625
 5806SOL    HW128877   0.686   0.517  16.377 -0.3366 -0.3742 -0.0070
 5806SOL    HW228878   0.590   0.450  16.282 -0.1544  0.6226 -1.6537
 5807SOL     OW28879   2.642   4.384   0.921 -1.1539  0.3056  0.1698
 5807SOL    HW128880   2.663   4.406   1.012  0.6549  3.5090 -1.0381
 5807SOL    HW228881   2.575   4.448   0.897 -0.2189 -0.3138 -4.0630
 5808SOL     OW28882   2.802   2.126   8.649  0.3357  0.2568  0.5814
 5808SOL    HW128883   2.780   2.207   8.603 -0.8063 -0.2334  0.2894
 5808SOL    HW228884   2.898   2.130   8.659  0.4843  1.7698 -1.5850
 5809SOL     OW28885   4.662   1.779  17.224 -0.5980  0.0578 -0.2044
 5809SOL    HW128886   0.008   1.717  17.196 -0.0837  1.4465 -2.0606
 5809SOL    HW228887   4.716   1.836  17.280 -0.0338 -1.8762  1.2122
 5810SOL     OW28888   3.387   0.166   8.117  0.5015 -0.1749  0.3278
 5810SOL    HW128889   3.405   0.257   8.141 -0.2226  0.3130 -0.9973
 5810SOL    HW228890   3.292   0.159   8.115  0.4799 -0.6107  2.8174
 5811SOL     OW28891   2.040   2.791   1.708  0.2805  0.1592  0.0600
 5811SOL    HW128892   1.967   2.746   1.664 -0.3711  0.9297  0.3556
 5811SOL    HW228893   2.117   2.788   1.651  0.7366 -1.3044  0.7391
 5812SOL     OW28894   1.607   3.630   2.584  0.3180  0.7004  0.6843
 5812SOL    HW128895   1.552   3.568   2.537  2.5591 -0.0691 -0.9708
 5812SOL    HW228896   1.539   3.676   2.633 -0.9204  0.2354 -0.6061
 5813SOL     OW28897   2.789   3.636   4.374 -0.0118  0.2060  0.0862
 5813SOL    HW128898   2.873   3.594   4.356  1.1572  3.0447 -1.0208
 5813SOL    HW228899   2.800   3.690   4.453 -0.2990 -0.1086  0.3392
 5814SOL     OW28900   3.028   0.747   0.809 -0.8753  0.2974  0.1020
 5814SOL    HW128901   3.118   0.750   0.775 -0.8184 -1.2088  0.1185
 5814SOL    HW228902   3.006   0.654   0.814  0.0692  0.0207 -0.7129
 5815SOL     OW28903   1.628   0.369  16.185  0.1398 -0.0664  0.0746
 5815SOL    HW128904   1.638   0.333  16.097 -0.5089  3.7234 -1.5130
 5815SOL    HW228905   1.704   0.427  16.191  0.5737 -0.7330  1.0813
 5816SOL     OW28906   0.616   3.680   1.621 -0.3251 -0.1634  0.4876
 5816SOL    HW128907   0.601   3.676   1.526 -0.8487  2.9647  0.4541
 5816SOL    HW228908   0.710   3.695   1.634 -0.8355  1.6274  1.9769
 5817SOL     OW28909   2.928   2.020  17.435  0.0544  0.1017 -0.0088
 5817SOL    HW128910   3.013   2.025  17.391 -1.1501  1.5840 -2.1463
 5817SOL    HW228911   2.883   2.086  17.383  1.2509 -0.2720 -1.5390
 5818SOL     OW28912   4.281   2.227   7.420  0.2641  0.1931 -0.0820
 5818SOL    HW128913   4.187   2.214   7.405  0.4659  0.6717 -1.7601
 5818SOL    HW228914   4.327   2.171   7.357  0.6352  1.5819 -1.0310
 5819SOL     OW28915   2.277   1.066   5.261 -0.1547  0.4592 -0.2474
 5819SOL    HW128916   2.254   0.976   5.238  1.0147 -0.6032  2.7799
 5819SOL    HW228917   2.262   1.067   5.355 -3.3767  0.7630 -0.7476
 5820SOL     OW28918   1.386   2.843   8.235 -0.0322  0.6411 -0.0025
 5820SOL    HW128919   1.338   2.914   8.278  0.6153  0.4761  0.9824
 5820SOL    HW228920   1.475   2.880   8.238 -0.2976  1.0559  2.3452
 5821SOL     OW28921   3.605   1.235   7.995 -0.3857 -0.3084 -0.2921
 5821SOL    HW128922   3.535   1.236   8.061 -2.2792  3.5024 -2.3716
 5821SOL    HW228923   3.675   1.241   8.060 -1.1535  0.7533  0.4394
 5822SOL     OW28924   0.142   0.552   7.589  0.5785  0.4875  0.7677
 5822SOL    HW128925   0.058   0.506   7.578 -0.0463  1.4845  1.3969
 5822SOL    HW228926   0.187   0.478   7.629  0.5986 -0.8397 -1.6964
 5823SOL     OW28927   3.367   4.028  14.191  0.1813  0.2995  0.3471
 5823SOL    HW128928   3.324   4.097  14.139 -0.0078  0.9452  1.3601
 5823SOL    HW228929   3.376   3.964  14.120 -0.1150 -1.1995  1.6637
 5824SOL     OW28930   1.691   0.304   5.976 -0.2696 -0.1257 -0.1070
 5824SOL    HW128931   1.703   0.226   5.921  1.2482  0.0702 -0.0462
 5824SOL    HW228932   1.775   0.289   6.018  0.5070  2.1165 -0.8826
 5825SOL     OW28933   1.542   1.857   6.700 -0.0358  0.0401  1.1282
 5825SOL    HW128934   1.584   1.856   6.786  0.8432 -0.6207  0.6918
 5825SOL    HW228935   1.450   1.864   6.722 -0.1916  0.1858  0.4483
 5826SOL     OW28936   1.835   1.018   5.845  0.7519  0.0888 -0.4324
 5826SOL    HW128937   1.895   1.017   5.920  0.2180  0.7773  0.0020
 5826SOL    HW228938   1.781   1.088   5.883  0.8208 -1.4453  2.5047
 5827SOL     OW28939   0.781   3.795   9.475  0.1007 -0.1056 -0.5575
 5827SOL    HW128940   0.865   3.755   9.499 -0.5063 -1.3379 -0.5209
 5827SOL    HW228941   0.801   3.888   9.482  1.7402 -0.5357  0.5397
 5828SOL     OW28942   1.007   4.059   6.971  0.3562 -0.4248  0.6712
 5828SOL    HW128943   1.076   4.123   6.989  1.5448 -1.8829  1.2984
 5828SOL    HW228944   0.956   4.106   6.906  1.8474 -1.5547 -1.2917
 5829SOL     OW28945   4.068   2.109   6.209  0.6592 -0.6121  0.5336
 5829SOL    HW128946   4.059   2.083   6.117 -0.8762  1.2070  0.1468
 5829SOL    HW228947   4.153   2.068   6.225  0.5717 -0.4935  1.2822
 5830SOL     OW28948   1.729   0.068  11.553  0.4896  0.2678 -0.2424
 5830SOL    HW128949   1.709   0.000  11.617  1.3404 -0.0717 -0.3390
 5830SOL    HW228950   1.715   0.149  11.603  0.5399 -0.5133  1.0321
 5831SOL     OW28951   2.174   4.116  17.413  0.0805  0.3501  0.2574
 5831SOL    HW128952   2.090   4.085  17.381  0.1535 -0.9829  1.3795
 5831SOL    HW228953   2.156   4.106  17.506  0.0706 -2.8396 -0.0891
 5832SOL     OW28954   1.053   4.319  13.543  0.5311 -0.5996  0.7583
 5832SOL    HW128955   1.142   4.294  13.521 -0.3301 -2.4609 -0.6821
 5832SOL    HW228956   1.063   4.403  13.588  1.7941  0.8266 -2.2200
 5833SOL     OW28957   2.902   2.276  15.094 -0.4472  0.1527  0.1537
 5833SOL    HW128958   2.943   2.353  15.133 -1.3175  1.3699 -1.3286
 5833SOL    HW228959   2.851   2.301  15.017  0.2476 -2.1555 -1.0721
 5834SOL     OW28960   1.202   2.984   5.940 -0.1020 -0.5756  0.2554
 5834SOL    HW128961   1.277   3.043   5.930  0.0737 -0.4919  2.1429
 5834SOL    HW228962   1.138   3.015   5.876 -0.2075 -1.4892 -0.0867
 5835SOL     OW28963   0.812   1.974   1.643 -0.0394  0.0618 -0.5689
 5835SOL    HW128964   0.846   1.891   1.677 -1.2342 -0.5046 -0.7663
 5835SOL    HW228965   0.868   2.030   1.698  0.4556 -0.6014 -0.3982
 5836SOL     OW28966   1.025   3.822   6.385 -0.1590  0.6647  0.4048
 5836SOL    HW128967   1.035   3.728   6.368 -3.2851  0.1064  1.5880
 5836SOL    HW228968   1.109   3.859   6.359  0.0716 -1.6190 -2.0893
 5837SOL     OW28969   1.958   2.985   2.214  0.6960 -0.1119  0.1147
 5837SOL    HW128970   1.979   3.077   2.200  3.3579 -0.6764  0.4291
 5837SOL    HW228971   1.998   2.965   2.298 -0.5068 -0.9388  0.4884
 5838SOL     OW28972   1.198   2.204   3.534  0.4616  0.1359 -0.1396
 5838SOL    HW128973   1.186   2.114   3.504 -1.0817  0.8226 -1.6441
 5838SOL    HW228974   1.165   2.243   3.452 -1.8438 -0.9125  0.2876
 5839SOL     OW28975   3.110   1.136  13.987 -0.2973 -0.3149 -0.0510
 5839SOL    HW128976   3.166   1.185  14.047 -2.0360 -0.3693  1.6121
 5839SOL    HW228977   3.047   1.205  13.965 -1.1792 -1.3701 -0.8862
 5840SOL     OW28978   1.032   1.906   8.231  0.0168  0.6268 -0.2319
 5840SOL    HW128979   1.017   1.875   8.320  1.6093  0.7281  0.0577
 5840SOL    HW228980   1.097   1.974   8.248 -1.7503  1.8549  1.6929
 5841SOL     OW28981   1.066   3.254   3.642 -0.1842 -0.1203  0.3669
 5841SOL    HW128982   1.055   3.290   3.554  0.1557  0.4782  0.5700
 5841SOL    HW228983   1.071   3.160   3.627  0.2607 -0.2611  1.4002
 5842SOL     OW28984   1.264   4.092   2.177  0.0939  0.5100 -0.0706
 5842SOL    HW128985   1.318   4.040   2.237 -0.0723  1.1197  0.6002
 5842SOL    HW228986   1.194   4.105   2.240 -0.7541 -0.4959 -0.8031
 5843SOL     OW28987   2.501   1.814   7.066  0.4113  0.4642 -0.5448
 5843SOL    HW128988   2.408   1.833   7.053  0.1816 -0.0488  0.3985
 5843SOL    HW228989   2.506   1.802   7.160  1.4354 -0.6397 -0.7524
 5844SOL     OW28990   3.394   4.198   8.407 -0.3175 -0.0962  0.4448
 5844SOL    HW128991   3.475   4.184   8.456 -0.3939  2.0496  1.2082
 5844SOL    HW228992   3.367   4.279   8.450 -1.2208  0.0735 -0.4546
 5845SOL     OW28993   3.052   0.867  16.785  0.2459 -0.0727  0.3436
 5845SOL    HW128994   2.976   0.860  16.728  1.1025  2.0940 -1.0917
 5845SOL    HW228995   3.054   0.776  16.814  1.1018 -1.0268 -2.6600
 5846SOL     OW28996   4.596   2.571   2.934 -0.2819 -0.1145 -0.7041
 5846SOL    HW128997   4.633   2.500   2.987  2.1754  3.7727  2.7581
 5846SOL    HW228998   4.672   2.627   2.921  1.2435 -1.6262  1.6803
 5847SOL     OW28999   0.713   2.425  10.888  0.0162  0.1485  0.6412
 5847SOL    HW129000   0.724   2.519  10.871  0.2364 -0.1959 -1.0676
 5847SOL    HW229001   0.754   2.423  10.975  0.2281  0.0573  0.5394
 5848SOL     OW29002   3.969   2.072   5.587 -0.2737  0.0609 -0.0041
 5848SOL    HW129003   3.939   2.102   5.502  1.2513  0.9842 -0.2163
 5848SOL    HW229004   3.883   2.071   5.629  0.9016 -1.2273  2.3630
 5849SOL     OW29005   4.567   4.001   4.340  0.5129 -0.2244  0.1063
 5849SOL    HW129006   4.610   4.080   4.307 -1.5249  0.5977 -0.5783
 5849SOL    HW229007   4.575   3.932   4.273  1.2296  0.3655 -0.4263
 5850SOL     OW29008   2.649   3.474  11.106  0.1428 -0.1433 -0.1044
 5850SOL    HW129009   2.685   3.558  11.135  0.9543 -0.1676 -1.0388
 5850SOL    HW229010   2.605   3.453  11.188 -0.0184 -4.0400 -1.1876
 5851SOL     OW29011   1.921   3.095   8.475  0.6065  0.1471 -0.2712
 5851SOL    HW129012   1.935   3.134   8.561 -1.7319  0.5350 -0.0769
 5851SOL    HW229013   1.874   3.160   8.422 -1.2287 -0.1264  1.0483
 5852SOL     OW29014   2.767   2.998  13.509  0.5580  0.5163  0.2743
 5852SOL    HW129015   2.723   3.082  13.523 -0.0890  0.2931 -0.4601
 5852SOL    HW229016   2.734   2.967  13.425  0.8965  0.4855  0.1534
 5853SOL     OW29017   2.243   1.014   6.324 -0.1374 -0.0959  0.2364
 5853SOL    HW129018   2.234   0.954   6.250  2.6275 -0.2153  0.0132
 5853SOL    HW229019   2.254   0.955   6.399 -0.9346  0.2709  0.6404
 5854SOL     OW29020   2.836   2.020   3.575  0.5697  0.0346  0.4406
 5854SOL    HW129021   2.811   1.927   3.572  0.3401  0.0353  2.0990
 5854SOL    HW229022   2.928   2.012   3.604  0.3500 -0.3458  1.0414
 5855SOL     OW29023   2.608   2.589   1.836 -0.3622  0.1592 -0.3258
 5855SOL    HW129024   2.615   2.532   1.913  0.9633  0.9901  0.1675
 5855SOL    HW229025   2.522   2.627   1.853 -0.5766 -0.8943  1.0078
 5856SOL     OW29026   3.151   2.431   2.556  0.4142  0.1135 -0.2274
 5856SOL    HW129027   3.155   2.379   2.476  1.0647 -1.2291  0.6690
 5856SOL    HW229028   3.238   2.417   2.593  1.2227 -0.7508 -2.4391
 5857SOL     OW29029   2.017   0.214   7.176 -0.3358  0.1933 -0.3877
 5857SOL    HW129030   2.023   0.141   7.114 -0.7871  0.6964 -1.0141
 5857SOL    HW229031   2.067   0.289   7.143 -1.5854  0.8507 -0.7952
 5858SOL     OW29032   4.024   1.501   6.675 -1.1514  0.4356 -0.3603
 5858SOL    HW129033   3.935   1.467   6.666 -0.4787 -1.0358 -1.5935
 5858SOL    HW229034   4.043   1.538   6.589  3.0705 -1.3294 -0.2235
 5859SOL     OW29035   2.078   1.955   5.035 -0.4373  0.2788 -0.3139
 5859SOL    HW129036   2.170   1.964   5.008 -0.9175  0.7849 -1.7642
 5859SOL    HW229037   2.072   2.036   5.087 -2.5483 -0.1550  0.1036
 5860SOL     OW29038   0.874   3.251  10.116  0.7433 -0.4636  0.4673
 5860SOL    HW129039   0.931   3.175  10.107 -0.7913 -1.5781  0.1748
 5860SOL    HW229040   0.812   3.231  10.045  1.5167 -1.5045  0.0877
 5861SOL     OW29041   2.966   3.930   5.490  0.0303  0.1038 -0.0699
 5861SOL    HW129042   2.982   4.024   5.479 -0.7241  0.4362  1.6604
 5861SOL    HW229043   3.051   3.898   5.521  0.9513  1.8574 -0.8184
 5862SOL     OW29044   3.788   3.214   5.859  0.2458  0.6187  0.0641
 5862SOL    HW129045   3.876   3.177   5.868  0.1365  0.8962  2.4305
 5862SOL    HW229046   3.806   3.307   5.844 -1.1929  0.5742 -1.8933
 5863SOL     OW29047   4.004   3.333   6.114 -0.2399  0.3000  0.3820
 5863SOL    HW129048   4.095   3.306   6.123  0.1331  1.9136  1.3760
 5863SOL    HW229049   3.979   3.274   6.042  1.1369 -0.1382  0.2694
 5864SOL     OW29050   3.684   0.280   4.194  0.0699 -0.1091 -0.5034
 5864SOL    HW129051   3.650   0.351   4.140 -0.4842 -1.2487 -1.6532
 5864SOL    HW229052   3.656   0.314   4.279 -1.0500  2.0600 -1.7456
 5865SOL     OW29053   3.084   0.908   6.514  0.0404  0.3779  0.0175
 5865SOL    HW129054   3.014   0.910   6.579 -1.6984 -0.9830 -1.8071
 5865SOL    HW229055   3.032   0.926   6.435  2.0417 -0.8970 -1.5947
 5866SOL     OW29056   4.114   4.544   6.516  0.8230 -0.5565  0.0592
 5866SOL    HW129057   4.163   4.468   6.547  1.9980 -0.2634 -1.1044
 5866SOL    HW229058   4.189   4.600   6.496  0.3243  0.8891  2.2201
 5867SOL     OW29059   3.332   1.410  12.122 -0.8331  0.0987 -0.3814
 5867SOL    HW129060   3.313   1.477  12.187 -1.8590  0.3924 -0.9759
 5867SOL    HW229061   3.404   1.456  12.079  1.8511 -0.6286  3.3780
 5868SOL     OW29062   0.546   0.834   8.523 -0.3853 -0.1542 -0.0417
 5868SOL    HW129063   0.545   0.749   8.480 -0.5292  0.1579 -0.6578
 5868SOL    HW229064   0.619   0.832   8.585 -2.4689 -3.7387  2.2252
 5869SOL     OW29065   3.178   4.166   9.027 -0.0900  0.1983 -0.1392
 5869SOL    HW129066   3.270   4.171   8.999  0.2947 -2.8515  0.5546
 5869SOL    HW229067   3.143   4.089   8.982  0.9736 -0.7206  0.6114
 5870SOL     OW29068   4.271   4.277  17.217 -0.3357 -0.5751  0.3828
 5870SOL    HW129069   4.256   4.318  17.303 -4.0770  2.4392 -1.6996
 5870SOL    HW229070   4.217   4.328  17.157 -0.9455 -2.1978 -0.4522
 5871SOL     OW29071   3.667   0.847   6.200 -0.6568 -0.2208 -0.4501
 5871SOL    HW129072   3.762   0.836   6.205 -0.6655  0.0976  0.3744
 5871SOL    HW229073   3.654   0.844   6.105  0.3188  0.6807 -0.6193
 5872SOL     OW29074   0.421   3.784  10.401 -0.3057 -0.1613 -1.1352
 5872SOL    HW129075   0.417   3.858  10.461  2.8940  0.3124 -1.4633
 5872SOL    HW229076   0.471   3.827  10.331 -0.7043  0.6902 -0.8869
 5873SOL     OW29077   2.872   0.154   0.297  0.0942  0.5041  0.1218
 5873SOL    HW129078   2.907   0.213   0.230 -1.0917 -0.6133 -1.4914
 5873SOL    HW229079   2.884   0.193   0.383 -1.3898 -1.0443  1.0222
 5874SOL     OW29080   2.762   2.492   4.212  0.2359 -0.3981  0.0320
 5874SOL    HW129081   2.745   2.547   4.289  1.1852  0.0309 -0.0656
 5874SOL    HW229082   2.792   2.408   4.247  0.8088 -0.0115  0.4573
 5875SOL     OW29083   1.961   0.783  11.756  0.1486 -0.5267 -0.0204
 5875SOL    HW129084   1.910   0.703  11.768  0.2575 -0.8419 -1.5820
 5875SOL    HW229085   1.993   0.769  11.666  0.9554  0.9420  0.0458
 5876SOL     OW29086   3.842   1.080   4.546  0.2127  0.6126 -0.1786
 5876SOL    HW129087   3.905   1.148   4.571 -0.1366  0.0924  2.0423
 5876SOL    HW229088   3.779   1.082   4.618  1.6681  0.8712  1.0835
 5877SOL     OW29089   1.118   4.265   4.430 -0.1641 -0.3043  0.2379
 5877SOL    HW129090   1.157   4.181   4.404 -1.3677 -0.6388 -0.4780
 5877SOL    HW229091   1.186   4.330   4.413 -3.0440  2.5588 -0.0954
 5878SOL     OW29092   1.793   2.381  14.170  0.2614  0.2274  0.1229
 5878SOL    HW129093   1.782   2.291  14.201 -0.8849  0.9094  1.7000
 5878SOL    HW229094   1.789   2.424  14.255  1.3339  0.2705  0.1549
 5879SOL     OW29095   4.179   1.344  10.604  0.0304 -0.0976 -0.0028
 5879SOL    HW129096   4.133   1.296  10.536 -0.5717 -0.8942  0.9643
 5879SOL    HW229097   4.180   1.431  10.564  2.0156  0.3231  0.9532
 5880SOL     OW29098   4.240   2.946  11.914  0.1625 -0.0455 -0.2609
 5880SOL    HW129099   4.282   2.861  11.901 -0.6388 -0.3050 -1.0721
 5880SOL    HW229100   4.307   3.013  11.897 -0.5062  0.9138  0.9152
 5881SOL     OW29101   1.518   1.761   7.839 -0.1050  0.4931 -0.6279
 5881SOL    HW129102   1.453   1.777   7.770  1.2900 -0.1859 -2.0994
 5881SOL    HW229103   1.520   1.851   7.870 -1.3890 -0.3809  1.9917
 5882SOL     OW29104   1.408   3.470  13.456 -0.4432 -0.5863  0.1292
 5882SOL    HW129105   1.360   3.511  13.384 -1.2000 -0.7628  0.5297
 5882SOL    HW229106   1.424   3.383  13.421  0.0643 -0.6976  0.6373
 5883SOL     OW29107   0.448   0.170   1.825 -0.0019  0.1649  0.8503
 5883SOL    HW129108   0.492   0.220   1.756 -1.1324  0.5663  0.4091
 5883SOL    HW229109   0.489   0.209   1.902  0.9758 -0.4217  0.6148
 5884SOL     OW29110   0.077   4.464  11.595  0.2895 -0.5056 -0.4099
 5884SOL    HW129111   0.050   4.436  11.682 -0.4004  0.7148 -0.2433
 5884SOL    HW229112   4.719   4.458  11.542  0.3882 -1.1147 -0.4977
 5885SOL     OW29113   2.920   0.397  13.748 -0.6568  0.0208  0.3012
 5885SOL    HW129114   2.902   0.456  13.675  0.4751 -1.6473 -1.3462
 5885SOL    HW229115   2.955   0.460  13.811 -1.2201 -0.5177  1.1469
 5886SOL     OW29116   0.702   3.732   6.766  0.5120 -0.4350 -0.0163
 5886SOL    HW129117   0.707   3.694   6.678 -5.1500  1.1118 -1.0047
 5886SOL    HW229118   0.798   3.727   6.774  0.2628 -3.8697  1.0305
 5887SOL     OW29119   2.362   0.382   3.624 -0.9875  0.3083 -0.1346
 5887SOL    HW129120   2.428   0.412   3.561 -0.2373 -0.2375  0.3961
 5887SOL    HW229121   2.382   0.440   3.698  0.0349 -0.9710  0.5790
 5888SOL     OW29122   0.131   2.520   8.078  0.3179 -0.2111  0.1267
 5888SOL    HW129123   0.140   2.500   7.984  0.6213  1.6506 -0.2451
 5888SOL    HW229124   0.148   2.613   8.089 -0.2949 -0.2337  1.2414
 5889SOL     OW29125   3.058   0.423   1.952  0.5569 -0.4952  0.5085
 5889SOL    HW129126   3.065   0.331   1.927  3.9120  0.1695 -0.9216
 5889SOL    HW229127   3.084   0.473   1.875  1.5030 -3.6935 -1.2497
 5890SOL     OW29128   1.837   1.137   4.060 -0.2776  0.4017  0.3333
 5890SOL    HW129129   1.829   1.135   4.155 -1.1982 -1.7054  0.1995
 5890SOL    HW229130   1.746   1.113   4.040 -0.7462 -0.2628  3.3027
 5891SOL     OW29131   0.389   0.080   3.782 -0.3282  0.4208 -0.4480
 5891SOL    HW129132   0.373   0.058   3.874  0.0741 -2.3050 -1.0566
 5891SOL    HW229133   0.433   0.004   3.745 -0.9574 -0.6144  0.9525
 5892SOL     OW29134   1.258   3.662   3.446 -0.5187  0.0077 -0.8876
 5892SOL    HW129135   1.176   3.637   3.487  0.0825  2.0054  1.5320
 5892SOL    HW229136   1.310   3.591   3.483  2.9020  1.8663 -2.1107
 5893SOL     OW29137   3.629   4.468  17.276 -0.3838 -0.4956 -0.0208
 5893SOL    HW129138   3.573   4.546  17.278  1.2804  0.7419 -1.8039
 5893SOL    HW229139   3.588   4.413  17.343 -1.5130  0.1610 -0.1795
 5894SOL     OW29140   0.532   3.569  10.697 -0.1340  0.0256 -0.3462
 5894SOL    HW129141   0.562   3.656  10.723 -2.3598  0.4608  0.7678
 5894SOL    HW229142   0.617   3.528  10.678  0.4591 -0.0992  2.5388
 5895SOL     OW29143   4.607   3.385  15.809  0.1718 -0.0893 -0.6879
 5895SOL    HW129144   4.548   3.333  15.863  0.7760 -1.0119 -0.9267
 5895SOL    HW229145   4.579   3.472  15.840 -0.0239  0.2987 -1.9283
 5896SOL     OW29146   2.774   2.900   0.045  0.3036  0.1627  0.0287
 5896SOL    HW129147   2.725   2.909  17.651  1.2658  0.6890 -0.4841
 5896SOL    HW229148   2.862   2.898   0.008  0.2341  3.4204 -0.3364
 5897SOL     OW29149   4.094   0.009  13.471 -0.3119  0.3681 -0.6434
 5897SOL    HW129150   4.155   0.082  13.460 -0.6093  0.3107 -2.7809
 5897SOL    HW229151   4.019   0.052  13.510  2.0755  0.1906  4.0749
 5898SOL     OW29152   2.211   2.441   4.382  0.1971  0.4796 -0.2137
 5898SOL    HW129153   2.240   2.350   4.372  1.0326  0.9978 -2.6187
 5898SOL    HW229154   2.130   2.444   4.332 -0.0014  2.4057  0.2432
 5899SOL     OW29155   4.493   3.537   5.467 -0.1436 -0.1195  0.0749
 5899SOL    HW129156   4.440   3.549   5.546 -0.7463  2.0543 -0.6777
 5899SOL    HW229157   4.426   3.527   5.400 -0.2611 -1.5847  0.4074
 5900SOL     OW29158   3.514   3.953   5.936 -0.1977 -0.1055  0.0991
 5900SOL    HW129159   3.449   4.010   5.977  0.7766  0.0127  1.4959
 5900SOL    HW229160   3.574   3.954   6.011  1.7712 -0.0248 -1.4592
 5901SOL     OW29161   3.116   1.105   7.157  0.3156 -0.1220  0.7117
 5901SOL    HW129162   3.033   1.090   7.113  0.2487  0.4796  0.6349
 5901SOL    HW229163   3.089   1.171   7.221 -0.6928  0.6140 -0.4913
 5902SOL     OW29164   3.431   3.819  14.411 -0.3809  0.5334  0.2735
 5902SOL    HW129165   3.366   3.770  14.461 -2.0476  0.6447 -1.7969
 5902SOL    HW229166   3.421   3.910  14.438 -1.5993  0.9060 -1.4162
 5903SOL     OW29167   3.296   3.605   5.154 -0.2953 -0.0477  0.3206
 5903SOL    HW129168   3.290   3.557   5.072 -2.7160  1.6523 -0.4738
 5903SOL    HW229169   3.281   3.534   5.217 -1.4400 -0.7613 -0.7710
 5904SOL     OW29170   0.548   1.099   5.899  0.5709  0.2532  0.0745
 5904SOL    HW129171   0.582   1.019   5.939 -1.2545  0.2745  1.6281
 5904SOL    HW229172   0.495   1.152   5.958  2.9201  0.9594  1.5724
 5905SOL     OW29173   2.820   1.406  11.458 -0.2532  1.1883 -0.2112
 5905SOL    HW129174   2.815   1.311  11.449 -0.7000  0.9021  3.0971
 5905SOL    HW229175   2.907   1.431  11.426 -0.2371 -0.7276 -1.6435
 5906SOL     OW29176   3.163   4.678   8.481  0.4998  0.0519  0.2632
 5906SOL    HW129177   3.095   4.714   8.425 -0.0903  1.4353  1.8559
 5906SOL    HW229178   3.171   4.588   8.449  0.9453  0.8222 -1.8350
 5907SOL     OW29179   0.578   2.041   1.522  0.0413 -0.1489 -0.7497
 5907SOL    HW129180   0.652   2.017   1.579 -0.1956 -2.1018 -1.2671
 5907SOL    HW229181   0.505   2.012   1.576  0.5952 -3.6012 -1.9089
 5908SOL     OW29182   2.375   1.786   6.321  0.0187  0.0665 -0.0881
 5908SOL    HW129183   2.406   1.803   6.410  0.2631  2.0815 -0.5648
 5908SOL    HW229184   2.293   1.835   6.328 -0.3803 -0.8649  1.8020
 5909SOL     OW29185   2.611   3.845   5.195  0.2159 -0.0221 -0.0445
 5909SOL    HW129186   2.691   3.895   5.211 -0.0869  0.9695 -1.5791
 5909SOL    HW229187   2.546   3.906   5.231  1.0560  0.4522  0.6610
 5910SOL     OW29188   3.643   0.739   5.062  0.0614 -0.0111 -0.7805
 5910SOL    HW129189   3.658   0.727   5.156 -2.0260  0.6227 -0.3574
 5910SOL    HW229190   3.657   0.832   5.045  0.5540 -0.1533 -1.1422
 5911SOL     OW29191   0.887   2.248  17.437  0.7229  0.1170  0.3805
 5911SOL    HW129192   0.933   2.171  17.402 -1.9799 -0.9821 -0.7818
 5911SOL    HW229193   0.952   2.306  17.476 -0.8613 -0.3130  3.6944
 5912SOL     OW29194   4.025   3.415   0.080  0.0475  0.1513 -0.2055
 5912SOL    HW129195   3.961   3.486   0.073  0.3633  0.5180  0.6685
 5912SOL    HW229196   4.108   3.460   0.067 -0.0977  0.3774 -0.3539
 5913SOL     OW29197   0.190   1.031   1.794 -0.4906  0.0562 -0.0212
 5913SOL    HW129198   0.199   1.113   1.843  1.0817  0.2671 -0.6508
 5913SOL    HW229199   0.210   1.063   1.706  2.5760  0.5395  0.8442
 5914SOL     OW29200   2.851   0.492   1.192 -0.2846 -0.5325 -1.2831
 5914SOL    HW129201   2.809   0.544   1.124  2.1613  1.3108 -1.3504
 5914SOL    HW229202   2.846   0.407   1.148  1.3804 -1.2734 -0.0355
 5915SOL     OW29203   0.364   1.109   6.614  0.4777 -0.1460  0.7341
 5915SOL    HW129204   0.285   1.071   6.652 -1.7455  2.9574 -0.8153
 5915SOL    HW229205   0.394   1.161   6.689  0.8348 -0.3350  0.7262
 5916SOL     OW29206   2.482   1.111   8.876 -0.3011 -0.0913  0.3178
 5916SOL    HW129207   2.438   1.154   8.948 -0.3613  1.4226 -0.6299
 5916SOL    HW229208   2.564   1.156   8.897 -1.4274  2.3144 -0.4607
 5917SOL     OW29209   2.564   3.798  10.494  0.3247 -0.4792  0.0455
 5917SOL    HW129210   2.497   3.764  10.554 -0.5261  1.3631  0.1559
 5917SOL    HW229211   2.570   3.884  10.537  1.4579 -0.2123 -0.6478
 5918SOL     OW29212   0.243   1.063   3.232 -0.1403 -0.1473  0.1540
 5918SOL    HW129213   0.256   0.975   3.197  1.3155  0.4194 -0.7452
 5918SOL    HW229214   0.333   1.089   3.252 -0.1894 -1.9355  2.7430
 5919SOL     OW29215   1.840   0.285   4.555  0.7409 -0.6977 -0.0417
 5919SOL    HW129216   1.750   0.310   4.574  0.4871 -0.4298 -1.5978
 5919SOL    HW229217   1.835   0.275   4.459 -0.5030  1.9768 -0.2354
 5920SOL     OW29218   4.613   3.179   4.904 -0.0715  0.2920 -0.2623
 5920SOL    HW129219   4.663   3.180   4.986  0.8995 -1.7881 -0.8335
 5920SOL    HW229220   4.570   3.095   4.918 -0.1539  0.4372  0.3417
 5921SOL     OW29221   4.678   0.650   8.200  0.7991  0.1048  0.2121
 5921SOL    HW129222   0.015   0.588   8.243 -0.2540  0.0892  1.6144
 5921SOL    HW229223   4.641   0.598   8.128 -2.6815  0.8294  1.4931
 5922SOL     OW29224   0.778   0.360   6.058  0.6104  0.2265 -0.0424
 5922SOL    HW129225   0.837   0.291   6.026  0.7726  0.7396 -0.8545
 5922SOL    HW229226   0.718   0.323   6.122  2.0392 -2.0878 -0.0512
 5923SOL     OW29227   4.400   0.359  14.538  0.7038 -0.0254 -0.1798
 5923SOL    HW129228   4.437   0.320  14.618  2.3420  1.4028 -0.2497
 5923SOL    HW229229   4.467   0.335  14.475 -0.0358  0.4475 -1.1495
 5924SOL     OW29230   1.684   3.254  17.065  0.0511  0.1469  0.3427
 5924SOL    HW129231   1.688   3.247  16.970 -1.1661 -1.3051  0.4029
 5924SOL    HW229232   1.733   3.174  17.082 -3.0447 -2.3993 -2.8832
 5925SOL     OW29233   1.054   1.637   9.803  0.9679  0.0374  0.3799
 5925SOL    HW129234   1.129   1.634   9.863  0.0513 -0.1339  1.5280
 5925SOL    HW229235   0.982   1.622   9.864  0.1163  0.5126 -0.5084
 5926SOL     OW29236   0.165   4.308   5.353  1.0560  0.0046 -0.2375
 5926SOL    HW129237   0.088   4.358   5.327  1.6846  1.6028  0.9946
 5926SOL    HW229238   0.123   4.226   5.379 -1.3390  1.0394 -0.8148
 5927SOL     OW29239   2.583   1.188  16.354 -0.0599 -0.5449 -0.2259
 5927SOL    HW129240   2.600   1.187  16.448  0.5399  0.9781 -0.3266
 5927SOL    HW229241   2.585   1.095  16.330 -0.2795 -0.7827  0.6914
 5928SOL     OW29242   2.883   2.840  11.100  0.0045  0.3664  0.3703
 5928SOL    HW129243   2.897   2.892  11.179 -2.2150  0.3024  0.8230
 5928SOL    HW229244   2.833   2.766  11.136 -1.3233  0.6680 -0.8332
 5929SOL     OW29245   3.807   1.783   6.680 -0.2979  0.0638 -0.0818
 5929SOL    HW129246   3.777   1.821   6.597 -1.7380 -1.0672 -0.0652
 5929SOL    HW229247   3.743   1.712   6.686  1.0933 -1.2382 -0.8212
 5930SOL     OW29248   4.162   4.238   6.872  0.2711  0.2157  0.3924
 5930SOL    HW129249   4.077   4.249   6.829  0.3384 -0.4861  0.0757
 5930SOL    HW229250   4.151   4.144   6.890 -2.5086  0.5000  0.1586
 5931SOL     OW29251   1.563   0.812   3.767 -0.0540  0.0510 -0.2713
 5931SOL    HW129252   1.594   0.766   3.845 -0.0755 -2.2745 -1.6230
 5931SOL    HW229253   1.630   0.802   3.700  0.6763  2.3312  0.1424
 5932SOL     OW29254   1.484   0.114   2.468 -0.3810 -0.2404 -0.3513
 5932SOL    HW129255   1.576   0.103   2.446  0.0188 -0.0080  1.1781
 5932SOL    HW229256   1.460   0.021   2.465  0.7120 -0.5931  1.6353
 5933SOL     OW29257   2.599   2.652  11.545  0.7733  0.3711  0.3512
 5933SOL    HW129258   2.599   2.737  11.502 -0.4397  0.7963  1.2065
 5933SOL    HW229259   2.690   2.632  11.523  0.2131 -0.3793 -1.2884
 5934SOL     OW29260   4.574   1.938  14.959  0.1702 -0.1805 -0.0413
 5934SOL    HW129261   4.531   1.877  14.899  2.2584 -0.3362 -1.3860
 5934SOL    HW229262   4.585   2.014  14.902 -2.3707  2.1132  2.5268
 5935SOL     OW29263   1.192   3.705   4.509 -0.2046 -0.3713  0.1682
 5935SOL    HW129264   1.253   3.699   4.436 -0.8334 -1.5292 -0.2600
 5935SOL    HW229265   1.109   3.701   4.460 -0.0117 -0.2110 -0.1721
 5936SOL     OW29266   2.394   0.566   5.963  0.2440  0.4961  0.4105
 5936SOL    HW129267   2.306   0.529   5.974 -0.2121  1.7889  1.1115
 5936SOL    HW229268   2.418   0.563   6.056  0.0722  1.4213  0.4839
 5937SOL     OW29269   3.823   2.516   7.511 -0.5502  0.0854  0.3008
 5937SOL    HW129270   3.856   2.426   7.499  0.0144  0.1963  1.0326
 5937SOL    HW229271   3.741   2.510   7.462 -0.4472 -2.2769  0.4200
 5938SOL     OW29272   1.853   4.044   1.754 -0.6226 -0.3943  0.0494
 5938SOL    HW129273   1.871   4.115   1.814 -2.0078  0.7417 -0.8767
 5938SOL    HW229274   1.787   4.078   1.693  0.2633 -1.4396 -1.5089
 5939SOL     OW29275   3.771   3.917   6.592 -0.1556 -0.0530 -0.4090
 5939SOL    HW129276   3.824   3.964   6.656  2.2768 -1.3120 -1.5076
 5939SOL    HW229277   3.792   3.963   6.511  0.2573 -1.7900 -1.2724
 5940SOL     OW29278   1.630   4.170   5.822  0.1625 -0.4385 -0.3170
 5940SOL    HW129279   1.588   4.102   5.769 -0.7933 -0.8103  0.9355
 5940SOL    HW229280   1.672   4.223   5.754 -0.8356  1.4359  0.5275
 5941SOL     OW29281   3.278   0.733   2.426  0.3048  0.0926  0.3076
 5941SOL    HW129282   3.352   0.739   2.366 -0.2172  0.3794 -0.3043
 5941SOL    HW229283   3.316   0.785   2.497 -0.1122 -0.0314  0.6242
 5942SOL     OW29284   0.827   1.539  17.160 -0.0342  0.0237 -0.1130
 5942SOL    HW129285   0.788   1.618  17.124  1.3088  0.1788 -1.2191
 5942SOL    HW229286   0.859   1.498  17.080  1.7378  2.2749 -0.5468
 5943SOL     OW29287   3.918   0.076   5.853  0.1199  0.4981 -0.0994
 5943SOL    HW129288   3.981   0.079   5.925  1.0088  0.2919 -0.8674
 5943SOL    HW229289   3.839   0.077   5.906  0.4909  0.6319  0.4516
 5944SOL     OW29290   0.235   3.510   3.578  0.2319 -0.4306 -0.0390
 5944SOL    HW129291   0.276   3.591   3.550  1.1436 -1.2801 -1.1421
 5944SOL    HW229292   0.192   3.476   3.499 -0.3541 -0.6836  0.3869
 5945SOL     OW29293   2.175   4.143   2.733  0.7327  0.1176  0.0409
 5945SOL    HW129294   2.109   4.099   2.787  1.2251  0.3403  0.8177
 5945SOL    HW229295   2.187   4.226   2.778  2.3156  1.5223 -2.9539
 5946SOL     OW29296   2.127   1.835   0.434  0.4499  0.1901  0.5331
 5946SOL    HW129297   2.106   1.803   0.346  0.9210 -1.0732  0.8683
 5946SOL    HW229298   2.048   1.883   0.460  0.5635  0.9691 -0.6056
 5947SOL     OW29299   1.243   2.687   7.586  0.1247 -0.4408  0.6174
 5947SOL    HW129300   1.153   2.666   7.610 -0.5589  0.1384 -1.4276
 5947SOL    HW229301   1.233   2.699   7.491 -1.2786  0.1662  0.8391
 5948SOL     OW29302   3.593   4.515   3.826  0.2403  0.9450  0.1794
 5948SOL    HW129303   3.644   4.542   3.903 -1.0229  3.0418  0.2732
 5948SOL    HW229304   3.550   4.439   3.865  2.8160 -0.1573  0.9460
 5949SOL     OW29305   3.352   1.004   4.339 -0.1371 -0.3573  0.1007
 5949SOL    HW129306   3.415   0.934   4.356 -1.2998 -1.5626 -0.4917
 5949SOL    HW229307   3.282   0.979   4.399  1.2141  0.9817  2.2421
 5950SOL     OW29308   2.951   3.075   0.420 -0.4914 -0.1360  0.0205
 5950SOL    HW129309   2.978   3.167   0.423  1.4606 -0.7976  2.6098
 5950SOL    HW229310   2.996   3.038   0.344 -1.2945  0.8013 -0.9050
 5951SOL     OW29311   1.358   0.659   6.926  0.2901  0.5545  0.0039
 5951SOL    HW129312   1.331   0.750   6.918  1.5817  1.0476  1.1281
 5951SOL    HW229313   1.390   0.655   7.017 -0.1466  1.7206  0.2080
 5952SOL     OW29314   2.978   2.583  13.156 -0.2086  0.5463  0.6001
 5952SOL    HW129315   3.028   2.503  13.136  0.0798  0.5692  1.2458
 5952SOL    HW229316   2.992   2.634  13.076 -0.3570 -2.5756 -1.4269
 5953SOL     OW29317   1.656   4.091  11.099 -0.4891  0.8532  0.5986
 5953SOL    HW129318   1.616   4.050  11.022 -0.6519 -0.2767  1.2923
 5953SOL    HW229319   1.592   4.055  11.161 -1.7933  0.7201 -0.8098
 5954SOL     OW29320   1.939   1.103   8.653  0.5013  0.0133  0.1141
 5954SOL    HW129321   1.925   1.078   8.744  0.4296 -0.3265  0.0107
 5954SOL    HW229322   1.969   1.019   8.619 -3.5507 -0.9775 -1.0703
 5955SOL     OW29323   3.918   0.884  17.227 -0.1479  0.4135 -0.6098
 5955SOL    HW129324   3.959   0.967  17.206  0.2207  0.5588  0.6966
 5955SOL    HW229325   3.837   0.896  17.178  0.0725  0.6665 -0.9138
 5956SOL     OW29326   0.721   1.963  14.117  0.4415  0.4080  0.8226
 5956SOL    HW129327   0.637   1.954  14.072  0.0671  0.7148  1.4615
 5956SOL    HW229328   0.714   2.043  14.171 -0.5717 -0.0264  1.3327
 5957SOL     OW29329   2.508   2.577  17.163 -0.0628  0.1743 -0.3693
 5957SOL    HW129330   2.472   2.619  17.241 -1.6177 -0.0749 -0.9500
 5957SOL    HW229331   2.431   2.560  17.108 -0.3635 -2.3937  0.8589
 5958SOL     OW29332   3.044   4.671   2.782 -0.2321  0.1542 -0.2018
 5958SOL    HW129333   3.002   4.609   2.842  0.3955 -1.2000 -1.1389
 5958SOL    HW229334   2.990   4.650   2.705 -0.7276  1.3759 -0.1832
 5959SOL     OW29335   4.137   4.463   2.736  0.3793  0.1085 -0.2639
 5959SOL    HW129336   4.140   4.399   2.806  0.1177 -0.0810 -0.4272
 5959SOL    HW229337   4.184   4.540   2.770  0.3812 -0.7367  1.6296
 5960SOL     OW29338   1.065   0.881   2.528  0.4973  0.0331  0.0499
 5960SOL    HW129339   1.109   0.826   2.463  0.0239 -1.6051  1.0913
 5960SOL    HW229340   0.973   0.878   2.503  0.7642  2.7174 -1.2001
 5961SOL     OW29341   1.948   1.904   0.821 -0.0571  0.2394  0.0418
 5961SOL    HW129342   1.931   1.857   0.739 -0.0385 -0.4447  0.4367
 5961SOL    HW229343   2.035   1.876   0.846 -0.5132  0.9138  2.3965
 5962SOL     OW29344   3.489   4.228   6.417  0.0797 -0.7046 -0.1178
 5962SOL    HW129345   3.424   4.248   6.483 -0.7734 -1.5032 -0.7129
 5962SOL    HW229346   3.563   4.227   6.478 -0.0124  0.0350  0.0059
 5963SOL     OW29347   0.623   0.403   8.952 -0.5186 -0.4133  0.1372
 5963SOL    HW129348   0.530   0.387   8.966 -0.2783 -0.7698  1.3631
 5963SOL    HW229349   0.622   0.434   8.862 -1.2711 -0.2739  0.1930
 5964SOL     OW29350   3.028   2.945  17.622 -0.2128  0.1377  0.4307
 5964SOL    HW129351   2.977   2.934  17.541 -0.0402 -3.1329  0.7617
 5964SOL    HW229352   3.108   2.897  17.601  0.1128  0.1475  1.6389
 5965SOL     OW29353   0.033   3.959   3.103 -0.1464 -0.0190  0.0454
 5965SOL    HW129354   4.673   3.930   3.145 -0.3083 -1.5443 -1.2960
 5965SOL    HW229355   0.099   3.914   3.155  0.2166  0.1555 -0.2628
 5966SOL     OW29356   3.765   0.355   6.691  0.3891 -0.0318  0.2080
 5966SOL    HW129357   3.675   0.376   6.664  0.0013 -1.1483  0.6170
 5966SOL    HW229358   3.793   0.439   6.726 -1.9580  0.6570  0.4726
 5967SOL     OW29359   0.585   4.043   3.050  0.1185 -0.5176  0.1667
 5967SOL    HW129360   0.595   4.104   2.977 -0.6595  0.7327  1.1136
 5967SOL    HW229361   0.491   4.025   3.045  0.2416 -0.7634 -1.3382
 5968SOL     OW29362   0.818   0.489   6.485 -0.6218 -0.3420  0.0289
 5968SOL    HW129363   0.864   0.563   6.446  0.4873 -2.6523 -3.0981
 5968SOL    HW229364   0.734   0.492   6.440 -0.2684  0.9535 -0.5321
 5969SOL     OW29365   0.638   3.952  16.265 -0.6824 -0.0771 -0.2694
 5969SOL    HW129366   0.707   3.999  16.218 -0.5020  0.5794  0.6679
 5969SOL    HW229367   0.608   3.898  16.192  0.8773 -0.4319 -0.6460
 5970SOL     OW29368   4.351   4.086  16.309  0.3579  0.1003 -0.1972
 5970SOL    HW129369   4.316   4.167  16.271 -1.7371 -0.9940 -0.6132
 5970SOL    HW229370   4.297   4.018  16.268 -0.6446  1.0269 -0.4217
 5971SOL     OW29371   0.842   4.340   3.367 -0.1534 -0.0018 -0.1277
 5971SOL    HW129372   0.935   4.338   3.345 -0.5357 -1.4486 -1.5615
 5971SOL    HW229373   0.842   4.393   3.447 -1.7120 -1.4745  0.8280
 5972SOL     OW29374   3.119   3.485   6.134  0.0377  0.8340 -0.0586
 5972SOL    HW129375   3.163   3.401   6.134 -2.1052 -0.3031  1.7082
 5972SOL    HW229376   3.054   3.462   6.067 -0.5365 -0.0951  0.8130
 5973SOL     OW29377   1.024   1.065   8.392 -0.2589 -0.6009  0.5774
 5973SOL    HW129378   0.942   1.065   8.441 -0.9205  1.2611 -0.5300
 5973SOL    HW229379   1.065   1.145   8.425 -0.9489  0.4656 -1.1806
 5974SOL     OW29380   3.927   2.286  15.911  0.8379 -0.5275 -0.1859
 5974SOL    HW129381   3.975   2.260  15.990  0.7894 -0.8794 -0.2717
 5974SOL    HW229382   4.004   2.315  15.862 -0.8182  1.5001 -1.6114
 5975SOL     OW29383   3.044   1.599  16.860  0.1682  0.7656  0.1477
 5975SOL    HW129384   3.055   1.636  16.772 -1.6382  0.4950 -0.1801
 5975SOL    HW229385   3.057   1.682  16.906 -0.3205  0.3586  1.0102
 5976SOL     OW29386   2.331   2.168   6.375 -0.5800 -0.1396 -0.3582
 5976SOL    HW129387   2.266   2.237   6.367  0.2145  0.6449 -0.0190
 5976SOL    HW229388   2.412   2.217   6.360 -1.1099  1.2965  1.4628
 5977SOL     OW29389   3.072   1.922  15.766 -0.6383 -0.2129  0.1538
 5977SOL    HW129390   3.005   1.990  15.772 -0.8273 -0.4940  1.2473
 5977SOL    HW229391   3.147   1.977  15.742 -1.7769  0.3850 -2.0038
 5978SOL     OW29392   1.164   4.408   2.185  0.6964  1.2086  0.0502
 5978SOL    HW129393   1.092   4.461   2.219  1.1513  1.9364 -0.1095
 5978SOL    HW229394   1.237   4.470   2.187  1.7041 -0.0468  1.5523
 5979SOL     OW29395   0.958   3.396   2.384  0.1336  0.0886 -0.2277
 5979SOL    HW129396   0.932   3.305   2.397 -2.6676  1.1095  1.2483
 5979SOL    HW229397   0.898   3.422   2.314 -0.5141 -0.5464  0.0916
 5980SOL     OW29398   0.426   2.087   6.265 -0.4322  0.0375 -0.0790
 5980SOL    HW129399   0.427   2.146   6.191 -2.0005 -1.4368 -1.2847
 5980SOL    HW229400   0.364   2.023   6.229  1.1470 -0.4182 -1.9408
 5981SOL     OW29401   0.466   2.549   8.415 -0.4736 -0.1135  0.0646
 5981SOL    HW129402   0.372   2.549   8.393  0.3646  1.0703 -3.4881
 5981SOL    HW229403   0.465   2.618   8.481 -3.9157  0.3353 -0.4236
 5982SOL     OW29404   3.816   3.737   0.552  0.1820  0.3212 -0.1526
 5982SOL    HW129405   3.790   3.672   0.617 -0.9258 -0.8151 -1.7531
 5982SOL    HW229406   3.893   3.699   0.511  0.2762 -2.5986  2.7456
 5983SOL     OW29407   4.009   1.068   0.638 -0.5591 -0.4302  0.2223
 5983SOL    HW129408   4.037   1.073   0.730 -3.0534 -0.6100  0.9857
 5983SOL    HW229409   4.035   0.978   0.616 -1.1026 -0.6284  0.4022
 5984SOL     OW29410   3.559   1.298   2.001  0.1165  0.1823 -0.2030
 5984SOL    HW129411   3.512   1.364   2.052  0.8303 -1.5200  2.6296
 5984SOL    HW229412   3.642   1.290   2.049  0.4672  0.4081 -0.7702
 5985SOL     OW29413   3.130   0.800  12.569  0.0743  0.1760 -0.3147
 5985SOL    HW129414   3.215   0.776  12.608 -1.6128 -0.7911  2.7972
 5985SOL    HW229415   3.113   0.888  12.605  0.2352  0.5135 -1.0691
 5986SOL     OW29416   2.656   0.963  13.177 -0.1378  0.1776  0.7541
 5986SOL    HW129417   2.621   0.877  13.152  0.2781  0.2996 -0.2302
 5986SOL    HW229418   2.594   1.017  13.129  0.9469  1.0224  0.3339
 5987SOL     OW29419   0.199   4.484  17.123  0.6164 -0.2296 -0.1170
 5987SOL    HW129420   0.137   4.440  17.064  2.6380 -1.7209 -1.1413
 5987SOL    HW229421   0.279   4.444  17.089 -0.1314 -2.2465  0.5150
 5988SOL     OW29422   4.720   1.430   1.219 -0.0375 -0.2239  0.2130
 5988SOL    HW129423   4.705   1.359   1.281 -0.0990 -1.6944 -1.4915
 5988SOL    HW229424   0.051   1.385   1.153 -2.3777  0.1712 -1.9105
 5989SOL     OW29425   3.171   4.652   3.273 -0.2662 -0.2025 -0.6636
 5989SOL    HW129426   3.147   4.717   3.206  0.2506  1.0215  0.3348
 5989SOL    HW229427   3.227   4.593   3.223 -0.4846  0.7988 -2.1165
 5990SOL     OW29428   0.315   3.341   7.498 -0.2722 -0.7337  0.4715
 5990SOL    HW129429   0.366   3.419   7.520  0.3735 -1.4380  1.4916
 5990SOL    HW229430   0.381   3.299   7.443 -0.0415 -1.7653  1.5241
 5991SOL     OW29431   3.295   4.526   8.238 -0.9445 -0.5912  0.3618
 5991SOL    HW129432   3.250   4.530   8.154 -1.6776 -0.2298  0.7712
 5991SOL    HW229433   3.253   4.447   8.274 -0.3543 -1.1057 -0.0645
 5992SOL     OW29434   1.884   2.422  14.725  0.6598 -0.3070  0.5589
 5992SOL    HW129435   1.869   2.517  14.719  0.0206 -0.4543 -0.2419
 5992SOL    HW229436   1.962   2.424  14.781  0.2312  0.9420  1.1371
 5993SOL     OW29437   0.755   3.108   6.434 -0.1424  0.4880  0.1618
 5993SOL    HW129438   0.682   3.046   6.440 -0.3707  1.0271  2.9454
 5993SOL    HW229439   0.712   3.174   6.378 -0.6490 -0.2867 -0.3650
 5994SOL     OW29440   0.025   1.453   9.017 -0.1409  0.0839 -0.2804
 5994SOL    HW129441   0.014   1.465   8.923 -4.1577  0.4446  0.2567
 5994SOL    HW229442   0.044   1.359   9.021 -0.9306 -0.1417 -1.9640
 5995SOL     OW29443   1.186   1.267   7.306 -0.2856  0.1255 -0.1488
 5995SOL    HW129444   1.154   1.333   7.368  0.1701 -1.8122  2.1465
 5995SOL    HW229445   1.221   1.202   7.367 -0.0113  1.0659  0.6957
 5996SOL     OW29446   0.707   4.703   6.915 -0.0505  0.5298 -0.2888
 5996SOL    HW129447   0.734   4.629   6.969 -0.7833 -1.2390 -2.3335
 5996SOL    HW229448   0.628   4.666   6.877  1.2455 -0.3554 -2.0918
 5997SOL     OW29449   3.926   3.136   3.160  0.0842  0.4124  0.0943
 5997SOL    HW129450   3.908   3.217   3.113 -1.5839 -0.2358 -0.3597
 5997SOL    HW229451   3.853   3.078   3.137 -0.4997  1.5498 -0.8762
 5998SOL     OW29452   4.406   4.167   3.716 -0.9588  0.1796  0.1988
 5998SOL    HW129453   4.406   4.178   3.811 -2.0543 -0.6469  0.2842
 5998SOL    HW229454   4.324   4.215   3.706 -0.2983  1.2617 -0.0052
 5999SOL     OW29455   4.446   0.280   4.511 -0.0612 -0.0287  0.1967
 5999SOL    HW129456   4.418   0.206   4.565 -1.5918  1.3357  1.2905
 5999SOL    HW229457   4.447   0.346   4.581  0.2430 -0.2522  0.4046
 6000SOL     OW29458   4.145   1.126   8.197 -0.6621 -0.3368  0.0665
 6000SOL    HW129459   4.238   1.139   8.217 -1.0796  1.4644  0.8655
 6000SOL    HW229460   4.111   1.129   8.287  0.2262 -1.6206  0.4455
 6001SOL     OW29461   3.930   4.055   7.828  0.2893  0.0265 -0.3540
 6001SOL    HW129462   3.983   4.134   7.838  0.9749 -0.4279 -0.3293
 6001SOL    HW229463   3.854   4.077   7.775 -0.1657  2.4275  1.3377
 6002SOL     OW29464   1.742   4.071   6.325  0.0407 -0.0901  0.0358
 6002SOL    HW129465   1.714   3.990   6.367 -1.7152 -0.4112 -1.7231
 6002SOL    HW229466   1.689   4.127   6.381  0.8988  1.2275 -0.4557
 6003SOL     OW29467   2.570   2.265  10.847  0.1431  0.1671  0.4214
 6003SOL    HW129468   2.666   2.264  10.847  0.1502 -0.7970 -2.5094
 6003SOL    HW229469   2.548   2.172  10.855  1.0880 -0.0190  0.8105
 6004SOL     OW29470   0.658   0.962  16.824  0.0374 -0.2622  0.2792
 6004SOL    HW129471   0.678   0.879  16.780 -0.0940  0.5764 -1.3965
 6004SOL    HW229472   0.671   1.022  16.750  2.2863 -0.3997  0.5624
 6005SOL     OW29473   0.683   2.093   2.856 -0.3875  0.0344  0.0923
 6005SOL    HW129474   0.731   2.129   2.781 -2.2409 -0.7216 -1.4534
 6005SOL    HW229475   0.652   2.018   2.805  1.5325 -1.1658  0.7248
 6006SOL     OW29476   4.252   1.737   8.619  0.1969  0.5069  0.2496
 6006SOL    HW129477   4.169   1.734   8.667  1.2562  0.0427  2.0747
 6006SOL    HW229478   4.311   1.700   8.686 -0.9451  0.9404  1.5019
 6007SOL     OW29479   3.296   3.851   6.651  0.5348  0.0197 -0.1029
 6007SOL    HW129480   3.378   3.874   6.694  1.6471 -2.6062 -0.8272
 6007SOL    HW229481   3.323   3.796   6.577  1.8184 -1.4139  1.4243
 6008SOL     OW29482   3.495   1.608   2.784 -0.2614 -0.0382  0.1139
 6008SOL    HW129483   3.539   1.544   2.729  0.1338 -1.1029  1.6725
 6008SOL    HW229484   3.523   1.566   2.865  0.6388 -1.8809 -1.1620
 6009SOL     OW29485   1.851   3.928   5.807  0.0513  0.1623  0.1455
 6009SOL    HW129486   1.904   3.917   5.886 -0.4728 -1.6457  0.2549
 6009SOL    HW229487   1.788   3.855   5.809  0.1969  0.0555  0.8220
 6010SOL     OW29488   4.512   2.641  13.939 -0.3302  1.0259 -0.0823
 6010SOL    HW129489   4.426   2.615  13.904 -0.8933 -1.0558  2.8544
 6010SOL    HW229490   4.482   2.704  14.004 -4.4154 -0.1612 -0.7612
 6011SOL     OW29491   0.355   4.623   5.181 -0.2683 -0.2544 -0.4706
 6011SOL    HW129492   0.360   4.536   5.142  3.1733  0.6561 -2.0448
 6011SOL    HW229493   0.448   4.643   5.194 -0.2283 -0.5063 -0.3689
 6012SOL     OW29494   0.380   3.259  11.386 -0.1435 -0.3962 -0.0893
 6012SOL    HW129495   0.366   3.168  11.358  0.6111 -1.1276  1.8714
 6012SOL    HW229496   0.449   3.236  11.448 -0.4079 -1.4947 -0.1988
 6013SOL     OW29497   3.326   0.686   0.753 -0.4118  0.8110 -0.0313
 6013SOL    HW129498   3.320   0.603   0.801 -0.1419  1.0600  0.4241
 6013SOL    HW229499   3.384   0.727   0.817 -0.4413 -0.4752  0.8309
 6014SOL     OW29500   3.650   0.384  14.743 -0.0466 -0.1228 -0.2397
 6014SOL    HW129501   3.630   0.416  14.655 -0.1184  0.0003 -0.1787
 6014SOL    HW229502   3.672   0.293  14.725 -0.9612  0.3253 -3.5160
 6015SOL     OW29503   3.411   3.607   5.842 -0.7602 -0.2826 -0.1758
 6015SOL    HW129504   3.439   3.634   5.929 -1.4002 -1.2143  0.3161
 6015SOL    HW229505   3.480   3.548   5.809  1.8993  1.4945  2.1677
 6016SOL     OW29506   0.678   3.242  15.713 -0.1773  0.0104 -0.0606
 6016SOL    HW129507   0.612   3.285  15.658 -2.1773 -1.1921  1.4374
 6016SOL    HW229508   0.651   3.278  15.797  0.0872  0.6338 -0.2386
 6017SOL     OW29509   4.251   2.945  17.655 -0.1101 -0.4406  0.3359
 6017SOL    HW129510   4.163   2.972  17.627  1.3289  3.0584 -0.7268
 6017SOL    HW229511   4.284   3.029  17.685 -1.2103 -0.5716  1.9637
 6018SOL     OW29512   0.724   1.456  12.266 -0.2452  0.5239 -0.5077
 6018SOL    HW129513   0.750   1.541  12.300  0.9886  0.4530 -1.2575
 6018SOL    HW229514   0.720   1.465  12.170  0.0078  0.3755 -0.5310
 6019SOL     OW29515   4.555   2.664  16.358  0.2694  0.0938  0.0020
 6019SOL    HW129516   4.567   2.647  16.265  0.1580 -1.6155  0.3158
 6019SOL    HW229517   4.628   2.724  16.374 -0.2491  0.5678  0.6325
 6020SOL     OW29518   0.485   0.947  11.641  0.4052 -0.3028 -0.2879
 6020SOL    HW129519   0.512   0.906  11.559 -0.4806  0.6429 -1.0439
 6020SOL    HW229520   0.453   1.032  11.612 -1.2445 -0.8921 -0.1603
 6021SOL     OW29521   1.176   1.845   5.067  0.1889 -0.4095  0.2494
 6021SOL    HW129522   1.248   1.826   5.007 -1.6299  0.6011 -2.2851
 6021SOL    HW229523   1.113   1.849   4.994  0.0728  0.0907  0.3774
 6022SOL     OW29524   4.097   4.140   2.116  0.1097 -0.7256  0.3062
 6022SOL    HW129525   4.191   4.139   2.131  0.3131  2.3716 -0.6280
 6022SOL    HW229526   4.076   4.050   2.140 -0.4688 -0.5632  0.4370
 6023SOL     OW29527   2.106   1.626  13.798 -0.3842  0.1141  0.1976
 6023SOL    HW129528   2.121   1.536  13.826  0.4754  0.5787  1.2028
 6023SOL    HW229529   2.051   1.608  13.721  0.6971 -0.3166 -0.4720
 6024SOL     OW29530   2.416   3.953   7.550  0.1857 -0.3773 -0.1732
 6024SOL    HW129531   2.400   3.930   7.642  2.3205 -0.7528  0.1044
 6024SOL    HW229532   2.372   3.884   7.501 -0.3855  0.2062 -0.4769
 6025SOL     OW29533   2.346   4.348   0.029  0.1054  0.5776 -0.2287
 6025SOL    HW129534   2.375   4.257   0.027 -0.3401  0.4118  0.7666
 6025SOL    HW229535   2.387   4.373  17.634  2.7299 -0.8799  0.6220
 6026SOL     OW29536   0.674   3.808   2.583  0.2477  0.8094 -0.0353
 6026SOL    HW129537   0.627   3.889   2.566  1.4346  2.1859  3.2977
 6026SOL    HW229538   0.678   3.773   2.495 -0.1728 -0.1788  0.3327
 6027SOL     OW29539   1.949   2.085   9.568 -0.7211  0.6366 -0.2347
 6027SOL    HW129540   1.945   2.139   9.647 -0.1122 -0.6217  0.6622
 6027SOL    HW229541   2.043   2.068   9.562 -0.4343  2.4667 -0.9286
 6028SOL     OW29542   3.322   1.954   9.169  0.3571  0.1072  0.0013
 6028SOL    HW129543   3.327   1.882   9.106 -0.2682  0.9129 -0.9611
 6028SOL    HW229544   3.408   1.971   9.209 -0.4378  0.3683  1.5979
 6029SOL     OW29545   4.144   1.300   0.553 -0.0366  0.2884  0.6605
 6029SOL    HW129546   4.189   1.246   0.488 -0.9095  0.3528  0.0022
 6029SOL    HW229547   4.079   1.236   0.580 -1.3492  1.4241  0.2132
 6030SOL     OW29548   0.093   4.282   7.909 -0.9978 -0.0774 -0.2691
 6030SOL    HW129549   0.040   4.314   7.982  0.8994 -0.1229  1.1489
 6030SOL    HW229550   0.052   4.197   7.892  2.1369 -1.4020 -1.2141
 6031SOL     OW29551   4.005   3.689  12.024  0.5257  0.0874 -0.0616
 6031SOL    HW129552   4.053   3.709  12.105 -0.2616  1.2102  0.1316
 6031SOL    HW229553   3.942   3.760  12.012 -0.0100 -0.7811 -2.1771
 6032SOL     OW29554   3.645   2.291   5.251 -0.1715  0.3914  0.7505
 6032SOL    HW129555   3.616   2.237   5.178 -2.9787  1.5156  1.0574
 6032SOL    HW229556   3.602   2.251   5.327 -1.1521 -2.4211 -1.3015
 6033SOL     OW29557   4.577   0.095  17.538  0.1700 -0.0462 -0.1723
 6033SOL    HW129558   4.630   0.020  17.564  1.0747  0.3560 -0.8616
 6033SOL    HW229559   4.646   0.138  17.487 -1.4108 -0.6932 -2.8187
 6034SOL     OW29560   2.402   0.889   0.056 -0.1079  0.1236 -0.2146
 6034SOL    HW129561   2.402   0.970   0.005 -3.9274  0.0670 -0.3265
 6034SOL    HW229562   2.439   0.825  17.683  1.3155  0.5884  0.1875
 6035SOL     OW29563   2.551   0.940  16.286  0.2889  0.1375 -0.2807
 6035SOL    HW129564   2.463   0.905  16.301  0.7646 -1.2135 -0.6043
 6035SOL    HW229565   2.570   0.898  16.202 -1.8920  1.5854 -1.5030
 6036SOL     OW29566   0.877   1.527   2.620  0.1023 -0.0619 -0.3278
 6036SOL    HW129567   0.784   1.546   2.627  0.2116  0.2829  0.1702
 6036SOL    HW229568   0.899   1.571   2.702  0.1799  0.3080 -0.5464
 6037SOL     OW29569   1.310   4.576   3.504 -0.2464 -0.2284 -0.0860
 6037SOL    HW129570   1.354   4.638   3.446 -1.3441  1.6595  1.0860
 6037SOL    HW229571   1.370   4.502   3.511  3.2879  2.6055 -0.8466
 6038SOL     OW29572   3.481   1.901   6.850 -0.0856 -0.1602 -0.3946
 6038SOL    HW129573   3.538   1.940   6.784 -1.6118  3.0131  0.1802
 6038SOL    HW229574   3.482   1.976   6.909 -0.6962 -3.0924  3.3438
 6039SOL     OW29575   3.065   2.962   0.223  0.2242 -0.1857  0.6159
 6039SOL    HW129576   3.073   2.867   0.221 -1.1887 -0.2852 -0.4836
 6039SOL    HW229577   3.067   2.981   0.129  0.9514 -0.0512  0.6577
 6040SOL     OW29578   1.443   0.349  14.826 -0.0836 -0.1639 -0.8968
 6040SOL    HW129579   1.469   0.431  14.868 -0.9554  0.3388 -1.3577
 6040SOL    HW229580   1.533   0.318  14.814  0.5654  0.5288  1.9872
 6041SOL     OW29581   0.003   4.113  17.141  0.9324 -0.6390  0.0659
 6041SOL    HW129582   0.015   4.129  17.234  2.0067 -1.2625  0.0256
 6041SOL    HW229583   4.650   4.172  17.122  0.6558 -1.3410 -1.0248
 6042SOL     OW29584   1.173   1.936  16.694  0.1973  0.1969 -0.3127
 6042SOL    HW129585   1.237   1.865  16.694  0.4147  0.3913 -0.1393
 6042SOL    HW229586   1.230   2.009  16.721  2.9755 -1.7514 -1.0044
 6043SOL     OW29587   2.695   1.642   2.539 -0.1813  0.2971  0.6761
 6043SOL    HW129588   2.673   1.590   2.616 -0.0247 -1.7003 -0.6135
 6043SOL    HW229589   2.607   1.665   2.510 -0.2914 -0.7619  0.1658
 6044SOL     OW29590   3.784   3.879   5.241 -0.2460  0.0534  0.0559
 6044SOL    HW129591   3.769   3.936   5.317 -1.4320 -0.5425  0.2566
 6044SOL    HW229592   3.876   3.861   5.262 -0.4652 -1.1783 -0.0349
 6045SOL     OW29593   0.460   4.323   4.817  0.0491  0.0577  0.1129
 6045SOL    HW129594   0.530   4.384   4.837  0.0041  0.8103 -1.9760
 6045SOL    HW229595   0.386   4.382   4.823 -0.0699 -0.0914  0.1233
 6046SOL     OW29596   2.575   0.482   1.680  0.5028  0.3251 -0.0771
 6046SOL    HW129597   2.647   0.524   1.633 -0.5227  0.5637 -1.4462
 6046SOL    HW229598   2.625   0.444   1.752  1.5930  0.3989 -0.7892
 6047SOL     OW29599   1.998   0.561  11.572  0.3904  0.6810 -0.1206
 6047SOL    HW129600   1.930   0.507  11.534  1.7253 -0.6026 -0.6643
 6047SOL    HW229601   2.031   0.502  11.639 -0.8823  0.5900  0.4134
 6048SOL     OW29602   4.574   3.688   2.217  0.0529  0.4338  0.0847
 6048SOL    HW129603   4.487   3.718   2.188  0.6268  0.9730 -1.0432
 6048SOL    HW229604   4.541   3.622   2.278 -0.7616 -0.1369 -0.9713
 6049SOL     OW29605   2.468   1.904  13.140  0.0193 -0.5704  0.2663
 6049SOL    HW129606   2.405   1.842  13.176 -1.2163  0.0040 -0.9200
 6049SOL    HW229607   2.486   1.857  13.059  1.8894 -0.9856  0.9091
 6050SOL     OW29608   2.817   0.939  17.682 -0.5865 -0.4094 -0.2544
 6050SOL    HW129609   2.827   0.856   0.041 -1.0818 -0.4150 -0.1537
 6050SOL    HW229610   2.906   0.972   0.008 -0.5094 -0.9450  0.4891
 6051SOL     OW29611   0.887   0.334   5.591  0.5007 -0.3780 -0.0836
 6051SOL    HW129612   0.950   0.332   5.663  1.7644  1.9897 -1.1307
 6051SOL    HW229613   0.807   0.316   5.641  2.0356 -1.4566  2.0087
 6052SOL     OW29614   0.159   1.191   8.258 -0.2561  0.0859  0.9609
 6052SOL    HW129615   0.142   1.285   8.256 -0.3240  0.0492 -0.4409
 6052SOL    HW229616   0.234   1.190   8.317  1.5148  1.5298 -1.2716
 6053SOL     OW29617   2.372   4.513   3.447  0.4895 -0.1577 -0.3091
 6053SOL    HW129618   2.428   4.509   3.369 -0.9788  1.0816 -1.4263
 6053SOL    HW229619   2.323   4.432   3.429  1.3343 -0.6495 -0.4094
 6054SOL     OW29620   3.591   1.999   6.242  0.5508  0.8071  0.3012
 6054SOL    HW129621   3.650   2.075   6.243 -1.1387  2.1571 -1.9034
 6054SOL    HW229622   3.556   1.990   6.331 -0.9588  1.4024 -0.2356
 6055SOL     OW29623   1.142   4.555   7.499  0.1046 -0.2055  0.0597
 6055SOL    HW129624   1.082   4.624   7.471 -2.5943 -2.4103  0.3964
 6055SOL    HW229625   1.091   4.474   7.497 -0.9605  0.5077 -1.9726
 6056SOL     OW29626   1.899   1.524  10.578  0.0612 -0.3405  0.7046
 6056SOL    HW129627   1.913   1.569  10.661 -0.8751  0.6933  0.3116
 6056SOL    HW229628   1.893   1.604  10.526  0.7484 -1.1506 -0.6262
 6057SOL     OW29629   2.818   0.045  16.628 -0.0700 -0.0845 -0.0423
 6057SOL    HW129630   2.875   0.108  16.584  1.0850 -0.5886  0.7204
 6057SOL    HW229631   2.847   4.683  16.591 -1.8324 -1.0210  0.6670
 6058SOL     OW29632   1.204   3.217   9.455 -0.2595 -0.3949 -0.1655
 6058SOL    HW129633   1.264   3.161   9.504 -0.4396  0.6611  1.2550
 6058SOL    HW229634   1.244   3.203   9.369 -1.6631  0.1089 -0.8885
 6059SOL     OW29635   2.947   1.654  12.840  0.4287  0.0722 -0.3626
 6059SOL    HW129636   2.870   1.708  12.854 -0.4853 -1.2089 -0.4714
 6059SOL    HW229637   2.975   1.692  12.756  0.7409 -0.9167 -0.7123
 6060SOL     OW29638   3.751   4.439   5.715  0.0623  0.6035 -0.1117
 6060SOL    HW129639   3.798   4.402   5.640 -1.0342 -1.9735  0.4736
 6060SOL    HW229640   3.668   4.393   5.709  0.3061  0.0834  0.5394
 6061SOL     OW29641   2.355   4.648   4.045 -0.6749  0.4103  0.5230
 6061SOL    HW129642   2.448   4.660   4.066 -0.4878  2.0346 -1.2199
 6061SOL    HW229643   2.323   4.608   4.126  1.5043  0.6714  1.4998
 6062SOL     OW29644   0.014   1.418   8.737  0.0094 -0.6929 -0.2019
 6062SOL    HW129645   0.098   1.439   8.696 -0.6290  3.4246  0.6056
 6062SOL    HW229646   4.681   1.447   8.663  1.7245  1.8155 -0.4574
 6063SOL     OW29647   1.111   3.788  13.904 -0.0133  0.6019  0.3253
 6063SOL    HW129648   1.174   3.795  13.976 -0.0184 -1.0548  0.5030
 6063SOL    HW229649   1.066   3.705  13.919 -0.9749  1.2396  0.9278
 6064SOL     OW29650   3.665   3.061   8.174  0.0499 -0.1087  0.4474
 6064SOL    HW129651   3.755   3.089   8.155 -0.1618  0.5739  0.4317
 6064SOL    HW229652   3.650   3.129   8.240 -2.5548  1.2901 -1.6290
 6065SOL     OW29653   0.494   0.859   3.395 -0.0511 -0.0867 -0.0954
 6065SOL    HW129654   0.422   0.863   3.458 -0.0242  0.6049 -0.1177
 6065SOL    HW229655   0.491   0.949   3.364  0.9811 -0.2536 -0.6606
 6066SOL     OW29656   2.355   1.169  16.222 -0.2848 -0.1340 -0.7485
 6066SOL    HW129657   2.356   1.230  16.295 -2.4130 -1.8324  0.6927
 6066SOL    HW229658   2.426   1.108  16.240  1.3498  2.0065  0.0595
 6067SOL     OW29659   1.643   1.271   7.397 -0.2426  0.0016 -0.3385
 6067SOL    HW129660   1.611   1.267   7.487 -1.6294 -1.5138 -0.8866
 6067SOL    HW229661   1.594   1.343   7.356  0.7474  1.1968  0.6148
 6068SOL     OW29662   2.824   2.846   4.108  0.4014 -0.1694 -0.2003
 6068SOL    HW129663   2.822   2.866   4.201 -2.0854  0.0396 -0.2973
 6068SOL    HW229664   2.888   2.775   4.103  0.7387  0.1802 -0.9568
 6069SOL     OW29665   2.161   0.848  16.955  0.0081 -0.2327 -0.0632
 6069SOL    HW129666   2.147   0.908  16.881 -0.8829  1.2873  1.3268
 6069SOL    HW229667   2.230   0.896  17.000 -0.7979  0.0352  0.8907
 6070SOL     OW29668   2.659   0.946   0.933  0.2537 -0.0568 -0.0236
 6070SOL    HW129669   2.678   0.854   0.918  0.6885  0.1917 -0.9712
 6070SOL    HW229670   2.717   0.959   1.009  0.6028 -0.8963 -0.1496
 6071SOL     OW29671   0.284   2.897   9.212  1.0745 -0.1489  1.1079
 6071SOL    HW129672   0.345   2.944   9.268  1.2309  0.8785  0.0671
 6071SOL    HW229673   0.281   2.817   9.265  0.3162 -0.9073 -0.0803
 6072SOL     OW29674   3.475   1.726   8.606  0.0258  0.2435 -0.3708
 6072SOL    HW129675   3.444   1.699   8.519  1.4831  0.1419 -0.8723
 6072SOL    HW229676   3.566   1.756   8.594  0.3564 -0.0746  1.3117
 6073SOL     OW29677   1.274   0.920   8.740  0.6606  0.2366  0.1373
 6073SOL    HW129678   1.276   0.900   8.646 -0.5364  2.6859 -0.3948
 6073SOL    HW229679   1.199   0.978   8.754 -0.1863 -2.0616  4.9449
 6074SOL     OW29680   0.867   2.038   6.039 -0.5172  0.0132 -0.0351
 6074SOL    HW129681   0.903   1.964   5.990  1.6538  2.3079 -1.8647
 6074SOL    HW229682   0.773   2.036   6.019 -0.8885  0.0407  1.7189
 6075SOL     OW29683   1.461   2.006  14.306  0.3714  0.4553  0.1038
 6075SOL    HW129684   1.449   1.923  14.353 -0.8758  0.3967 -0.3043
 6075SOL    HW229685   1.419   1.987  14.222  1.6087 -0.5600 -0.2873
 6076SOL     OW29686   4.228   0.436   8.781  1.0411  0.1900  0.6012
 6076SOL    HW129687   4.249   0.433   8.874  0.0914  0.5091  0.8288
 6076SOL    HW229688   4.261   0.352   8.749  0.4983 -0.3218  1.3732
 6077SOL     OW29689   2.683   0.898   1.722 -0.0632 -0.0849 -0.1811
 6077SOL    HW129690   2.596   0.932   1.699  0.4843  1.6862  0.3257
 6077SOL    HW229691   2.696   0.957   1.797  0.2619  1.2631 -1.2927
 6078SOL     OW29692   3.910   3.301   4.588  0.0546  0.2892 -0.1384
 6078SOL    HW129693   3.875   3.375   4.537  0.3082  0.0354 -0.6825
 6078SOL    HW229694   3.840   3.295   4.653 -0.0648  2.0925 -0.0840
 6079SOL     OW29695   2.750   3.613   7.809 -0.0847 -0.6481  0.2822
 6079SOL    HW129696   2.668   3.578   7.846  0.1115  0.8793  2.1897
 6079SOL    HW229697   2.815   3.564   7.860  1.8387 -0.7444 -2.2404
 6080SOL     OW29698   1.109   3.327  17.139 -0.0152  0.3553 -0.2243
 6080SOL    HW129699   1.150   3.241  17.135 -0.7445 -0.2237  4.4108
 6080SOL    HW229700   1.017   3.302  17.137  0.3373 -0.9888  0.4662
 6081SOL     OW29701   2.363   3.369  10.463 -0.2168 -0.3414  0.2481
 6081SOL    HW129702   2.397   3.324  10.385  0.4709 -2.1957  1.6169
 6081SOL    HW229703   2.387   3.459  10.440 -2.8291  0.7510  1.7368
 6082SOL     OW29704   3.931   3.307   4.086 -0.1212  0.1385 -0.0029
 6082SOL    HW129705   4.011   3.356   4.101  0.1974 -0.4151  0.1323
 6082SOL    HW229706   3.873   3.380   4.065 -1.8623 -0.8173  1.4345
 6083SOL     OW29707   0.618   2.327   5.009 -0.4265  0.1740  0.2470
 6083SOL    HW129708   0.591   2.235   5.007 -0.8193  0.3004 -0.4810
 6083SOL    HW229709   0.669   2.331   4.928 -0.1796  0.6182  0.4272
 6084SOL     OW29710   2.127   0.559   1.310  0.5089 -0.0263  0.5696
 6084SOL    HW129711   2.145   0.613   1.388 -0.6540  0.2635  0.6319
 6084SOL    HW229712   2.048   0.518   1.343  0.3514 -0.5732 -0.5256
 6085SOL     OW29713   0.065   1.057   5.298 -0.0182  0.1019  0.1591
 6085SOL    HW129714   0.098   1.142   5.270  3.4947 -0.5657  2.3739
 6085SOL    HW229715   4.691   1.070   5.293 -0.1302 -1.7051 -1.9811
 6086SOL     OW29716   1.225   0.006  15.795 -0.0300  0.3120 -0.0591
 6086SOL    HW129717   1.163   4.676  15.846  0.7661  0.5088  1.1164
 6086SOL    HW229718   1.229   0.087  15.847 -1.8504 -0.2924  1.0298
 6087SOL     OW29719   3.105   3.661   9.073  0.1777  0.0318  0.4343
 6087SOL    HW129720   3.058   3.637   9.153  1.4003  0.0007  1.1516
 6087SOL    HW229721   3.190   3.635   9.109  0.9203 -0.0567 -1.4206
 6088SOL     OW29722   1.463   4.362   0.132 -0.1951  0.0370  0.0631
 6088SOL    HW129723   1.497   4.404   0.210  0.3627  1.0481 -0.7230
 6088SOL    HW229724   1.495   4.275   0.154  1.7908  0.9102  0.5567
 6089SOL     OW29725   3.483   0.924   5.678  0.1007 -0.3688  0.2672
 6089SOL    HW129726   3.566   0.942   5.633 -0.3197  1.9136  0.4049
 6089SOL    HW229727   3.434   0.873   5.614 -2.4197 -0.7093  2.4608
 6090SOL     OW29728   2.628   2.180  15.817  0.6296 -0.2279 -0.0185
 6090SOL    HW129729   2.565   2.252  15.817 -0.3992 -1.1145  1.8491
 6090SOL    HW229730   2.618   2.128  15.897  1.8768 -0.4253  0.0048
 6091SOL     OW29731   0.541   0.139  10.008  0.5736 -0.1366 -0.3581
 6091SOL    HW129732   0.546   0.179   9.921  0.0224 -0.3661 -0.4952
 6091SOL    HW229733   0.512   0.053   9.978  1.0321 -0.0136 -1.1575
 6092SOL     OW29734   0.589   3.959   5.082 -0.5483 -0.8315  0.4242
 6092SOL    HW129735   0.503   4.000   5.069 -1.0499 -1.7462  0.8957
 6092SOL    HW229736   0.646   4.015   5.029 -1.7594  0.7720  0.8040
 6093SOL     OW29737   1.780   0.659  14.514  0.1074 -0.1312  0.1082
 6093SOL    HW129738   1.686   0.651  14.534  0.1842  1.9594  1.2601
 6093SOL    HW229739   1.817   0.665  14.602 -1.9722 -1.1870  1.0670
 6094SOL     OW29740   4.374   2.612   4.357 -0.1478 -0.1784  0.3480
 6094SOL    HW129741   4.319   2.690   4.350 -0.8725 -0.7152  0.1064
 6094SOL    HW229742   4.434   2.615   4.283 -0.7351 -4.5414 -0.2878
 6095SOL     OW29743   0.754   4.134   7.103 -0.3091 -0.5364  0.0957
 6095SOL    HW129744   0.764   4.124   7.198  0.4138 -0.1153  0.0678
 6095SOL    HW229745   0.748   4.039   7.091  1.5592 -0.7963  1.1583
 6096SOL     OW29746   1.755   4.507   2.453  0.0434  0.2130 -0.1317
 6096SOL    HW129747   1.665   4.478   2.467  0.2649 -0.4849 -0.1122
 6096SOL    HW229748   1.800   4.437   2.501 -1.3969  0.5562  1.6942
 6097SOL     OW29749   1.599   3.559   3.232 -0.1563  0.7413 -0.1246
 6097SOL    HW129750   1.644   3.636   3.198  2.2588 -1.6355 -2.3798
 6097SOL    HW229751   1.643   3.558   3.317  0.0589 -0.2677 -0.2462
 6098SOL     OW29752   3.396   2.162   5.758  0.0133  0.4166 -0.2418
 6098SOL    HW129753   3.358   2.227   5.817  1.2370 -2.3696  3.6528
 6098SOL    HW229754   3.349   2.080   5.777  1.7245 -0.1919  1.2914
 6099SOL     OW29755   3.439   2.747   8.150 -0.2438 -0.2034 -0.4744
 6099SOL    HW129756   3.351   2.731   8.117  0.5166 -2.2932 -1.4078
 6099SOL    HW229757   3.493   2.756   8.071  0.1613 -5.2072 -0.7289
 6100SOL     OW29758   4.018   3.719   5.053 -0.1088  0.9344  0.1516
 6100SOL    HW129759   4.013   3.640   5.000 -1.0991  0.7763  0.4616
 6100SOL    HW229760   4.062   3.680   5.129  0.5065  0.1117 -0.6383
 6101SOL     OW29761   1.439   3.076   7.542 -0.0045  0.2077  0.3209
 6101SOL    HW129762   1.534   3.059   7.546 -0.3303 -1.2934  1.5570
 6101SOL    HW229763   1.431   3.169   7.560 -4.9645 -0.3930  1.1685
 6102SOL     OW29764   2.658   2.279   3.203 -0.1865  0.1139 -0.1962
 6102SOL    HW129765   2.729   2.237   3.251  1.5290  2.3564 -0.8124
 6102SOL    HW229766   2.647   2.213   3.135  0.1551 -1.7377  1.5239
 6103SOL     OW29767   0.522   0.026  10.528  0.3768  0.2254 -0.3380
 6103SOL    HW129768   0.567   0.106  10.503  1.8732 -0.7777 -0.8868
 6103SOL    HW229769   0.432   0.058  10.532 -0.1101 -1.2528  0.9497
 6104SOL     OW29770   2.759   1.686  12.299 -0.2243  0.7447 -1.0423
 6104SOL    HW129771   2.770   1.652  12.210 -1.3835 -0.3472 -0.7793
 6104SOL    HW229772   2.720   1.771  12.280  1.9039  1.9958  0.2657
 6105SOL     OW29773   1.798   0.252   7.314  0.0119  0.8384 -0.3520
 6105SOL    HW129774   1.746   0.177   7.283 -1.2686  1.4471  0.2916
 6105SOL    HW229775   1.877   0.239   7.263 -1.2884  0.1084 -2.1805
 6106SOL     OW29776   0.813   3.853   4.597 -0.0393 -0.2553  0.0023
 6106SOL    HW129777   0.790   3.878   4.507 -0.6886 -1.1172 -0.0655
 6106SOL    HW229778   0.877   3.924   4.610  1.2908 -1.5090  0.2470
 6107SOL     OW29779   1.042   0.418  14.395 -0.0282  0.3842  0.3526
 6107SOL    HW129780   0.965   0.364  14.381 -0.3532  0.5847  1.3669
 6107SOL    HW229781   1.094   0.391  14.319 -1.7603 -0.1548 -0.6153
 6108SOL     OW29782   0.839   1.599   8.232  0.2265  0.8065 -0.4199
 6108SOL    HW129783   0.813   1.556   8.151  1.5089  0.8064 -0.8421
 6108SOL    HW229784   0.770   1.665   8.232 -0.0561  0.5156  0.7067
 6109SOL     OW29785   3.916   4.526   9.070  0.6152  0.8942  0.1771
 6109SOL    HW129786   4.002   4.569   9.069  1.6419 -1.1735  1.3343
 6109SOL    HW229787   3.896   4.517   9.163  0.6096 -1.3783 -0.0467
 6110SOL     OW29788   2.204   2.172  11.223 -0.2724  0.3301 -0.2939
 6110SOL    HW129789   2.226   2.108  11.291 -1.2082 -0.1104 -0.4099
 6110SOL    HW229790   2.274   2.157  11.159  1.4095  4.0574  0.6849
 6111SOL     OW29791   1.899   4.143   1.218 -0.2346  0.5090 -0.4865
 6111SOL    HW129792   1.870   4.219   1.167 -0.6362  1.2427  0.8511
 6111SOL    HW229793   1.911   4.198   1.295  1.2988 -1.4239  0.6579
 6112SOL     OW29794   2.486   1.783   2.912 -0.0594  0.5830 -0.2741
 6112SOL    HW129795   2.568   1.759   2.869 -0.9916  2.6311 -3.1748
 6112SOL    HW229796   2.416   1.769   2.848  0.2007  0.5129 -0.5455
 6113SOL     OW29797   3.643   1.043   7.490 -0.6812 -0.0933  0.4185
 6113SOL    HW129798   3.678   1.093   7.564 -2.5366  2.1291 -0.1806
 6113SOL    HW229799   3.566   1.008   7.535  0.2516 -2.3081  0.2755
 6114SOL     OW29800   0.058   1.683   1.105 -0.3655  0.3967  0.2633
 6114SOL    HW129801   0.032   1.607   1.158 -0.6713  1.3303  1.4422
 6114SOL    HW229802   0.129   1.715   1.162  0.3873 -0.2330 -0.3135
 6115SOL     OW29803   2.575   0.762  16.046 -0.2036  0.3509  0.1330
 6115SOL    HW129804   2.522   0.766  15.966  2.0113 -1.0251 -1.4109
 6115SOL    HW229805   2.568   0.671  16.074  0.2465  0.2171 -0.1850
 6116SOL     OW29806   4.250   0.741   5.879 -0.0966 -0.3686 -0.8505
 6116SOL    HW129807   4.316   0.808   5.897 -1.0726  0.7057 -1.2759
 6116SOL    HW229808   4.270   0.693   5.799  1.9395  0.0410 -0.5785
 6117SOL     OW29809   2.657   0.758  15.378 -0.3196 -0.0056  0.3959
 6117SOL    HW129810   2.686   0.667  15.382 -1.9627 -0.5249  0.4425
 6117SOL    HW229811   2.723   0.814  15.418 -0.6967 -0.3457  1.4915
 6118SOL     OW29812   1.120   2.535   9.645 -0.3007  0.3437  0.1770
 6118SOL    HW129813   1.030   2.566   9.638 -1.3732 -2.4802  1.6411
 6118SOL    HW229814   1.107   2.448   9.608  0.5651  0.1423  0.3499
 6119SOL     OW29815   2.596   3.314   7.471  0.2708  0.1570 -0.2083
 6119SOL    HW129816   2.612   3.282   7.559  1.3131  2.5426  0.4627
 6119SOL    HW229817   2.544   3.392   7.492 -0.1474 -0.0142 -0.6042
 6120SOL     OW29818   2.082   2.569  16.084 -0.3376 -0.1006  0.0026
 6120SOL    HW129819   2.012   2.537  16.027  0.2065  0.3856 -0.9249
 6120SOL    HW229820   2.160   2.520  16.057 -0.0535  0.8323 -0.8333
 6121SOL     OW29821   3.721   0.162   2.017 -0.5021 -0.5677  0.4308
 6121SOL    HW129822   3.792   0.098   2.003 -2.2926 -2.5595  0.5282
 6121SOL    HW229823   3.761   0.249   2.005 -3.5828  0.6681 -0.7154
 6122SOL     OW29824   4.500   3.258   3.332  0.0456 -0.1538 -0.1656
 6122SOL    HW129825   4.474   3.347   3.354 -0.7176 -0.3482 -0.2719
 6122SOL    HW229826   4.563   3.224   3.396 -1.7804  0.3953  1.9589
 6123SOL     OW29827   0.224   0.545   0.867  0.0991 -0.1875  0.3353
 6123SOL    HW129828   0.304   0.528   0.815  0.5655  1.2016  0.6031
 6123SOL    HW229829   0.177   0.463   0.856 -0.2031 -0.3210  2.7413
 6124SOL     OW29830   1.065   2.606   3.697  0.5505  0.8067  0.1543
 6124SOL    HW129831   0.977   2.608   3.734 -0.7395 -0.3911 -2.8559
 6124SOL    HW229832   1.051   2.576   3.607 -1.8353 -2.1320  1.4944
 6125SOL     OW29833   3.048   0.172   1.871 -0.3678  0.3206  0.3890
 6125SOL    HW129834   3.138   0.144   1.856 -0.8270 -0.2823 -1.2426
 6125SOL    HW229835   3.008   0.171   1.784 -1.4207  3.0009  0.8287
 6126SOL     OW29836   0.312   4.541   8.076  0.0835 -0.1699  0.1793
 6126SOL    HW129837   0.262   4.540   8.158  1.8595  1.1137  1.2747
 6126SOL    HW229838   0.281   4.620   8.031  0.4786 -0.3065 -0.3342
 6127SOL     OW29839   1.895   0.777   1.155  0.0494  0.5288 -0.1775
 6127SOL    HW129840   1.983   0.811   1.135 -0.3590  2.3951  1.1257
 6127SOL    HW229841   1.902   0.776   1.251  1.8673 -0.5350 -0.3128
 6128SOL     OW29842   3.310   4.463   3.102  0.0757  0.5565  0.0482
 6128SOL    HW129843   3.230   4.444   3.053  0.5322  0.4097 -0.6391
 6128SOL    HW229844   3.381   4.445   3.040 -0.5346  0.0788 -0.5110
 6129SOL     OW29845   4.090   2.256   7.876 -0.2726 -0.2306 -0.1018
 6129SOL    HW129846   4.166   2.315   7.876 -0.6914  0.3135 -1.5159
 6129SOL    HW229847   4.138   2.182   7.840  0.4241  0.2274 -0.1254
 6130SOL     OW29848   2.530   1.280   7.817 -0.3073  0.1595  0.0121
 6130SOL    HW129849   2.608   1.272   7.763  0.4534 -0.1711  1.1568
 6130SOL    HW229850   2.501   1.362   7.777 -1.7011 -0.1098  0.4382
 6131SOL     OW29851   1.372   0.056  10.651  0.0014 -0.1994 -0.0724
 6131SOL    HW129852   1.365   0.136  10.702  1.0335  2.0757 -3.4845
 6131SOL    HW229853   1.409   0.091  10.570 -1.3384 -0.8927 -0.9854
 6132SOL     OW29854   2.965   4.341  12.260  0.0145  0.3936  0.4363
 6132SOL    HW129855   2.902   4.270  12.248  0.5141 -0.0661  0.5057
 6132SOL    HW229856   2.956   4.367  12.352 -0.3567  1.0297  0.2211
 6133SOL     OW29857   4.568   2.362   7.241  0.5833  0.1872  0.5050
 6133SOL    HW129858   4.482   2.391   7.271  1.2001  0.1879  2.2290
 6133SOL    HW229859   4.556   2.267   7.240  0.4304  0.2064  0.6673
 6134SOL     OW29860   0.531   4.047  13.522  0.2602  0.3164  0.1372
 6134SOL    HW129861   0.455   4.000  13.556  0.1044  1.0616  0.8306
 6134SOL    HW229862   0.529   4.025  13.429  1.1221  1.1074 -0.0727
 6135SOL     OW29863   3.565   2.116  15.504  0.3472  0.1055  0.1209
 6135SOL    HW129864   3.593   2.035  15.462  1.1310  0.9010 -0.8920
 6135SOL    HW229865   3.539   2.173  15.432  0.6039 -0.4765 -0.4263
 6136SOL     OW29866   0.629   3.173   7.678 -0.2824  0.0701 -0.5466
 6136SOL    HW129867   0.619   3.122   7.758 -1.0675 -1.1913 -1.4496
 6136SOL    HW229868   0.601   3.101   7.622  3.5226 -0.6635 -1.5564
 6137SOL     OW29869   3.373   4.168   7.068 -0.5537 -0.1010  0.8802
 6137SOL    HW129870   3.428   4.111   7.123 -2.0468 -1.8124  0.6062
 6137SOL    HW229871   3.346   4.235   7.131  0.7397 -1.0630  2.4849
 6138SOL     OW29872   3.684   2.559   5.234 -0.0292 -0.0973  0.2884
 6138SOL    HW129873   3.612   2.623   5.236  1.8410  2.0854 -3.5784
 6138SOL    HW229874   3.641   2.474   5.244 -0.7158  0.3353  1.0454
 6139SOL     OW29875   2.605   0.456  17.272  0.2480 -0.5514 -0.0571
 6139SOL    HW129876   2.605   0.360  17.274  2.8174 -0.5160  3.2678
 6139SOL    HW229877   2.699   0.477  17.277  0.4063 -1.5287  1.2551
 6140SOL     OW29878   1.468   3.792   0.306 -0.5689  0.3436 -0.1109
 6140SOL    HW129879   1.376   3.779   0.282 -0.9662 -0.0913  1.6488
 6140SOL    HW229880   1.464   3.754   0.394 -0.1587  0.6303  0.0256
 6141SOL     OW29881   0.243   4.225   7.641 -0.1497  0.1409 -0.1724
 6141SOL    HW129882   0.327   4.271   7.635 -0.5800  0.9793  0.1820
 6141SOL    HW229883   0.271   4.152   7.696 -1.2525  0.1598  0.3984
 6142SOL     OW29884   3.648   1.300   4.331 -0.8745  0.8516 -0.0315
 6142SOL    HW129885   3.598   1.291   4.250  0.2857  0.4689 -0.7030
 6142SOL    HW229886   3.732   1.257   4.313 -1.9269 -0.8886 -0.7193
 6143SOL     OW29887   0.787   3.873   7.220 -0.0210  0.1132 -0.3305
 6143SOL    HW129888   0.719   3.807   7.221  0.9565 -0.8957 -0.6608
 6143SOL    HW229889   0.831   3.849   7.139 -0.3620  1.0411 -0.7929
 6144SOL     OW29890   2.664   0.194  10.488  0.0437 -0.1348  0.4657
 6144SOL    HW129891   2.692   0.285  10.498  1.6585 -0.4879 -0.9323
 6144SOL    HW229892   2.598   0.190  10.558 -1.4307  0.2583 -0.8873
 6145SOL     OW29893   2.828   3.243   8.546  0.5465 -0.1345 -0.3340
 6145SOL    HW129894   2.844   3.185   8.471  2.7047 -0.6562  0.5213
 6145SOL    HW229895   2.772   3.195   8.606  0.1965 -0.1880 -0.7033
 6146SOL     OW29896   4.347   2.103   9.923 -0.5435  0.2022 -0.3674
 6146SOL    HW129897   4.362   2.115  10.016  1.1330 -3.5242 -0.1188
 6146SOL    HW229898   4.408   2.037   9.888 -0.0922 -0.4097  1.5652
 6147SOL     OW29899   0.606   1.531   2.572  0.4099 -0.0137  0.3142
 6147SOL    HW129900   0.611   1.518   2.477 -1.3881  1.2521  0.0508
 6147SOL    HW229901   0.511   1.540   2.580  0.5193  0.0623  1.5408
 6148SOL     OW29902   2.682   1.235   0.436 -0.0996 -0.0164  0.4592
 6148SOL    HW129903   2.657   1.311   0.384 -0.9416  0.0542  0.9656
 6148SOL    HW229904   2.679   1.168   0.368 -0.9452  0.2383  0.2397
 6149SOL     OW29905   0.097   0.354  13.197  0.2291  0.1676  0.1673
 6149SOL    HW129906   0.132   0.438  13.170 -3.0092  1.2494 -0.6974
 6149SOL    HW229907   0.020   0.352  13.141 -1.4234 -1.9317  2.5244
 6150SOL     OW29908   0.076   0.991  14.341  0.0591 -0.4576 -0.0374
 6150SOL    HW129909   0.009   1.050  14.306 -0.9085 -1.4184  0.2148
 6150SOL    HW229910   0.035   0.973  14.426  2.5508 -0.4425  1.1626
 6151SOL     OW29911   1.073   1.181  12.093 -0.1300 -0.0927  0.4149
 6151SOL    HW129912   1.009   1.110  12.087  0.5947 -0.7379  0.4207
 6151SOL    HW229913   1.012   1.255  12.100  0.2559  0.2720 -0.0853
 6152SOL     OW29914   1.702   0.896   8.148  0.2412  0.2353 -0.1963
 6152SOL    HW129915   1.761   0.826   8.177 -2.4422 -2.0002 -0.1859
 6152SOL    HW229916   1.670   0.931   8.231  0.4911  0.0550 -0.0238
 6153SOL     OW29917   3.940   3.925  14.940  0.0376 -0.2291 -0.3152
 6153SOL    HW129918   3.940   4.019  14.958 -1.7993 -0.2883 -0.0710
 6153SOL    HW229919   3.847   3.908  14.952 -0.2722  2.4934  1.1883
 6154SOL     OW29920   0.589   0.210  16.174  0.4996 -0.1013 -0.1234
 6154SOL    HW129921   0.508   0.189  16.221  0.8423 -2.8355 -0.7570
 6154SOL    HW229922   0.649   0.237  16.243  0.0632 -0.6324  0.4668
 6155SOL     OW29923   1.765   3.324   3.866 -0.7808  0.3123 -0.6146
 6155SOL    HW129924   1.725   3.403   3.829 -2.2558 -0.1469 -0.0121
 6155SOL    HW229925   1.848   3.325   3.820 -0.8490 -0.0305 -0.7518
 6156SOL     OW29926   0.258   0.301  12.434 -0.3057 -0.2299 -0.6977
 6156SOL    HW129927   0.257   0.370  12.369 -1.6874 -0.7600 -1.2368
 6156SOL    HW229928   0.348   0.318  12.464 -0.5817  0.5020 -0.2803
 6157SOL     OW29929   0.926   3.400  15.836  0.0532 -0.0836 -0.2302
 6157SOL    HW129930   1.004   3.354  15.807  2.2329  2.0566  2.1221
 6157SOL    HW229931   0.863   3.356  15.780  1.0105 -1.2790 -0.3555
 6158SOL     OW29932   0.291   2.136   4.573 -0.0663  0.0798  0.3435
 6158SOL    HW129933   0.300   2.232   4.575  0.6883  0.0955 -3.6895
 6158SOL    HW229934   0.362   2.121   4.511 -0.6819 -0.2676 -0.2739
 6159SOL     OW29935   0.048   1.980   0.431  0.3391 -0.3150 -0.3422
 6159SOL    HW129936   4.720   1.922   0.488  2.0697  1.3337  2.8260
 6159SOL    HW229937   4.721   1.967   0.349 -2.1694 -1.2697  1.3110
 6160SOL     OW29938   1.561   4.620   1.310  0.4955 -0.2683  0.1687
 6160SOL    HW129939   1.525   4.537   1.340  0.7697  0.3029  2.0815
 6160SOL    HW229940   1.621   4.633   1.383  0.0060 -0.6292  0.6366
 6161SOL     OW29941   2.792   0.733   5.591 -0.2616  0.3256 -0.1057
 6161SOL    HW129942   2.786   0.715   5.685  0.8949  0.4060 -0.0239
 6161SOL    HW229943   2.847   0.661   5.562 -3.2868 -1.4559 -1.4552
 6162SOL     OW29944   1.706   3.649   4.757 -0.3522 -0.2224 -0.2484
 6162SOL    HW129945   1.679   3.630   4.846 -1.7646 -0.9608 -0.8342
 6162SOL    HW229946   1.799   3.624   4.757  0.2079  1.9166  1.3133
 6163SOL     OW29947   0.238   0.030  14.897  0.2283  0.2568 -0.6622
 6163SOL    HW129948   0.218   4.685  14.831 -0.5245  0.0201 -0.2015
 6163SOL    HW229949   0.150   0.066  14.894 -0.7068 -2.1177 -1.9266
 6164SOL     OW29950   2.099   2.185   5.210 -0.6893  0.4264 -0.2367
 6164SOL    HW129951   2.178   2.207   5.260 -1.9176 -0.4818  2.0933
 6164SOL    HW229952   2.065   2.270   5.183 -0.4208  1.3563  2.2998
 6165SOL     OW29953   2.922   2.178   6.736 -0.2873 -0.1762 -0.1065
 6165SOL    HW129954   2.921   2.091   6.696 -1.8973 -1.0405  1.8153
 6165SOL    HW229955   2.837   2.185   6.780 -0.5297 -1.4962 -0.3367
 6166SOL     OW29956   2.503   0.175   3.285 -0.0284 -0.3235  0.2848
 6166SOL    HW129957   2.540   0.210   3.204 -0.3917 -0.1352  0.1980
 6166SOL    HW229958   2.428   0.234   3.282 -0.2300 -0.5689  0.4733
 6167SOL     OW29959   3.245   3.891   7.413 -0.1824 -0.3616  0.4368
 6167SOL    HW129960   3.178   3.939   7.460  0.4110 -0.4847  1.4222
 6167SOL    HW229961   3.206   3.824   7.357  2.0910 -0.4790 -1.0178
 6168SOL     OW29962   0.152   1.448   3.692  0.2590  0.2147 -0.1570
 6168SOL    HW129963   0.132   1.465   3.784 -1.4706 -0.7349 -0.3623
 6168SOL    HW229964   0.202   1.529   3.676  1.0893 -0.0814  0.9307
 6169SOL     OW29965   4.713   4.234   3.139 -0.2915 -0.0022 -0.3571
 6169SOL    HW129966   4.622   4.212   3.121  0.1810 -0.0964 -2.7231
 6169SOL    HW229967   0.029   4.148   3.120  0.3430  0.3915 -0.9300
 6170SOL     OW29968   3.336   2.428   3.104  0.4822 -0.3081 -0.4113
 6170SOL    HW129969   3.405   2.387   3.156  1.2606  0.5241 -0.7850
 6170SOL    HW229970   3.286   2.352   3.074 -0.3877 -0.2856  0.9834
 6171SOL     OW29971   1.774   0.950   3.287  0.0055 -0.0725  0.6237
 6171SOL    HW129972   1.779   0.928   3.194  0.7742  0.0877  0.6277
 6171SOL    HW229973   1.781   0.867   3.332  3.0873  1.0277  2.1371
 6172SOL     OW29974   4.207   0.438   6.870 -0.5634  0.4228 -0.0663
 6172SOL    HW129975   4.299   0.415   6.860  0.0650  3.1236 -0.5755
 6172SOL    HW229976   4.178   0.355   6.908 -1.7771 -0.1538 -2.2526
 6173SOL     OW29977   0.592   4.549   2.202 -0.5998 -0.1124 -0.3640
 6173SOL    HW129978   0.634   4.600   2.132  3.3225 -1.0839  1.3173
 6173SOL    HW229979   0.583   4.610   2.275  1.6963  1.2634 -1.2376
 6174SOL     OW29980   3.973   1.943   7.678  0.4350  0.2260  0.9847
 6174SOL    HW129981   4.035   1.891   7.626  1.0606 -0.3684  2.3238
 6174SOL    HW229982   4.028   1.991   7.739  0.5822 -0.0498  1.0705
 6175SOL     OW29983   1.009   3.628   7.825  0.3650 -0.1686 -0.0753
 6175SOL    HW129984   1.019   3.694   7.894 -2.1447  1.1130 -0.9191
 6175SOL    HW229985   0.929   3.585   7.856  0.1223  0.2638 -0.0974
 6176SOL     OW29986   4.502   0.659   5.166  0.3791  0.0390  0.7259
 6176SOL    HW129987   4.492   0.622   5.254  2.2400  1.3019  1.4579
 6176SOL    HW229988   4.589   0.698   5.155  0.8043 -1.9458 -2.6045
 6177SOL     OW29989   0.329   0.139   0.952 -0.4290 -0.0719 -0.1810
 6177SOL    HW129990   0.325   0.101   0.864  2.6895 -1.9979  0.5081
 6177SOL    HW229991   0.405   0.092   0.987  1.3970  1.4906 -2.1321
 6178SOL     OW29992   2.865   4.317  11.121 -0.0822  0.0014  0.1047
 6178SOL    HW129993   2.804   4.252  11.157  0.1612 -0.7197 -0.7807
 6178SOL    HW229994   2.884   4.376  11.194 -0.1586  0.5087 -0.2804
 6179SOL     OW29995   1.431   3.092   6.686 -0.5792  0.3022  1.0122
 6179SOL    HW129996   1.351   3.040   6.688 -0.2847 -0.1460  1.1671
 6179SOL    HW229997   1.498   3.023   6.684  0.5617  1.4262 -0.0387
 6180SOL     OW29998   0.025   0.672   3.057  0.7924  0.3213  0.4739
 6180SOL    HW129999   4.662   0.638   3.030  1.5104  0.3820 -1.8181
 6180SOL    HW230000   0.081   0.639   2.987 -2.0515 -1.3678 -0.9679
 6181SOL     OW30001   4.365   1.431   2.909 -0.7254  0.1449  0.7548
 6181SOL    HW130002   4.342   1.338   2.919 -0.4515 -0.1925 -1.7455
 6181SOL    HW230003   4.459   1.421   2.921 -0.2883  0.5127 -2.3537
 6182SOL     OW30004   1.116   0.832  12.656 -0.2234 -0.0514  0.1788
 6182SOL    HW130005   1.152   0.865  12.738  3.0109 -2.6163 -0.2461
 6182SOL    HW230006   1.041   0.892  12.651 -0.2397 -0.0526  0.4507
 6183SOL     OW30007   2.932   0.431  15.064 -0.1666 -0.1844  0.2167
 6183SOL    HW130008   2.942   0.445  14.969  1.4093  1.7259  0.6471
 6183SOL    HW230009   2.948   0.519  15.097  1.1146 -0.7782  1.1665
 6184SOL     OW30010   1.925   2.556   6.314  0.1468  0.0060  0.2678
 6184SOL    HW130011   1.902   2.494   6.245 -2.2494  0.0769  1.0062
 6184SOL    HW230012   1.839   2.562   6.356  0.0973  1.4439 -0.0455
 6185SOL     OW30013   2.055   4.126   9.144  0.1359  0.3448  0.6086
 6185SOL    HW130014   2.133   4.138   9.090  0.0486 -1.9851 -0.0400
 6185SOL    HW230015   2.084   4.050   9.195 -0.5956 -0.4540 -0.1787
 6186SOL     OW30016   4.374   1.308  15.201 -0.6121  0.1588  0.0346
 6186SOL    HW130017   4.376   1.308  15.297  2.0201  0.8374 -0.0339
 6186SOL    HW230018   4.322   1.229  15.186 -1.0776  0.0996  1.9930
 6187SOL     OW30019   3.310   3.489   3.487  0.0880  0.6591  0.5512
 6187SOL    HW130020   3.353   3.574   3.483 -1.3892  1.4659  1.6356
 6187SOL    HW230021   3.355   3.456   3.564 -0.4951 -1.5204 -0.0270
 6188SOL     OW30022   3.231   4.292   3.765 -0.5881  0.2199  0.6150
 6188SOL    HW130023   3.285   4.253   3.833  2.2009 -0.5021 -2.0353
 6188SOL    HW230024   3.231   4.220   3.702  0.9271  0.7214  0.0634
 6189SOL     OW30025   4.372   1.736   6.311  0.2596  0.0140  0.3235
 6189SOL    HW130026   4.354   1.826   6.284  1.9772  0.2845  0.1206
 6189SOL    HW230027   4.359   1.688   6.230  1.0217 -0.1776  0.3195
 6190SOL     OW30028   3.153   4.048   3.144  0.2923  0.4405  0.2471
 6190SOL    HW130029   3.209   4.016   3.073 -1.5843 -1.5630 -0.3747
 6190SOL    HW230030   3.208   4.117   3.181  0.5127  0.1072  0.5343
 6191SOL     OW30031   2.804   0.963   1.160 -0.0426 -0.2029  0.4713
 6191SOL    HW130032   2.746   0.913   1.217  2.0312 -0.7350  2.1527
 6191SOL    HW230033   2.809   1.047   1.206  0.6735 -1.9910  3.6908
 6192SOL     OW30034   4.417   3.675   5.971  0.0140 -0.3307  0.8288
 6192SOL    HW130035   4.407   3.628   6.054 -4.5896 -0.0813  0.4069
 6192SOL    HW230036   4.459   3.611   5.914 -1.5760 -0.7151  0.0700
 6193SOL     OW30037   3.239   4.325   3.415 -0.1569 -0.0421 -0.6022
 6193SOL    HW130038   3.321   4.283   3.390 -0.9139 -0.7105 -1.9536
 6193SOL    HW230039   3.272   4.397   3.470  0.7985 -0.1650 -1.0096
 6194SOL     OW30040   1.973   2.243   7.102 -0.0450  0.5834 -0.6120
 6194SOL    HW130041   1.918   2.256   7.179  0.6894  0.6795 -0.1019
 6194SOL    HW230042   1.941   2.165   7.057  1.1478 -0.5708  0.5372
 6195SOL     OW30043   3.831   2.172   7.728  0.7073 -0.0953 -0.1955
 6195SOL    HW130044   3.906   2.217   7.767  0.3801  1.5490 -1.4300
 6195SOL    HW230045   3.875   2.104   7.677 -1.0324 -1.6522  0.3656
 6196SOL     OW30046   3.048   0.170  13.935  0.1993 -0.3288 -0.3769
 6196SOL    HW130047   3.049   0.257  13.975  1.9202 -0.5108 -0.0102
 6196SOL    HW230048   2.954   0.161  13.924  0.3928 -2.7079 -0.1341
 6197SOL     OW30049   3.919   4.441   8.812  0.4542  0.1507 -0.0026
 6197SOL    HW130050   3.911   4.455   8.906 -1.1264  0.3235 -0.1607
 6197SOL    HW230051   3.889   4.353   8.788 -2.1056  0.8442  0.6685
 6198SOL     OW30052   2.681   3.133   7.016  0.4458 -0.8684  0.1029
 6198SOL    HW130053   2.604   3.184   7.040  1.3027  0.8535 -0.8058
 6198SOL    HW230054   2.728   3.191   6.955 -0.4002  0.2770  0.5400
 6199SOL     OW30055   3.056   3.545   8.126 -0.1172 -0.4616 -0.0966
 6199SOL    HW130056   3.105   3.497   8.193  0.2533 -0.7583 -0.5886
 6199SOL    HW230057   3.094   3.634   8.126 -0.3151 -0.3801 -0.7098
 6200SOL     OW30058   4.236   3.274   5.106  0.4162 -0.6634 -0.4356
 6200SOL    HW130059   4.268   3.300   5.020 -0.1097  0.1998 -0.3666
 6200SOL    HW230060   4.144   3.300   5.102  0.9550  1.0135 -1.7609
 6201SOL     OW30061   4.275   0.390   5.353 -0.9064  0.4409  0.5199
 6201SOL    HW130062   4.353   0.421   5.398  0.6304 -0.2075 -1.6599
 6201SOL    HW230063   4.207   0.432   5.405 -0.1545  1.1407  0.9237
 6202SOL     OW30064   2.882   3.622   8.660  0.2164 -0.3808  0.6587
 6202SOL    HW130065   2.897   3.681   8.734  1.1764 -1.3127  1.2234
 6202SOL    HW230066   2.807   3.568   8.687  0.8860 -1.2383  0.8310
 6203SOL     OW30067   2.036   1.249   3.776 -0.2127  0.0810  0.3482
 6203SOL    HW130068   2.027   1.159   3.745  1.5647 -0.3307  1.0324
 6203SOL    HW230069   2.075   1.229   3.861  1.1683 -2.2344 -0.8341
 6204SOL     OW30070   2.515   1.024   2.403  0.0252 -0.0515 -0.2421
 6204SOL    HW130071   2.607   1.029   2.431 -0.6402 -0.6628  2.0369
 6204SOL    HW230072   2.484   0.952   2.459 -1.5218  0.0496 -0.9962
 6205SOL     OW30073   4.375   3.267  16.705  0.3579  0.1622 -0.1338
 6205SOL    HW130074   4.419   3.187  16.734  0.0460  0.4102  1.0212
 6205SOL    HW230075   4.322   3.294  16.780  1.6388 -1.6677  1.4414
 6206SOL     OW30076   2.189   0.630  17.128  0.0285  0.2118  0.5096
 6206SOL    HW130077   2.135   0.697  17.086  1.2591  1.9424  1.6467
 6206SOL    HW230078   2.262   0.689  17.150  1.9417 -1.6971 -0.7728
 6207SOL     OW30079   1.883   2.680  14.667  0.0863  0.0496  0.7670
 6207SOL    HW130080   1.920   2.741  14.731  1.5403  1.7204 -1.6719
 6207SOL    HW230081   1.863   2.741  14.597  1.8435  1.4636  1.4825
 6208SOL     OW30082   3.599   3.138   7.029  0.3505  0.5593  0.8021
 6208SOL    HW130083   3.615   3.097   6.944 -1.3417  2.1958 -0.3135
 6208SOL    HW230084   3.541   3.073   7.068  1.4096  0.4139  2.1361
 6209SOL     OW30085   2.514   1.698   2.357  0.2472 -0.6227 -0.1724
 6209SOL    HW130086   2.466   1.703   2.274  1.6793  0.6718 -0.9356
 6209SOL    HW230087   2.447   1.727   2.418 -0.0855 -0.7256 -0.4883
 6210SOL     OW30088   1.301   1.369   9.939 -0.4395 -0.0598 -0.2608
 6210SOL    HW130089   1.251   1.298   9.898 -3.0972  1.6304  0.0823
 6210SOL    HW230090   1.231   1.403   9.994 -1.9673  0.6492 -2.6216
 6211SOL     OW30091   4.605   1.208   8.095  0.2876 -0.5426 -0.3997
 6211SOL    HW130092   4.656   1.128   8.081  0.8006 -0.3541  0.4367
 6211SOL    HW230093   4.658   1.278   8.056  0.2042 -1.1172 -1.5450
 6212SOL     OW30094   2.768   1.352   6.820 -0.0407 -0.1012  0.5034
 6212SOL    HW130095   2.679   1.386   6.826 -0.1898 -0.3086 -0.5562
 6212SOL    HW230096   2.757   1.286   6.751 -1.7019  0.3893  0.2880
 6213SOL     OW30097   2.656   0.016  16.915 -0.5200 -0.2682 -0.4558
 6213SOL    HW130098   2.681   4.707  17.001 -1.1815  1.4396  0.3474
 6213SOL    HW230099   2.693   4.672  16.856 -1.8827 -0.8911 -0.6161
 6214SOL     OW30100   0.984   1.861  15.240  0.4228  0.1913  0.5492
 6214SOL    HW130101   1.040   1.928  15.199  0.0632  0.0076 -0.2518
 6214SOL    HW230102   1.017   1.857  15.330 -0.4905 -1.5761  0.8012
 6215SOL     OW30103   4.234   0.313   8.029  0.2514  0.0984 -0.4229
 6215SOL    HW130104   4.212   0.222   8.008  0.7122  0.1317 -1.0717
 6215SOL    HW230105   4.172   0.328   8.100 -0.0280  0.8523 -0.8262
 6216SOL     OW30106   4.241   3.173   7.104 -0.2581  0.6265  0.3444
 6216SOL    HW130107   4.304   3.245   7.100  2.6595 -1.8902  0.2876
 6216SOL    HW230108   4.183   3.189   7.030  0.7910 -0.1023 -0.6521
 6217SOL     OW30109   3.989   1.161  17.193  0.1274  0.0998 -0.1024
 6217SOL    HW130110   4.032   1.246  17.189  1.9702 -0.9799 -2.7864
 6217SOL    HW230111   4.064   1.123  17.241 -0.8541 -0.2688  1.1415
 6218SOL     OW30112   0.555   3.100   5.012  0.2017 -0.3422 -0.2704
 6218SOL    HW130113   0.641   3.142   5.008  0.1380 -0.2924 -1.0785
 6218SOL    HW230114   0.577   3.030   5.072 -1.5946 -0.1168  0.6529
 6219SOL     OW30115   1.150   2.304   9.523  0.4134 -0.2108  0.2176
 6219SOL    HW130116   1.223   2.267   9.473  0.3899 -0.6646  0.5177
 6219SOL    HW230117   1.116   2.226   9.568 -1.9089  0.5797 -0.1403
 6220SOL     OW30118   4.459   3.358  16.073  0.6612  0.4988 -0.5340
 6220SOL    HW130119   4.536   3.346  16.129  0.1946  1.2259  0.2572
 6220SOL    HW230120   4.470   3.453  16.066 -4.2063  1.0561 -0.6209
 6221SOL     OW30121   2.468   4.351   9.946 -0.8556 -0.3579  0.2203
 6221SOL    HW130122   2.451   4.445   9.937  2.5559  0.2800  0.2885
 6221SOL    HW230123   2.485   4.340  10.040 -0.0394 -0.4069  0.0728
 6222SOL     OW30124   0.594   2.108   6.008  0.2266 -0.0366 -0.2761
 6222SOL    HW130125   0.588   2.101   5.913 -0.4648 -1.9069 -0.0840
 6222SOL    HW230126   0.531   2.166   6.052  0.2347 -0.1849 -0.0688
 6223SOL     OW30127   2.109   1.247   6.294 -0.3612  0.0828  0.4263
 6223SOL    HW130128   2.018   1.259   6.322 -0.4396 -1.2429  0.7393
 6223SOL    HW230129   2.147   1.174   6.342  0.4080  0.0714 -0.2042
 6224SOL     OW30130   2.474   0.357  12.642 -0.2359 -0.0011  0.4916
 6224SOL    HW130131   2.420   0.295  12.594 -0.4417 -2.1994  3.5682
 6224SOL    HW230132   2.541   0.373  12.575 -0.4876 -0.5610  0.1108
 6225SOL     OW30133   1.553   4.018   2.831  0.0449  0.3289 -0.2291
 6225SOL    HW130134   1.518   4.056   2.751 -2.6201  1.3402  1.4241
 6225SOL    HW230135   1.571   3.928   2.806  0.9923  0.4757 -0.0786
 6226SOL     OW30136   3.367   4.100   6.203  0.1795  0.0259  0.1842
 6226SOL    HW130137   3.305   4.156   6.156 -0.4670 -0.6892  0.1835
 6226SOL    HW230138   3.387   4.140   6.288 -2.3250  1.6042  0.0383
 6227SOL     OW30139   4.691   4.435  17.401 -0.1712 -0.6962  0.5478
 6227SOL    HW130140   4.662   4.455  17.312 -1.8042  0.3322  1.2927
 6227SOL    HW230141   4.695   4.340  17.396 -0.9920 -0.6123 -1.8872
 6228SOL     OW30142   0.950   0.639   5.130  0.8285 -0.2960 -0.3171
 6228SOL    HW130143   0.986   0.587   5.058  0.4174  0.1756 -0.8698
 6228SOL    HW230144   0.856   0.626   5.117  0.0269  2.2756  3.0602
 6229SOL     OW30145   3.559   1.692  11.443 -0.1506 -0.0017  0.2329
 6229SOL    HW130146   3.520   1.673  11.358 -0.0612 -0.0968  0.2140
 6229SOL    HW230147   3.492   1.750  11.480 -0.5070 -0.4124  0.2285
 6230SOL     OW30148   4.503   0.070   0.165  0.2611 -0.2652 -0.4712
 6230SOL    HW130149   4.502   0.141   0.101  0.1927 -0.0805 -0.2675
 6230SOL    HW230150   4.598   0.077   0.176 -0.0460  0.2110  1.9942
 6231SOL     OW30151   0.097   4.019   0.532 -0.0586  0.1551 -0.1274
 6231SOL    HW130152   0.147   4.098   0.552 -2.0062  0.9201  1.7623
 6231SOL    HW230153   0.156   3.954   0.570 -1.2038  0.7413  2.6768
 6232SOL     OW30154   2.166   0.746  15.676  0.5289 -0.2121  0.7670
 6232SOL    HW130155   2.184   0.653  15.690 -0.4954 -0.7234 -1.2746
 6232SOL    HW230156   2.098   0.743  15.609  2.5070  0.1190 -1.2546
 6233SOL     OW30157   0.797   3.099  13.473  0.5650  0.5764  0.3730
 6233SOL    HW130158   0.712   3.123  13.436  0.5171  0.1937  0.2335
 6233SOL    HW230159   0.813   3.176  13.527  2.5573  0.1781  0.3323
 6234SOL     OW30160   4.570   2.787  17.669 -0.6570 -0.3696 -0.0032
 6234SOL    HW130161   4.571   2.783  17.573  1.3140  2.3454 -0.0873
 6234SOL    HW230162   4.571   2.882  17.682 -1.0151 -0.4877  0.9210
 6235SOL     OW30163   0.670   0.667   3.255 -0.3115 -0.0090  0.1739
 6235SOL    HW130164   0.702   0.598   3.314  0.6948  0.3747  0.0599
 6235SOL    HW230165   0.594   0.705   3.300  0.2111 -1.2664  2.1474
 6236SOL     OW30166   0.724   1.144  12.950  0.4577  0.0989  0.2735
 6236SOL    HW130167   0.685   1.176  12.869 -0.2703 -0.7948  0.2719
 6236SOL    HW230168   0.799   1.202  12.960 -0.1606  0.7032  1.5488
 6237SOL     OW30169   3.009   1.417  10.368 -0.2435  0.0408 -0.0701
 6237SOL    HW130170   3.092   1.451  10.336 -0.1122 -1.3068 -1.1421
 6237SOL    HW230171   3.065   1.365  10.426 -1.6447 -0.7305  0.6005
 6238SOL     OW30172   1.887   1.671   7.218 -0.1881 -0.5851 -0.2809
 6238SOL    HW130173   1.893   1.593   7.273  4.2552 -1.1463 -1.5841
 6238SOL    HW230174   1.919   1.632   7.137  1.5934 -3.0347  1.5870
 6239SOL     OW30175   3.547   4.587   4.578  0.1607  0.4625  0.5170
 6239SOL    HW130176   3.592   4.504   4.572  1.3306  1.1576 -0.2688
 6239SOL    HW230177   3.586   4.632   4.653 -0.0296 -0.9678  1.4761
 6240SOL     OW30178   4.290   3.833   7.828  0.2760  0.2453  0.9776
 6240SOL    HW130179   4.203   3.799   7.808  1.1397 -0.7115 -1.1739
 6240SOL    HW230180   4.283   3.927   7.808 -2.2027 -0.3699 -0.8948
 6241SOL     OW30181   4.522   2.301  11.453  0.4877  0.1288  0.0465
 6241SOL    HW130182   4.508   2.338  11.365  0.4619  0.6106  0.2568
 6241SOL    HW230183   4.572   2.371  11.494  1.8533 -0.4220 -0.6610
 6242SOL     OW30184   2.360   2.528   5.782 -0.0105 -0.1633  0.1084
 6242SOL    HW130185   2.349   2.539   5.877 -1.6035 -1.9126  0.1401
 6242SOL    HW230186   2.377   2.434   5.787  1.8578  0.2251  0.9414
 6243SOL     OW30187   2.073   3.561   6.570 -0.0052  0.1076 -0.1429
 6243SOL    HW130188   2.021   3.541   6.647  0.7100 -1.1655 -0.0019
 6243SOL    HW230189   2.160   3.538   6.604  0.0939  1.1012  0.2925
 6244SOL     OW30190   2.872   2.576  11.569 -0.1969  0.3906  0.2569
 6244SOL    HW130191   2.865   2.559  11.663  3.5064 -1.3000  0.2232
 6244SOL    HW230192   2.919   2.658  11.556 -0.6460  0.6456  0.2304
 6245SOL     OW30193   1.425   1.965   5.969  0.6276  0.2061 -0.4704
 6245SOL    HW130194   1.383   2.017   6.038  0.0080  1.0821 -1.5105
 6245SOL    HW230195   1.482   2.025   5.920  0.9732 -2.8393 -3.7611
 6246SOL     OW30196   0.502   1.188   6.913 -0.3631  0.0880 -0.0956
 6246SOL    HW130197   0.460   1.213   6.996 -0.1984  0.7441 -0.2149
 6246SOL    HW230198   0.481   1.094   6.919  0.9060 -0.3368 -2.4781
 6247SOL     OW30199   3.045   4.046  14.495 -0.3366 -0.4269  0.5512
 6247SOL    HW130200   3.021   3.976  14.555 -0.9118 -0.9064 -0.2276
 6247SOL    HW230201   3.141   4.044  14.499 -0.2810  1.7691  0.2213
 6248SOL     OW30202   2.388   3.291   6.498 -0.3911 -0.2317  0.3782
 6248SOL    HW130203   2.377   3.349   6.573  0.6155  3.8210 -2.6596
 6248SOL    HW230204   2.297   3.271   6.476 -0.8426  3.1759 -0.8437
 6249SOL     OW30205   2.247   0.569   0.064 -0.9592  0.0279  0.2804
 6249SOL    HW130206   2.321   0.509   0.076  0.2305  1.1964 -1.1734
 6249SOL    HW230207   2.285   0.642   0.015  2.2511 -0.8156  1.4986
 6250SOL     OW30208   0.809   2.640   7.880 -0.0564  0.0328 -0.0711
 6250SOL    HW130209   0.817   2.679   7.967 -3.6866 -1.0801  0.7979
 6250SOL    HW230210   0.714   2.625   7.884  0.0606 -0.2485  1.7866
 6251SOL     OW30211   1.177   2.410   2.019  0.7285  0.2883 -0.1124
 6251SOL    HW130212   1.219   2.449   2.095  0.8273  0.3433 -0.1956
 6251SOL    HW230213   1.106   2.474   2.009  0.3093  0.0103  1.1355
 6252SOL     OW30214   0.231   2.475  16.866  0.0833  0.1419  0.1371
 6252SOL    HW130215   0.205   2.407  16.805  0.8324 -0.5260  0.5570
 6252SOL    HW230216   0.299   2.527  16.823  1.2825 -1.7764 -0.2828
 6253SOL     OW30217   3.117   3.421  14.907  0.5332 -0.2486  0.3566
 6253SOL    HW130218   3.204   3.414  14.947  1.1863 -1.1954 -1.2401
 6253SOL    HW230219   3.071   3.450  14.986 -2.4613  0.6046 -1.7064
 6254SOL     OW30220   4.162   3.428   1.048 -0.0175 -0.4488  0.4336
 6254SOL    HW130221   4.232   3.367   1.023 -0.7464 -0.3955 -1.7214
 6254SOL    HW230222   4.192   3.461   1.133  0.0835 -1.7625  0.8987
 6255SOL     OW30223   2.470   0.704   3.075 -0.5671 -0.3951  0.0625
 6255SOL    HW130224   2.502   0.761   3.145 -2.4362  1.0106 -0.2502
 6255SOL    HW230225   2.508   0.619   3.100 -0.5185 -0.6557 -0.9025
 6256SOL     OW30226   2.163   4.075   8.375 -0.6555 -0.7432 -0.1486
 6256SOL    HW130227   2.099   4.005   8.362  0.1872 -1.7953  1.4295
 6256SOL    HW230228   2.105   4.149   8.357  0.0338  0.2422  1.7175
 6257SOL     OW30229   4.699   2.535   0.029  0.9155  0.2922 -0.3357
 6257SOL    HW130230   4.653   2.615   0.005  0.6641 -0.8686 -3.8022
 6257SOL    HW230231   0.042   2.575   0.087 -0.2617  1.1850  0.3578
 6258SOL     OW30232   2.566   3.387   8.242 -0.1277  0.8573  0.4705
 6258SOL    HW130233   2.477   3.366   8.213  0.3681 -2.4326  1.3336
 6258SOL    HW230234   2.618   3.312   8.213 -1.7973 -0.6986  1.4936
 6259SOL     OW30235   0.823   2.071   5.670  0.1886 -0.0241 -0.2399
 6259SOL    HW130236   0.810   2.093   5.578  0.9887 -0.6651 -0.5117
 6259SOL    HW230237   0.737   2.041   5.699  0.4456 -1.1391 -0.6411
 6260SOL     OW30238   0.916   0.174   5.927 -0.1454  0.5391 -0.5809
 6260SOL    HW130239   0.972   0.218   5.863 -1.2731  1.2478 -1.0948
 6260SOL    HW230240   0.973   0.112   5.972 -1.6309 -0.7855 -0.5235
 6261SOL     OW30241   4.334   3.290   6.220 -0.2512 -0.3850  0.1723
 6261SOL    HW130242   4.267   3.316   6.283  0.1956 -2.3513  1.4619
 6261SOL    HW230243   4.371   3.378   6.212  1.1117 -0.8822  0.9735
 6262SOL     OW30244   0.279   4.592   2.365  0.7881 -0.5552  0.0384
 6262SOL    HW130245   0.218   4.533   2.320  2.2570 -2.0616  0.0183
 6262SOL    HW230246   0.338   4.619   2.295 -1.2649 -1.9616 -2.2147
 6263SOL     OW30247   0.281   3.288  10.347 -0.1741 -0.4717 -0.2011
 6263SOL    HW130248   0.338   3.361  10.369 -0.8706  0.3219 -1.0536
 6263SOL    HW230249   0.206   3.328  10.303 -0.0096 -0.9798 -0.9628
 6264SOL     OW30250   3.414   2.200  17.307 -0.1657  0.2941  0.0797
 6264SOL    HW130251   3.451   2.201  17.395  2.2944 -0.8660 -0.9323
 6264SOL    HW230252   3.377   2.111  17.308  0.6168 -0.0436 -1.2358
 6265SOL     OW30253   1.965   1.799  14.426  0.5900 -0.2381  0.2629
 6265SOL    HW130254   1.976   1.788  14.520  2.6169  0.9840  0.1586
 6265SOL    HW230255   1.871   1.784  14.415  0.3074  1.5000  0.2624
 6266SOL     OW30256   4.374   2.798   7.461  0.8630  0.3800 -0.2553
 6266SOL    HW130257   4.321   2.877   7.478 -0.3679 -1.2184  3.3354
 6266SOL    HW230258   4.346   2.775   7.373  2.2889  0.4211 -0.7187
 6267SOL     OW30259   3.550   1.821  13.095 -0.2266 -0.2227  0.1391
 6267SOL    HW130260   3.602   1.752  13.135  0.0294  0.1304  0.4151
 6267SOL    HW230261   3.478   1.768  13.061 -0.5122 -0.3508  0.9492
 6268SOL     OW30262   2.485   2.973  13.629  0.3030 -0.0783  0.6062
 6268SOL    HW130263   2.541   3.044  13.598 -1.6295  1.5961  0.9225
 6268SOL    HW230264   2.414   2.981  13.564  0.9955  0.6034 -0.0658
 6269SOL     OW30265   4.603   0.097  10.242  0.4935 -0.3022 -0.2379
 6269SOL    HW130266   4.580   0.011  10.209 -1.7033 -0.6045  2.0255
 6269SOL    HW230267   4.552   0.093  10.324 -0.2377 -0.8849 -0.7216
 6270SOL     OW30268   0.957   3.347   3.395 -0.1605 -0.7652 -0.1311
 6270SOL    HW130269   0.918   3.310   3.316  0.5979 -1.7410 -0.0520
 6270SOL    HW230270   0.893   3.415   3.417  1.8549  1.2494 -0.4578
 6271SOL     OW30271   2.844   4.342  11.502  0.1232  0.0857 -0.2203
 6271SOL    HW130272   2.899   4.398  11.557 -1.9785  1.5774  0.3511
 6271SOL    HW230273   2.835   4.396  11.424 -1.3639  1.7479  1.1155
 6272SOL     OW30274   2.257   0.748   2.413  0.0125 -0.4904  0.4226
 6272SOL    HW130275   2.196   0.694   2.464 -0.9527  0.4159  0.2449
 6272SOL    HW230276   2.327   0.685   2.404 -2.0861 -3.0624  2.2151
 6273SOL     OW30277   3.943   1.450   1.915  0.7200  0.5170  0.2369
 6273SOL    HW130278   4.037   1.462   1.900  1.3108 -1.2916  2.5183
 6273SOL    HW230279   3.911   1.428   1.828 -1.7309 -1.2092  1.5629
 6274SOL     OW30280   2.264   0.589   4.898  0.4847  0.1386 -0.2032
 6274SOL    HW130281   2.212   0.512   4.874  0.8513 -0.3092  0.4536
 6274SOL    HW230282   2.213   0.624   4.971  0.0469 -1.8021  0.4303
 6275SOL     OW30283   1.156   0.696   9.190 -0.4499  0.1704 -0.5861
 6275SOL    HW130284   1.198   0.612   9.205 -0.4923  0.3092  0.3243
 6275SOL    HW230285   1.120   0.675   9.104  0.8842 -1.0415 -0.8475
 6276SOL     OW30286   0.402   1.728  11.653  0.4416  0.5472  0.2926
 6276SOL    HW130287   0.493   1.733  11.682  0.4980 -1.2035  0.3829
 6276SOL    HW230288   0.404   1.648  11.600 -0.4198 -1.2660  2.9847
 6277SOL     OW30289   4.252   4.562   1.942 -0.1670 -0.2842 -0.8842
 6277SOL    HW130290   4.194   4.533   2.013  1.3528 -3.8892 -1.1038
 6277SOL    HW230291   4.330   4.526   1.984 -0.8031  2.8783  3.0068
 6278SOL     OW30292   2.592   2.418   3.435  0.9589 -0.1942  0.4528
 6278SOL    HW130293   2.599   2.372   3.352 -1.0598  0.1579  0.0920
 6278SOL    HW230294   2.637   2.350   3.484  1.3584  0.3348  0.8251
 6279SOL     OW30295   4.326   4.573   3.413 -0.3396 -0.5279  0.2425
 6279SOL    HW130296   4.241   4.597   3.376 -0.0816 -0.3301 -0.2215
 6279SOL    HW230297   4.318   4.542   3.503  1.5919  1.0034  0.9524
 6280SOL     OW30298   3.178   0.995   2.339  0.2141  0.3987 -0.0004
 6280SOL    HW130299   3.255   0.999   2.282 -0.1621  0.8242 -0.4729
 6280SOL    HW230300   3.199   0.920   2.395 -0.3613  1.4040  1.5678
 6281SOL     OW30301   3.287   3.283   1.190  0.0428 -0.0783  0.3083
 6281SOL    HW130302   3.201   3.251   1.163  0.4654  0.3916 -1.6508
 6281SOL    HW230303   3.340   3.230   1.130 -0.5349 -0.1645 -0.1327
 6282SOL     OW30304   1.299   4.493  12.313  0.3841 -0.1391  0.3523
 6282SOL    HW130305   1.335   4.450  12.391  0.2420  0.6751  0.8701
 6282SOL    HW230306   1.209   4.459  12.314  0.5103 -0.4601  0.7864
 6283SOL     OW30307   4.622   0.218   4.921  0.0210 -0.0290 -0.0090
 6283SOL    HW130308   4.560   0.281   4.886  1.4420  2.2776  1.5792
 6283SOL    HW230309   4.678   0.279   4.970 -1.8243 -0.2613  2.3856
 6284SOL     OW30310   3.410   1.033   3.500 -0.5884  0.1106 -0.0758
 6284SOL    HW130311   3.497   1.001   3.521 -1.1325 -1.9802 -1.0044
 6284SOL    HW230312   3.421   1.122   3.468 -0.8869  0.4050  0.6316
 6285SOL     OW30313   0.737   1.829   4.245 -0.6764 -0.0483  0.3064
 6285SOL    HW130314   0.789   1.749   4.257 -1.6407 -0.6526  0.4636
 6285SOL    HW230315   0.651   1.798   4.219 -0.4803 -0.4806  0.1697
 6286SOL     OW30316   4.394   3.238   4.440 -0.5682 -0.1811 -0.7598
 6286SOL    HW130317   4.312   3.195   4.464 -0.5538  1.1522  1.6399
 6286SOL    HW230318   4.372   3.264   4.350 -0.4487 -1.3873 -1.1338
 6287SOL     OW30319   3.467   2.649  12.043  0.1891  0.0118  0.2325
 6287SOL    HW130320   3.422   2.569  12.068 -0.8695  1.0713  1.7467
 6287SOL    HW230321   3.416   2.693  11.975  3.1797 -0.7642 -2.5279
 6288SOL     OW30322   2.066   3.002  12.074 -0.5877  0.6030 -0.4874
 6288SOL    HW130323   2.104   3.021  12.160 -1.0907 -0.4479 -0.0432
 6288SOL    HW230324   1.978   2.970  12.090 -0.7657  0.5681 -1.5461
 6289SOL     OW30325   0.199   3.326   4.310  0.2762 -0.3623 -0.3024
 6289SOL    HW130326   0.149   3.246   4.299  1.5899 -0.8702 -2.5643
 6289SOL    HW230327   0.166   3.364   4.228 -1.5788  0.2417  0.7411
 6290SOL     OW30328   4.671   4.522   3.101 -0.2703 -0.1424  0.5639
 6290SOL    HW130329   4.683   4.427   3.096 -0.7220 -0.1289 -0.7293
 6290SOL    HW230330   4.579   4.522   3.127 -0.5574  2.2554 -0.4635
 6291SOL     OW30331   3.963   3.072   5.320  0.0991 -0.4815  0.5457
 6291SOL    HW130332   3.891   3.010   5.325 -0.3033 -0.1378 -0.8933
 6291SOL    HW230333   3.930   3.121   5.245  0.7091 -0.0008  0.5889
 6292SOL     OW30334   2.377   0.259   6.831  0.0831 -0.3517  0.4565
 6292SOL    HW130335   2.438   0.322   6.871  0.2417 -0.5983  0.6071
 6292SOL    HW230336   2.435   0.183   6.820 -0.5948 -0.6203 -1.1422
 6293SOL     OW30337   2.475   0.673   5.550 -0.0727  0.1363 -0.0550
 6293SOL    HW130338   2.565   0.697   5.573 -0.2856 -2.0764  3.1044
 6293SOL    HW230339   2.476   0.578   5.536  0.0516 -0.0737  1.3710
 6294SOL     OW30340   3.081   0.942   5.722  0.1804 -0.0382  0.5766
 6294SOL    HW130341   3.126   1.019   5.757 -0.1885  0.0008  0.9729
 6294SOL    HW230342   3.141   0.906   5.656 -0.6923  0.9760 -0.7696
 6295SOL     OW30343   2.253   4.590   8.260  0.2523  0.0706  0.3135
 6295SOL    HW130344   2.172   4.622   8.301  0.6285 -0.3333  1.3762
 6295SOL    HW230345   2.247   4.500   8.291  1.5627 -0.2015 -0.2161
 6296SOL     OW30346   0.226   3.030   5.969 -0.5159 -0.0614  0.3343
 6296SOL    HW130347   0.180   2.990   6.042 -1.6950 -1.6327 -1.2848
 6296SOL    HW230348   0.266   2.953   5.928  4.1947  2.1784  0.7287
 6297SOL     OW30349   3.594   3.239   7.877  0.5258 -0.6592 -0.6803
 6297SOL    HW130350   3.656   3.266   7.944  0.7794 -1.8034 -0.4496
 6297SOL    HW230351   3.587   3.322   7.830  0.1429 -0.4131 -0.1953
 6298SOL     OW30352   3.511   2.504  13.455  0.4323 -0.4100  0.4163
 6298SOL    HW130353   3.549   2.426  13.415  0.5235 -0.7919  1.2477
 6298SOL    HW230354   3.537   2.500  13.547  0.4221 -0.5406  0.4137
 6299SOL     OW30355   3.753   2.687  13.630  0.0188  0.2325 -0.5428
 6299SOL    HW130356   3.760   2.778  13.659  1.7834 -1.4449  4.1565
 6299SOL    HW230357   3.666   2.657  13.656  0.3126 -1.3817 -1.4475
 6300SOL     OW30358   2.612   1.041  15.789  0.3071  0.0058 -0.3788
 6300SOL    HW130359   2.607   1.061  15.696  0.7882 -0.5290 -0.5147
 6300SOL    HW230360   2.538   0.982  15.790  0.7062 -0.4923 -0.4150
 6301SOL     OW30361   1.791   3.670  17.154 -0.0235 -0.1026 -0.5464
 6301SOL    HW130362   1.871   3.694  17.201 -0.8574 -0.1253  0.9134
 6301SOL    HW230363   1.799   3.739  17.089  0.2155  1.1509  0.8262
 6302SOL     OW30364   2.628   3.847   6.746 -0.1763 -0.3519 -0.2677
 6302SOL    HW130365   2.547   3.896   6.760  0.0503  0.0895 -0.5086
 6302SOL    HW230366   2.652   3.834   6.838 -0.6521  0.3750 -0.0383
 6303SOL     OW30367   0.613   2.035   3.237 -0.0230 -0.1567 -0.5897
 6303SOL    HW130368   0.701   2.011   3.266 -0.4988 -1.3031 -0.0986
 6303SOL    HW230369   0.646   2.119   3.206 -0.9473  1.1689  2.0435
 6304SOL     OW30370   2.871   2.104   7.856 -0.4737 -0.5486 -0.4804
 6304SOL    HW130371   2.823   2.065   7.783 -0.5049 -1.4447  0.0287
 6304SOL    HW230372   2.850   2.198   7.848 -3.5077 -1.2715 -1.1724
 6305SOL     OW30373   0.666   0.371   1.053  0.0342  0.1245 -0.5460
 6305SOL    HW130374   0.706   0.287   1.077 -0.7704 -0.1723 -0.2447
 6305SOL    HW230375   0.689   0.397   0.964  1.0864 -1.4442 -0.7385
 6306SOL     OW30376   0.701   2.293   1.486  0.1772 -0.2007  0.4810
 6306SOL    HW130377   0.654   2.213   1.463 -0.8474  0.5390 -0.0222
 6306SOL    HW230378   0.664   2.305   1.574 -1.2254 -1.7244  0.0998
 6307SOL     OW30379   3.244   2.208   2.972  0.1762  0.0831  0.1347
 6307SOL    HW130380   3.163   2.203   2.921 -1.3849  0.8531  2.5369
 6307SOL    HW230381   3.313   2.184   2.910 -0.2490 -0.5180 -0.1047
 6308SOL     OW30382   4.584   3.723   6.744  0.5713  0.3619 -0.1961
 6308SOL    HW130383   4.602   3.634   6.776 -1.1986 -0.6221 -1.9400
 6308SOL    HW230384   4.611   3.771   6.822  0.2961 -0.7915  0.6087
 6309SOL     OW30385   2.792   4.213  17.340 -0.5301 -0.0058 -0.0134
 6309SOL    HW130386   2.873   4.226  17.291 -1.6888  0.5223 -1.7961
 6309SOL    HW230387   2.820   4.153  17.409 -0.3369  0.3519  0.2213
 6310SOL     OW30388   1.064   4.697   6.858  0.3081 -0.7016  0.0545
 6310SOL    HW130389   1.001   4.694   6.786  0.8643 -0.2511 -0.4419
 6310SOL    HW230390   1.149   4.713   6.818 -0.0724  0.8357 -0.1489
 6311SOL     OW30391   0.442   3.220   2.257  0.4230  0.3717  0.1534
 6311SOL    HW130392   0.496   3.289   2.296  2.5393  0.1668 -2.4113
 6311SOL    HW230393   0.517   3.169   2.226  1.5110 -0.8511  4.7939
 6312SOL     OW30394   4.580   1.890  16.968  0.2464  0.3307 -0.4790
 6312SOL    HW130395   4.675   1.880  16.975  0.1995 -0.3007 -0.7482
 6312SOL    HW230396   4.558   1.852  17.053 -1.1100  1.9571 -0.0984
 6313SOL     OW30397   2.437   4.027   8.346 -0.3927  0.1163 -0.1958
 6313SOL    HW130398   2.483   4.107   8.369 -0.4769 -0.3170  1.4838
 6313SOL    HW230399   2.345   4.046   8.364 -0.5707 -0.0322 -0.9252
 6314SOL     OW30400   3.156   2.205   7.156  0.1430  0.0097 -0.0693
 6314SOL    HW130401   3.160   2.115   7.124 -0.0247 -1.1396  3.1175
 6314SOL    HW230402   3.249   2.223   7.166 -0.2863  1.5139  1.2701
 6315SOL     OW30403   3.245   0.549   4.059  0.0733  0.1617  0.3223
 6315SOL    HW130404   3.339   0.550   4.078  0.3022 -0.8890 -0.7654
 6315SOL    HW230405   3.240   0.469   4.007 -1.4839 -0.7897  1.9718
 6316SOL     OW30406   1.887   2.443  16.273 -0.2551 -0.4192 -0.2699
 6316SOL    HW130407   1.932   2.496  16.208 -0.1647 -2.0304 -1.5295
 6316SOL    HW230408   1.807   2.424  16.225 -1.0623  2.4099 -0.0317
 6317SOL     OW30409   1.958   3.495   0.146  0.0078 -0.6970  0.3833
 6317SOL    HW130410   1.956   3.435   0.221 -0.1926  1.1285  1.8176
 6317SOL    HW230411   1.918   3.574   0.182 -0.7980 -1.0434  0.2598
 6318SOL     OW30412   2.035   1.553   7.007  0.2560 -0.6037 -0.1060
 6318SOL    HW130413   2.071   1.479   6.958  0.1154 -2.2521  2.2657
 6318SOL    HW230414   1.994   1.605   6.938  2.0350 -0.9423 -1.4009
 6319SOL     OW30415   2.174   2.844   3.694  0.5585  0.0898 -0.6044
 6319SOL    HW130416   2.262   2.808   3.681  1.7476  2.1732  1.7657
 6319SOL    HW230417   2.151   2.881   3.609 -0.3467  0.3112 -0.2632
 6320SOL     OW30418   0.783   2.804   4.982 -0.0092 -0.4178 -0.2263
 6320SOL    HW130419   0.764   2.821   5.074  2.8617 -3.2534  0.9031
 6320SOL    HW230420   0.822   2.717   4.989 -1.6743 -1.0464  1.2592
 6321SOL     OW30421   1.371   3.452   5.889  0.8810 -0.2236 -0.4442
 6321SOL    HW130422   1.405   3.511   5.957  1.5916 -0.1141 -0.8955
 6321SOL    HW230423   1.354   3.517   5.821  0.7033  0.5428  0.3320
 6322SOL     OW30424   0.874   3.221  14.498 -0.5552  0.7652  0.3741
 6322SOL    HW130425   0.809   3.160  14.532  0.0682 -0.9497 -1.4931
 6322SOL    HW230426   0.814   3.290  14.472 -0.0258  1.6347  1.4513
 6323SOL     OW30427   1.764   1.852   5.878 -0.0283  0.1721 -0.2764
 6323SOL    HW130428   1.705   1.787   5.838  0.7898 -0.8712  0.2062
 6323SOL    HW230429   1.770   1.913   5.805 -1.7082  0.7459  0.0580
 6324SOL     OW30430   0.038   3.351  15.591 -0.0861  0.0955 -0.4222
 6324SOL    HW130431   4.688   3.383  15.646 -0.9551 -1.1391 -0.8214
 6324SOL    HW230432   0.032   3.423  15.528 -0.5578 -0.6185 -1.2018
 6325SOL     OW30433   2.733   1.334   2.951 -0.4434 -0.0670  0.1124
 6325SOL    HW130434   2.731   1.363   3.043 -0.1369  0.7595 -0.1365
 6325SOL    HW230435   2.822   1.350   2.921 -0.5869  1.2745  0.3529
 6326SOL     OW30436   1.383   0.167   4.560 -0.8940 -0.2022  0.0701
 6326SOL    HW130437   1.362   0.255   4.530  0.3415 -0.0566 -0.3543
 6326SOL    HW230438   1.424   0.144   4.477 -0.5540 -0.4383  0.3032
 6327SOL     OW30439   1.163   0.044  10.491 -0.0010 -0.2951 -0.1070
 6327SOL    HW130440   1.170   4.698  10.423  1.5860 -1.5542  1.3163
 6327SOL    HW230441   1.232   0.018  10.552 -0.1567  0.2596  0.3015
 6328SOL     OW30442   2.987   0.256   3.253 -0.2274  0.0085  0.1578
 6328SOL    HW130443   2.920   0.268   3.185 -0.0837 -2.0257 -0.3594
 6328SOL    HW230444   3.044   0.196   3.205 -0.1863  0.2786 -0.1311
 6329SOL     OW30445   0.997   0.547   9.931  0.1590 -0.2328  0.1199
 6329SOL    HW130446   0.960   0.505  10.008  1.2303 -1.5072 -0.0585
 6329SOL    HW230447   0.975   0.640   9.938 -0.5655 -0.4303  0.4285
 6330SOL     OW30448   1.738   4.216   5.218  0.0439 -0.1392  0.8492
 6330SOL    HW130449   1.813   4.220   5.278  2.3585 -3.3907 -1.8412
 6330SOL    HW230450   1.771   4.164   5.145 -3.0755  0.7626 -1.1765
 6331SOL     OW30451   3.728   2.121   4.698  0.2469  0.0383  0.3374
 6331SOL    HW130452   3.711   2.196   4.756  2.7479  0.2649  0.7739
 6331SOL    HW230453   3.680   2.152   4.621 -0.3507  0.5524  0.9048
 6332SOL     OW30454   2.499   3.406   2.558  0.3189 -0.2461  0.3635
 6332SOL    HW130455   2.512   3.472   2.491 -0.1317  0.7450  1.2448
 6332SOL    HW230456   2.525   3.463   2.630 -0.0702  1.7997 -1.1139
 6333SOL     OW30457   2.194   1.030   4.272  0.4734  0.2317 -0.1898
 6333SOL    HW130458   2.180   0.990   4.358  1.8328  1.5847  0.6537
 6333SOL    HW230459   2.267   1.087   4.294  0.0737  0.4025  0.7101
 6334SOL     OW30460   3.961   2.085  16.357 -0.2071  0.7989  0.3395
 6334SOL    HW130461   3.969   2.132  16.274 -0.2867  2.0739  1.0510
 6334SOL    HW230462   3.998   1.997  16.345  0.1824  1.2550 -1.6761
 6335SOL     OW30463   2.876   4.289   1.950  0.2818  0.3564  0.0204
 6335SOL    HW130464   2.842   4.235   2.021  0.8683 -1.1096 -0.8259
 6335SOL    HW230465   2.806   4.280   1.885  1.9861 -1.7880 -1.4951
 6336SOL     OW30466   2.807   3.564   6.774 -0.3018  0.2308  0.4614
 6336SOL    HW130467   2.765   3.649   6.783 -1.5021 -0.1447 -1.7701
 6336SOL    HW230468   2.885   3.579   6.721 -1.0992 -4.7745 -2.1185
 6337SOL     OW30469   2.871   2.283  13.431 -0.3323 -0.4139  0.0203
 6337SOL    HW130470   2.785   2.245  13.411  0.1737 -0.7573 -1.5098
 6337SOL    HW230471   2.915   2.210  13.475 -1.9424 -2.2312 -1.4028
 6338SOL     OW30472   0.417   4.355   2.093  0.2880  0.1522 -0.3174
 6338SOL    HW130473   0.475   4.421   2.130 -0.7242  0.9357 -0.1541
 6338SOL    HW230474   0.441   4.360   2.000 -3.0041 -1.6878 -1.2617
 6339SOL     OW30475   4.659   1.897   3.030 -0.2152 -0.2547  0.1595
 6339SOL    HW130476   4.653   1.848   2.948 -0.7222  0.6075 -0.3220
 6339SOL    HW230477   4.569   1.913   3.060 -1.5212 -1.9843 -2.8755
 6340SOL     OW30478   2.974   2.953   7.879  0.4364  0.3449 -0.5480
 6340SOL    HW130479   3.011   2.937   7.793 -0.5687 -0.4128 -0.8424
 6340SOL    HW230480   3.054   2.975   7.926 -0.2391  1.0922  0.2688
 6341SOL     OW30481   3.968   3.196   9.085 -0.2223  0.8750  0.4127
 6341SOL    HW130482   4.056   3.215   9.051  0.3978 -1.5818  0.6702
 6341SOL    HW230483   3.957   3.266   9.150  1.1022  0.8290  0.6853
 6342SOL     OW30484   2.931   2.326   0.008  0.1085 -0.4287 -0.4008
 6342SOL    HW130485   2.962   2.412   0.035 -0.9741 -0.5604  1.3152
 6342SOL    HW230486   2.880   2.360  17.623  1.2165  1.7902 -0.1325
 6343SOL     OW30487   3.796   1.166   0.460  0.0505  0.5897 -0.1468
 6343SOL    HW130488   3.877   1.123   0.487  1.0773  0.6310 -3.2473
 6343SOL    HW230489   3.740   1.103   0.415 -1.1086  1.2967  0.3082
 6344SOL     OW30490   4.007   1.928  15.066 -0.2398  0.2239 -0.0988
 6344SOL    HW130491   3.943   1.948  14.997 -0.5848  0.0426  0.1677
 6344SOL    HW230492   4.086   1.980  15.054 -0.5215  0.7238  0.1840
 6345SOL     OW30493   0.729   1.114  16.589  0.5936  0.1721  0.7225
 6345SOL    HW130494   0.742   1.042  16.527 -0.5485 -0.4816  1.2390
 6345SOL    HW230495   0.710   1.187  16.530 -0.0699 -1.0919 -0.6278
 6346SOL     OW30496   1.068   4.500   6.249  0.4256 -0.0044  0.0197
 6346SOL    HW130497   1.041   4.454   6.170 -1.0317 -0.2178  0.6233
 6346SOL    HW230498   1.058   4.590   6.218 -2.3442 -0.2021  0.2782
 6347SOL     OW30499   4.046   4.011   1.140 -0.2741 -0.2714  0.3665
 6347SOL    HW130500   4.110   3.940   1.136  1.4718  1.3966 -1.6798
 6347SOL    HW230501   4.097   4.079   1.096  1.0901 -1.7676 -0.3376
 6348SOL     OW30502   1.868   3.771  13.793  0.0705  0.4268 -0.2794
 6348SOL    HW130503   1.780   3.794  13.763 -0.6887 -2.2888 -0.1484
 6348SOL    HW230504   1.845   3.710  13.863  0.9671 -0.4080 -0.7086
 6349SOL     OW30505   0.084   3.884   8.382 -0.1599  1.2319 -0.0878
 6349SOL    HW130506   0.118   3.795   8.379 -1.5106  0.6905  0.6197
 6349SOL    HW230507   0.167   3.931   8.381  1.6916 -2.1315 -1.2251
 6350SOL     OW30508   0.784   4.709  13.664  0.5895 -0.2674 -0.2586
 6350SOL    HW130509   0.759   4.647  13.732  0.4720  1.2073  1.0323
 6350SOL    HW230510   0.841   4.655  13.608 -0.6006 -4.5246  2.6267
 6351SOL     OW30511   0.792   0.132  16.418  0.3060  0.0558 -0.1283
 6351SOL    HW130512   0.812   0.125  16.511 -1.6958  0.1138  0.3194
 6351SOL    HW230513   0.849   0.206  16.397  0.9156  0.2544  2.2711
 6352SOL     OW30514   4.261   2.584  13.776 -0.4033  0.3626 -0.4946
 6352SOL    HW130515   4.172   2.613  13.795 -0.6697 -1.4226  0.9623
 6352SOL    HW230516   4.236   2.499  13.742  2.3618 -2.3486  4.2534
 6353SOL     OW30517   3.080   3.035  13.227 -0.7801  0.6233  0.1633
 6353SOL    HW130518   3.067   2.990  13.311 -2.5223 -0.0414 -0.4549
 6353SOL    HW230519   3.004   3.013  13.174 -0.9284  2.3924 -0.3717
 6354SOL     OW30520   0.763   4.626  10.350  0.1738  1.0312  0.4509
 6354SOL    HW130521   0.734   4.584  10.431 -0.7644 -0.0053 -0.4327
 6354SOL    HW230522   0.795   4.548  10.305  0.9312  2.0107 -0.7144
 6355SOL     OW30523   2.024   2.390   5.869  0.3323 -0.3990  0.4179
 6355SOL    HW130524   2.053   2.479   5.851  1.6981 -0.5970  1.6469
 6355SOL    HW230525   1.944   2.380   5.817 -1.0598 -1.6330  2.8367
 6356SOL     OW30526   1.752   4.241   0.717  0.3088 -0.1799 -0.1351
 6356SOL    HW130527   1.808   4.316   0.738 -0.0365 -0.2168  0.8873
 6356SOL    HW230528   1.802   4.204   0.644  1.0376 -0.4233  0.4810
 6357SOL     OW30529   0.463   0.109   8.289 -0.1235 -0.7107 -0.6398
 6357SOL    HW130530   0.418   0.167   8.350 -2.7214 -1.4419 -1.8419
 6357SOL    HW230531   0.416   0.120   8.206  1.4319  3.5652 -0.9150
 6358SOL     OW30532   4.399   4.697   2.765  0.5813 -0.1256 -0.0102
 6358SOL    HW130533   4.471   4.708   2.827  0.6131 -2.0095  0.2884
 6358SOL    HW230534   4.421   0.051   2.711 -0.8874  2.2669  2.7028
 6359SOL     OW30535   3.989   0.957   7.320  0.1465 -0.0909  0.1019
 6359SOL    HW130536   4.017   1.003   7.240  1.0192 -0.4939  0.1731
 6359SOL    HW230537   3.986   1.030   7.382  0.7439  0.6939 -0.7799
 6360SOL     OW30538   4.106   1.140  15.394 -0.1045  0.2148 -0.4002
 6360SOL    HW130539   4.029   1.171  15.347 -0.8548 -0.1228  0.5980
 6360SOL    HW230540   4.149   1.087  15.327 -1.6469 -1.6368  0.0479
 6361SOL     OW30541   2.670   1.910  10.969  0.2624  0.0493  0.4451
 6361SOL    HW130542   2.605   1.960  10.919  0.3428  0.4579  0.7555
 6361SOL    HW230543   2.629   1.826  10.988 -0.6517  0.3127 -0.3479
 6362SOL     OW30544   4.613   1.658   4.355 -0.0092  0.3667  0.3423
 6362SOL    HW130545   4.669   1.674   4.279 -1.1750  0.0786 -0.5817
 6362SOL    HW230546   4.579   1.746   4.373 -2.0645  0.1088 -2.1428
 6363SOL     OW30547   0.919   1.956  14.512 -0.3959 -0.5762 -0.2478
 6363SOL    HW130548   0.919   1.892  14.582 -1.2258 -0.6064 -0.2736
 6363SOL    HW230549   0.900   1.898  14.438 -2.8297 -0.1594  0.0507
 6364SOL     OW30550   0.757   2.940   1.910  0.0997 -0.2485 -0.1075
 6364SOL    HW130551   0.847   2.958   1.885  0.8168 -2.3070  1.0459
 6364SOL    HW230552   0.718   2.930   1.823 -0.3864  2.6945 -0.2551
 6365SOL     OW30553   3.498   2.310   0.337  0.8893 -0.0169  0.0160
 6365SOL    HW130554   3.529   2.246   0.402 -2.0199 -1.4509 -0.0037
 6365SOL    HW230555   3.488   2.396   0.377  3.0738  0.3543 -0.2569
 6366SOL     OW30556   3.107   0.568   7.119  0.0642 -0.8793  0.7016
 6366SOL    HW130557   3.191   0.609   7.097 -0.8953  0.4318 -0.5649
 6366SOL    HW230558   3.102   0.487   7.069  1.4227  1.2460 -2.9571
 6367SOL     OW30559   0.119   2.650  13.552 -0.4329 -0.2298 -0.2744
 6367SOL    HW130560   0.160   2.613  13.474  3.2753 -1.4083  2.2097
 6367SOL    HW230561   0.056   2.584  13.582 -1.5882  1.3493  0.7793
 6368SOL     OW30562   2.916   0.502   0.811 -0.3305  0.1356 -0.2346
 6368SOL    HW130563   2.835   0.490   0.861  0.8146 -1.8275  1.1659
 6368SOL    HW230564   2.922   0.414   0.774 -1.7095  0.2674 -0.8052
 6369SOL     OW30565   0.774   2.545   4.247  0.0178  0.8992  0.2363
 6369SOL    HW130566   0.776   2.579   4.336  1.9729  0.1614  0.4778
 6369SOL    HW230567   0.847   2.483   4.242  0.4982  1.3781  1.3557
 6370SOL     OW30568   2.238   0.452   8.183  0.0136  0.7412 -0.3465
 6370SOL    HW130569   2.242   0.361   8.156  0.5285  0.7835 -0.4040
 6370SOL    HW230570   2.233   0.494   8.097 -1.7000  0.7627 -0.2315
 6371SOL     OW30571   2.908   3.273   3.318  0.3695  0.2542 -0.1577
 6371SOL    HW130572   2.968   3.283   3.243  0.8203 -0.0740  0.1574
 6371SOL    HW230573   2.910   3.365   3.344 -0.0589  0.1706  0.1578
 6372SOL     OW30574   1.001   3.142   3.026 -0.3739  0.1064  0.3592
 6372SOL    HW130575   0.942   3.189   3.086 -0.8229 -1.9844  1.5513
 6372SOL    HW230576   0.973   3.183   2.944  4.5704  1.4961 -0.6277
 6373SOL     OW30577   2.870   3.025   2.897 -0.1542 -0.3598 -0.4058
 6373SOL    HW130578   2.954   3.035   2.942  1.0129 -0.8286 -2.4958
 6373SOL    HW230579   2.891   3.012   2.805 -0.1486 -0.1428 -0.4354
 6374SOL     OW30580   2.308   3.435  10.958 -0.7197 -0.2668  0.0822
 6374SOL    HW130581   2.219   3.470  10.950  0.2934  2.3693  0.2940
 6374SOL    HW230582   2.357   3.517  10.966  0.8264 -1.3529  1.7850
 6375SOL     OW30583   0.515   0.062   4.936 -0.0740 -0.6893 -0.1678
 6375SOL    HW130584   0.530   0.154   4.957  0.4540 -0.2595 -2.3440
 6375SOL    HW230585   0.513   0.019   5.021  0.3116  0.1249  0.2458
 6376SOL     OW30586   1.943   0.220   8.024  0.3613  0.5576 -0.4294
 6376SOL    HW130587   1.922   0.219   7.930  0.1623 -0.6599 -0.3722
 6376SOL    HW230588   2.038   0.232   8.022  0.1591  2.4332  2.1068
 6377SOL     OW30589   3.284   3.072  15.435  0.8777 -0.1564  0.0065
 6377SOL    HW130590   3.327   3.155  15.456 -1.0623 -0.4273  4.9655
 6377SOL    HW230591   3.334   3.006  15.483  1.4309  0.9000  0.8961
 6378SOL     OW30592   1.212   3.664   3.782  0.1058  0.2556 -0.6745
 6378SOL    HW130593   1.155   3.622   3.718  1.6006 -1.9124 -0.5738
 6378SOL    HW230594   1.281   3.598   3.791 -0.6675 -0.4775 -0.1063
 6379SOL     OW30595   3.050   3.781   8.282 -0.0170  0.3376  0.0793
 6379SOL    HW130596   2.983   3.800   8.217  0.6063  1.1101 -0.3418
 6379SOL    HW230597   3.091   3.866   8.301 -0.8538  0.5113  1.1246
 6380SOL     OW30598   0.633   2.584   2.273 -0.4575  0.9478 -0.2851
 6380SOL    HW130599   0.667   2.611   2.188  1.1025  2.4438  0.8139
 6380SOL    HW230600   0.565   2.649   2.292 -1.1900  0.5989 -1.6721
 6381SOL     OW30601   1.832   0.909   3.616  0.1398  0.2587 -0.2826
 6381SOL    HW130602   1.894   0.942   3.680  1.1951  1.1751 -1.7966
 6381SOL    HW230603   1.830   0.990   3.565 -0.8573  0.6964  0.4373
 6382SOL     OW30604   0.344   1.691   7.072  0.0748  0.0158 -0.1146
 6382SOL    HW130605   0.418   1.660   7.123 -0.2152  0.6837  0.7240
 6382SOL    HW230606   0.268   1.655   7.119  0.7381  1.7768  2.3011
 6383SOL     OW30607   0.414   4.690   4.062  0.2158 -0.8714 -0.3864
 6383SOL    HW130608   0.361   4.713   4.138 -0.2838 -1.4007 -0.5840
 6383SOL    HW230609   0.423   4.595   4.063  2.0232 -0.7267 -2.0115
 6384SOL     OW30610   2.985   1.203   0.153  0.0364  0.1922 -0.5055
 6384SOL    HW130611   2.918   1.267   0.176  0.5955  0.2179  1.0197
 6384SOL    HW230612   3.061   1.256   0.179 -2.6077  3.2755  0.8717
 6385SOL     OW30613   4.291   0.378   1.654  0.1120  0.3459  0.2762
 6385SOL    HW130614   4.196   0.365   1.654  0.6056 -3.0995  2.9806
 6385SOL    HW230615   4.323   0.294   1.622 -0.1213 -0.6275  2.5943
 6386SOL     OW30616   1.284   3.752   8.795 -0.0789  0.3693  0.3336
 6386SOL    HW130617   1.369   3.721   8.762  0.0654  1.4512 -0.3279
 6386SOL    HW230618   1.316   3.787   8.878 -0.5421  0.5603  0.4306
 6387SOL     OW30619   2.315   4.252  11.864  0.1192 -0.8579  0.0358
 6387SOL    HW130620   2.400   4.223  11.898  0.0450  0.7792  1.6507
 6387SOL    HW230621   2.262   4.173  11.860  1.6691 -1.8859 -0.0653
 6388SOL     OW30622   0.581   2.800   4.797 -0.1461  0.2982  0.0069
 6388SOL    HW130623   0.558   2.710   4.771  0.6317 -0.7003  2.8073
 6388SOL    HW230624   0.658   2.808   4.853 -0.2167 -0.0325  0.1516
 6389SOL     OW30625   4.642   0.471   8.482  0.2812 -0.2987  0.0455
 6389SOL    HW130626   4.594   0.540   8.437  0.7807  0.6385  0.9563
 6389SOL    HW230627   4.705   0.444   8.415  0.6421  1.6232 -0.3733
 6390SOL     OW30628   0.699   3.522   3.207  0.2296 -0.0216 -0.4061
 6390SOL    HW130629   0.605   3.533   3.220  0.0235 -0.2189 -1.7859
 6390SOL    HW230630   0.723   3.604   3.163 -3.1065  2.2707  2.0335
 6391SOL     OW30631   1.808   0.595   6.110  0.3641  0.1846 -0.0347
 6391SOL    HW130632   1.857   0.670   6.143 -0.1677 -0.4552  2.1577
 6391SOL    HW230633   1.719   0.628   6.104 -0.1136 -1.2464 -0.8236
 6392SOL     OW30634   4.635   2.176  11.813 -0.3618  0.1610 -0.2164
 6392SOL    HW130635   4.697   2.155  11.744  0.2106  2.4384 -0.3894
 6392SOL    HW230636   4.668   2.136  11.894  0.0291  0.7516 -0.0854
 6393SOL     OW30637   3.846   3.113   3.519 -0.0483  0.5883  0.1577
 6393SOL    HW130638   3.879   3.141   3.434 -0.1453  2.5035  0.7282
 6393SOL    HW230639   3.751   3.121   3.516 -0.2127 -1.3369  0.6668
 6394SOL     OW30640   0.879   2.349   6.432 -0.1047  0.1226  0.1199
 6394SOL    HW130641   0.906   2.306   6.351 -0.7392  0.3533 -0.2179
 6394SOL    HW230642   0.879   2.273   6.489  1.7381  0.2329  0.2848
 6395SOL     OW30643   4.662   0.910  13.504 -0.4378 -0.6897  0.1017
 6395SOL    HW130644   4.696   0.977  13.444  0.3657 -1.5879 -0.4565
 6395SOL    HW230645   0.015   0.850  13.506  1.5407  1.9093  3.5148
 6396SOL     OW30646   0.932   3.889   3.252  0.0861 -0.3487 -0.3964
 6396SOL    HW130647   0.867   3.952   3.285  0.5132 -1.0055  1.6825
 6396SOL    HW230648   0.912   3.897   3.158  0.8425 -2.7419 -0.7609
 6397SOL     OW30649   3.638   3.335   4.708  0.2252 -0.2980  0.2329
 6397SOL    HW130650   3.605   3.400   4.770  0.8547 -2.5150  2.8912
 6397SOL    HW230651   3.589   3.355   4.628 -1.3041 -4.2360  0.1662
 6398SOL     OW30652   2.636   0.133   2.865 -0.0598  0.3037  0.4838
 6398SOL    HW130653   2.541   0.119   2.863 -0.3582  2.3397  0.1787
 6398SOL    HW230654   2.639   0.216   2.818  0.8066  0.1650  0.2921
 6399SOL     OW30655   0.429   3.332   7.786 -0.0182  0.1383  0.0167
 6399SOL    HW130656   0.395   3.243   7.797 -0.9445  0.5280  0.3089
 6399SOL    HW230657   0.511   3.313   7.742  0.1574 -0.8673  0.7736
 6400SOL     OW30658   2.324   4.002  11.457 -0.3589 -0.3695 -0.1813
 6400SOL    HW130659   2.353   4.082  11.502  0.1828 -0.2146 -0.8136
 6400SOL    HW230660   2.405   3.965  11.422 -0.9063  0.7176 -2.5428
 6401SOL     OW30661   4.399   1.144  13.468 -0.6367  0.3425  0.0495
 6401SOL    HW130662   4.366   1.056  13.489 -1.1791  0.7999  1.0619
 6401SOL    HW230663   4.332   1.160  13.402  0.7093  0.3498 -1.3247
 6402SOL     OW30664   0.227   3.160   6.696 -0.0632 -0.2393  0.5593
 6402SOL    HW130665   0.313   3.137   6.729 -0.7074 -1.1679  1.6003
 6402SOL    HW230666   0.163   3.092   6.719 -1.8708 -0.4562 -4.8864
 6403SOL     OW30667   0.920   1.016  12.645  0.3696  0.0497  0.4571
 6403SOL    HW130668   0.935   1.109  12.662 -0.8058  0.3985 -0.4599
 6403SOL    HW230669   0.831   1.000  12.679  0.0140  3.7889  1.2415
 6404SOL     OW30670   4.173   2.554  15.384  0.2265  0.7595 -0.2190
 6404SOL    HW130671   4.265   2.528  15.377 -0.3637 -1.3561 -0.2011
 6404SOL    HW230672   4.151   2.551  15.291 -0.7301  0.4982  0.0171
 6405SOL     OW30673   0.295   0.245   2.811 -0.0637  0.0383 -0.6663
 6405SOL    HW130674   0.210   0.221   2.775  0.5432  0.0554 -2.1387
 6405SOL    HW230675   0.346   0.190   2.750  0.7558  0.5168 -0.4159
 6406SOL     OW30676   1.018   3.854   5.792  0.4969 -0.0042 -0.5006
 6406SOL    HW130677   0.975   3.886   5.712  0.8375  0.9534 -0.2989
 6406SOL    HW230678   1.108   3.861   5.759  0.1816 -1.5624 -1.6562
 6407SOL     OW30679   1.311   3.886   0.902  0.2894 -0.2275 -0.3665
 6407SOL    HW130680   1.266   3.969   0.886  0.3903  0.2458  1.8012
 6407SOL    HW230681   1.294   3.851   0.814  1.5905 -0.9535 -0.3282
 6408SOL     OW30682   4.603   2.078   5.095  0.1834 -0.4593  1.1762
 6408SOL    HW130683   4.690   2.040   5.100  0.2066 -1.0768 -4.2531
 6408SOL    HW230684   4.556   2.054   5.175 -0.1352 -0.0839  1.0999
 6409SOL     OW30685   3.984   1.430   6.179  0.4974  0.7589  0.0194
 6409SOL    HW130686   3.974   1.338   6.206  2.2248  0.5151 -0.2326
 6409SOL    HW230687   4.072   1.453   6.207  0.5969  1.3768 -0.8192
 6410SOL     OW30688   0.271   2.572   1.976 -0.3863  0.0809 -0.3616
 6410SOL    HW130689   0.299   2.644   1.920  0.3151  1.8482  2.2371
 6410SOL    HW230690   0.292   2.497   1.920 -2.2526  0.0735 -1.0647
 6411SOL     OW30691   1.389   2.822   6.365 -0.3437 -0.6112 -0.0581
 6411SOL    HW130692   1.416   2.913   6.357  1.0229 -1.1125 -1.1813
 6411SOL    HW230693   1.363   2.800   6.276 -0.1129 -1.0136 -0.0282
 6412SOL     OW30694   0.624   0.851  13.155 -0.1345  0.4398  0.1985
 6412SOL    HW130695   0.537   0.814  13.140 -0.1517 -0.4823  2.6156
 6412SOL    HW230696   0.597   0.921  13.214  1.9595  1.0876  0.3975
 6413SOL     OW30697   3.742   4.304  15.447 -0.1257 -0.5379 -0.4721
 6413SOL    HW130698   3.712   4.395  15.450  2.1485  0.1549  1.3174
 6413SOL    HW230699   3.829   4.321  15.482  0.1238 -4.9921  1.0309
 6414SOL     OW30700   1.263   0.498   3.775  0.6498 -0.1696  0.3266
 6414SOL    HW130701   1.287   0.590   3.763 -1.5895  0.7639  3.1287
 6414SOL    HW230702   1.312   0.455   3.705  1.6763 -0.1882  1.0397
 6415SOL     OW30703   2.608   4.531   3.867 -0.3182 -0.6994  0.2320
 6415SOL    HW130704   2.525   4.529   3.914  2.0544 -0.9178  4.4047
 6415SOL    HW230705   2.648   4.612   3.896 -2.1241  0.4774 -0.5497
 6416SOL     OW30706   1.564   0.502   2.551 -0.0927 -0.1069  0.2848
 6416SOL    HW130707   1.495   0.503   2.617 -2.6264 -4.3403 -2.2828
 6416SOL    HW230708   1.572   0.595   2.531 -0.2401 -0.0954  0.2825
 6417SOL     OW30709   3.691   1.596   9.096 -0.9085  0.4541 -0.1264
 6417SOL    HW130710   3.758   1.562   9.156 -0.7945  2.2445  0.7762
 6417SOL    HW230711   3.655   1.649   9.167 -1.5588 -0.7313  0.4303
 6418SOL     OW30712   3.175   2.148   3.888  0.5213  0.7085 -0.1536
 6418SOL    HW130713   3.234   2.163   3.815  0.8241  0.2750  0.0037
 6418SOL    HW230714   3.168   2.053   3.888 -1.3696  0.8467 -1.2367
 6419SOL     OW30715   1.508   1.401   2.947  0.4888 -0.1386  0.2553
 6419SOL    HW130716   1.496   1.427   3.039  0.2227  1.1311 -0.1275
 6419SOL    HW230717   1.544   1.480   2.907  3.0676 -1.1704  0.5404
 6420SOL     OW30718   4.682   0.386  10.181  0.3479 -0.3498 -0.2686
 6420SOL    HW130719   4.681   0.298  10.220  0.0006 -1.1790 -2.1268
 6420SOL    HW230720   4.623   0.378  10.106 -1.4932  0.0676  1.1369
 6421SOL     OW30721   2.968   3.998  15.376  0.3216  0.0468  0.5431
 6421SOL    HW130722   2.884   4.038  15.355  0.4262  0.2574  0.5185
 6421SOL    HW230723   3.028   4.044  15.316  0.2123 -0.6308 -0.0914
 6422SOL     OW30724   1.296   0.397   4.450 -0.0764  0.0814 -0.5538
 6422SOL    HW130725   1.246   0.398   4.368 -0.5725  3.5108 -0.1967
 6422SOL    HW230726   1.359   0.469   4.438 -3.0046  2.6197 -0.6029
 6423SOL     OW30727   1.859   3.618  10.859 -0.5962  0.9009 -0.3539
 6423SOL    HW130728   1.842   3.631  10.952  1.1162 -1.9648  0.3722
 6423SOL    HW230729   1.862   3.522  10.864  1.4786  0.9663 -0.5984
 6424SOL     OW30730   1.935   1.133   7.024  0.3338 -0.0365  0.5493
 6424SOL    HW130731   1.852   1.148   6.978  0.3845 -1.4519 -0.0030
 6424SOL    HW230732   1.896   1.124   7.111 -0.7735  0.9224  0.1569
 6425SOL     OW30733   3.413   0.448   0.871  0.0913 -0.2486  0.9736
 6425SOL    HW130734   3.474   0.429   0.943  1.3290  1.5398  0.3983
 6425SOL    HW230735   3.335   0.403   0.904 -2.3928  2.4500 -1.1975
 6426SOL     OW30736   4.150   4.562  13.283 -0.2984 -0.0542 -0.1981
 6426SOL    HW130737   4.200   4.493  13.326  0.4787  0.0378 -0.9430
 6426SOL    HW230738   4.126   4.612  13.361  0.4890 -0.5633  0.3658
 6427SOL     OW30739   4.231   1.043   5.070  0.7067 -0.1635  0.4997
 6427SOL    HW130740   4.266   0.957   5.046  0.9799 -0.0724  0.5707
 6427SOL    HW230741   4.299   1.097   5.031 -0.3343  0.8224  0.0658
 6428SOL     OW30742   2.520   4.452   2.509 -0.0292 -0.3185  0.8159
 6428SOL    HW130743   2.594   4.473   2.452 -0.3914 -0.2760  0.3600
 6428SOL    HW230744   2.513   4.526   2.569  2.7214  0.3065  0.3667
 6429SOL     OW30745   0.350   4.196   4.369  0.5099  0.1438  0.3813
 6429SOL    HW130746   0.417   4.207   4.436  1.5471 -0.8193 -0.4910
 6429SOL    HW230747   0.336   4.101   4.371  2.2725 -0.2146 -3.3412
 6430SOL     OW30748   0.596   0.962  11.949 -0.3738 -0.4711  0.6988
 6430SOL    HW130749   0.515   1.012  11.960 -0.5349 -0.2335 -1.4845
 6430SOL    HW230750   0.561   0.913  11.874 -0.1394 -1.2036  1.0668
 6431SOL     OW30751   1.055   3.174  10.906  0.3579  0.3882  0.7233
 6431SOL    HW130752   1.048   3.141  10.817 -2.9095  0.3039  1.0438
 6431SOL    HW230753   1.017   3.260  10.890 -1.5301 -0.4311  0.7831
 6432SOL     OW30754   1.958   4.433   9.138 -0.3053 -0.0127  0.1904
 6432SOL    HW130755   1.933   4.341   9.149 -0.2591  0.1205  1.3547
 6432SOL    HW230756   2.009   4.416   9.058  0.3789  2.1204  0.1965
 6433SOL     OW30757   2.802   2.323   2.632  0.1259  0.3933 -0.6793
 6433SOL    HW130758   2.752   2.404   2.626 -0.0791  0.2746 -0.5767
 6433SOL    HW230759   2.760   2.267   2.567  2.0732 -0.5873 -1.0704
 6434SOL     OW30760   3.661   4.150   2.241 -0.4142  0.3732 -0.1970
 6434SOL    HW130761   3.598   4.194   2.299  1.0617  0.9044  0.9886
 6434SOL    HW230762   3.737   4.152   2.298 -0.8984 -2.1976  0.5378
 6435SOL     OW30763   1.552   3.750   3.639  0.3511  0.3347  0.2229
 6435SOL    HW130764   1.575   3.775   3.729 -0.4587 -0.8851  0.7666
 6435SOL    HW230765   1.534   3.831   3.592  1.0308  0.1949 -0.2747
 6436SOL     OW30766   3.059   1.077   8.299 -0.1925  0.6515  0.4535
 6436SOL    HW130767   3.149   1.093   8.329 -0.5862  0.5466  1.7003
 6436SOL    HW230768   3.081   1.045   8.211 -1.0034 -1.6621  1.0744
 6437SOL     OW30769   0.717   3.915  15.317  0.1147 -0.4988 -0.0449
 6437SOL    HW130770   0.739   4.006  15.336  1.1597 -0.1013 -3.1912
 6437SOL    HW230771   0.789   3.853  15.325  0.1398 -0.6706 -1.5129
 6438SOL     OW30772   4.496   3.577   8.336 -0.4456  0.3122 -0.8711
 6438SOL    HW130773   4.437   3.597   8.408 -2.5006  1.0731 -2.7785
 6438SOL    HW230774   4.562   3.518   8.373 -0.7278  0.6490  0.1567
 6439SOL     OW30775   1.584   0.334   8.933  0.0916  0.0209 -0.1919
 6439SOL    HW130776   1.626   0.286   9.004 -1.0455 -0.6419  0.0342
 6439SOL    HW230777   1.621   0.285   8.860 -1.0540  1.4065 -1.6920
 6440SOL     OW30778   1.525   4.421   3.807  0.0708  0.6425  0.9847
 6440SOL    HW130779   1.566   4.502   3.777  0.0897  0.6871  1.1293
 6440SOL    HW230780   1.473   4.406   3.728 -0.2159  0.1732  1.2617
 6441SOL     OW30781   2.208   3.849   5.407  0.3383 -0.0896 -0.8333
 6441SOL    HW130782   2.225   3.762   5.444 -1.4764  0.1734  0.6611
 6441SOL    HW230783   2.156   3.883   5.480  0.6127 -0.2378 -0.5667
 6442SOL     OW30784   1.721   3.702   5.812  0.1520  0.1952  0.5306
 6442SOL    HW130785   1.712   3.692   5.717 -1.4754 -0.5585  0.7651
 6442SOL    HW230786   1.776   3.627   5.835 -0.0557 -0.3934 -0.9072
 6443SOL     OW30787   1.891   0.194   2.863 -0.8005 -0.3617  0.3891
 6443SOL    HW130788   1.891   0.284   2.830  1.1467 -0.6015 -0.2709
 6443SOL    HW230789   1.817   0.158   2.815 -0.2514 -0.1600 -0.6118
 6444SOL     OW30790   3.135   0.766   7.782  0.7520 -0.4292  0.7326
 6444SOL    HW130791   3.057   0.757   7.727  1.4307  1.1771 -0.5107
 6444SOL    HW230792   3.126   0.857   7.811  0.5687  0.1017 -0.9401
 6445SOL     OW30793   3.776   2.430   4.981 -0.4295 -0.0768 -0.4198
 6445SOL    HW130794   3.751   2.495   5.047 -1.1098 -0.8008  0.0374
 6445SOL    HW230795   3.866   2.461   4.971 -0.9304  1.0668 -1.4457
 6446SOL     OW30796   2.559   4.346  10.215  0.3610 -0.5529  0.6155
 6446SOL    HW130797   2.617   4.389  10.278 -0.7218  1.0508  0.5375
 6446SOL    HW230798   2.475   4.388  10.237  1.0837  0.0269  2.2956
 6447SOL     OW30799   4.368   1.218  16.080 -0.2003 -0.1470  0.6256
 6447SOL    HW130800   4.433   1.259  16.023 -0.8955  2.1242  1.4495
 6447SOL    HW230801   4.288   1.198  16.032 -0.8894 -1.6137  2.3664
 6448SOL     OW30802   0.298   3.732   7.401 -0.6322 -0.6418 -0.9171
 6448SOL    HW130803   0.392   3.725   7.419 -0.6830  2.3315  0.3909
 6448SOL    HW230804   0.287   3.685   7.318  2.4307 -0.8249 -1.2077
 6449SOL     OW30805   0.762   4.161   7.569 -0.3941 -0.1849  0.0374
 6449SOL    HW130806   0.680   4.160   7.521 -0.1772 -0.9880 -0.3202
 6449SOL    HW230807   0.812   4.086   7.536  0.2683 -0.1218  0.8863
 6450SOL     OW30808   0.234   2.525  13.054  0.0303  0.2941  0.0271
 6450SOL    HW130809   0.277   2.440  13.040  0.8016  0.7214 -0.2472
 6450SOL    HW230810   0.215   2.554  12.965  0.4183  1.2737  0.2604
 6451SOL     OW30811   4.561   3.002   7.135  0.5529 -0.3765 -0.1536
 6451SOL    HW130812   4.484   2.947   7.122  0.1195 -0.0179  0.9767
 6451SOL    HW230813   4.619   2.945   7.186 -0.3118 -0.4981  0.6918
 6452SOL     OW30814   1.453   1.056   7.053  0.1251  0.1103  0.2047
 6452SOL    HW130815   1.462   1.016   7.140  2.5785  0.4762  0.1177
 6452SOL    HW230816   1.391   0.999   7.007  2.6975 -0.9022 -1.9402
 6453SOL     OW30817   4.249   1.070  12.997  0.3728 -0.3012  0.3044
 6453SOL    HW130818   4.194   1.025  13.061 -0.8430  0.4821 -0.1912
 6453SOL    HW230819   4.335   1.033  13.017  0.1714 -1.0165 -0.1667
 6454SOL     OW30820   3.276   4.698  12.811 -0.7319 -0.0409  0.3279
 6454SOL    HW130821   3.366   4.664  12.807 -0.0467  2.0127 -2.0630
 6454SOL    HW230822   3.247   4.637  12.878  1.5704 -2.7863 -1.1639
 6455SOL     OW30823   2.706   2.757  12.498  0.2673 -0.5188 -0.0710
 6455SOL    HW130824   2.668   2.673  12.520 -2.6604  0.8486  0.1338
 6455SOL    HW230825   2.691   2.813  12.574  0.5627  1.0205 -1.1214
 6456SOL     OW30826   2.491   4.440   2.221  0.3454 -0.4797 -0.0657
 6456SOL    HW130827   2.546   4.509   2.183 -1.4927 -0.6733 -3.1101
 6456SOL    HW230828   2.515   4.365   2.167  1.0639 -1.1733  1.2082
 6457SOL     OW30829   1.021   2.643  16.781 -0.2981 -0.5324 -0.1636
 6457SOL    HW130830   0.981   2.654  16.867 -0.0449 -1.3239  0.0525
 6457SOL    HW230831   1.113   2.636  16.807  0.0292  1.0291 -0.8658
 6458SOL     OW30832   1.371   3.079   5.486 -0.0361 -0.4528 -0.3905
 6458SOL    HW130833   1.410   3.155   5.530  1.2908 -0.2095 -1.9894
 6458SOL    HW230834   1.280   3.109   5.493  0.3484 -0.1823  3.8763
 6459SOL     OW30835   3.133   4.368   8.440  0.1969 -0.4326  0.2199
 6459SOL    HW130836   3.084   4.314   8.377  1.8822  0.1669 -1.5969
 6459SOL    HW230837   3.128   4.316   8.520 -0.0049  0.9096  1.0837
 6460SOL     OW30838   0.928   4.139   9.755  0.2385  0.3065 -0.0108
 6460SOL    HW130839   0.920   4.230   9.728  0.3761  0.3272  0.0200
 6460SOL    HW230840   0.897   4.145   9.845  0.1402  0.1167 -0.0305
 6461SOL     OW30841   3.769   0.539   1.497 -0.2023 -0.1816  0.2152
 6461SOL    HW130842   3.846   0.487   1.523  2.3040  3.6924  0.4923
 6461SOL    HW230843   3.732   0.482   1.429  0.5557  0.5815 -0.8402
 6462SOL     OW30844   0.322   4.443  17.371  0.0836 -0.1936  0.1204
 6462SOL    HW130845   0.239   4.483  17.346 -0.8966 -1.5500  1.1857
 6462SOL    HW230846   0.386   4.466  17.304 -0.6139 -1.6636 -1.0509
 6463SOL     OW30847   4.334   3.245  10.956  0.1090 -0.3850 -0.3840
 6463SOL    HW130848   4.382   3.290  10.886 -1.3534 -0.1596 -1.2423
 6463SOL    HW230849   4.339   3.153  10.930  0.1043 -0.4457 -0.1652
 6464SOL     OW30850   2.695   0.252   6.440 -0.3080 -0.1664  0.3472
 6464SOL    HW130851   2.744   0.333   6.452  1.0888 -1.2265  1.7668
 6464SOL    HW230852   2.605   0.284   6.434 -0.7876 -1.3451  1.2901
 6465SOL     OW30853   4.113   1.502   5.591  0.0467 -0.0799  0.1224
 6465SOL    HW130854   4.119   1.557   5.670  2.9471  1.0822 -0.9111
 6465SOL    HW230855   4.063   1.563   5.536  1.0653  0.2666 -0.4128
 6466SOL     OW30856   2.074   0.376  16.667 -0.5506  0.0308 -0.1472
 6466SOL    HW130857   2.087   0.309  16.734  1.1882  0.9970  0.4734
 6466SOL    HW230858   2.153   0.428  16.683 -0.0524 -1.3077  1.6229
 6467SOL     OW30859   1.359   2.255   5.655  0.0755 -0.6627 -0.4680
 6467SOL    HW130860   1.309   2.184   5.616 -0.3412 -0.1817 -0.8193
 6467SOL    HW230861   1.296   2.327   5.664  0.8050  0.0370 -0.9133
 6468SOL     OW30862   1.345   2.669   5.324 -0.5236  0.3693  0.3619
 6468SOL    HW130863   1.255   2.640   5.309 -1.8592  4.6737 -0.0683
 6468SOL    HW230864   1.359   2.724   5.247 -0.4231  1.5550  1.2318
 6469SOL     OW30865   1.536   0.653  14.328 -0.3379  0.5097  0.3533
 6469SOL    HW130866   1.556   0.578  14.384 -0.1797 -0.1372 -0.5671
 6469SOL    HW230867   1.532   0.616  14.240 -0.2331  1.4905 -0.0625
 6470SOL     OW30868   4.430   2.996   2.253 -0.1461  0.1266 -0.4380
 6470SOL    HW130869   4.405   2.936   2.323 -0.7337 -1.5017 -2.0388
 6470SOL    HW230870   4.402   2.959   2.170 -0.7676  0.2842 -0.2962
 6471SOL     OW30871   1.263   0.306   6.076  0.3039 -0.1235  0.2706
 6471SOL    HW130872   1.212   0.386   6.065  0.9776  0.2412 -0.1451
 6471SOL    HW230873   1.318   0.314   5.998 -0.4881  0.0964 -0.2576
 6472SOL     OW30874   1.604   3.453  15.060 -0.1561  0.0024 -0.4176
 6472SOL    HW130875   1.628   3.374  15.108  2.6419  0.9897 -0.1972
 6472SOL    HW230876   1.677   3.469  15.000 -0.1632 -0.9403 -0.6764
 6473SOL     OW30877   1.610   4.132   4.440 -0.4785  0.4152 -0.0429
 6473SOL    HW130878   1.574   4.169   4.521 -0.5077  0.7174 -0.1929
 6473SOL    HW230879   1.704   4.143   4.454 -0.8557  1.9467  1.3109
 6474SOL     OW30880   0.814   0.389   5.158 -0.3156 -0.7135 -0.2380
 6474SOL    HW130881   0.869   0.359   5.230  2.0996 -1.8632 -2.5536
 6474SOL    HW230882   0.727   0.387   5.199 -0.3832 -0.9012 -0.3852
 6475SOL     OW30883   3.439   3.963   1.456  0.2025 -0.0787 -0.4458
 6475SOL    HW130884   3.496   4.032   1.489 -1.9667  0.5604  1.9589
 6475SOL    HW230885   3.459   3.892   1.517 -1.9402  0.1245  0.4929
 6476SOL     OW30886   0.171   2.412   4.832  0.3757  0.2939  0.5833
 6476SOL    HW130887   0.195   2.363   4.753  0.0732  1.8696 -0.4850
 6476SOL    HW230888   0.226   2.359   4.890  0.2332 -0.8376 -0.3329
 6477SOL     OW30889   1.051   2.341   7.343  0.3282 -0.6070  0.3581
 6477SOL    HW130890   0.979   2.301   7.294  0.5374 -0.7852  0.1956
 6477SOL    HW230891   1.033   2.311   7.432  1.0065 -0.6326  0.4889
 6478SOL     OW30892   0.757   2.934   8.859  0.0036  0.7541 -0.4565
 6478SOL    HW130893   0.786   2.846   8.879 -1.0587 -0.2709 -3.4700
 6478SOL    HW230894   0.664   2.927   8.879  0.3417 -1.1163  0.4005
 6479SOL     OW30895   2.580   0.968   8.478  0.2439 -0.3873 -0.5547
 6479SOL    HW130896   2.601   0.924   8.560  0.5229 -1.9723 -1.4747
 6479SOL    HW230897   2.614   0.903   8.417 -0.1756 -0.0591 -1.1346
 6480SOL     OW30898   0.070   0.541   6.464  0.2607  0.3384  0.3789
 6480SOL    HW130899   0.067   0.578   6.376 -2.9441 -0.5482  0.1143
 6480SOL    HW230900   0.005   0.471   6.455  1.1511 -0.5197  0.7161
 6481SOL     OW30901   0.456   3.848   2.796 -0.1199  0.1448 -0.2992
 6481SOL    HW130902   0.485   3.931   2.758 -1.5474  0.7051 -0.1745
 6481SOL    HW230903   0.508   3.801   2.731  0.9333  0.7534  0.1041
 6482SOL     OW30904   2.087   2.449   5.089 -0.7209 -0.4914  0.1784
 6482SOL    HW130905   2.150   2.510   5.127 -1.4144  0.2488  0.1266
 6482SOL    HW230906   2.146   2.397   5.034 -1.9460 -2.1192  0.3871
 6483SOL     OW30907   1.347   1.055   3.854  0.1676 -0.2775  0.3142
 6483SOL    HW130908   1.422   1.037   3.797 -0.6792 -1.0637 -0.5447
 6483SOL    HW230909   1.304   1.112   3.790  0.4525 -0.5945 -0.1585
 6484SOL     OW30910   4.246   2.047   7.818 -0.5376  0.3242 -0.2701
 6484SOL    HW130911   4.298   2.039   7.898 -2.0262  1.9044  0.8678
 6484SOL    HW230912   4.311   2.044   7.747  1.5922 -0.4025  1.7195
 6485SOL     OW30913   3.713   0.478  11.653 -0.7379  0.1058  0.0333
 6485SOL    HW130914   3.783   0.492  11.716 -0.2101  0.4667 -0.6366
 6485SOL    HW230915   3.735   0.397  11.607  1.5253 -0.5817  2.2986
 6486SOL     OW30916   3.032   3.567   7.620  0.3920  0.0302  0.2151
 6486SOL    HW130917   3.004   3.636   7.680 -1.0980  0.1936 -0.6763
 6486SOL    HW230918   2.967   3.502   7.643  0.2912 -0.5014 -1.5658
 6487SOL     OW30919   4.261   1.115   0.350  0.0691  0.1970  0.7650
 6487SOL    HW130920   4.345   1.160   0.354  1.3297 -1.7634 -3.3017
 6487SOL    HW230921   4.229   1.159   0.272 -0.2733  0.3275  0.9755
 6488SOL     OW30922   0.243   2.019   5.968 -0.1121  0.0422 -0.2747
 6488SOL    HW130923   0.283   2.100   5.937 -1.1720 -0.3556 -2.7554
 6488SOL    HW230924   0.292   1.953   5.919  0.8809  1.0201 -0.5971
 6489SOL     OW30925   2.200   2.705   0.951  0.2489 -0.5847 -0.3277
 6489SOL    HW130926   2.138   2.772   0.923  1.3223  1.6232  2.6078
 6489SOL    HW230927   2.230   2.749   1.031  0.1222 -0.2573 -0.4588
 6490SOL     OW30928   1.947   3.964   4.066  0.1091 -0.7311 -0.2515
 6490SOL    HW130929   1.905   3.883   4.036  0.2357  0.2060 -2.9354
 6490SOL    HW230930   1.864   3.999   4.100 -0.0652 -1.5723  0.1889
 6491SOL     OW30931   0.175   1.751   8.776 -0.5672 -0.5373 -0.6478
 6491SOL    HW130932   0.114   1.711   8.712  0.8220 -2.5937 -0.6990
 6491SOL    HW230933   0.169   1.845   8.760  0.5606 -0.6166 -1.5276
 6492SOL     OW30934   2.985   1.549  15.544 -0.1620  0.1566 -0.2672
 6492SOL    HW130935   2.930   1.615  15.586 -1.1854  0.0709 -1.4795
 6492SOL    HW230936   3.049   1.530  15.613 -1.1093 -0.5483  0.4297
 6493SOL     OW30937   0.974   1.707  14.981  0.3439  0.1345  0.0141
 6493SOL    HW130938   0.963   1.730  15.073  2.1530  2.2442 -0.2936
 6493SOL    HW230939   1.014   1.620  14.990 -1.3867 -0.8685 -1.9611
 6494SOL     OW30940   4.640   4.374   4.581 -0.6175  0.0713 -0.0726
 6494SOL    HW130941   4.642   4.279   4.577  0.7667  0.1244 -1.0022
 6494SOL    HW230942   0.002   4.379   4.534 -0.8724  1.2434 -0.4120
 6495SOL     OW30943   0.656   4.321  11.962 -0.1436  0.1683  0.1878
 6495SOL    HW130944   0.592   4.356  11.901 -0.6675 -0.5332  0.3370
 6495SOL    HW230945   0.693   4.243  11.919  2.2099  1.8544 -0.8568
 6496SOL     OW30946   3.248   0.098   6.448 -0.2857  0.3182  0.0699
 6496SOL    HW130947   3.216   0.028   6.392  0.1142  2.0185 -2.2705
 6496SOL    HW230948   3.339   0.067   6.450 -0.7059 -0.9679 -1.3848
 6497SOL     OW30949   0.600   2.091   6.740  0.1776  0.1128  0.0969
 6497SOL    HW130950   0.646   2.039   6.806  2.3846  0.9580 -0.7744
 6497SOL    HW230951   0.511   2.075   6.770 -0.1302  0.5179 -0.6141
 6498SOL     OW30952   2.349   1.201   9.655 -0.9053 -0.4482 -0.1872
 6498SOL    HW130953   2.322   1.136   9.720 -0.3469  0.7034  1.2085
 6498SOL    HW230954   2.314   1.164   9.574 -0.1630 -1.1553 -0.1884
 6499SOL     OW30955   4.449   3.893   5.526 -0.7636 -0.0283  0.0079
 6499SOL    HW130956   4.378   3.854   5.476  0.4308 -0.6970 -1.1737
 6499SOL    HW230957   4.417   3.911   5.615 -0.2664 -3.5841  0.9057
 6500SOL     OW30958   1.621   2.935  12.621  0.5014 -0.4775 -0.1724
 6500SOL    HW130959   1.531   2.958  12.598  0.3702  0.9291  1.7103
 6500SOL    HW230960   1.622   2.852  12.574 -3.4308 -0.4799 -0.2972
 6501SOL     OW30961   1.184   1.306   2.047  0.1601  0.8507  0.1269
 6501SOL    HW130962   1.109   1.322   1.989  0.1327  0.7282  0.1287
 6501SOL    HW230963   1.166   1.365   2.121  0.2414  0.7113  0.2563
 6502SOL     OW30964   0.134   0.072   2.131  0.1304  0.1716 -0.3589
 6502SOL    HW130965   0.225   0.082   2.159 -0.2935  1.0006  0.7252
 6502SOL    HW230966   0.152   0.038   2.043 -1.9550 -0.1164 -0.6741
 6503SOL     OW30967   3.923   1.722   3.783 -0.6630  0.1911  0.3010
 6503SOL    HW130968   3.964   1.662   3.845 -0.5426 -0.8875 -0.8329
 6503SOL    HW230969   4.002   1.772   3.762 -1.8145  0.8527 -2.4585
 6504SOL     OW30970   3.712   0.714   3.362 -0.2583  0.0548  0.1021
 6504SOL    HW130971   3.708   0.637   3.418  0.9117  0.4147  0.6727
 6504SOL    HW230972   3.619   0.736   3.350 -0.6353 -1.8186 -0.4226
 6505SOL     OW30973   1.446   3.944   4.370 -0.7049  0.2829  0.0334
 6505SOL    HW130974   1.502   4.018   4.394  0.2291 -0.0492 -1.1188
 6505SOL    HW230975   1.466   3.873   4.430  1.2365  0.6396 -0.1754
 6506SOL     OW30976   0.022   0.113  10.840 -0.0309  0.0218 -0.5588
 6506SOL    HW130977   0.074   0.192  10.859 -0.3340 -0.3310  1.7263
 6506SOL    HW230978   0.006   0.075  10.927 -1.2370 -0.7734 -1.1251
 6507SOL     OW30979   3.959   1.402   8.100  0.2613  0.0206  0.2843
 6507SOL    HW130980   3.950   1.328   8.160  0.9524  0.2850  0.7220
 6507SOL    HW230981   4.045   1.434   8.129  1.8199 -1.6731 -2.4751
 6508SOL     OW30982   4.221   1.670   8.889  0.0270 -0.5178 -0.1326
 6508SOL    HW130983   4.169   1.711   8.959 -0.5697 -3.3331  1.0819
 6508SOL    HW230984   4.297   1.655   8.945  0.3364  0.3437 -0.3226
 6509SOL     OW30985   4.570   3.741  17.184 -0.0888 -0.2609 -0.5441
 6509SOL    HW130986   4.552   3.812  17.123  1.9607  1.3418  0.6951
 6509SOL    HW230987   4.535   3.771  17.268  2.9436  1.3094  0.1659
 6510SOL     OW30988   2.398   4.162   7.297 -0.3456  0.4266  0.5570
 6510SOL    HW130989   2.462   4.139   7.364 -0.7861 -0.3661  0.7027
 6510SOL    HW230990   2.378   4.077   7.256 -2.0355  0.7899  0.6296
 6511SOL     OW30991   4.047   0.986   4.793 -0.2621 -0.0167 -0.6377
 6511SOL    HW130992   3.999   1.037   4.858 -1.4925 -0.8022 -0.9337
 6511SOL    HW230993   4.052   1.056   4.728 -0.0878 -0.4369 -1.0775
 6512SOL     OW30994   1.243   2.527   0.874 -0.0842 -0.0129  0.2174
 6512SOL    HW130995   1.260   2.467   0.946 -1.9904  0.7907  1.3411
 6512SOL    HW230996   1.320   2.507   0.821 -0.0629  0.9675 -0.1374
 6513SOL     OW30997   1.962   3.079  10.060 -0.0114  0.3389  0.3491
 6513SOL    HW130998   1.882   3.088  10.111  1.0669  0.2643  2.0642
 6513SOL    HW230999   1.965   3.160  10.010  2.6465  0.8811  1.3442
 6514SOL     OW31000   1.312   2.098   5.168  0.1444 -0.1310 -0.3344
 6514SOL    HW131001   1.384   2.070   5.112  0.4280 -0.5791  0.2542
 6514SOL    HW231002   1.240   2.052   5.125 -0.6602 -0.3226  1.2055
 6515SOL     OW31003   2.426   4.558   6.261  0.1701 -0.1436  0.3937
 6515SOL    HW131004   2.413   4.464   6.250 -1.2349  0.0506  0.4091
 6515SOL    HW231005   2.414   4.554   6.356 -0.3550  0.1309  0.3377
 6516SOL     OW31006   4.559   0.725   8.663  0.2506  0.6432  0.5112
 6516SOL    HW131007   4.481   0.721   8.718  0.8165 -0.1532  1.2439
 6516SOL    HW231008   4.522   0.703   8.577  0.2989 -1.8249  1.1386
 6517SOL     OW31009   2.845   3.601   5.548 -0.1299  0.4175  0.7679
 6517SOL    HW131010   2.866   3.518   5.590  0.5284  0.2266  0.0631
 6517SOL    HW231011   2.822   3.653   5.624  2.4133  1.2793  0.9444
 6518SOL     OW31012   2.934   3.329   4.463 -0.6117  0.3478 -0.3706
 6518SOL    HW131013   2.846   3.364   4.448  0.2416  2.1198 -1.2146
 6518SOL    HW231014   2.982   3.395   4.413  0.8030  0.7793  1.5671
 6519SOL     OW31015   0.817   2.125   9.015  0.4201  0.5183 -0.5354
 6519SOL    HW131016   0.797   2.066   8.942 -0.5655  0.8509 -0.5306
 6519SOL    HW231017   0.841   2.209   8.977  0.3462  1.3362  1.2432
 6520SOL     OW31018   4.697   3.888   6.916 -0.0447  0.1023 -0.0661
 6520SOL    HW131019   0.054   3.901   6.970 -0.8357  3.2026  0.3343
 6520SOL    HW231020   4.653   3.966   6.948  1.3963 -0.4660  3.2877
 6521SOL     OW31021   2.135   0.193  10.796  0.1741 -0.2680  0.5125
 6521SOL    HW131022   2.058   0.139  10.814  0.9604 -1.7306 -0.5514
 6521SOL    HW231023   2.133   0.261  10.863 -1.0412  1.0093 -0.8318
 6522SOL     OW31024   3.268   2.380  11.469 -0.2931  0.0537 -0.4236
 6522SOL    HW131025   3.215   2.313  11.513  0.1809 -0.1705 -0.2023
 6522SOL    HW231026   3.327   2.321  11.423 -0.0458 -0.0584  0.0380
 6523SOL     OW31027   0.328   0.511  17.344 -0.2332  0.0956  0.5265
 6523SOL    HW131028   0.347   0.484  17.434  0.1654 -1.9561 -0.1748
 6523SOL    HW231029   0.413   0.530  17.305 -0.1038  1.6408  1.5507
 6524SOL     OW31030   4.198   4.719   3.116  0.1530 -0.4051 -0.3157
 6524SOL    HW131031   4.134   4.651   3.093  2.7544 -3.3726  1.3045
 6524SOL    HW231032   4.163   0.073   3.069  1.4622  0.7690  0.6324
 6525SOL     OW31033   3.888   3.221   7.628 -0.2453  0.4399  0.1771
 6525SOL    HW131034   3.857   3.199   7.540 -0.6644  0.7256  0.2546
 6525SOL    HW231035   3.841   3.303   7.645 -0.7294  0.0427  0.7419
 6526SOL     OW31036   4.009   0.199  10.396  0.6479 -0.1696 -0.9194
 6526SOL    HW131037   3.980   0.257  10.325  0.9084  0.0460 -0.8520
 6526SOL    HW231038   4.031   0.272  10.455  1.2639 -0.1184 -1.2046
 6527SOL     OW31039   1.890   3.535   2.594  0.9541 -0.3351 -0.3396
 6527SOL    HW131040   1.806   3.578   2.612  0.9899 -0.6010  0.4682
 6527SOL    HW231041   1.949   3.594   2.548  2.2776 -1.2442  0.1853
 6528SOL     OW31042   4.238   1.045   9.832  0.5726 -0.2102  0.0388
 6528SOL    HW131043   4.180   1.024   9.758  1.9690 -1.5761 -0.6597
 6528SOL    HW231044   4.178   1.024   9.903  1.0122  0.7700  0.7009
 6529SOL     OW31045   4.057   4.112   6.126 -0.2148 -0.3432  0.4924
 6529SOL    HW131046   4.131   4.054   6.145  1.8139  0.6767 -4.1229
 6529SOL    HW231047   4.106   4.187   6.092  0.8398 -0.4306  1.8345
 6530SOL     OW31048   2.302   2.893   2.336  0.5719  0.0301  0.2834
 6530SOL    HW131049   2.302   2.963   2.401  0.5645  0.6614 -0.4028
 6530SOL    HW231050   2.356   2.926   2.264 -2.6708  1.9134 -1.3026
 6531SOL     OW31051   1.653   3.339   9.552  0.5534  0.1403  0.0313
 6531SOL    HW131052   1.748   3.334   9.536  0.4760  3.2683 -1.4846
 6531SOL    HW231053   1.648   3.429   9.583 -0.1809  0.3504 -0.6995
 6532SOL     OW31054   2.961   4.543   5.048  0.0170  0.4659  0.3233
 6532SOL    HW131055   2.950   4.451   5.071  0.5101  0.6076  1.1337
 6532SOL    HW231056   2.893   4.578   5.105  0.0989  1.5763 -0.2712
 6533SOL     OW31057   4.376   3.090   5.930  0.1406  0.2606  0.4296
 6533SOL    HW131058   4.353   2.999   5.912  1.9760 -0.3065  0.9681
 6533SOL    HW231059   4.382   3.088   6.025 -0.7621 -0.2580  0.4821
 6534SOL     OW31060   3.409   1.285   8.240  0.4049 -0.2813  0.6661
 6534SOL    HW131061   3.379   1.360   8.291  2.4687  0.9542  0.0421
 6534SOL    HW231062   3.355   1.219   8.283 -0.7095  0.2964  0.1634
 6535SOL     OW31063   4.413   0.330   3.920  0.5786  0.1414  0.6170
 6535SOL    HW131064   4.489   0.279   3.892 -0.4726 -0.8522 -0.4017
 6535SOL    HW231065   4.348   0.261   3.912  0.7389  0.2941 -2.1779
 6536SOL     OW31066   3.540   2.825   6.118 -0.5592 -0.1174  0.3712
 6536SOL    HW131067   3.596   2.876   6.060 -1.2593  1.3484  0.9951
 6536SOL    HW231068   3.583   2.740   6.110 -1.6239 -0.3760 -2.3742
 6537SOL     OW31069   0.322   1.189   2.634 -0.4557 -0.5762 -0.4783
 6537SOL    HW131070   0.293   1.122   2.696 -0.5079 -1.1318 -1.1100
 6537SOL    HW231071   0.255   1.257   2.649  1.2380  1.2567 -1.2647
 6538SOL     OW31072   2.298   3.513   2.325 -0.0655 -0.3297  0.7914
 6538SOL    HW131073   2.332   3.439   2.274  1.3738  1.6276 -1.1479
 6538SOL    HW231074   2.230   3.488   2.386 -0.8304 -2.3055 -0.8789
 6539SOL     OW31075   1.010   1.338   3.560  0.1672  0.4549  0.3315
 6539SOL    HW131076   0.936   1.357   3.617 -0.4238 -2.1459  0.4456
 6539SOL    HW231077   0.982   1.363   3.472 -0.8419  0.2394  0.5987
 6540SOL     OW31078   0.826   1.586   7.922  0.0743 -0.4817  0.4183
 6540SOL    HW131079   0.828   1.508   7.868  0.7621  0.3267 -0.7129
 6540SOL    HW231080   0.732   1.605   7.914 -0.0415 -0.9872  0.5796
 6541SOL     OW31081   4.043   3.612  13.058 -0.2932  0.6053 -0.2260
 6541SOL    HW131082   4.135   3.638  13.047  0.2296 -0.9012  0.5558
 6541SOL    HW231083   4.020   3.573  12.974  1.4859 -1.2013  0.1180
 6542SOL     OW31084   1.527   1.679   0.012 -0.3492  0.2602  0.6310
 6542SOL    HW131085   1.481   1.669  17.617  0.7998 -1.6206  0.2223
 6542SOL    HW231086   1.485   1.753   0.057 -1.4093 -0.7386  1.2717
 6543SOL     OW31087   4.380   2.178  10.193 -0.0775 -0.1364  0.3555
 6543SOL    HW131088   4.417   2.114  10.254 -1.0011  0.6922  1.8071
 6543SOL    HW231089   4.341   2.239  10.256 -1.4585 -1.3641  0.6925
 6544SOL     OW31090   4.405   3.267   0.963 -0.3386  0.4703  0.2657
 6544SOL    HW131091   4.444   3.337   1.016 -1.2969  0.9685  0.3062
 6544SOL    HW231092   4.417   3.297   0.873 -0.7555 -1.1404 -0.3309
 6545SOL     OW31093   3.227   2.251   7.757 -0.0441 -0.1498  0.2665
 6545SOL    HW131094   3.279   2.330   7.742 -1.8469  1.4218  2.0459
 6545SOL    HW231095   3.192   2.257   7.847  1.1005  0.5136  0.6636
 6546SOL     OW31096   3.592   0.940   9.018  0.1179 -0.5637  0.4888
 6546SOL    HW131097   3.525   0.902   9.075  0.1676 -2.0036 -0.4357
 6546SOL    HW231098   3.619   1.019   9.065 -0.4558  0.2335 -0.5253
 6547SOL     OW31099   1.739   2.474   6.782 -0.6232  0.4985  0.4171
 6547SOL    HW131100   1.699   2.561   6.775 -0.7805  0.4913  1.3197
 6547SOL    HW231101   1.812   2.488   6.841 -1.2050  0.1587  1.2136
 6548SOL     OW31102   3.711   4.542   6.797 -0.1200  0.3770  0.2219
 6548SOL    HW131103   3.670   4.505   6.875  1.3982  1.3467  1.4996
 6548SOL    HW231104   3.680   4.632   6.790 -0.6654  0.4114  3.1456
 6549SOL     OW31105   4.254   1.090  15.147 -0.3391  0.2572 -0.1530
 6549SOL    HW131106   4.289   1.001  15.147 -0.1335  0.3371  0.9861
 6549SOL    HW231107   4.242   1.112  15.055  0.7968  0.3576 -0.2736
 6550SOL     OW31108   2.498   1.761  12.900 -0.3847  0.5900  0.2034
 6550SOL    HW131109   2.566   1.800  12.844  0.2505 -1.1490 -0.2443
 6550SOL    HW231110   2.534   1.675  12.922 -2.6399 -0.1266  1.0367
 6551SOL     OW31111   3.926   1.204   7.492 -0.4312 -0.2633 -0.4784
 6551SOL    HW131112   3.844   1.157   7.507 -0.8651  1.0927  1.3637
 6551SOL    HW231113   3.891   1.288   7.520 -2.6347 -0.9571 -1.1564
 6552SOL     OW31114   0.612   2.994   2.466  0.3387 -0.4057 -0.0018
 6552SOL    HW131115   0.642   2.902   2.468 -0.9232 -0.8379 -1.1229
 6552SOL    HW231116   0.517   2.985   2.467  0.2101  0.8878 -1.8623
 6553SOL     OW31117   1.746   1.123  15.715  0.5616 -0.0037  0.7928
 6553SOL    HW131118   1.826   1.082  15.749  1.2399  0.7581  0.0983
 6553SOL    HW231119   1.777   1.152  15.630  2.9803 -0.1562  1.6204
 6554SOL     OW31120   4.396   0.714  13.413  0.7313 -0.2764  0.2162
 6554SOL    HW131121   4.323   0.742  13.357 -0.7413 -2.5023  0.9991
 6554SOL    HW231122   4.457   0.681  13.347  1.1268  1.0972 -0.0989
 6555SOL     OW31123   1.081   1.126  17.633  0.3306 -0.2209 -0.7541
 6555SOL    HW131124   1.109   1.139   0.036 -0.3014  1.2349 -0.7575
 6555SOL    HW231125   1.163   1.142  17.588 -0.0708  2.5447 -0.5159
 6556SOL     OW31126   1.856   4.577   4.053 -0.2257  0.2308 -0.4739
 6556SOL    HW131127   1.803   4.499   4.071 -1.2838  0.5946 -1.9762
 6556SOL    HW231128   1.923   4.533   4.001  0.7251  1.1114  0.0107
 6557SOL     OW31129   4.579   3.147   9.867  0.6532  0.5541  0.1855
 6557SOL    HW131130   4.491   3.184   9.877 -0.0038 -0.2565 -2.5947
 6557SOL    HW231131   4.644   3.213   9.889  0.5996  0.8949 -0.6910
 6558SOL     OW31132   0.145   1.331   2.808 -0.3235  0.1214  0.3494
 6558SOL    HW131133   0.116   1.415   2.774  1.7193  0.4063 -0.6559
 6558SOL    HW231134   0.063   1.284   2.826 -0.8561  0.7970 -0.3444
 6559SOL     OW31135   0.133   3.334   9.074  0.5379 -0.6376  0.6330
 6559SOL    HW131136   0.076   3.399   9.116 -0.2878 -0.6459 -0.4822
 6559SOL    HW231137   0.145   3.275   9.148  2.9523 -1.9028 -0.7432
 6560SOL     OW31138   1.048   1.934   7.969 -0.3272 -0.0233  0.4285
 6560SOL    HW131139   1.057   1.899   8.057 -0.8946 -2.5279 -0.5174
 6560SOL    HW231140   1.050   2.029   7.982 -0.4488 -0.3161  2.5614
 6561SOL     OW31141   2.370   1.047   7.860 -0.1115 -0.2479  0.2652
 6561SOL    HW131142   2.410   1.029   7.945  0.8973  0.7963  0.0022
 6561SOL    HW231143   2.430   1.116   7.833 -1.7154  1.3367  0.8282
 6562SOL     OW31144   0.067   4.412   0.096  0.1561  0.5141  0.0078
 6562SOL    HW131145   0.035   4.441   0.181 -0.2902 -0.6170  0.2307
 6562SOL    HW231146   0.124   4.341   0.127  0.7281  0.3514 -1.4043
 6563SOL     OW31147   0.594   2.161   4.374 -0.2811  0.3094 -0.3396
 6563SOL    HW131148   0.542   2.122   4.304  1.5137  0.0960 -1.5724
 6563SOL    HW231149   0.678   2.178   4.330  0.9492 -0.4501  1.7111
 6564SOL     OW31150   3.324   1.242   2.688  0.2246 -0.4372  0.2850
 6564SOL    HW131151   3.394   1.265   2.627 -1.1792  0.5298 -0.9389
 6564SOL    HW231152   3.368   1.162   2.719 -0.5949 -0.8679  0.3233
 6565SOL     OW31153   0.819   4.249   0.533  0.3123  0.3112 -0.0585
 6565SOL    HW131154   0.876   4.195   0.587 -0.8763 -0.3466  0.5261
 6565SOL    HW231155   0.822   4.334   0.578 -1.9601  0.3476  0.0210
 6566SOL     OW31156   1.262   2.526   6.776 -0.4174  0.0639  1.0761
 6566SOL    HW131157   1.232   2.576   6.700  3.1380  1.5015  0.5923
 6566SOL    HW231158   1.195   2.458   6.778  1.2477 -1.5646  1.6526
 6567SOL     OW31159   2.451   4.139   8.681 -0.3963  0.8968  0.0450
 6567SOL    HW131160   2.395   4.062   8.691  3.6362 -2.5724 -3.4505
 6567SOL    HW231161   2.513   4.139   8.754  0.7610 -2.3314 -0.9273
 6568SOL     OW31162   1.487   4.401   8.764 -0.2009 -0.3486 -0.4657
 6568SOL    HW131163   1.392   4.388   8.762 -0.4832  1.7219  0.3147
 6568SOL    HW231164   1.507   4.396   8.858 -0.6607  0.7090 -0.3155
 6569SOL     OW31165   1.678   0.287  14.731  0.2333 -0.2300  0.5741
 6569SOL    HW131166   1.637   0.204  14.753 -2.1434  0.6789 -0.4081
 6569SOL    HW231167   1.696   0.277  14.638 -0.4706  1.1373  0.2833
 6570SOL     OW31168   2.589   4.161   1.943  0.2479 -1.0379 -0.2814
 6570SOL    HW131169   2.569   4.069   1.962  1.9068 -2.0844 -3.6026
 6570SOL    HW231170   2.513   4.189   1.891 -0.4952 -1.1914  0.7129
 6571SOL     OW31171   2.966   0.020  14.565 -0.5227 -0.4328  0.0331
 6571SOL    HW131172   2.922   0.075  14.629  0.5273 -1.2416  1.4450
 6571SOL    HW231173   3.032   0.084  14.541 -0.1126 -1.9806 -2.9916
 6572SOL     OW31174   0.983   2.044   9.647  0.0023 -0.0305 -0.0174
 6572SOL    HW131175   0.993   1.949   9.636  2.5473  0.1411  0.6924
 6572SOL    HW231176   1.007   2.060   9.738 -0.0660 -0.7701  0.1328
 6573SOL     OW31177   3.632   2.939   1.329  0.6331 -0.0648  0.1095
 6573SOL    HW131178   3.553   2.954   1.380 -0.1203  0.5234 -1.2301
 6573SOL    HW231179   3.706   2.942   1.390 -0.9674 -0.5671  2.0642
 6574SOL     OW31180   2.009   4.435   3.873 -0.1864  0.7001  0.3057
 6574SOL    HW131181   2.089   4.384   3.891 -0.8624 -0.1746  0.8301
 6574SOL    HW231182   2.028   4.469   3.785  2.0513 -0.9435  0.1301
 6575SOL     OW31183   0.837   1.866   7.827 -0.4272  0.2302 -0.0028
 6575SOL    HW131184   0.839   1.779   7.866  1.1676  1.4667  2.6348
 6575SOL    HW231185   0.920   1.896   7.864  0.4570  0.2803 -1.9824
 6576SOL     OW31186   0.100   0.579  14.539  0.4381 -0.1684 -0.1343
 6576SOL    HW131187   0.134   0.495  14.511 -0.0608 -0.6760  0.7952
 6576SOL    HW231188   0.175   0.637  14.525  0.1327  0.2163 -0.1806
 6577SOL     OW31189   4.401   4.020  17.260 -0.1645 -0.1290 -0.0061
 6577SOL    HW131190   4.340   3.962  17.215 -1.3127  1.3556 -0.3683
 6577SOL    HW231191   4.362   4.105  17.237 -0.9428 -0.5856 -0.3850
 6578SOL     OW31192   3.750   0.264  10.755 -0.0906 -0.0787 -0.2276
 6578SOL    HW131193   3.720   0.327  10.821 -0.1107 -2.2877  1.8870
 6578SOL    HW231194   3.801   0.320  10.698 -1.2530  0.9179 -0.2928
 6579SOL     OW31195   3.284   2.647   7.951  0.0307 -0.5013  0.0026
 6579SOL    HW131196   3.208   2.593   7.972  0.4077 -0.5507  1.2381
 6579SOL    HW231197   3.331   2.577   7.906 -0.2344  1.0058 -2.6203
 6580SOL     OW31198   3.519   0.207   2.606  0.3967 -0.2952 -0.4102
 6580SOL    HW131199   3.558   0.158   2.679  3.3207  1.3395 -0.8829
 6580SOL    HW231200   3.484   0.282   2.655  1.0661  1.0346 -1.9856
 6581SOL     OW31201   3.260   0.341   6.021 -0.2083  0.0900  0.0560
 6581SOL    HW131202   3.333   0.310   6.074 -0.0128  1.8943  0.8400
 6581SOL    HW231203   3.202   0.275   6.059 -0.1206  0.7776  1.3809
 6582SOL     OW31204   1.510   3.401  10.931 -0.1319 -0.0590 -0.1376
 6582SOL    HW131205   1.460   3.421  10.852 -1.3180 -1.3654  0.2762
 6582SOL    HW231206   1.517   3.488  10.970 -0.2062  0.4348 -1.2214
 6583SOL     OW31207   0.788   1.493   1.968  0.4090 -0.2684  0.0880
 6583SOL    HW131208   0.792   1.448   2.053 -0.1268  1.9176  1.2781
 6583SOL    HW231209   0.701   1.464   1.938 -1.1460  0.9753  3.4043
 6584SOL     OW31210   0.342   4.332  13.650 -0.1163 -0.1133  0.7309
 6584SOL    HW131211   0.355   4.297  13.562  0.9384 -0.9712  1.2106
 6584SOL    HW231212   0.295   4.415  13.641 -0.3698 -0.1627  1.5728
 6585SOL     OW31213   2.540   3.169   4.339 -0.3043 -0.7943 -0.0021
 6585SOL    HW131214   2.490   3.104   4.289  0.6366 -1.8739  0.4649
 6585SOL    HW231215   2.587   3.212   4.268  1.1723 -1.4136  0.6009
 6586SOL     OW31216   2.126   3.097   1.581 -0.0089  0.3173 -0.1386
 6586SOL    HW131217   2.126   3.001   1.575  1.0187  0.1889  1.6422
 6586SOL    HW231218   2.121   3.118   1.488  0.0647  1.3002  0.0772
 6587SOL     OW31219   3.081   2.628   5.495  0.0844  0.3439  0.2023
 6587SOL    HW131220   3.023   2.600   5.424 -2.7132 -0.0513  2.6737
 6587SOL    HW231221   3.087   2.721   5.472 -1.6758  0.2961 -0.4764
 6588SOL     OW31222   0.882   2.780  11.738  0.3039 -0.2029  0.4079
 6588SOL    HW131223   0.814   2.739  11.685  1.3331  0.2908 -1.2971
 6588SOL    HW231224   0.835   2.806  11.818 -4.0117  2.5616 -3.0511
 6589SOL     OW31225   0.640   0.343   5.715  0.4263  0.1978 -0.3469
 6589SOL    HW131226   0.634   0.419   5.772  2.2637  0.3970 -0.4264
 6589SOL    HW231227   0.607   0.280   5.780  1.2499  0.6594  0.5034
 6590SOL     OW31228   1.127   3.439   7.551  0.0275 -0.4486  0.5298
 6590SOL    HW131229   1.124   3.442   7.647 -1.4001 -1.8694  0.5219
 6590SOL    HW231230   1.057   3.502   7.537 -0.8937 -0.6118  4.1913
 6591SOL     OW31231   2.233   3.300  11.452 -0.1384 -0.3960 -0.2499
 6591SOL    HW131232   2.145   3.262  11.457 -0.0260 -0.6188  0.0705
 6591SOL    HW231233   2.261   3.306  11.544  1.8683  0.4689 -0.9268
 6592SOL     OW31234   2.249   1.292   8.223  0.0138 -0.3199  0.3121
 6592SOL    HW131235   2.168   1.294   8.172 -0.6643 -1.1538  1.3660
 6592SOL    HW231236   2.252   1.200   8.250  0.8063 -0.4359 -0.1760
 6593SOL     OW31237   4.276   1.831  12.948 -0.0987 -0.3298  0.4185
 6593SOL    HW131238   4.184   1.851  12.932  0.4982  0.6589 -1.8407
 6593SOL    HW231239   4.294   1.764  12.882  0.5760 -0.7073  0.9793
 6594SOL     OW31240   3.904   2.890   2.832  0.0965  0.1204 -0.4516
 6594SOL    HW131241   3.858   2.860   2.754 -0.5330  0.4630 -0.2128
 6594SOL    HW231242   3.975   2.948   2.802 -1.4607  0.7670 -2.8705
 6595SOL     OW31243   1.022   1.454  15.619  0.2777  0.7520  0.4244
 6595SOL    HW131244   0.962   1.480  15.689  0.0214 -2.5963  1.4364
 6595SOL    HW231245   1.072   1.534  15.608  0.2802  0.5144 -1.2536
 6596SOL     OW31246   0.809   3.116   6.955  0.1842  0.1356  0.0042
 6596SOL    HW131247   0.873   3.047   6.972  1.8930  1.8063  0.3153
 6596SOL    HW231248   0.740   3.078   7.009  1.9611 -1.9459  0.8216
 6597SOL     OW31249   3.357   1.638   4.717  0.2681  0.2383 -0.2531
 6597SOL    HW131250   3.417   1.665   4.786  0.8274  1.0641 -1.0812
 6597SOL    HW231251   3.302   1.713   4.694  0.3181 -0.3740 -2.3893
 6598SOL     OW31252   3.081   3.617  11.112  0.3700 -0.2666 -0.2088
 6598SOL    HW131253   3.072   3.643  11.020  2.9279  0.8353 -0.1391
 6598SOL    HW231254   3.046   3.691  11.161  0.0381 -1.2095  0.9784
 6599SOL     OW31255   2.516   1.595   5.109  0.6046  1.1699 -0.0979
 6599SOL    HW131256   2.443   1.533   5.104 -0.1876  2.1233 -0.3172
 6599SOL    HW231257   2.592   1.538   5.125 -2.1145 -2.2900  0.5640
 6600SOL     OW31258   0.924   4.514   7.731 -0.1883 -0.1621 -0.2396
 6600SOL    HW131259   0.936   4.494   7.638 -3.5985  1.8733 -1.1302
 6600SOL    HW231260   0.873   4.437   7.756 -0.2953 -0.0577 -0.1388
 6601SOL     OW31261   3.608   0.886   3.140 -0.1593  0.2460  0.1160
 6601SOL    HW131262   3.553   0.879   3.218  0.3832  1.9885  0.6671
 6601SOL    HW231263   3.663   0.962   3.159  2.2661 -1.3993 -0.4330
 6602SOL     OW31264   3.473   2.118   2.771  0.1392  0.3462 -0.3733
 6602SOL    HW131265   3.551   2.136   2.824  0.2265  1.7357 -0.9669
 6602SOL    HW231266   3.485   2.029   2.738 -1.5982 -0.5809  1.5256
 6603SOL     OW31267   2.434   1.859   7.610 -0.4101  0.8144 -0.3575
 6603SOL    HW131268   2.339   1.869   7.619 -0.5022  0.4789 -0.9666
 6603SOL    HW231269   2.455   1.859   7.704 -0.5140 -0.8365 -0.3345
 6604SOL     OW31270   1.372   0.871   3.231  0.6392  0.8641 -0.7022
 6604SOL    HW131271   1.360   0.913   3.146  0.2734  0.6519 -0.7574
 6604SOL    HW231272   1.424   0.933   3.282  0.6733 -0.8167  1.3605
 6605SOL     OW31273   2.391   3.970   6.735  0.3539 -0.3090  0.1194
 6605SOL    HW131274   2.360   3.934   6.652 -1.7433 -1.0478  1.2158
 6605SOL    HW231275   2.337   4.046   6.754  1.2166  0.4884 -0.6973
 6606SOL     OW31276   1.586   3.154   0.585 -0.5861  0.3249  0.8184
 6606SOL    HW131277   1.603   3.070   0.542 -0.0638  0.3279  1.0185
 6606SOL    HW231278   1.659   3.162   0.645  0.0262  0.9667 -0.0086
 6607SOL     OW31279   4.382   2.153   3.214  0.2700  0.4351 -0.2913
 6607SOL    HW131280   4.417   2.198   3.291 -3.2941 -0.9358  2.1119
 6607SOL    HW231281   4.440   2.180   3.142  0.4823 -1.0192 -0.6656
 6608SOL     OW31282   2.011   0.304   4.053 -0.1941  0.6563  0.4191
 6608SOL    HW131283   1.946   0.367   4.022 -0.1445  0.7449  0.4964
 6608SOL    HW231284   1.951   0.284   4.124  1.2083 -1.4634  1.0106
 6609SOL     OW31285   2.627   0.324   0.424 -0.0718  0.1195 -0.1274
 6609SOL    HW131286   2.703   0.266   0.419 -0.1745 -0.2415  2.5006
 6609SOL    HW231287   2.629   0.339   0.519 -0.2043  1.5010 -0.3333
 6610SOL     OW31288   2.827   1.747   8.531  0.2120 -0.4119 -0.1523
 6610SOL    HW131289   2.827   1.665   8.580  0.0166 -0.2798  0.0659
 6610SOL    HW231290   2.922   1.756   8.535 -0.1107  3.0101  0.0157
 6611SOL     OW31291   0.049   2.921   4.890 -0.3012 -0.4814 -0.4875
 6611SOL    HW131292   0.037   2.829   4.865 -0.6468 -0.6594  0.3228
 6611SOL    HW231293   0.131   2.942   4.845 -0.0064 -0.6387 -0.0322
 6612SOL     OW31294   4.578   1.007   6.874 -0.2910 -0.0428  0.0103
 6612SOL    HW131295   4.631   1.033   6.949  1.3841  2.2097 -1.9959
 6612SOL    HW231296   4.499   0.985   6.924  0.5782 -3.4994 -0.1498
 6613SOL     OW31297   0.955   4.102   9.066 -0.2912  0.1018 -0.1754
 6613SOL    HW131298   0.978   4.027   9.121  2.4163  0.5258 -0.7384
 6613SOL    HW231299   0.867   4.124   9.097 -0.2910 -1.9625  1.3382
 6614SOL     OW31300   2.760   0.184   7.186  0.0113  0.0594  0.5115
 6614SOL    HW131301   2.789   0.118   7.248  0.7001  1.2983  1.4939
 6614SOL    HW231302   2.665   0.179   7.198 -0.1535 -0.6842 -1.0278
 6615SOL     OW31303   1.443   1.937  11.610  0.4282 -0.6670 -0.1669
 6615SOL    HW131304   1.385   1.971  11.679 -1.7420 -0.3206 -2.1578
 6615SOL    HW231305   1.461   1.848  11.638  3.0400  0.8152  2.8648
 6616SOL     OW31306   3.641   1.992   8.518  0.5546  0.0253  0.6913
 6616SOL    HW131307   3.632   2.075   8.563 -0.3154 -0.4844  1.4495
 6616SOL    HW231308   3.677   1.950   8.596  0.7116 -2.6904 -0.8201
 6617SOL     OW31309   0.946   3.071   7.308  0.0750  0.5450  0.1567
 6617SOL    HW131310   0.904   3.108   7.386  0.2474  1.0707 -0.0016
 6617SOL    HW231311   1.000   3.148   7.288  0.2014  0.2528 -0.6105
 6618SOL     OW31312   0.778   4.065  16.044 -0.0759 -0.4551 -0.1402
 6618SOL    HW131313   0.808   4.155  16.034 -0.9305 -0.2102 -0.5034
 6618SOL    HW231314   0.820   4.038  15.963  0.7314 -0.7967  0.3901
 6619SOL     OW31315   3.804   1.555  15.937 -0.0769 -0.4315  0.2916
 6619SOL    HW131316   3.730   1.592  15.984 -0.5258  0.2019 -0.9006
 6619SOL    HW231317   3.767   1.477  15.897  1.7032 -0.9660 -0.3371
 6620SOL     OW31318   3.833   0.717   9.327  0.7081  0.6865 -0.0370
 6620SOL    HW131319   3.806   0.644   9.382 -0.9954 -0.0325 -1.8345
 6620SOL    HW231320   3.904   0.671   9.282 -0.8277 -0.4025 -1.3409
 6621SOL     OW31321   3.999   0.994   9.096  0.0043  0.1751  0.2734
 6621SOL    HW131322   4.019   0.989   9.190 -0.0984 -1.0465  0.2263
 6621SOL    HW231323   3.965   1.084   9.095  1.2199  0.6227 -0.3081
 6622SOL     OW31324   3.481   1.463  17.404 -0.2842 -0.5180  0.3665
 6622SOL    HW131325   3.463   1.450  17.311 -2.2428  0.8999  0.5352
 6622SOL    HW231326   3.459   1.378  17.442 -0.4408 -0.8145 -0.3926
 6623SOL     OW31327   1.779   1.309   8.930 -0.1179 -0.2447  0.5108
 6623SOL    HW131328   1.833   1.341   8.859 -2.4167  2.6002  0.0405
 6623SOL    HW231329   1.693   1.339   8.900  0.3162 -0.1246 -0.6123
 6624SOL     OW31330   2.385   3.136   2.949 -0.0774 -0.1249 -0.3934
 6624SOL    HW131331   2.476   3.111   2.937  0.1074 -0.0148  0.7398
 6624SOL    HW231332   2.374   3.164   3.040 -1.5578  0.9225 -0.9025
 6625SOL     OW31333   4.648   2.791  14.158  0.4325  0.0498  0.4655
 6625SOL    HW131334   4.659   2.882  14.185  0.5086  1.0481 -2.9163
 6625SOL    HW231335   0.002   2.781  14.100  0.7792 -1.5829  1.1932
 6626SOL     OW31336   3.339   3.312   5.564 -0.4106 -0.8196  0.0616
 6626SOL    HW131337   3.422   3.336   5.606 -0.3997 -1.4747  0.4263
 6626SOL    HW231338   3.287   3.324   5.644  0.0099 -1.1408  0.3877
 6627SOL     OW31339   2.196   0.276  15.395  0.5413 -0.2285 -0.1928
 6627SOL    HW131340   2.169   0.184  15.386  0.4700 -0.2490  0.2705
 6627SOL    HW231341   2.124   0.317  15.441  0.5005  2.8666 -2.9989
 6628SOL     OW31342   2.827   2.278  11.029  0.4428 -0.1930  0.0955
 6628SOL    HW131343   2.768   2.245  11.097 -1.0408  0.2349 -0.9973
 6628SOL    HW231344   2.878   2.203  11.000 -0.7594 -1.3225  0.9014
 6629SOL     OW31345   2.591   2.825   7.560  0.3386  1.0183  0.2906
 6629SOL    HW131346   2.678   2.791   7.582  1.2655  1.1107 -3.1922
 6629SOL    HW231347   2.610   2.908   7.516 -0.4509  1.4031  0.6839
 6630SOL     OW31348   1.294   3.481   2.057 -0.0344  0.7411 -0.1711
 6630SOL    HW131349   1.269   3.514   2.144 -1.6660 -2.4342  0.5525
 6630SOL    HW231350   1.300   3.558   2.000  3.7878  2.8900  3.0766
 6631SOL     OW31351   1.343   4.644   7.670  0.8635 -0.1354  0.0408
 6631SOL    HW131352   1.283   4.620   7.600  1.9341  1.5011 -1.4374
 6631SOL    HW231353   1.282   4.687   7.731 -0.2193 -0.4814 -0.7948
 6632SOL     OW31354   2.451   3.620   0.086  0.4111  0.0724  0.9746
 6632SOL    HW131355   2.534   3.628   0.039 -1.7108  2.0236 -2.4621
 6632SOL    HW231356   2.407   3.562   0.023  1.4215  0.8065 -0.4135
 6633SOL     OW31357   4.665   0.256   3.226 -0.1099 -0.3931  0.2327
 6633SOL    HW131358   0.003   0.188   3.258 -1.0739 -1.4057 -0.1181
 6633SOL    HW231359   4.580   0.216   3.209  0.8878 -1.5212 -2.2598
 6634SOL     OW31360   1.344   4.197   4.193 -0.0746  0.0894 -0.0078
 6634SOL    HW131361   1.384   4.275   4.154  1.3668 -1.8417 -2.3899
 6634SOL    HW231362   1.405   4.176   4.264 -1.2986 -0.9394  0.7212
 6635SOL     OW31363   3.336   4.373   2.003  0.0493  0.3793  0.0345
 6635SOL    HW131364   3.355   4.288   2.043 -0.3843 -0.4668 -1.5459
 6635SOL    HW231365   3.429   4.390   1.984 -0.0741 -0.5499 -1.3720
 6636SOL     OW31366   3.697   2.937   5.230 -0.5254  0.3282 -0.3808
 6636SOL    HW131367   3.658   2.991   5.298  2.2039  0.8883  0.7227
 6636SOL    HW231368   3.626   2.875   5.210  0.3152 -1.1597  1.1751
 6637SOL     OW31369   3.059   1.829  12.385  0.5738  0.6554 -0.5467
 6637SOL    HW131370   3.021   1.772  12.452 -0.4845  2.9461  0.8208
 6637SOL    HW231371   3.098   1.771  12.320  1.8467  0.3888  0.4560
 6638SOL     OW31372   1.730   3.914   0.843 -0.2344 -0.5954  0.3059
 6638SOL    HW131373   1.787   3.849   0.885 -1.0972 -0.7795  1.1694
 6638SOL    HW231374   1.656   3.924   0.903  1.4688  2.7198  1.8529
 6639SOL     OW31375   4.232   2.347   3.711  0.1591 -0.1247 -0.6684
 6639SOL    HW131376   4.242   2.395   3.628  0.4237  1.3900  0.2446
 6639SOL    HW231377   4.258   2.414   3.775  1.6629  1.4142 -2.8615
 6640SOL     OW31378   1.194   1.180   3.671 -0.1642  0.4699  0.0085
 6640SOL    HW131379   1.143   1.256   3.643 -0.6760  0.1706  0.1308
 6640SOL    HW231380   1.248   1.162   3.594 -2.6497 -1.7614 -1.2185
 6641SOL     OW31381   1.177   0.085  10.917  0.7202  0.0062  0.2352
 6641SOL    HW131382   1.120   0.011  10.894  1.9115 -0.0334 -2.6332
 6641SOL    HW231383   1.128   0.145  10.861 -0.2020 -1.7478 -0.8195
 6642SOL     OW31384   3.591   4.429  15.762  0.1227 -0.7220  0.7562
 6642SOL    HW131385   3.653   4.502  15.765 -1.4873  0.5869  2.4080
 6642SOL    HW231386   3.520   4.470  15.714  0.5218 -0.5538  0.3068
 6643SOL     OW31387   3.147   2.488   1.554  0.2025  0.1554 -0.4891
 6643SOL    HW131388   3.071   2.532   1.594 -0.0830  0.0099 -0.8653
 6643SOL    HW231389   3.140   2.408   1.605  0.2314 -0.4165 -1.3867
 6644SOL     OW31390   2.177   0.652  15.383  0.2909 -0.6099 -0.3970
 6644SOL    HW131391   2.209   0.610  15.303  0.2110 -2.8315  0.7431
 6644SOL    HW231392   2.236   0.608  15.444  0.6408  2.1715  1.2877
 6645SOL     OW31393   3.205   0.710   3.058  0.2602 -0.1130 -0.0910
 6645SOL    HW131394   3.198   0.768   3.133  0.6158 -0.4911  0.2403
 6645SOL    HW231395   3.266   0.748   2.995  1.0488 -0.4622  0.4612
 6646SOL     OW31396   1.418   2.958  12.287 -0.2311  0.0188 -0.1120
 6646SOL    HW131397   1.468   3.040  12.280 -1.1124  0.5683  0.0851
 6646SOL    HW231398   1.393   2.959  12.380  0.6504 -0.8676  0.1358
 6647SOL     OW31399   1.956   3.819   2.983  0.2671  0.2110 -0.2291
 6647SOL    HW131400   2.026   3.786   3.039  0.7033  0.1956 -0.7847
 6647SOL    HW231401   1.952   3.730   2.948  4.0026 -0.0187 -0.0196
 6648SOL     OW31402   4.479   3.493   2.382  0.3596  0.0224  0.1665
 6648SOL    HW131403   4.441   3.416   2.424  0.4820 -0.4317 -0.5446
 6648SOL    HW231404   4.515   3.542   2.455 -0.2405  1.6122 -0.6079
 6649SOL     OW31405   0.717   0.491   0.803  0.6394 -0.0016  0.0730
 6649SOL    HW131406   0.807   0.491   0.770  0.1730  1.1273 -1.2051
 6649SOL    HW231407   0.685   0.565   0.751 -0.9615 -2.1817 -2.0104
 6650SOL     OW31408   0.515   3.805   9.793 -0.4078  0.6572  0.0582
 6650SOL    HW131409   0.485   3.768   9.877  1.3497 -1.1357 -0.1226
 6650SOL    HW231410   0.601   3.763   9.786 -0.0911  1.1665  0.7819
 6651SOL     OW31411   4.608   1.687   0.353 -0.2923  0.4779 -0.4501
 6651SOL    HW131412   4.604   1.775   0.317  1.8011  0.1903 -1.3721
 6651SOL    HW231413   4.516   1.662   0.361 -0.0911 -0.2398 -0.3452
 6652SOL     OW31414   1.535   2.977   1.319  0.0530  0.3784 -0.7529
 6652SOL    HW131415   1.571   2.888   1.323  0.2708  0.4278 -1.7221
 6652SOL    HW231416   1.595   3.020   1.380 -1.2054 -0.3640  0.9906
 6653SOL     OW31417   0.132   1.092   8.005 -0.2167  0.0704  0.1384
 6653SOL    HW131418   0.152   1.121   8.094  0.3715 -0.6461  0.2328
 6653SOL    HW231419   0.187   1.015   7.990  1.1715  1.2577 -0.8817
 6654SOL     OW31420   0.324   2.931   2.427 -0.5278  0.2552  0.6367
 6654SOL    HW131421   0.308   2.990   2.353  0.9146  0.2891  0.3498
 6654SOL    HW231422   0.350   2.847   2.391  0.2906  1.9471 -2.6527
 6655SOL     OW31423   2.978   2.974  11.356 -0.0383  0.2458  0.2546
 6655SOL    HW131424   3.024   2.955  11.438  0.2218 -0.8550 -0.1500
 6655SOL    HW231425   3.034   3.039  11.312  0.2853  0.4152  0.9106
 6656SOL     OW31426   4.070   0.609   7.036 -0.3242  0.2372  0.3256
 6656SOL    HW131427   4.028   0.527   7.060 -3.2001  2.4487  2.7395
 6656SOL    HW231428   4.112   0.575   6.957  0.2594 -0.9117  1.1270
 6657SOL     OW31429   3.371   0.919  11.939  0.0867 -0.4057 -0.4898
 6657SOL    HW131430   3.430   0.848  11.964 -0.4650 -1.0858 -1.1478
 6657SOL    HW231431   3.427   0.996  11.952  0.8620 -1.0367 -0.0771
 6658SOL     OW31432   3.310   1.128   6.953  0.1982 -0.3186 -0.0571
 6658SOL    HW131433   3.287   1.151   7.043  1.7660  1.7901 -0.2111
 6658SOL    HW231434   3.290   1.212   6.911  2.7258 -0.1822 -0.9810
 6659SOL     OW31435   4.573   1.131   4.003 -0.2045 -0.2051 -0.1623
 6659SOL    HW131436   4.661   1.094   4.013 -0.4055 -0.3598  0.9805
 6659SOL    HW231437   4.518   1.054   3.995 -1.6574  0.6850  1.2073
 6660SOL     OW31438   3.982   4.662   1.121 -0.2666 -0.2591 -0.2430
 6660SOL    HW131439   3.950   4.614   1.044 -0.6013  0.8602 -0.7901
 6660SOL    HW231440   3.904   4.657   1.177 -0.9874  1.5505 -1.1038
 6661SOL     OW31441   2.545   2.248  16.390 -0.3263 -0.1861  0.2761
 6661SOL    HW131442   2.616   2.235  16.453 -1.4398 -3.0920  0.9174
 6661SOL    HW231443   2.539   2.171  16.334  1.5739  0.5071 -0.8850
 6662SOL     OW31444   4.679   0.519   3.300 -0.4151  0.1713 -0.1392
 6662SOL    HW131445   4.656   0.430   3.271 -0.2105 -0.3654  1.3613
 6662SOL    HW231446   4.703   0.560   3.217  0.0944  2.8809  1.3636
 6663SOL     OW31447   4.343   0.930   6.990  0.2236 -0.4890  0.6722
 6663SOL    HW131448   4.314   0.987   7.061 -2.7244  0.7748 -1.5536
 6663SOL    HW231449   4.330   0.841   7.021  1.1102 -0.3644  1.3889
 6664SOL     OW31450   3.781   0.804   2.399  0.5146  0.1457 -0.2029
 6664SOL    HW131451   3.860   0.790   2.348  1.0168  0.7371  0.4122
 6664SOL    HW231452   3.729   0.733   2.362  2.9495 -1.7134 -0.0586
 6665SOL     OW31453   1.854   0.241   4.268  0.0207  0.2785 -0.4154
 6665SOL    HW131454   1.781   0.303   4.268 -0.9926 -0.9326 -3.0865
 6665SOL    HW231455   1.820   0.152   4.272 -0.4794  0.5298  0.8643
 6666SOL     OW31456   1.631   4.715   3.345  0.0329 -0.4395  0.3336
 6666SOL    HW131457   1.655   0.011   3.254 -1.6516  1.0465  0.1778
 6666SOL    HW231458   1.579   4.636   3.330  0.5810 -0.7157 -0.1073
 6667SOL     OW31459   4.408   2.478   1.091 -0.5644 -0.6059  0.2741
 6667SOL    HW131460   4.469   2.437   1.029 -1.5971  0.6771 -1.5812
 6667SOL    HW231461   4.325   2.452   1.051 -0.5556  0.8140 -0.6756
 6668SOL     OW31462   2.829   4.613   5.286  0.1499 -0.4875  0.7748
 6668SOL    HW131463   2.774   4.540   5.258  0.5652 -0.4968 -0.0163
 6668SOL    HW231464   2.766   4.680   5.312  0.8336  0.0558  1.0237
 6669SOL     OW31465   1.669   3.202   7.794 -0.0554 -0.6949  0.5684
 6669SOL    HW131466   1.681   3.161   7.879 -1.1867  1.0523  1.5585
 6669SOL    HW231467   1.688   3.125   7.740  2.3415  0.2005  0.1120
 6670SOL     OW31468   3.662   1.737  12.718  0.5549  0.4562  0.4574
 6670SOL    HW131469   3.720   1.698  12.653  0.6408  1.0179  0.1960
 6670SOL    HW231470   3.692   1.827  12.729 -1.9175  1.3696 -0.3147
 6671SOL     OW31471   1.517   0.747   9.347 -0.7077 -0.8440 -0.1135
 6671SOL    HW131472   1.431   0.775   9.379 -0.0918  3.2969 -2.2336
 6671SOL    HW231473   1.495   0.747   9.254  0.2139 -0.3220 -0.3257
 6672SOL     OW31474   3.972   4.172   5.573 -0.6242  0.1092 -0.0536
 6672SOL    HW131475   3.943   4.258   5.546 -2.1669 -0.2710  0.4186
 6672SOL    HW231476   4.055   4.187   5.619 -0.3592  0.6465 -0.7154
 6673SOL     OW31477   0.014   3.664   5.778  0.5520  0.2781  0.1674
 6673SOL    HW131478   0.011   3.734   5.844  0.7320  0.4186  0.0261
 6673SOL    HW231479   4.680   3.599   5.820  0.9890  0.9164  1.7692
 6674SOL     OW31480   3.165   1.542  16.310 -0.2466 -0.4468  0.8350
 6674SOL    HW131481   3.234   1.571  16.251  1.6928 -1.1083  2.7914
 6674SOL    HW231482   3.195   1.570  16.396 -0.4718  0.3817  0.6456
 6675SOL     OW31483   2.440   1.323   5.322  0.3422 -0.6025 -0.2154
 6675SOL    HW131484   2.516   1.292   5.273  2.2529  2.0144  1.0647
 6675SOL    HW231485   2.378   1.252   5.307  1.2469 -1.6082  0.7647
 6676SOL     OW31486   0.682   3.687   1.070  0.6043  0.9950 -0.5705
 6676SOL    HW131487   0.760   3.702   1.017 -0.6087 -0.8195 -2.8356
 6676SOL    HW231488   0.624   3.682   0.994 -0.2496 -0.1300  0.1612
 6677SOL     OW31489   3.946   1.794   5.949  0.5870 -0.3311  0.4298
 6677SOL    HW131490   3.888   1.763   5.879 -2.2971  1.1406  2.1428
 6677SOL    HW231491   3.884   1.785   6.022 -0.3937 -1.1835 -0.5054
 6678SOL     OW31492   2.415   2.169   8.636 -0.5313  0.0191  0.4049
 6678SOL    HW131493   2.430   2.152   8.729 -0.8739  0.3468  0.5221
 6678SOL    HW231494   2.328   2.208   8.643 -0.5676 -0.0152  0.1612
 6679SOL     OW31495   1.537   1.736   2.001  0.2704  0.1485 -0.3617
 6679SOL    HW131496   1.607   1.671   1.988  0.1565 -0.3016  1.2537
 6679SOL    HW231497   1.574   1.817   1.968 -1.9752  1.3747  0.1183
 6680SOL     OW31498   2.289   0.166   7.778  0.2975 -0.3120 -0.5100
 6680SOL    HW131499   2.240   0.220   7.840  1.5078 -0.3427  0.4667
 6680SOL    HW231500   2.223   0.098   7.763  1.2501 -1.5703  1.0389
 6681SOL     OW31501   1.505   2.666   9.070 -0.6326 -0.4331 -0.1984
 6681SOL    HW131502   1.536   2.622   8.991 -0.9984  1.7357 -1.5179
 6681SOL    HW231503   1.569   2.731   9.096  0.6595 -2.0767  0.7205
 6682SOL     OW31504   1.167   4.198   8.346 -0.1180 -0.6996 -0.3400
 6682SOL    HW131505   1.112   4.216   8.422  2.4212  2.7703  0.6610
 6682SOL    HW231506   1.101   4.208   8.278  0.5182 -0.6094 -0.9402
 6683SOL     OW31507   3.288   2.504  15.514  0.3753 -0.0005 -0.3209
 6683SOL    HW131508   3.349   2.504  15.441  0.4478 -1.0632 -0.2666
 6683SOL    HW231509   3.204   2.477  15.477 -1.5464  2.3998  2.3004
 6684SOL     OW31510   3.398   2.114   8.833  0.4830  1.1357  0.2158
 6684SOL    HW131511   3.469   2.154   8.782  1.0077 -0.4146 -0.2574
 6684SOL    HW231512   3.452   2.090   8.908 -0.2382 -0.0817  0.3383
 6685SOL     OW31513   3.094   1.707   5.866  0.5368  0.4466  0.1556
 6685SOL    HW131514   3.076   1.669   5.952  1.4295 -0.0832  0.1143
 6685SOL    HW231515   3.087   1.800   5.886  0.5794 -0.4224  4.1710
 6686SOL     OW31516   0.136   4.705  12.373  0.7805 -0.3054 -0.1649
 6686SOL    HW131517   0.069   0.007  12.309  0.1977 -2.6259 -0.3735
 6686SOL    HW231518   0.168   4.617  12.353 -0.3447 -1.2583  2.2456
 6687SOL     OW31519   2.306   3.252  17.154 -0.0918  0.1324  0.1892
 6687SOL    HW131520   2.317   3.315  17.225  1.5730 -0.7751  0.7200
 6687SOL    HW231521   2.289   3.304  17.075  2.4393 -2.0881 -1.8059
 6688SOL     OW31522   3.946   3.087   3.883 -0.8985 -0.3120 -0.4885
 6688SOL    HW131523   3.920   3.127   3.966  0.0349  1.1312 -0.8957
 6688SOL    HW231524   3.973   3.000   3.913  1.4581  1.0167  1.1775
 6689SOL     OW31525   3.640   4.393   8.981 -0.3945  0.0849 -0.5488
 6689SOL    HW131526   3.704   4.455   9.017 -2.8626  1.0350  2.2368
 6689SOL    HW231527   3.624   4.440   8.900  0.6033  1.6311  0.1537
 6690SOL     OW31528   2.740   3.268   7.937  0.1754 -0.2076  0.0573
 6690SOL    HW131529   2.821   3.318   7.931  1.5135 -2.6478 -2.3686
 6690SOL    HW231530   2.744   3.240   8.028 -1.5491  1.2655  0.5905
 6691SOL     OW31531   1.285   0.654   4.075  0.1263  0.3176 -0.0314
 6691SOL    HW131532   1.293   0.748   4.086 -1.5622  0.6172 -1.3658
 6691SOL    HW231533   1.228   0.659   3.998  0.2600  1.2800 -0.0630
 6692SOL     OW31534   4.568   0.262   9.400  0.3036  0.6758 -0.3871
 6692SOL    HW131535   4.623   0.197   9.356  0.0591  0.0429  0.2334
 6692SOL    HW231536   4.635   0.306   9.452  2.6338 -1.7546 -1.3631
 6693SOL     OW31537   3.115   3.852  15.642  0.3718 -0.2278  0.2215
 6693SOL    HW131538   3.106   3.922  15.707  0.0014  0.6864 -0.8310
 6693SOL    HW231539   3.210   3.862  15.638  0.3012  0.7684  0.9873
 6694SOL     OW31540   0.742   4.221   4.026  0.1591 -0.3903  0.0993
 6694SOL    HW131541   0.718   4.264   4.108  1.2132 -1.4667  0.9812
 6694SOL    HW231542   0.814   4.165   4.054  0.2977 -0.2517  0.0175
 6695SOL     OW31543   3.489   4.030  17.533  0.6498 -0.1224  0.9929
 6695SOL    HW131544   3.527   4.065  17.614 -0.7228  1.2775  1.0374
 6695SOL    HW231545   3.548   3.955  17.526  0.7814 -0.0437  1.2860
 6696SOL     OW31546   2.368   4.225   9.312 -0.1491  0.5358  0.3155
 6696SOL    HW131547   2.338   4.230   9.403 -1.0674 -0.3969  0.0684
 6696SOL    HW231548   2.305   4.287   9.276  1.5002  0.8244 -2.0697
 6697SOL     OW31549   0.397   3.345  10.958 -0.0090  0.4064 -0.3196
 6697SOL    HW131550   0.443   3.375  11.036 -1.3433  0.3644  0.4726
 6697SOL    HW231551   0.387   3.252  10.979  1.0519  0.2527 -0.5246
 6698SOL     OW31552   4.244   2.489  14.910 -0.9108 -0.0726  0.3008
 6698SOL    HW131553   4.329   2.516  14.876 -0.5818  0.1958  1.3584
 6698SOL    HW231554   4.277   2.413  14.958 -0.2751 -0.3607 -0.5963
 6699SOL     OW31555   4.358   2.546   6.605  0.5500 -0.4102 -0.5576
 6699SOL    HW131556   4.454   2.550   6.609  0.5322 -0.5220  0.0778
 6699SOL    HW231557   4.335   2.453   6.597 -1.1994  0.1791 -2.1995
 6700SOL     OW31558   3.478   1.049   6.408 -0.3681  0.3228  0.7593
 6700SOL    HW131559   3.413   1.064   6.477  0.3735  1.7252  1.1463
 6700SOL    HW231560   3.501   1.136   6.377  1.5973 -0.1673  0.7945
 6701SOL     OW31561   0.211   0.949   2.739  0.6274 -0.1189 -0.1307
 6701SOL    HW131562   0.277   0.882   2.756 -0.7917 -1.6099 -0.4118
 6701SOL    HW231563   0.216   0.942   2.643  0.5720  0.9360 -0.2087
 6702SOL     OW31564   0.398   0.899   6.918  0.3499 -0.8149  0.3475
 6702SOL    HW131565   0.327   0.952   6.883  2.2992  0.9210 -0.9971
 6702SOL    HW231566   0.354   0.846   6.984  1.3722 -0.9427  0.9413
 6703SOL     OW31567   2.963   0.201   4.663 -0.0980 -0.0637 -0.5791
 6703SOL    HW131568   2.955   0.290   4.698  0.3875  0.3751 -1.5927
 6703SOL    HW231569   3.054   0.178   4.682  0.3668  2.2441 -0.0348
 6704SOL     OW31570   3.301   3.230   6.091 -0.1839  0.4061 -0.0461
 6704SOL    HW131571   3.392   3.258   6.088  0.9348 -3.3123 -0.9388
 6704SOL    HW231572   3.293   3.199   6.001  2.6556 -0.2374 -0.0903
 6705SOL     OW31573   3.581   2.800   1.091 -0.4336 -0.7426  0.3813
 6705SOL    HW131574   3.592   2.845   1.175 -0.3844  0.9362 -0.5292
 6705SOL    HW231575   3.563   2.708   1.109 -2.2927 -0.3835  0.3355
 6706SOL     OW31576   0.105   3.472  16.225 -0.6662  0.3991  0.0943
 6706SOL    HW131577   0.062   3.501  16.306 -1.3166 -0.7808  0.1704
 6706SOL    HW231578   0.141   3.389  16.258 -1.1940 -0.6391 -1.9354
 6707SOL     OW31579   3.801   3.034   5.003 -0.5546  0.0624  0.0898
 6707SOL    HW131580   3.857   2.959   4.984 -0.2152  0.6422 -1.2329
 6707SOL    HW231581   3.746   2.990   5.067 -0.7520 -2.4834 -1.8177
 6708SOL     OW31582   1.471   1.522   9.416  0.2208 -0.5064  0.1499
 6708SOL    HW131583   1.471   1.532   9.511  0.4570  0.5362  0.0433
 6708SOL    HW231584   1.380   1.499   9.397 -0.5447  0.5289  2.5854
 6709SOL     OW31585   1.562   2.648   4.499  0.3863 -0.0588  0.4759
 6709SOL    HW131586   1.553   2.740   4.474  0.2516 -0.3449 -0.5350
 6709SOL    HW231587   1.605   2.655   4.584  0.7749  2.5006  0.0810
 6710SOL     OW31588   1.686   2.306  16.858 -0.4737 -0.4991 -0.0344
 6710SOL    HW131589   1.754   2.301  16.791 -0.5771 -1.0953 -0.0958
 6710SOL    HW231590   1.662   2.216  16.880 -1.5213 -0.5843 -1.5360
 6711SOL     OW31591   4.302   4.098   8.702 -0.2729 -0.0723 -0.6709
 6711SOL    HW131592   4.260   4.177   8.734 -1.9730 -0.1122 -2.7853
 6711SOL    HW231593   4.331   4.054   8.782  0.3440 -1.1335 -1.4651
 6712SOL     OW31594   2.841   4.719   4.542 -0.4821 -0.3778 -0.2397
 6712SOL    HW131595   2.893   0.066   4.584 -1.8742  0.4384  0.1228
 6712SOL    HW231596   2.771   0.054   4.512  0.0019  0.0353 -0.6023
 6713SOL     OW31597   3.844   4.415  13.696 -0.0817 -0.1475  0.4636
 6713SOL    HW131598   3.751   4.421  13.673  0.0990  0.1696 -0.1752
 6713SOL    HW231599   3.835   4.416  13.792 -0.2909 -1.3409  0.4599
 6714SOL     OW31600   2.083   2.151   9.041  0.3066 -0.3336  0.1802
 6714SOL    HW131601   2.011   2.172   8.982 -1.0430 -0.4628  1.7611
 6714SOL    HW231602   2.136   2.230   9.045  1.2102 -0.8588 -1.6367
 6715SOL     OW31603   1.805   2.804   6.771  0.1428  0.0049  0.2365
 6715SOL    HW131604   1.767   2.747   6.704  2.2681  0.4989 -1.3784
 6715SOL    HW231605   1.865   2.855   6.716  1.6843 -0.6363  1.3225
 6716SOL     OW31606   1.127   0.163   2.684 -0.0670  0.5803  0.1590
 6716SOL    HW131607   1.065   0.194   2.750 -0.3247 -0.3108  0.3436
 6716SOL    HW231608   1.203   0.153   2.742  0.2833  2.6487  0.0502
 6717SOL     OW31609   0.628   0.592   8.432  0.1679 -0.3960  0.2563
 6717SOL    HW131610   0.714   0.605   8.392 -0.6473 -3.0173 -2.2866
 6717SOL    HW231611   0.620   0.502   8.402 -0.8100 -0.1208 -0.2957
 6718SOL     OW31612   0.055   0.194   2.609 -0.7213 -0.0869  0.4093
 6718SOL    HW131613   0.022   0.162   2.525 -1.4580 -2.5983  1.6732
 6718SOL    HW231614   0.135   0.240   2.583 -0.5560  0.0795  1.2091
 6719SOL     OW31615   0.544   3.149  13.384 -0.4346 -0.1790 -0.1868
 6719SOL    HW131616   0.544   3.182  13.294 -0.7680 -0.5407 -0.3189
 6719SOL    HW231617   0.479   3.079  13.382 -0.3379 -0.2757  0.0726
 6720SOL     OW31618   4.296   4.125   2.638 -0.1108  0.2248  0.0785
 6720SOL    HW131619   4.208   4.149   2.669  0.2205  1.7458 -0.1393
 6720SOL    HW231620   4.276   4.123   2.544 -1.2011  0.6610  0.2956
 6721SOL     OW31621   2.334   0.240   5.678 -0.0127 -0.2514 -0.2442
 6721SOL    HW131622   2.280   0.315   5.652  1.2641  1.0052  0.7670
 6721SOL    HW231623   2.268   0.174   5.655 -0.2969 -0.4278  1.1113
 6722SOL     OW31624   4.351   2.598  15.195  0.2145 -0.1811  0.6839
 6722SOL    HW131625   4.409   2.669  15.223  2.0897 -1.2271 -0.4977
 6722SOL    HW231626   4.372   2.613  15.103 -0.2309  0.5376  0.6948
 6723SOL     OW31627   3.338   0.825   0.011 -0.0768  0.0500 -0.2673
 6723SOL    HW131628   3.392   0.849  17.624  2.7380 -0.9392  1.4060
 6723SOL    HW231629   3.406   0.831   0.079  2.3622  0.4948 -2.7351
 6724SOL     OW31630   2.520   1.495   3.442  0.3005  0.1169 -0.8060
 6724SOL    HW131631   2.443   1.522   3.393  2.0424  1.3387 -2.9120
 6724SOL    HW231632   2.526   1.564   3.507  1.4910 -2.3856  1.7445
 6725SOL     OW31633   1.700   1.668   8.439 -0.3115  0.2949  0.5403
 6725SOL    HW131634   1.609   1.660   8.467 -1.1050  1.7969 -1.6219
 6725SOL    HW231635   1.689   1.660   8.345  0.0963 -0.2593  0.5440
 6726SOL     OW31636   1.474   0.936   7.294 -0.2435  0.7206  0.2544
 6726SOL    HW131637   1.417   0.986   7.352  2.7428  0.9911  2.9419
 6726SOL    HW231638   1.554   0.933   7.346 -0.3229  0.7895  0.3816
 6727SOL     OW31639   3.454   0.165   2.099  0.5947 -0.3944  0.3568
 6727SOL    HW131640   3.542   0.148   2.065  1.2634  0.6416  1.5694
 6727SOL    HW231641   3.482   0.231   2.163  3.4842 -2.1613  0.9577
 6728SOL     OW31642   0.903   3.505  12.876 -0.1211  0.2897 -0.3856
 6728SOL    HW131643   0.980   3.525  12.824 -0.8055  1.7905 -0.8195
 6728SOL    HW231644   0.891   3.594  12.910  0.1874  0.3671 -0.4800
 6729SOL     OW31645   2.144   2.719   6.268  0.2576 -0.2879 -0.7020
 6729SOL    HW131646   2.082   2.650   6.293  0.6976 -1.1554 -1.9983
 6729SOL    HW231647   2.134   2.718   6.173  0.4183  0.1779 -0.7218
 6730SOL     OW31648   0.108   1.766   2.462 -0.1730  0.0999 -0.0659
 6730SOL    HW131649   0.050   1.818   2.517  1.1535  1.9095 -0.3762
 6730SOL    HW231650   0.106   1.682   2.507 -0.4869 -1.1805 -2.4394
 6731SOL     OW31651   0.651   0.749   0.671 -0.1603 -0.1913  0.6265
 6731SOL    HW131652   0.558   0.772   0.671 -0.0374  0.2875 -0.1775
 6731SOL    HW231653   0.694   0.832   0.653 -2.0294  0.7599  0.5898
 6732SOL     OW31654   3.821   1.303   4.045 -0.0408  0.1683  0.5071
 6732SOL    HW131655   3.729   1.316   4.022 -0.3242 -0.4193  1.2838
 6732SOL    HW231656   3.846   1.243   3.974 -3.3088 -0.5789 -0.0094
 6733SOL     OW31657   2.214   2.969   6.365  0.0964  0.2472 -0.3933
 6733SOL    HW131658   2.239   2.948   6.455 -0.4215 -2.3964 -0.8640
 6733SOL    HW231659   2.185   2.884   6.331 -0.8879  0.5059 -0.2134
 6734SOL     OW31660   2.440   2.962   4.204  0.2929  0.6894  0.4788
 6734SOL    HW131661   2.346   2.977   4.214  0.1668  0.8219 -0.8336
 6734SOL    HW231662   2.430   2.875   4.165  0.7562  2.5535 -3.8064
 6735SOL     OW31663   3.386   0.951   6.129 -0.1057 -0.1935  0.1130
 6735SOL    HW131664   3.303   0.998   6.119  0.4048  1.1555  2.0299
 6735SOL    HW231665   3.421   0.959   6.041  0.0888 -0.3795  0.1740
 6736SOL     OW31666   1.470   1.199   2.015  0.1642  0.5066  0.3890
 6736SOL    HW131667   1.386   1.243   2.010  1.0483  1.8273 -2.6003
 6736SOL    HW231668   1.480   1.178   1.922 -2.2565 -0.7169  0.4139
 6737SOL     OW31669   2.142   3.277   3.436 -0.2441  0.2956  0.2167
 6737SOL    HW131670   2.073   3.284   3.371 -0.8705  1.8944  1.0470
 6737SOL    HW231671   2.149   3.372   3.449  0.1515  0.3062 -0.0956
 6738SOL     OW31672   1.803   4.350  10.461  0.4559  0.0982  0.3778
 6738SOL    HW131673   1.805   4.397  10.544 -0.3945  0.5954  0.1173
 6738SOL    HW231674   1.728   4.394  10.420  0.7601  0.6632  0.4343
 6739SOL     OW31675   4.702   3.530  17.086 -0.3840 -0.2214 -0.0611
 6739SOL    HW131676   4.650   3.606  17.112  0.0474 -0.2334  0.8386
 6739SOL    HW231677   4.632   3.466  17.072  0.8312 -1.5117 -0.2493
 6740SOL     OW31678   2.729   4.401   3.234  0.1759 -0.2181  0.0659
 6740SOL    HW131679   2.706   4.332   3.297 -2.1818  1.2415  0.7978
 6740SOL    HW231680   2.814   4.367   3.206  0.0942  0.9449 -1.5902
 6741SOL     OW31681   4.000   4.484   7.622 -0.5660  0.6529  0.0933
 6741SOL    HW131682   3.939   4.549   7.588  0.1708  1.5699  0.5262
 6741SOL    HW231683   4.059   4.473   7.548 -1.0461  1.5483 -0.4245
 6742SOL     OW31684   0.630   0.788   6.849  0.4035 -0.3499 -0.0495
 6742SOL    HW131685   0.549   0.836   6.864  0.2745  0.0447 -1.8955
 6742SOL    HW231686   0.595   0.729   6.782  1.8008 -0.6187 -0.5584
 6743SOL     OW31687   0.924   2.230   7.550 -0.2546 -0.2902  0.4319
 6743SOL    HW131688   0.893   2.232   7.640 -1.4591  3.4504 -0.0316
 6743SOL    HW231689   0.855   2.179   7.508 -0.2041 -0.5597  0.6852
 6744SOL     OW31690   1.086   0.389   6.558 -0.3963  0.2270  0.0553
 6744SOL    HW131691   1.044   0.458   6.507  1.5633  1.1121 -0.3491
 6744SOL    HW231692   1.010   0.345   6.595  1.0497 -1.0114  1.5626
 6745SOL     OW31693   1.385   4.539   2.210  0.3159 -0.1138  0.4202
 6745SOL    HW131694   1.415   4.559   2.298 -3.3323 -0.1581  1.6628
 6745SOL    HW231695   1.441   4.596   2.157 -1.9421  2.2240  0.5239
 6746SOL     OW31696   0.180   2.399   6.459  1.1008  0.2175 -0.2793
 6746SOL    HW131697   0.219   2.389   6.545 -3.3216 -0.2143  1.6602
 6746SOL    HW231698   0.257   2.368   6.411 -0.0430 -1.2541 -1.1795
 6747SOL     OW31699   3.083   1.471   0.181  0.2968 -0.2109  0.1868
 6747SOL    HW131700   3.120   1.536   0.242  1.7508 -0.0967 -0.8083
 6747SOL    HW231701   3.052   1.527   0.111 -1.3917 -1.3434  0.0373
 6748SOL     OW31702   2.899   4.378   4.810 -0.0827  0.2897  0.1817
 6748SOL    HW131703   2.983   4.362   4.767 -1.2092 -1.6593 -1.3360
 6748SOL    HW231704   2.928   4.429   4.885 -1.2781  3.2654 -1.3695
 6749SOL     OW31705   3.206   1.312   6.217 -0.2087 -0.2148  0.5851
 6749SOL    HW131706   3.142   1.331   6.148  2.5297  2.3212 -1.2889
 6749SOL    HW231707   3.202   1.216   6.214  1.4417 -0.2536 -0.6822
 6750SOL     OW31708   4.696   1.706   8.563 -0.2690 -0.3947  0.0144
 6750SOL    HW131709   0.048   1.742   8.514  1.2907 -2.4305  0.8720
 6750SOL    HW231710   4.632   1.684   8.496  0.1562 -0.2681 -0.4358
 6751SOL     OW31711   4.049   0.743   4.007 -0.3049  0.0459 -0.2900
 6751SOL    HW131712   4.112   0.803   4.046  1.7339 -0.5186 -2.6957
 6751SOL    HW231713   4.096   0.712   3.929 -2.7016  0.2235 -1.7991
 6752SOL     OW31714   2.472   1.250   4.883  0.7782  0.2122  0.3577
 6752SOL    HW131715   2.505   1.266   4.794 -0.4934  0.6639 -0.0239
 6752SOL    HW231716   2.449   1.158   4.870 -0.4959  0.5628  0.1376
 6753SOL     OW31717   4.192   1.342   5.398  0.1735  0.0240 -0.4037
 6753SOL    HW131718   4.251   1.402   5.353  0.2527 -0.3907 -0.8475
 6753SOL    HW231719   4.168   1.390   5.478  1.3542  0.8323 -0.5335
 6754SOL     OW31720   2.291   3.084   3.494  0.3008 -0.1802 -0.2945
 6754SOL    HW131721   2.245   3.168   3.493 -1.5281 -1.2097 -2.5899
 6754SOL    HW231722   2.231   3.038   3.436 -0.1644 -0.3664  0.3312
 6755SOL     OW31723   1.451   1.878   9.041 -0.4196 -0.5736 -0.1252
 6755SOL    HW131724   1.540   1.845   9.056 -0.2743 -0.4582 -0.7232
 6755SOL    HW231725   1.408   1.800   9.075  3.5164 -2.1821  1.1899
 6756SOL     OW31726   1.646   4.107   8.738  0.0223  0.0129 -0.1076
 6756SOL    HW131727   1.715   4.158   8.697 -1.6228  1.2466 -1.3625
 6756SOL    HW231728   1.577   4.169   8.715  0.5263  1.3244  1.9692
 6757SOL     OW31729   4.135   2.129   3.085 -0.2494  0.3324 -0.2416
 6757SOL    HW131730   4.166   2.062   3.024  1.0609 -1.3020  2.2206
 6757SOL    HW231731   4.215   2.153   3.132  0.3064  1.4712 -1.7732
 6758SOL     OW31732   3.304   0.408   4.789 -0.1668  0.0652  0.6686
 6758SOL    HW131733   3.291   0.394   4.882  1.2200 -0.2583  0.8143
 6758SOL    HW231734   3.267   0.496   4.783 -1.5508 -0.6582 -1.6676
 6759SOL     OW31735   2.471   0.994  14.903 -0.0499 -0.3603 -0.3396
 6759SOL    HW131736   2.531   0.932  14.945 -0.3983 -0.3198  0.2182
 6759SOL    HW231737   2.391   0.958  14.941 -0.4866 -1.5920 -2.4335
 6760SOL     OW31738   1.702   2.452   4.311 -1.0229  0.2676 -0.2749
 6760SOL    HW131739   1.651   2.519   4.357  0.7091  1.5186 -0.2207
 6760SOL    HW231740   1.662   2.463   4.225 -0.5709  0.1485 -0.4962
 6761SOL     OW31741   2.840   3.338   3.653 -0.1991  0.3986 -0.6249
 6761SOL    HW131742   2.778   3.317   3.584 -0.5864 -0.0552 -0.1308
 6761SOL    HW231743   2.833   3.433   3.664  1.0251  0.8208 -3.3388
 6762SOL     OW31744   4.323   3.384  13.569  0.8094 -0.2089  0.2537
 6762SOL    HW131745   4.409   3.346  13.549  0.7013 -0.7364  0.8066
 6762SOL    HW231746   4.342   3.406  13.660  1.2261  0.2844  0.0446
 6763SOL     OW31747   3.088   2.721   7.760 -0.3853  0.2124 -0.1118
 6763SOL    HW131748   3.177   2.733   7.794 -0.0301 -0.2113 -0.8892
 6763SOL    HW231749   3.054   2.679   7.839  0.9765  0.3952  0.5902
 6764SOL     OW31750   4.361   0.918  16.957 -0.3425  0.3164 -0.0822
 6764SOL    HW131751   4.350   0.875  17.042 -0.0846  1.0174  0.2980
 6764SOL    HW231752   4.432   0.866  16.918 -0.3123  0.3507 -0.0726
 6765SOL     OW31753   1.663   2.317  15.518  0.2432 -0.1320  0.0639
 6765SOL    HW131754   1.758   2.323  15.532  0.3120  0.4532 -0.6565
 6765SOL    HW231755   1.645   2.255  15.588  0.4066  2.2229  2.1941
 6766SOL     OW31756   4.494   3.604   4.247 -0.3012 -0.2102 -0.0237
 6766SOL    HW131757   4.562   3.666   4.223 -2.0713  1.4208 -0.7742
 6766SOL    HW231758   4.510   3.579   4.339  0.2162  2.0808  0.5066
 6767SOL     OW31759   0.951   3.021   5.783 -0.1953  0.7484  0.0673
 6767SOL    HW131760   0.932   3.071   5.862 -0.2351  1.4633 -0.3919
 6767SOL    HW231761   0.872   3.024   5.728 -0.7452  0.5582  0.8516
 6768SOL     OW31762   1.231   3.312  11.994  0.3439  0.3790 -0.3874
 6768SOL    HW131763   1.213   3.369  12.069 -0.7417  1.1494 -1.2357
 6768SOL    HW231764   1.238   3.229  12.042  0.8360 -0.1563 -1.3742
 6769SOL     OW31765   3.916   0.588   2.825 -0.1829 -0.6941 -0.9427
 6769SOL    HW131766   3.962   0.614   2.746 -0.0414 -0.1549 -0.6803
 6769SOL    HW231767   3.884   0.500   2.805 -2.2959  0.0256 -0.7741
 6770SOL     OW31768   1.753   4.516   8.966  0.4357 -0.4589 -0.1824
 6770SOL    HW131769   1.721   4.561   9.044 -0.8497  2.0702 -2.1657
 6770SOL    HW231770   1.828   4.468   9.004  0.2265 -0.4621  0.2284
 6771SOL     OW31771   3.514   0.045   6.474 -0.6358  0.7147 -0.0661
 6771SOL    HW131772   3.547   0.009   6.556  0.1715  0.6658 -0.4051
 6771SOL    HW231773   3.593   0.084   6.436 -1.3224  2.7973  0.7058
 6772SOL     OW31774   2.223   3.988   8.695 -0.2875  0.0420 -0.5583
 6772SOL    HW131775   2.193   3.989   8.604 -0.6976  2.2883 -0.4191
 6772SOL    HW231776   2.155   3.941   8.745 -1.7666  1.0932 -1.5704
 6773SOL     OW31777   0.477   0.365   0.732  0.0018  0.3976 -0.0734
 6773SOL    HW131778   0.494   0.290   0.788 -1.8781  0.5693  0.7184
 6773SOL    HW231779   0.559   0.413   0.743  0.7518 -0.7655 -0.5020
 6774SOL     OW31780   2.029   4.713   1.752  0.1954  0.2247 -0.1378
 6774SOL    HW131781   1.941   0.028   1.749  0.3416  0.5712 -0.2965
 6774SOL    HW231782   2.077   0.074   1.743 -0.4298  0.7475  1.3530
 6775SOL     OW31783   3.497   0.238   2.354  0.0065 -0.1989  0.0499
 6775SOL    HW131784   3.414   0.283   2.367  0.6857  1.6222 -1.9221
 6775SOL    HW231785   3.515   0.204   2.441 -0.0516  3.4510  1.4596
 6776SOL     OW31786   2.372   1.764   6.628 -0.2613  0.3515  0.1704
 6776SOL    HW131787   2.335   1.685   6.668  4.1094 -1.2633  1.0500
 6776SOL    HW231788   2.459   1.759   6.669 -0.6349 -1.8143  0.7106
 6777SOL     OW31789   3.704   4.523   2.586 -0.1770 -0.7268 -0.5476
 6777SOL    HW131790   3.693   4.600   2.530  0.9516  0.8621  1.4030
 6777SOL    HW231791   3.614   4.502   2.611 -0.7891  2.1946 -0.2729
 6778SOL     OW31792   0.508   1.008   7.898  0.0900  0.3807 -0.3821
 6778SOL    HW131793   0.489   1.077   7.834 -2.6456 -0.3228 -0.3456
 6778SOL    HW231794   0.418   0.985   7.922  0.8377 -1.5709  0.5465
 6779SOL     OW31795   4.568   2.673   7.073 -0.0313 -0.1267 -0.0197
 6779SOL    HW131796   4.550   2.600   7.133  0.8481 -2.7566 -2.9641
 6779SOL    HW231797   4.483   2.700   7.038  0.6183  0.4618 -1.1568
 6780SOL     OW31798   3.132   1.978   6.002  0.1430  0.6745  0.0499
 6780SOL    HW131799   3.095   2.060   5.969  1.0920  0.8905 -0.4686
 6780SOL    HW231800   3.220   2.007   6.028  0.9865 -1.1844 -0.7248
 6781SOL     OW31801   3.066   2.718   7.105  0.0951  0.2444  0.2016
 6781SOL    HW131802   3.153   2.679   7.118 -0.1989  0.3625  2.4471
 6781SOL    HW231803   3.089   2.791   7.162  0.1390  1.7750 -1.7706
 6782SOL     OW31804   3.637   2.085   3.964 -0.0740  0.4426 -0.1026
 6782SOL    HW131805   3.659   2.042   3.881  1.8979  1.8158 -0.3134
 6782SOL    HW231806   3.681   2.168   3.946 -0.2792  0.5502 -0.1107
 6783SOL     OW31807   1.488   4.470   3.289 -0.5481  0.4644  0.8122
 6783SOL    HW131808   1.559   4.416   3.253 -0.0702  1.4754  0.2197
 6783SOL    HW231809   1.418   4.436   3.234 -0.0155 -1.3057  1.2309
 6784SOL     OW31810   3.771   4.163   2.964 -0.3681 -0.0977  0.0458
 6784SOL    HW131811   3.753   4.075   2.932 -0.3978 -0.8928  2.2782
 6784SOL    HW231812   3.777   4.216   2.884 -0.6425  1.9734  1.3792
 6785SOL     OW31813   0.902   0.644   8.337 -0.1518 -0.1192  0.3388
 6785SOL    HW131814   0.944   0.668   8.419 -1.4640 -0.5517  1.1334
 6785SOL    HW231815   0.984   0.601   8.312  0.0201  0.4854 -0.1374
 6786SOL     OW31816   0.207   2.438   1.403 -0.3021  0.6821 -0.0297
 6786SOL    HW131817   0.287   2.446   1.351 -0.2137  0.4550  0.0689
 6786SOL    HW231818   0.175   2.350   1.381 -0.1315  0.1964  1.6690
 6787SOL     OW31819   0.361   2.139   2.603  0.1142  0.5804  0.3286
 6787SOL    HW131820   0.401   2.052   2.612  2.7210  1.5335 -1.9389
 6787SOL    HW231821   0.317   2.154   2.686  0.5688 -0.6453  0.7879
 6788SOL     OW31822   0.429   0.865   4.846 -0.7836  0.2254  0.5690
 6788SOL    HW131823   0.417   0.774   4.872  0.8353  0.0850  0.7808
 6788SOL    HW231824   0.522   0.886   4.850 -0.4907 -0.7054 -1.7242
 6789SOL     OW31825   1.204   0.435   7.147 -0.0053  0.2887 -0.3395
 6789SOL    HW131826   1.292   0.416   7.180 -0.1270 -0.7484 -0.6119
 6789SOL    HW231827   1.212   0.502   7.079  2.8509  1.3284  1.0172
 6790SOL     OW31828   3.186   2.942   7.221  0.3058 -0.9443 -0.5732
 6790SOL    HW131829   3.257   2.956   7.283 -0.2296  1.6020 -0.5360
 6790SOL    HW231830   3.230   2.954   7.137 -0.6278  0.1633 -0.9092
 6791SOL     OW31831   2.546   2.842   9.210 -0.8162 -0.6525 -0.2379
 6791SOL    HW131832   2.523   2.877   9.296 -1.1522 -0.3247 -0.4630
 6791SOL    HW231833   2.618   2.785   9.236  0.7893  1.9603  1.1050
 6792SOL     OW31834   2.777   2.881   7.096  0.0816  0.5497 -0.5477
 6792SOL    HW131835   2.708   2.845   7.041 -1.8678  0.1327  2.2058
 6792SOL    HW231836   2.756   2.970   7.069  1.5166  0.7607 -0.9875
 6793SOL     OW31837   2.264   4.582   1.594  0.0747 -0.4768 -0.0420
 6793SOL    HW131838   2.352   4.594   1.558  1.4420 -2.7462  2.5730
 6793SOL    HW231839   2.234   4.673   1.597 -1.7290 -1.1557  2.2287
 6794SOL     OW31840   3.639   3.462   2.521 -0.3620 -0.3902 -0.5084
 6794SOL    HW131841   3.654   3.546   2.478 -2.1283  0.5881  0.7543
 6794SOL    HW231842   3.573   3.488   2.586  1.4916 -0.9867  1.6068
 6795SOL     OW31843   3.277   2.031   1.035  0.3133  0.0404  0.1854
 6795SOL    HW131844   3.368   2.015   1.061  0.0035 -0.9649  0.6505
 6795SOL    HW231845   3.242   1.943   1.041  0.8845 -0.2219 -0.3257
 6796SOL     OW31846   0.542   3.131   4.095  0.5279  0.3507  0.1892
 6796SOL    HW131847   0.607   3.064   4.070  0.7664  0.0526  1.5829
 6796SOL    HW231848   0.523   3.126   4.189  1.1126 -2.3268  0.1691
 6797SOL     OW31849   4.289   1.235  16.348 -0.3904  0.2051  0.6295
 6797SOL    HW131850   4.313   1.214  16.258  0.7185  0.0177  0.9747
 6797SOL    HW231851   4.209   1.183  16.343 -0.0670 -0.1426 -0.7317
 6798SOL     OW31852   3.723   1.839   5.363  0.3399  0.4911  0.6368
 6798SOL    HW131853   3.632   1.826   5.336  1.1114 -0.8350 -1.3312
 6798SOL    HW231854   3.703   1.910   5.424  0.1744  1.3254 -0.3766
 6799SOL     OW31855   3.769   1.459  17.224 -0.1905  0.1796 -0.5252
 6799SOL    HW131856   3.804   1.501  17.145 -0.6718 -0.4774 -1.0965
 6799SOL    HW231857   3.691   1.430  17.175 -1.9882  1.6647  1.4854
 6800SOL     OW31858   2.805   4.691  17.603  0.0441  0.3254  0.2822
 6800SOL    HW131859   2.785   4.607  17.645 -0.6555 -0.2890 -1.2807
 6800SOL    HW231860   2.750   0.028  17.655  2.3069  3.9334 -1.4166
 6801SOL     OW31861   0.686   1.916   4.521  0.2663  0.1215  0.0795
 6801SOL    HW131862   0.656   2.000   4.486 -0.4500 -0.7538 -1.4071
 6801SOL    HW231863   0.707   1.880   4.435  0.4339  1.4134 -0.4229
 6802SOL     OW31864   0.097   2.767   3.997 -0.3049 -0.4773 -0.1903
 6802SOL    HW131865   0.192   2.771   4.006 -0.5672  2.2246  1.3652
 6802SOL    HW231866   0.083   2.861   3.985  0.2827 -0.3707 -0.0638
 6803SOL     OW31867   3.661   3.285   3.134  0.2979 -0.4034 -0.0263
 6803SOL    HW131868   3.625   3.288   3.223  0.7046  0.8036  0.0901
 6803SOL    HW231869   3.648   3.191   3.124  1.0076 -0.2882 -2.0462
 6804SOL     OW31870   1.224   4.509   4.953 -0.5453  0.0618 -0.2120
 6804SOL    HW131871   1.217   4.598   4.987 -0.9682 -0.4936  1.1743
 6804SOL    HW231872   1.194   4.533   4.865 -1.6005  1.2299  0.4730
 6805SOL     OW31873   3.609   0.851   5.911  0.4955 -0.7896  0.1280
 6805SOL    HW131874   3.685   0.905   5.888 -2.6478  3.0608 -1.2166
 6805SOL    HW231875   3.558   0.869   5.832 -0.0486 -0.3692  0.5756
 6806SOL     OW31876   0.728   3.087  15.287 -0.0755  0.1829 -0.5236
 6806SOL    HW131877   0.651   3.138  15.261 -0.3846 -0.8226 -1.5929
 6806SOL    HW231878   0.720   3.059  15.378 -1.5905 -1.8883 -1.2982
 6807SOL     OW31879   0.785   1.678   3.041  0.7657  0.5828  0.1843
 6807SOL    HW131880   0.708   1.638   3.001  0.6171  1.0537 -0.0116
 6807SOL    HW231881   0.808   1.732   2.965 -1.1599  0.3666 -0.5548
 6808SOL     OW31882   1.288   1.351   6.029  0.1383 -0.4856 -0.3222
 6808SOL    HW131883   1.218   1.296   5.994 -0.8750  0.5277  0.1288
 6808SOL    HW231884   1.244   1.422   6.074 -0.4387 -0.5263 -0.8325
 6809SOL     OW31885   3.210   0.675   4.862 -0.0302 -0.5685  0.4768
 6809SOL    HW131886   3.120   0.650   4.883 -0.0170 -0.1990  0.9530
 6809SOL    HW231887   3.190   0.750   4.805  2.0619 -0.0669  0.4084
 6810SOL     OW31888   0.840   4.080   8.009  0.9457 -0.5507 -0.0698
 6810SOL    HW131889   0.748   4.086   7.982  1.0217  1.3361  0.1223
 6810SOL    HW231890   0.835   4.159   8.062  2.7118 -1.6314  1.7020
 6811SOL     OW31891   3.250   2.252   9.375  0.0118 -0.0565 -0.2887
 6811SOL    HW131892   3.224   2.300   9.453 -0.7261 -0.1712 -0.4694
 6811SOL    HW231893   3.342   2.246   9.401  0.7756 -1.3734 -3.2767
 6812SOL     OW31894   2.298   0.566  11.542 -0.1103 -0.3348 -0.0231
 6812SOL    HW131895   2.362   0.494  11.545  2.3238  1.8175 -0.1731
 6812SOL    HW231896   2.224   0.505  11.545 -0.6082  0.4083  2.1247
 6813SOL     OW31897   3.800   0.143   3.866  0.4800  0.0570 -0.2023
 6813SOL    HW131898   3.870   0.187   3.914  1.1644 -0.3647 -0.8168
 6813SOL    HW231899   3.836   0.054   3.864 -0.4100 -0.3383  1.1842
 6814SOL     OW31900   0.470   3.393  12.965  0.2646 -0.1197 -0.1803
 6814SOL    HW131901   0.385   3.411  13.006  0.0028  0.7122 -1.0837
 6814SOL    HW231902   0.509   3.480  12.977  0.3426 -0.1670 -0.0927
 6815SOL     OW31903   0.831   0.328   8.759  0.0710 -0.3100  0.2802
 6815SOL    HW131904   0.792   0.242   8.740 -1.8297  0.9501 -1.5289
 6815SOL    HW231905   0.755   0.385   8.744  0.7272  0.3861 -0.3858
 6816SOL     OW31906   0.669   2.080  17.684  0.8067  0.6992 -0.3657
 6816SOL    HW131907   0.579   2.051   0.004  0.1209  3.0373  0.2973
 6816SOL    HW231908   0.676   2.129   0.078  2.3009  0.7325 -0.5060
 6817SOL     OW31909   1.469   1.135   3.573  0.7969 -0.0694  0.2988
 6817SOL    HW131910   1.492   1.089   3.492  3.9890 -0.5022  1.4814
 6817SOL    HW231911   1.549   1.149   3.623  0.5431  0.2727  0.6057
 6818SOL     OW31912   2.120   2.008  10.365 -0.3293  0.5061  0.3885
 6818SOL    HW131913   2.071   2.071  10.418 -0.4870  0.3253  0.4569
 6818SOL    HW231914   2.053   1.979  10.302  0.6617 -0.9352 -0.0044
 6819SOL     OW31915   4.508   0.167   2.361  0.0822 -0.0607  0.3155
 6819SOL    HW131916   4.452   0.160   2.283  1.8279  0.0663 -0.9397
 6819SOL    HW231917   4.590   0.129   2.332 -0.9886 -2.3831  0.3693
 6820SOL     OW31918   0.809   1.796  14.320 -0.8770  0.6298  0.6351
 6820SOL    HW131919   0.772   1.854  14.253 -1.7888  0.4899  1.0151
 6820SOL    HW231920   0.734   1.737  14.330 -0.4672 -0.2658 -1.5905
 6821SOL     OW31921   1.700   2.915   8.879 -0.3416 -0.4750 -0.0383
 6821SOL    HW131922   1.693   2.880   8.968  1.6916  1.5572  0.9305
 6821SOL    HW231923   1.618   2.964   8.867  0.8612  1.5646  0.0466
 6822SOL     OW31924   2.871   0.968   7.247 -0.0604 -0.2645  0.0924
 6822SOL    HW131925   2.964   0.958   7.266  0.4977  4.5102 -0.1304
 6822SOL    HW231926   2.870   0.889   7.193  0.0164 -1.0604  1.2705
 6823SOL     OW31927   4.510   2.360   8.738  0.0783 -0.4031  0.0014
 6823SOL    HW131928   4.568   2.380   8.811  0.3244 -2.7751  0.4553
 6823SOL    HW231929   4.512   2.265   8.728  0.2067 -0.3930 -0.0731
 6824SOL     OW31930   3.132   3.631   6.358 -0.0195 -0.1543  0.2186
 6824SOL    HW131931   3.046   3.619   6.397 -0.9398  3.1953 -0.8445
 6824SOL    HW231932   3.118   3.577   6.281  0.8046 -1.5406  1.0426
 6825SOL     OW31933   2.663   0.401  12.459  0.1241  0.2166 -0.3892
 6825SOL    HW131934   2.621   0.402  12.372  1.3500  1.6672 -0.9649
 6825SOL    HW231935   2.753   0.410  12.426 -0.0824 -2.1673 -1.6211
 6826SOL     OW31936   4.607   0.382  11.178  0.5024 -0.0239 -0.2680
 6826SOL    HW131937   4.661   0.454  11.210 -0.5595 -0.6569  2.9510
 6826SOL    HW231938   4.617   0.401  11.085 -0.5214  2.3501  0.1074
 6827SOL     OW31939   0.319   0.494   8.675 -0.5105  0.1235  0.1506
 6827SOL    HW131940   0.257   0.551   8.630  0.7057  1.0820 -0.3045
 6827SOL    HW231941   0.263   0.420   8.698  2.6729 -3.0568 -2.4139
 6828SOL     OW31942   3.189   4.596   1.932  0.7710  0.1188  0.9099
 6828SOL    HW131943   3.236   4.522   1.969 -0.6106 -0.8805  0.6494
 6828SOL    HW231944   3.245   4.640   1.867  0.7066 -1.1127  0.0051
 6829SOL     OW31945   2.116   3.605   4.000  0.4070 -0.0778  0.7162
 6829SOL    HW131946   2.096   3.619   4.093 -1.0917  0.8898  0.2496
 6829SOL    HW231947   2.210   3.625   4.000  0.4942 -0.5060 -0.2988
 6830SOL     OW31948   0.198   0.257   8.768 -0.2473 -0.3147  0.4282
 6830SOL    HW131949   0.239   0.182   8.726 -0.5573  0.5286 -1.3937
 6830SOL    HW231950   0.106   0.233   8.767 -0.5768  1.0423 -1.6215
 6831SOL     OW31951   3.954   3.883   2.739 -0.0036 -0.2240 -0.2812
 6831SOL    HW131952   3.995   3.966   2.714  0.0356 -0.3618 -0.6776
 6831SOL    HW231953   3.961   3.841   2.653 -1.4388  1.4802 -1.2279
 6832SOL     OW31954   0.315   3.226   6.128  0.1544 -0.5454  0.3299
 6832SOL    HW131955   0.282   3.175   6.054  0.4914  0.5717 -0.5907
 6832SOL    HW231956   0.278   3.314   6.120  0.8568 -0.3766 -1.1360
 6833SOL     OW31957   4.304   4.632  17.400 -0.0282  0.1796  0.4402
 6833SOL    HW131958   4.287   4.660  17.310  2.6014 -1.4257 -0.5430
 6833SOL    HW231959   4.395   4.660  17.410 -0.1084  0.2203  1.0498
 6834SOL     OW31960   0.764   2.945   4.034  0.7978  0.6199 -0.0548
 6834SOL    HW131961   0.777   2.943   3.939  1.2871 -0.2605  0.0371
 6834SOL    HW231962   0.700   2.875   4.047 -0.3761  1.3416 -2.0310
 6835SOL     OW31963   1.465   1.090   5.744  0.2516  0.3893 -0.2198
 6835SOL    HW131964   1.409   1.069   5.670 -5.4874  1.9510  3.6997
 6835SOL    HW231965   1.480   0.999   5.769 -0.6033  0.2253 -0.3260
 6836SOL     OW31966   1.637   4.172  12.590  0.0855 -0.1032 -0.0542
 6836SOL    HW131967   1.651   4.173  12.685  0.8802  0.7184 -0.1901
 6836SOL    HW231968   1.712   4.126  12.552  0.1118  0.7242 -0.9934
 6837SOL     OW31969   2.750   2.638  13.917 -0.4475  0.1103  0.4402
 6837SOL    HW131970   2.741   2.715  13.861  0.5882 -0.2341 -0.1989
 6837SOL    HW231971   2.674   2.663  13.970 -1.6923 -1.2790 -0.6881
 6838SOL     OW31972   4.430   1.916   3.566  0.1531  0.3392 -0.0594
 6838SOL    HW131973   4.466   2.005   3.566  0.0754  0.3745 -3.1978
 6838SOL    HW231974   4.419   1.904   3.660 -1.5589  2.2897 -0.0148
 6839SOL     OW31975   2.787   0.411   9.659  0.6252  0.7004  0.1617
 6839SOL    HW131976   2.792   0.331   9.711  0.5179  0.7897  0.3083
 6839SOL    HW231977   2.755   0.384   9.573 -0.8302  2.0363  0.2766
 6840SOL     OW31978   3.001   1.964   6.547 -0.2476  0.5222  0.0612
 6840SOL    HW131979   2.929   1.902   6.550 -1.3604  1.8321  0.2986
 6840SOL    HW231980   3.017   1.982   6.454 -1.3821  0.0757 -0.2205
 6841SOL     OW31981   2.176   4.491  17.292 -0.6487 -0.0702  0.3636
 6841SOL    HW131982   2.259   4.539  17.293  0.1337 -1.3395 -2.8435
 6841SOL    HW231983   2.208   4.400  17.290 -1.5055 -0.3887  1.2060
 6842SOL     OW31984   3.272   4.096  17.207 -1.0574 -0.3770  0.9802
 6842SOL    HW131985   3.283   4.001  17.211 -0.5464 -0.3552  0.1279
 6842SOL    HW231986   3.339   4.134  17.150 -0.1418 -1.1188  1.5519
 6843SOL     OW31987   2.955   2.510   6.124 -0.0346 -0.1732 -0.0386
 6843SOL    HW131988   2.993   2.473   6.204  0.9604 -0.8140 -0.8034
 6843SOL    HW231989   2.878   2.549   6.165  0.9034  1.0083  0.5986
 6844SOL     OW31990   3.343   0.969  11.654  0.3977 -0.6915  0.0111
 6844SOL    HW131991   3.358   0.939  11.743 -2.3925  0.2131  0.7958
 6844SOL    HW231992   3.254   1.003  11.665  0.8596  0.4622  0.1579
 6845SOL     OW31993   2.482   0.737   0.686  0.2513 -0.5145 -0.7435
 6845SOL    HW131994   2.575   0.728   0.707  0.1692  0.6808  0.1618
 6845SOL    HW231995   2.472   0.832   0.687 -1.1324 -0.6883  2.1453
 6846SOL     OW31996   1.606   3.587   8.038  0.3061  0.5233  0.3326
 6846SOL    HW131997   1.666   3.552   7.972 -0.0141  0.2154  0.2073
 6846SOL    HW231998   1.648   3.671   8.059 -3.2170  2.3072  0.3339
 6847SOL     OW31999   1.135   4.218  14.141  0.2721  0.5390 -0.7390
 6847SOL    HW132000   1.123   4.302  14.097 -0.5410  0.4310 -0.7090
 6847SOL    HW232001   1.075   4.164  14.089  1.1905 -0.2871 -0.9513
 6848SOL     OW32002   0.955   0.111   2.073 -0.0153  0.4755  0.2241
 6848SOL    HW132003   1.038   0.131   2.030 -0.0241 -2.2531 -1.0738
 6848SOL    HW232004   0.900   0.188   2.078 -0.2529  0.4270 -1.7396
 6849SOL     OW32005   4.082   4.276   7.790 -0.3170  0.0942 -0.0558
 6849SOL    HW132006   4.060   4.325   7.869 -0.2783 -2.0581  1.2823
 6849SOL    HW232007   4.045   4.334   7.723 -0.8983 -1.0274 -0.7095
 6850SOL     OW32008   3.436   0.000  16.355  0.0142 -0.7958 -0.0471
 6850SOL    HW132009   3.380   4.692  16.283  1.8502  0.9406 -2.1945
 6850SOL    HW232010   3.377   0.037  16.421  0.5775 -0.5637  0.3277
 6851SOL     OW32011   2.803   0.540  13.529  0.4157 -0.1183  0.3712
 6851SOL    HW132012   2.717   0.505  13.554 -0.4095  1.8976  0.3688
 6851SOL    HW232013   2.777   0.605  13.463 -0.2851 -0.2861  0.4850
 6852SOL     OW32014   2.787   4.713   3.883 -0.7792  0.3896  0.2871
 6852SOL    HW132015   2.837   4.656   3.823 -0.3371 -0.5915  1.5807
 6852SOL    HW232016   2.827   0.077   3.871  0.1842 -0.2760 -1.2623
 6853SOL     OW32017   4.036   1.137   5.843  0.5017  0.3561  0.0560
 6853SOL    HW132018   3.997   1.215   5.882 -0.1259 -0.8872  1.9052
 6853SOL    HW232019   4.012   1.071   5.908  0.0134  1.1726  0.6935
 6854SOL     OW32020   2.732   1.420   8.921  0.1490  0.5562 -0.2167
 6854SOL    HW132021   2.805   1.473   8.955 -1.8057  1.6632  2.2317
 6854SOL    HW232022   2.656   1.479   8.919  0.0306  0.4881  1.8616
 6855SOL     OW32023   1.342   0.820   0.834  0.6044  0.0055  0.0894
 6855SOL    HW132024   1.365   0.909   0.859 -0.6627 -0.0665  1.5354
 6855SOL    HW232025   1.417   0.797   0.780 -0.8152 -1.1519 -1.3787
 6856SOL     OW32026   3.511   1.704   1.082 -0.3554  0.3026  0.1686
 6856SOL    HW132027   3.512   1.800   1.072 -1.4491  0.4891  1.8060
 6856SOL    HW232028   3.420   1.680   1.066  0.0732 -0.9378 -0.3612
 6857SOL     OW32029   4.328   2.148   4.694  0.1625  0.3623 -0.2166
 6857SOL    HW132030   4.341   2.054   4.710 -2.0660  0.1894  0.5488
 6857SOL    HW232031   4.397   2.180   4.752 -0.0621  1.1034 -0.3683
 6858SOL     OW32032   0.992   1.162  16.672 -0.3389 -0.4169 -0.2920
 6858SOL    HW132033   0.965   1.247  16.708  0.4511  0.0922 -0.9102
 6858SOL    HW232034   0.908   1.121  16.654  0.0432 -1.5820  0.5830
 6859SOL     OW32035   1.291   2.921   7.720  0.2455 -0.2109  0.1834
 6859SOL    HW132036   1.270   2.843   7.668  1.3581 -0.0995 -0.4489
 6859SOL    HW232037   1.355   2.967   7.665  0.2180 -2.5512 -1.8379
 6860SOL     OW32038   4.509   2.003   4.855 -0.1623  0.1056  0.4022
 6860SOL    HW132039   4.494   1.909   4.871 -1.8131 -0.2558 -3.2694
 6860SOL    HW232040   4.540   2.029   4.942  0.2058  2.4193 -0.4389
 6861SOL     OW32041   1.166   0.434   4.188  0.3554  0.3287  0.0687
 6861SOL    HW132042   1.080   0.474   4.202  0.4978  1.4293 -2.0900
 6861SOL    HW232043   1.214   0.508   4.151  2.4044 -1.2094 -0.3274
 6862SOL     OW32044   0.419   1.042   3.692  0.3788 -0.6825  0.1445
 6862SOL    HW132045   0.494   1.093   3.660 -0.5393  0.9668  0.6094
 6862SOL    HW232046   0.348   1.093   3.652  3.0605  2.3822 -0.7255
 6863SOL     OW32047   2.263   0.499  12.467  0.1095  0.0650  0.3860
 6863SOL    HW132048   2.268   0.594  12.460 -1.1216  0.0569 -0.6553
 6863SOL    HW232049   2.344   0.474  12.512  2.2374  2.1798 -2.2929
 6864SOL     OW32050   0.661   2.368   7.961  0.3422  0.2372  0.1459
 6864SOL    HW132051   0.678   2.400   8.049 -2.6623 -0.2797  0.9362
 6864SOL    HW232052   0.569   2.386   7.941  0.4868  1.5612  0.7241
 6865SOL     OW32053   0.336   2.644   2.239  0.0478 -0.0175  0.0798
 6865SOL    HW132054   0.305   2.599   2.160  0.2446  1.9479 -1.1105
 6865SOL    HW232055   0.303   2.582   2.304  1.6904  0.8927  1.7846
 6866SOL     OW32056   0.644   2.965  15.542  0.2288 -0.6697 -0.4044
 6866SOL    HW132057   0.596   2.969  15.625  1.1128  0.8059  0.0355
 6866SOL    HW232058   0.731   2.988  15.574  0.4366 -2.3014  0.1536
 6867SOL     OW32059   0.936   1.008   7.702  0.7285  0.7716 -0.3800
 6867SOL    HW132060   0.978   0.967   7.777  1.4601  1.2986 -0.5061
 6867SOL    HW232061   0.914   1.097   7.728 -1.1640 -0.0790  0.9128
 6868SOL     OW32062   3.910   3.134   4.351  0.7942  0.6610 -0.2057
 6868SOL    HW132063   3.895   3.217   4.305  1.9587 -0.2177 -2.1797
 6868SOL    HW232064   3.918   3.170   4.439 -0.5106  0.8735 -0.1797
 6869SOL     OW32065   0.786   2.834  15.905  0.4800  0.0375  0.0582
 6869SOL    HW132066   0.705   2.792  15.878 -0.8162  2.3613  0.3405
 6869SOL    HW232067   0.836   2.839  15.824  0.2983 -3.6572 -0.3007
 6870SOL     OW32068   4.597   2.243   3.984  0.4764 -0.1153  0.6375
 6870SOL    HW132069   4.621   2.150   3.989  1.9682  0.2969  1.2430
 6870SOL    HW232070   4.673   2.282   3.943 -1.1860  2.0051 -0.4390
 6871SOL     OW32071   2.393   2.773  11.662  0.0797 -0.4704 -0.0952
 6871SOL    HW132072   2.456   2.709  11.629 -0.2304 -0.3908 -0.8545
 6871SOL    HW232073   2.317   2.714  11.654  0.6542 -1.1908 -0.2468
 6872SOL     OW32074   4.069   3.422   3.233 -0.8477 -0.1799 -0.5630
 6872SOL    HW132075   4.101   3.373   3.309  0.1229 -0.4794 -1.1683
 6872SOL    HW232076   4.094   3.361   3.164 -0.5930 -1.8507  0.9982
 6873SOL     OW32077   0.088   2.346   5.329 -0.0105  0.1082 -0.3484
 6873SOL    HW132078   0.043   2.410   5.275 -1.8328  0.4397  1.5697
 6873SOL    HW232079   0.157   2.393   5.376  0.6361 -2.0234  0.8461
 6874SOL     OW32080   3.179   1.495  14.055 -0.2895 -0.9138 -0.6642
 6874SOL    HW132081   3.192   1.402  14.071  0.1892 -0.5793  0.9246
 6874SOL    HW232082   3.269   1.513  14.030 -0.3191  3.1874  2.0526
 6875SOL     OW32083   0.146   2.086   8.696  0.0277 -0.0334 -0.1348
 6875SOL    HW132084   0.136   2.095   8.790 -1.2440  1.4283 -0.4219
 6875SOL    HW232085   0.240   2.065   8.693  0.8213  3.6056 -0.7181
 6876SOL     OW32086   3.338   1.561   7.348 -0.2452  0.9749  0.1637
 6876SOL    HW132087   3.404   1.492   7.352 -1.0682  0.1788 -0.0774
 6876SOL    HW232088   3.307   1.551   7.438  1.4473 -1.3996  0.4611
 6877SOL     OW32089   3.098   4.197  12.531  0.1926 -0.4276  0.1137
 6877SOL    HW132090   3.037   4.123  12.536 -0.9883  0.5649  0.1384
 6877SOL    HW232091   3.039   4.272  12.522  0.8953  0.1202  0.1034
 6878SOL     OW32092   0.007   3.806   4.194  0.0555  0.5105 -0.3300
 6878SOL    HW132093   0.079   3.747   4.218 -0.0093  0.6122  0.1102
 6878SOL    HW232094   0.050   3.890   4.179  1.3967  0.0418  0.8287
 6879SOL     OW32095   0.359   3.949   8.358  0.2783  0.3173  0.1748
 6879SOL    HW132096   0.375   4.033   8.315 -0.7122  0.0383 -0.7473
 6879SOL    HW232097   0.374   3.898   8.278  0.6515 -0.4299  0.7159
 6880SOL     OW32098   3.846   4.090   7.072  0.0347  0.2563 -0.0667
 6880SOL    HW132099   3.784   4.145   7.119  0.6881 -0.0975  1.2040
 6880SOL    HW232100   3.905   4.052   7.137 -0.0352  0.2991  0.0209
 6881SOL     OW32101   2.524   2.422  17.623 -0.2907 -0.3952  0.1220
 6881SOL    HW132102   2.547   2.349  17.680  0.3244  0.2212  0.6790
 6881SOL    HW232103   2.615   2.440  17.598 -0.0097  0.1348  1.5082
 6882SOL     OW32104   1.702   0.956   7.483 -0.1709  0.1911  0.4531
 6882SOL    HW132105   1.673   0.868   7.506  0.4369  0.1242  0.9393
 6882SOL    HW232106   1.718   1.005   7.564  0.5871 -1.8668  1.5378
 6883SOL     OW32107   3.767   4.341  15.182  0.0416  0.1671 -0.0895
 6883SOL    HW132108   3.675   4.366  15.186 -0.4010 -1.3547 -0.8425
 6883SOL    HW232109   3.773   4.330  15.277  0.6499  0.1393 -0.1271
 6884SOL     OW32110   1.573   2.073   1.880 -0.6252 -0.2122  0.0120
 6884SOL    HW132111   1.490   2.040   1.914 -0.9698 -0.8106 -1.4110
 6884SOL    HW232112   1.567   2.168   1.892 -0.6012 -0.0189 -1.4520
 6885SOL     OW32113   3.435   2.693   8.408 -0.0988 -0.3405 -0.3319
 6885SOL    HW132114   3.444   2.714   8.315 -1.3264  1.8357  0.0253
 6885SOL    HW232115   3.381   2.762   8.446 -0.0937 -1.2452  1.3193
 6886SOL     OW32116   3.948   0.616   5.320 -0.4253 -0.0054 -0.4287
 6886SOL    HW132117   4.004   0.600   5.396  0.2048  0.8393 -0.7242
 6886SOL    HW232118   4.002   0.671   5.264 -1.2762 -0.6086 -1.8413
 6887SOL     OW32119   2.594   1.618   0.810  0.5935 -0.2272  0.4283
 6887SOL    HW132120   2.611   1.615   0.716 -1.7973  0.8868 -0.0324
 6887SOL    HW232121   2.505   1.584   0.810 -0.2938  2.1492  0.3511
 6888SOL     OW32122   1.054   0.584   5.377  0.5317  0.1303 -0.1927
 6888SOL    HW132123   1.091   0.668   5.403 -0.6497 -0.2144  2.5807
 6888SOL    HW232124   1.020   0.607   5.291  2.5814 -1.0534 -1.3154
 6889SOL     OW32125   0.594   0.400   4.679  0.4938 -0.9823  0.4152
 6889SOL    HW132126   0.599   0.470   4.615  1.7747 -1.5256 -0.0945
 6889SOL    HW232127   0.534   0.341   4.634 -0.6429 -0.5095  1.3140
 6890SOL     OW32128   3.324   3.725   8.385 -0.3232  0.0261  0.6665
 6890SOL    HW132129   3.344   3.715   8.292  1.1910 -0.5307  1.0393
 6890SOL    HW232130   3.235   3.691   8.383  0.7904 -2.8705  0.6576
 6891SOL     OW32131   2.240   2.398   8.925 -0.2752  0.2287  0.0781
 6891SOL    HW132132   2.208   2.479   8.964 -3.5077 -0.3275 -1.4428
 6891SOL    HW232133   2.293   2.431   8.852 -0.7703  3.0836  1.0293
 6892SOL     OW32134   2.201   2.072   5.720 -0.2910  0.2373  0.2068
 6892SOL    HW132135   2.276   2.051   5.665 -1.5586  0.5032 -1.6301
 6892SOL    HW232136   2.123   2.047   5.671 -0.9450  0.7449  0.9771
 6893SOL     OW32137   3.273   3.047  17.069 -0.1103  0.0091 -0.1714
 6893SOL    HW132138   3.249   2.999  17.148 -2.5946  0.1139 -0.8646
 6893SOL    HW232139   3.185   3.058  17.031  0.3610 -1.8298 -1.8222
 6894SOL     OW32140   1.174   3.789   3.213  0.1709 -0.0916 -1.0548
 6894SOL    HW132141   1.086   3.815   3.239  1.2494 -0.4777  3.0350
 6894SOL    HW232142   1.190   3.726   3.283 -1.6786 -0.0905 -0.6332
 6895SOL     OW32143   2.384   2.985   5.110  0.0727  0.1916  0.5809
 6895SOL    HW132144   2.298   2.949   5.088  0.6810  1.1448 -3.4506
 6895SOL    HW232145   2.362   3.055   5.171 -1.9620 -0.0408  0.1103
 6896SOL     OW32146   2.176   2.990   0.876  1.0883  0.2929  0.7026
 6896SOL    HW132147   2.210   3.079   0.886  0.8492  0.4457  0.1423
 6896SOL    HW232148   2.184   2.982   0.781 -1.6242  1.7981  0.3557
 6897SOL     OW32149   0.630   0.130   5.876  0.1266  0.6532 -0.1257
 6897SOL    HW132150   0.641   0.067   5.804  0.6121  0.6491 -0.0472
 6897SOL    HW232151   0.716   0.145   5.915  0.9999 -0.0791 -1.7707
 6898SOL     OW32152   1.554   0.229  11.724  0.0400  0.1765  0.0984
 6898SOL    HW132153   1.566   0.271  11.638  2.1541 -1.4289 -0.3969
 6898SOL    HW232154   1.469   0.265  11.750  1.7950  2.8487  2.1753
 6899SOL     OW32155   4.705   2.403  13.600 -0.1386 -0.4281 -0.2117
 6899SOL    HW132156   0.020   2.315  13.606 -2.4247 -1.4956 -2.4051
 6899SOL    HW232157   4.627   2.398  13.655 -1.1898 -0.8724 -1.7542
 6900SOL     OW32158   0.996   4.259   7.230 -0.0911 -0.2952  0.0046
 6900SOL    HW132159   0.954   4.203   7.166 -2.2652  1.1850  0.1402
 6900SOL    HW232160   1.082   4.260   7.188 -0.2562  0.4840 -0.3095
 6901SOL     OW32161   4.646   1.333  16.934  0.6600  0.0184 -0.0583
 6901SOL    HW132162   4.700   1.400  16.893 -0.2256  0.5324 -0.3863
 6901SOL    HW232163   4.565   1.351  16.887 -0.1664  1.4795  1.9067
 6902SOL     OW32164   2.121   0.243   0.451 -0.1955 -0.1518  0.0339
 6902SOL    HW132165   2.160   0.179   0.512 -0.4439 -0.8237 -0.5093
 6902SOL    HW232166   2.049   0.283   0.500  0.3100 -0.8479  1.3504
 6903SOL     OW32167   4.609   1.497   5.496  0.4582  0.3574 -0.1654
 6903SOL    HW132168   4.670   1.476   5.425 -0.6547 -1.5183 -0.5573
 6903SOL    HW232169   4.595   1.403   5.510 -2.5687  1.1349  2.0133
 6904SOL     OW32170   2.675   4.213   2.971 -0.5272 -0.3739  0.0352
 6904SOL    HW132171   2.613   4.175   2.909  0.3749 -0.9962 -0.4834
 6904SOL    HW232172   2.659   4.165   3.053 -0.3213 -0.7354 -0.1391
 6905SOL     OW32173   0.554   1.897   5.442  0.1078 -0.3792 -0.9815
 6905SOL    HW132174   0.604   1.817   5.455  0.6928  0.0189 -0.8003
 6905SOL    HW232175   0.470   1.858   5.418 -0.0781 -1.5182  1.5220
 6906SOL     OW32176   4.135   4.327   5.938  0.0139 -0.8071  0.2141
 6906SOL    HW132177   4.176   4.303   5.855  2.0829 -0.6839  1.1949
 6906SOL    HW232178   4.070   4.388   5.904  2.9670  1.2990 -1.5044
 6907SOL     OW32179   2.126   4.407   0.188  0.5922  0.5173  0.2355
 6907SOL    HW132180   2.201   4.405   0.247 -0.7580  0.1555  1.9562
 6907SOL    HW232181   2.174   4.374   0.113  0.2684  0.3008  0.1212
 6908SOL     OW32182   4.438   2.885  16.501  0.4148 -0.4285  0.0988
 6908SOL    HW132183   4.488   2.804  16.513  0.1127 -0.5021  0.8422
 6908SOL    HW232184   4.475   2.924  16.422  0.1320  0.7610  0.5550
 6909SOL     OW32185   4.458   1.380   3.217 -0.1449 -0.4939  0.0253
 6909SOL    HW132186   4.478   1.473   3.226  0.5527 -0.5293 -1.1078
 6909SOL    HW232187   4.499   1.340   3.294  1.3868 -0.1119 -0.5899
 6910SOL     OW32188   4.334   1.539  13.461 -0.8573 -0.5059 -0.4381
 6910SOL    HW132189   4.272   1.493  13.518  1.3641 -1.2322  1.3879
 6910SOL    HW232190   4.396   1.468  13.442 -1.6695 -0.7170 -2.3347
 6911SOL     OW32191   3.664   3.314   4.295  0.0880 -0.0598  0.6754
 6911SOL    HW132192   3.626   3.322   4.208  1.8206 -1.9911 -0.2206
 6911SOL    HW232193   3.636   3.227   4.322 -1.3504  0.2964  0.3593
 6912SOL     OW32194   2.107   2.990  11.283  0.0936  0.1137 -0.5334
 6912SOL    HW132195   2.186   2.939  11.267 -0.9966 -1.7584  0.1586
 6912SOL    HW232196   2.089   3.020  11.194 -0.5447 -0.2337 -0.5209
 6913SOL     OW32197   4.487   0.467   4.722  0.3567 -0.3103 -0.0450
 6913SOL    HW132198   4.404   0.482   4.767  0.5112  1.2931 -0.2652
 6913SOL    HW232199   4.517   0.552   4.687  0.6952  0.2009  1.4914
 6914SOL     OW32200   4.455   3.962   8.913 -0.0418 -0.2610 -0.1123
 6914SOL    HW132201   4.431   3.909   8.988 -2.5453  0.7947 -0.1796
 6914SOL    HW232202   4.473   4.048   8.952  0.8584  0.2743 -1.6999
 6915SOL     OW32203   1.964   1.898   8.955  0.4236 -0.2567 -0.3672
 6915SOL    HW132204   1.989   1.937   8.871  0.5402  0.9876  0.2343
 6915SOL    HW232205   1.991   1.965   9.018  0.6098  0.5214 -1.2679
 6916SOL     OW32206   2.593   1.388   1.857  0.0678  0.1141 -0.0943
 6916SOL    HW132207   2.517   1.381   1.915  0.4540  1.4359  0.5736
 6916SOL    HW232208   2.613   1.481   1.853 -0.5590  0.3210  1.3553
 6917SOL     OW32209   1.158   1.079  10.210  0.1539 -0.2890  0.2470
 6917SOL    HW132210   1.138   1.121  10.294 -2.9732 -1.3736  0.0720
 6917SOL    HW232211   1.237   1.129  10.188  0.8885 -1.6469 -0.1795
 6918SOL     OW32212   3.168   0.228  14.542  0.0989 -0.2540  0.0723
 6918SOL    HW132213   3.118   0.310  14.540 -2.0503 -1.5632  0.4656
 6918SOL    HW232214   3.253   0.255  14.506  0.0918 -1.8355 -1.1113
 6919SOL     OW32215   1.649   4.136   1.556 -0.2006 -0.0192 -0.0789
 6919SOL    HW132216   1.678   4.054   1.515  0.5783 -1.1945  2.8553
 6919SOL    HW232217   1.556   4.136   1.535 -0.5350 -0.0582  1.4486
 6920SOL     OW32218   1.508   4.450   1.680  0.9380  0.6361  0.4712
 6920SOL    HW132219   1.577   4.439   1.745  1.6094  1.2336 -0.1365
 6920SOL    HW232220   1.425   4.439   1.727  1.2719  1.9856  1.3784
 6921SOL     OW32221   2.517   1.375   1.487  0.2374  1.0316 -0.5046
 6921SOL    HW132222   2.582   1.337   1.546 -0.6538 -1.4783 -1.1405
 6921SOL    HW232223   2.487   1.297   1.441  3.2073  0.0743 -0.8470
 6922SOL     OW32224   0.334   4.331   6.727 -0.1680 -0.2320 -0.7420
 6922SOL    HW132225   0.305   4.306   6.814 -0.7907  2.2683 -0.2295
 6922SOL    HW232226   0.361   4.244   6.698 -4.4812 -1.5715 -0.6710
 6923SOL     OW32227   3.904   4.237   3.191 -0.0912 -0.3503 -0.4206
 6923SOL    HW132228   3.858   4.228   3.107  0.4880 -1.5237 -0.6165
 6923SOL    HW232229   3.969   4.166   3.190  0.3572  0.0749 -1.9540
 6924SOL     OW32230   2.472   3.108   0.138  1.1056  0.1402  0.3100
 6924SOL    HW132231   2.459   3.038   0.073 -2.4875  0.1628  1.0221
 6924SOL    HW232232   2.567   3.114   0.132  0.8701  2.4592 -1.2291
 6925SOL     OW32233   4.146   3.041   0.261  0.7346 -0.0213 -0.1757
 6925SOL    HW132234   4.064   3.083   0.237 -0.3814 -2.0170  0.1911
 6925SOL    HW232235   4.193   3.105   0.314 -0.1916  0.2576  0.2971
 6926SOL     OW32236   0.055   1.157   7.745  0.7199  0.0441  0.1155
 6926SOL    HW132237   4.692   1.126   7.714  0.3992  0.4000  0.6391
 6926SOL    HW232238   0.057   1.133   7.837  2.6395  0.7529  0.2633
 6927SOL     OW32239   1.643   3.813   0.579  0.2445 -0.3956 -0.1593
 6927SOL    HW132240   1.695   3.843   0.654  0.7188  0.7605 -0.9394
 6927SOL    HW232241   1.629   3.893   0.528  0.3035 -0.0688  0.3278
 6928SOL     OW32242   4.539   3.039  15.065 -0.5077 -0.3891 -0.0571
 6928SOL    HW132243   4.505   3.128  15.078  1.7781  0.4160  0.5736
 6928SOL    HW232244   4.617   3.028  15.120 -0.0763  3.6154  0.1311
 6929SOL     OW32245   0.880   1.220   7.882 -0.0380 -0.1914  0.2529
 6929SOL    HW132246   0.969   1.226   7.847 -1.0968 -1.4578 -2.5760
 6929SOL    HW232247   0.895   1.177   7.967  1.4424  1.5735  0.9010
 6930SOL     OW32248   2.412   3.580  17.123  0.3967  0.7380  0.2349
 6930SOL    HW132249   2.325   3.552  17.149  1.1095 -0.8447  0.9541
 6930SOL    HW232250   2.396   3.590  17.030 -0.2601  3.1240  0.6020
 6931SOL     OW32251   1.416   1.633   9.154 -0.1978 -0.2281  0.3210
 6931SOL    HW132252   1.351   1.646   9.223 -1.8272 -2.2523 -0.8455
 6931SOL    HW232253   1.478   1.572   9.194 -0.8616 -0.6368  0.7252
 6932SOL     OW32254   2.493   1.371   8.103  0.2788 -0.0860  0.1439
 6932SOL    HW132255   2.482   1.325   8.020  0.2682 -0.3072  0.2690
 6932SOL    HW232256   2.417   1.335   8.148 -0.1994  0.3070 -0.3414
 6933SOL     OW32257   0.792   1.455   7.129  0.3516  0.3066  0.3083
 6933SOL    HW132258   0.816   1.370   7.166 -2.2797 -1.7865 -2.7989
 6933SOL    HW232259   0.800   1.510   7.207  1.1893 -1.1075  1.2053
 6934SOL     OW32260   1.346   1.063   5.497 -0.2215  0.0765 -0.2520
 6934SOL    HW132261   1.436   1.072   5.465 -0.5855  0.9995 -1.0089
 6934SOL    HW232262   1.304   1.118   5.431 -0.0230  0.7235  0.1644
 6935SOL     OW32263   2.411   0.419  15.432 -0.1643  0.6692 -0.1116
 6935SOL    HW132264   2.336   0.366  15.406  1.2660  0.1452 -3.1074
 6935SOL    HW232265   2.420   0.402  15.526 -0.8105  2.1367  0.2137
 6936SOL     OW32266   0.003   3.288   7.968  0.2363  0.4372 -0.1598
 6936SOL    HW132267   0.045   3.372   7.951 -2.2026  1.9820  1.4212
 6936SOL    HW232268   4.639   3.316   8.001  0.0568 -0.1321 -0.1324
 6937SOL     OW32269   1.308   4.710   6.753  0.1593 -0.1343 -0.1523
 6937SOL    HW132270   1.323   0.062   6.693  1.5823  0.4005  0.8804
 6937SOL    HW232271   1.337   4.639   6.697 -2.4731 -1.9240  0.7416
 6938SOL     OW32272   4.183   0.131   3.973  0.2666  0.1504  0.2145
 6938SOL    HW132273   4.105   0.160   4.020 -0.6979 -2.4596  0.2376
 6938SOL    HW232274   4.146   0.103   3.889  0.0667  0.3774  0.2275
 6939SOL     OW32275   3.946   2.321   4.266  0.1347 -0.3976 -0.3939
 6939SOL    HW132276   4.004   2.374   4.211  1.6517 -1.2859  0.3396
 6939SOL    HW232277   3.867   2.374   4.265  1.7651  2.1470  2.9690
 6940SOL     OW32278   4.446   3.368   2.123 -0.0200  0.3607 -0.1611
 6940SOL    HW132279   4.482   3.419   2.195 -0.8813 -0.6102  0.9643
 6940SOL    HW232280   4.396   3.436   2.078  2.6768  2.3068 -0.1695
 6941SOL     OW32281   4.304   4.008   8.342 -0.0183 -0.7354  0.5994
 6941SOL    HW132282   4.389   3.963   8.345  0.6840  0.5121 -0.7851
 6941SOL    HW232283   4.256   3.977   8.419 -2.0600 -0.4818 -0.5766
 6942SOL     OW32284   3.392   1.998   7.782 -0.4374  0.4118 -0.0777
 6942SOL    HW132285   3.361   2.083   7.753 -0.2434  0.5246  0.0462
 6942SOL    HW232286   3.393   2.018   7.875 -0.4177 -2.0958  0.4569
 6943SOL     OW32287   0.177   1.641  13.230 -0.1136 -0.4738 -0.6679
 6943SOL    HW132288   0.105   1.667  13.173 -0.9388  0.5347  0.8165
 6943SOL    HW232289   0.146   1.681  13.312  2.0137  1.5741 -0.8580
 6944SOL     OW32290   3.782   2.614  10.492 -0.0928 -0.0771 -0.3029
 6944SOL    HW132291   3.776   2.639  10.585  0.9122 -3.3871  0.6563
 6944SOL    HW232292   3.816   2.525  10.496 -1.8477 -0.7612 -0.8491
 6945SOL     OW32293   1.141   0.725   2.290  0.5755  0.4335  0.4211
 6945SOL    HW132294   1.109   0.682   2.211  1.2053  0.7057  0.0180
 6945SOL    HW232295   1.126   0.815   2.262 -0.5834 -0.2776 -1.2170
 6946SOL     OW32296   2.312   0.345   3.200  0.1798  0.8635  0.4499
 6946SOL    HW132297   2.314   0.327   3.106 -2.4729  0.9131  0.3763
 6946SOL    HW232298   2.249   0.417   3.190 -1.2352 -0.1572  2.0925
 6947SOL     OW32299   1.660   0.313   6.545  0.2589 -0.2280  0.3828
 6947SOL    HW132300   1.707   0.308   6.462  0.2184 -1.9553  0.4663
 6947SOL    HW232301   1.669   0.408   6.551 -0.8558 -0.0033 -1.7476
 6948SOL     OW32302   4.072   1.563   5.203 -0.3464 -0.2238  0.0491
 6948SOL    HW132303   4.121   1.491   5.163  0.7246  1.6281 -1.9616
 6948SOL    HW232304   3.999   1.519   5.246 -0.2319 -1.0137 -0.5721
 6949SOL     OW32305   1.115   1.594   5.775 -0.1245 -0.3396  0.4371
 6949SOL    HW132306   1.142   1.670   5.826 -1.0832  0.8339 -0.7979
 6949SOL    HW232307   1.034   1.629   5.738  1.7055  2.9752 -0.4681
 6950SOL     OW32308   3.397   1.256   3.878 -0.1850  0.4918 -0.1688
 6950SOL    HW132309   3.362   1.168   3.894  0.9330  0.1408  0.3426
 6950SOL    HW232310   3.336   1.272   3.806 -1.4154  1.0209  0.9869
 6951SOL     OW32311   2.780   2.510   1.065  0.6459 -0.1005  0.5596
 6951SOL    HW132312   2.876   2.507   1.062  0.7044  2.4691 -0.5803
 6951SOL    HW232313   2.757   2.527   1.156  2.0572 -0.7055  1.0291
 6952SOL     OW32314   0.995   0.104   8.632 -0.4061 -0.5542 -0.6198
 6952SOL    HW132315   1.043   0.150   8.701 -0.9175 -0.4619 -0.3331
 6952SOL    HW232316   1.070   0.051   8.604  0.0553 -0.4425  0.4394
 6953SOL     OW32317   4.498   4.535   3.743  0.2558  0.4448  0.1717
 6953SOL    HW132318   4.566   4.575   3.689 -0.1128 -0.5852 -1.0822
 6953SOL    HW232319   4.557   4.486   3.800  0.9508 -0.6588 -1.4950
 6954SOL     OW32320   1.481   4.536  10.473 -0.4304  0.3671 -0.0473
 6954SOL    HW132321   1.404   4.544  10.416 -0.0793  1.2936 -0.3778
 6954SOL    HW232322   1.510   4.627  10.470 -2.2158  0.9807  1.5050
 6955SOL     OW32323   0.703   4.333   6.369 -0.5305 -0.1631 -0.0517
 6955SOL    HW132324   0.619   4.312   6.327  0.3905 -1.4119 -1.2691
 6955SOL    HW232325   0.687   4.329   6.463  0.1434 -0.4298  0.0515
 6956SOL     OW32326   2.247   3.627   1.049 -0.2436  0.9257  0.2485
 6956SOL    HW132327   2.165   3.580   1.059 -0.6653  1.7957  0.8824
 6956SOL    HW232328   2.222   3.715   1.077 -0.4623  0.9033  0.1210
 6957SOL     OW32329   4.508   3.034  11.225  0.1585 -0.4155 -0.2887
 6957SOL    HW132330   4.532   2.942  11.230 -0.4679 -0.5729 -0.2241
 6957SOL    HW232331   4.443   3.033  11.294  0.0549 -1.0407 -0.4021
 6958SOL     OW32332   1.040   4.487   9.945  0.1388  0.4251 -0.5719
 6958SOL    HW132333   1.056   4.545  10.020 -1.2419 -0.7755  0.6543
 6958SOL    HW232334   0.948   4.465   9.959  0.3274  1.6507  2.5091
 6959SOL     OW32335   3.638   2.973   0.903 -0.0115  0.3179  0.2973
 6959SOL    HW132336   3.600   2.945   0.820 -0.0977 -2.4185  1.2669
 6959SOL    HW232337   3.610   2.906   0.965  1.2844 -1.7664 -1.3806
 6960SOL     OW32338   3.116   3.725   4.130 -0.1208  0.6476 -0.1658
 6960SOL    HW132339   3.095   3.818   4.138 -1.0586  0.3935  0.3404
 6960SOL    HW232340   3.188   3.718   4.193 -0.8636  4.6252  1.1567
 6961SOL     OW32341   1.933   3.701   7.647 -0.4134  0.0319 -0.2641
 6961SOL    HW132342   1.839   3.685   7.654 -0.4578 -0.2827 -1.5745
 6961SOL    HW232343   1.965   3.623   7.603 -1.2732 -0.7381  0.4707
 6962SOL     OW32344   2.515   0.995   8.080 -0.5885  0.0044  0.8988
 6962SOL    HW132345   2.502   1.043   8.162 -1.7380 -3.6382  2.8578
 6962SOL    HW232346   2.599   1.032   8.054 -0.5669 -0.4506  0.3438
 6963SOL     OW32347   0.421   1.871   5.102  0.8088  0.0926  0.0668
 6963SOL    HW132348   0.494   1.822   5.141  1.4168  0.6551 -0.3604
 6963SOL    HW232349   0.388   1.805   5.041 -1.4784  1.0166  0.3138
 6964SOL     OW32350   3.542   0.825   4.410  0.0395  0.1618 -0.0554
 6964SOL    HW132351   3.535   0.741   4.455 -0.6580 -0.0064 -0.4719
 6964SOL    HW232352   3.574   0.870   4.488 -2.0074 -0.1282  0.9647
 6965SOL     OW32353   4.299   3.519   3.485 -0.0267  0.4090  0.6697
 6965SOL    HW132354   4.279   3.431   3.455 -0.2149  0.9399 -0.7530
 6965SOL    HW232355   4.322   3.563   3.403 -0.1199  1.1521  1.0428
 6966SOL     OW32356   2.474   1.009   0.755  0.3242 -0.1927  0.6006
 6966SOL    HW132357   2.488   1.103   0.759 -0.4882  0.0854 -2.5786
 6966SOL    HW232358   2.537   0.990   0.824  2.1399  2.9503 -0.1699
 6967SOL     OW32359   3.470   0.901   1.739 -0.6053  0.1263 -0.4876
 6967SOL    HW132360   3.539   0.840   1.711 -1.2586  0.7161 -3.3652
 6967SOL    HW232361   3.518   0.982   1.725  1.5599 -1.0364  0.1151
 6968SOL     OW32362   2.010   4.005   4.857  0.3045  0.4091 -0.0206
 6968SOL    HW132363   2.041   4.060   4.929  0.0844  0.0498  0.3530
 6968SOL    HW232364   2.086   3.968   4.813  2.7178  3.3024  1.7120
 6969SOL     OW32365   1.530   0.214   5.564  0.4511 -0.7204  0.0820
 6969SOL    HW132366   1.547   0.300   5.525  2.0907 -0.6088  1.0571
 6969SOL    HW232367   1.435   0.209   5.549  0.5808 -0.3219 -0.9157
 6970SOL     OW32368   2.738   0.482   8.161 -0.1546  0.1610 -0.2876
 6970SOL    HW132369   2.643   0.487   8.168 -0.1223  1.9176 -1.1595
 6970SOL    HW232370   2.763   0.427   8.235 -1.4699  0.0476  0.0636
 6971SOL     OW32371   2.182   4.286   3.070 -0.1860 -0.5396 -0.3993
 6971SOL    HW132372   2.247   4.324   3.010 -0.7008  0.1589 -0.5217
 6971SOL    HW232373   2.148   4.362   3.117  3.6692  1.7177 -1.1795
 6972SOL     OW32374   2.301   1.752   4.614  0.1313  0.1452  0.0711
 6972SOL    HW132375   2.307   1.846   4.594 -0.7692  0.3213  0.5922
 6972SOL    HW232376   2.339   1.743   4.702 -2.4973  1.0333  1.3231
 6973SOL     OW32377   4.553   1.101  13.752 -0.6967 -0.0190  0.2682
 6973SOL    HW132378   4.523   1.019  13.713 -0.0189  0.0841 -0.4652
 6973SOL    HW232379   4.476   1.139  13.796 -0.2528  2.3979 -1.0720
 6974SOL     OW32380   2.180   3.024   4.194 -0.1294  0.1580 -0.5932
 6974SOL    HW132381   2.156   2.971   4.270 -0.6646  1.7129  0.3150
 6974SOL    HW232382   2.117   3.014   4.122 -1.0732  0.0476  0.2548
 6975SOL     OW32383   1.626   0.393   4.273 -0.2487 -0.1826  0.0799
 6975SOL    HW132384   1.612   0.452   4.199  0.0016 -1.5181 -1.0384
 6975SOL    HW232385   1.579   0.441   4.342 -2.2480  1.1086 -2.1745
 6976SOL     OW32386   3.982   0.497   8.737  0.4895  0.1597 -0.3521
 6976SOL    HW132387   4.071   0.468   8.758 -0.1421 -1.4923  0.0494
 6976SOL    HW232388   3.967   0.449   8.655  0.8520  2.3690 -1.7157
 6977SOL     OW32389   3.597   2.066   5.071 -0.1475  0.1950 -0.3402
 6977SOL    HW132390   3.692   2.074   5.060 -0.3124 -0.1089 -1.8917
 6977SOL    HW232391   3.572   2.011   4.997  0.6375 -0.9618  0.2488
 6978SOL     OW32392   3.347   1.237  14.846 -0.8097 -0.2868  0.1768
 6978SOL    HW132393   3.313   1.291  14.774  1.5661 -2.2443 -2.4048
 6978SOL    HW232394   3.280   1.259  14.911  0.1677  6.1947 -0.9332
 6979SOL     OW32395   2.063   2.828   3.970 -0.3069 -0.0620  0.1657
 6979SOL    HW132396   2.027   2.915   3.955  1.7198  1.1232  2.1745
 6979SOL    HW232397   2.088   2.815   3.878 -2.2099  0.7207 -0.4474
 6980SOL     OW32398   2.211   3.266   2.785 -0.3134 -0.8500 -0.5038
 6980SOL    HW132399   2.235   3.355   2.758 -0.6727 -0.4044  0.6114
 6980SOL    HW232400   2.280   3.242   2.847 -1.5362 -1.4078  0.6504
 6981SOL     OW32401   4.160   0.481   7.768  0.2914  0.0662 -0.3693
 6981SOL    HW132402   4.166   0.561   7.821 -0.7637 -0.0342 -0.1014
 6981SOL    HW232403   4.126   0.414   7.827  2.4735  0.0107  0.8087
 6982SOL     OW32404   4.513   2.629   3.715 -0.3369 -0.8667 -0.5592
 6982SOL    HW132405   4.539   2.617   3.624  1.6295 -0.0635 -0.1140
 6982SOL    HW232406   4.472   2.715   3.711 -0.6359 -0.9934 -0.2188
 6983SOL     OW32407   0.816   4.287  12.295  0.1588  0.1299  0.6419
 6983SOL    HW132408   0.864   4.347  12.352  0.0553  1.6384 -0.8581
 6983SOL    HW232409   0.868   4.212  12.324  0.8821  1.0779  1.8122
 6984SOL     OW32410   2.485   1.146  12.485 -0.6143 -0.4470  1.0022
 6984SOL    HW132411   2.478   1.143  12.389  3.4662 -0.8748  0.7364
 6984SOL    HW232412   2.471   1.056  12.513 -1.0882 -0.6197  0.2339
 6985SOL     OW32413   3.601   0.723   6.483 -0.3512  0.0069 -0.1629
 6985SOL    HW132414   3.603   0.630   6.505 -0.0132  0.2236  0.7065
 6985SOL    HW232415   3.567   0.757   6.565  0.4566  1.0551 -0.2719
 6986SOL     OW32416   2.021   0.762   0.704 -0.3211  1.0148 -0.0685
 6986SOL    HW132417   2.092   0.699   0.716 -1.4240 -0.5451 -1.7320
 6986SOL    HW232418   2.068   0.840   0.732 -0.3825  1.9671 -2.6381
 6987SOL     OW32419   2.895   2.774   6.712  0.0494 -0.0033 -0.8124
 6987SOL    HW132420   2.915   2.741   6.625 -0.4636  0.6998 -1.1987
 6987SOL    HW232421   2.888   2.868   6.693 -1.7051 -0.0233 -0.3479
 6988SOL     OW32422   3.903   4.453   7.302  0.2078 -0.6246 -0.4263
 6988SOL    HW132423   3.985   4.433   7.347  0.4034  1.4672  0.1741
 6988SOL    HW232424   3.922   4.459   7.208 -2.0395 -0.3788 -0.8557
 6989SOL     OW32425   0.643   1.210  11.387 -0.3677  0.3988 -0.2848
 6989SOL    HW132426   0.638   1.179  11.478  2.1277 -0.0503 -0.2888
 6989SOL    HW232427   0.726   1.259  11.388 -0.2614  0.2044  0.2139
 6990SOL     OW32428   2.641   4.170   9.274 -0.4055  0.1049 -0.1296
 6990SOL    HW132429   2.559   4.163   9.322 -0.3254 -2.1368 -0.3214
 6990SOL    HW232430   2.704   4.176   9.347  0.6728 -0.8267 -0.9870
 6991SOL     OW32431   0.185   1.723   3.616 -0.3030  0.3601 -0.1752
 6991SOL    HW132432   0.109   1.773   3.586 -1.4588 -1.4400 -0.2300
 6991SOL    HW232433   0.225   1.694   3.534  1.4185 -0.5941  1.0282
 6992SOL     OW32434   0.598   4.430   8.104  0.4352 -0.1084  0.5655
 6992SOL    HW132435   0.570   4.470   8.021  0.6628 -1.9019 -0.3680
 6992SOL    HW232436   0.598   4.504   8.164  1.2225  0.2965  0.0694
 6993SOL     OW32437   3.213   1.928   9.721  0.0024 -0.1211  0.0903
 6993SOL    HW132438   3.261   1.961   9.645 -0.9803 -1.9913 -1.3616
 6993SOL    HW232439   3.208   1.835   9.699 -3.2444  0.5739 -2.2330
 6994SOL     OW32440   4.579   4.348   0.968  0.1076 -0.2635  0.0254
 6994SOL    HW132441   4.575   4.259   1.002  0.7705 -0.5944 -0.7796
 6994SOL    HW232442   4.638   4.332   0.895  0.8432 -0.4492  0.6572
 6995SOL     OW32443   0.393   1.105   7.491  0.1069 -0.2851  0.3835
 6995SOL    HW132444   0.379   1.032   7.430 -0.7693 -1.1303  1.6012
 6995SOL    HW232445   0.305   1.142   7.503  0.8980  1.9411 -0.7055
 6996SOL     OW32446   0.883   1.563   8.932  0.6051  0.1965  0.5473
 6996SOL    HW132447   0.822   1.636   8.921  0.7876  0.3718  0.6917
 6996SOL    HW232448   0.956   1.608   8.889 -1.9622  3.5617 -0.3242
 6997SOL     OW32449   4.375   1.664   5.507  0.3263  0.3104 -0.0514
 6997SOL    HW132450   4.458   1.711   5.504  0.2068  0.4772 -0.8806
 6997SOL    HW232451   4.403   1.576   5.533  0.9729  0.0045 -1.8033
 6998SOL     OW32452   4.669   2.021  10.911 -0.4577  0.0952 -0.0691
 6998SOL    HW132453   4.594   2.076  10.934  0.7790  2.2957 -1.3894
 6998SOL    HW232454   4.662   1.937  10.956 -0.0022 -0.6393 -1.3877
 6999SOL     OW32455   1.975   4.362   4.282 -0.2710 -0.2354 -0.2399
 6999SOL    HW132456   2.010   4.290   4.230  0.6095  1.2348 -1.7058
 6999SOL    HW232457   1.945   4.314   4.359 -2.1232 -0.4664 -1.1088
 7000SOL     OW32458   2.246   1.031  15.289  0.0987 -0.9104 -0.5267
 7000SOL    HW132459   2.240   1.120  15.324  2.2296 -1.0209  0.1242
 7000SOL    HW232460   2.287   1.000  15.370 -0.6701 -0.5038  0.0206
 7001SOL     OW32461   0.302   1.757   9.173  0.1529 -0.1902  0.0498
 7001SOL    HW132462   0.312   1.822   9.243  3.4032 -1.7124  1.0076
 7001SOL    HW232463   0.267   1.682   9.222 -2.1395  1.6348  1.2069
 7002SOL     OW32464   3.018   3.773   5.994  0.2948  0.0728  0.2767
 7002SOL    HW132465   3.111   3.777   6.014  0.6778 -4.2190 -0.7632
 7002SOL    HW232466   2.990   3.725   6.072 -0.5905 -0.2940 -0.2577
 7003SOL     OW32467   3.532   2.856   0.699  0.0325  0.4170 -0.5168
 7003SOL    HW132468   3.572   2.777   0.663  1.3479  0.7684  0.1452
 7003SOL    HW232469   3.493   2.903   0.626  0.6310  2.2549  0.3397
 7004SOL     OW32470   1.821   2.831  12.102 -0.0866 -0.1585 -0.1875
 7004SOL    HW132471   1.751   2.786  12.054  0.1867  0.2231 -0.9545
 7004SOL    HW232472   1.825   2.799  12.192 -2.0557 -0.3072 -0.1499
 7005SOL     OW32473   0.886   0.255  11.044 -0.3744 -0.3477 -0.0621
 7005SOL    HW132474   0.932   0.179  11.080  2.0330  1.4391  0.5917
 7005SOL    HW232475   0.927   0.259  10.958 -1.3786 -1.8217 -0.6179
 7006SOL     OW32476   0.627   4.426  17.287  0.7221  0.1069 -0.3764
 7006SOL    HW132477   0.593   4.350  17.332  0.2948  1.7745  2.1243
 7006SOL    HW232478   0.706   4.443  17.339  1.0624 -1.0019 -0.5313
 7007SOL     OW32479   3.604   1.872   2.797  0.7631  0.0570  0.0011
 7007SOL    HW132480   3.592   1.778   2.780 -3.2020  1.1666 -3.0893
 7007SOL    HW232481   3.537   1.876   2.865  0.1282 -1.5660 -0.5409
 7008SOL     OW32482   3.149   3.249  11.923 -0.1861 -0.8054 -0.4844
 7008SOL    HW132483   3.211   3.274  11.855 -0.3969  0.3085 -0.2594
 7008SOL    HW232484   3.104   3.332  11.938  0.3934 -0.2796 -1.6816
 7009SOL     OW32485   3.947   2.024  10.073  0.1030  0.5065 -0.1866
 7009SOL    HW132486   3.866   2.039  10.122  0.7965  2.4004  0.4065
 7009SOL    HW232487   4.001   2.025  10.152  0.3221  1.3343 -0.3396
 7010SOL     OW32488   1.670   1.013   9.854 -0.2796  0.3272 -1.0311
 7010SOL    HW132489   1.582   1.006   9.892  0.4080  0.6494  0.5926
 7010SOL    HW232490   1.686   1.106   9.865  2.0960 -0.0745 -1.1120
 7011SOL     OW32491   0.553   4.519   4.518  0.3025 -0.0397  0.1203
 7011SOL    HW132492   0.532   4.539   4.426  0.1180  0.2623  0.2260
 7011SOL    HW232493   0.573   4.426   4.515 -0.9202 -0.3836  2.4928
 7012SOL     OW32494   1.892   1.514   5.780  0.2204  0.1014 -0.0525
 7012SOL    HW132495   1.819   1.569   5.808  0.2837 -0.5392  1.3615
 7012SOL    HW232496   1.902   1.453   5.852  1.0550  0.0238 -0.2338
 7013SOL     OW32497   0.203   3.613  12.478  0.2884  0.5135  0.3178
 7013SOL    HW132498   0.274   3.673  12.456  1.3950 -0.8607  0.1255
 7013SOL    HW232499   0.158   3.602  12.394  0.9300 -0.5772  0.1150
 7014SOL     OW32500   2.226   1.872   1.039 -0.0858  0.4524  0.4147
 7014SOL    HW132501   2.195   1.782   1.026  4.6384 -1.1281  0.1600
 7014SOL    HW232502   2.295   1.849   1.102  2.0424 -0.7308 -2.3806
 7015SOL     OW32503   2.540   0.334   5.835  0.2027  0.2103  0.0530
 7015SOL    HW132504   2.496   0.414   5.863  1.7805  0.9528  0.4037
 7015SOL    HW232505   2.474   0.297   5.777  0.7489 -0.5190 -0.0970
 7016SOL     OW32506   2.335   0.243   2.455  0.3814 -0.0258 -1.0344
 7016SOL    HW132507   2.325   0.149   2.436  1.2187 -0.3706  0.2569
 7016SOL    HW232508   2.421   0.242   2.497  0.1551 -1.1231 -0.5810
 7017SOL     OW32509   2.197   3.085   9.700  0.7364 -0.2856  0.3614
 7017SOL    HW132510   2.186   3.161   9.757 -0.0821 -0.2908  0.2054
 7017SOL    HW232511   2.282   3.111   9.664 -0.1024  1.0095 -0.7192
 7018SOL     OW32512   1.073   1.481  14.900 -0.1152 -0.1511  0.0062
 7018SOL    HW132513   1.089   1.400  14.851  0.4494 -0.0334 -0.0039
 7018SOL    HW232514   1.161   1.495  14.934  0.2288  1.4199 -1.5360
 7019SOL     OW32515   2.175   0.462   2.793 -0.5498  0.2097 -0.7274
 7019SOL    HW132516   2.258   0.507   2.810 -0.8981  0.1925  1.0208
 7019SOL    HW232517   2.183   0.426   2.705 -0.4828  0.5674 -0.8658
 7020SOL     OW32518   0.347   2.787   4.453  0.7358  0.8448 -0.4781
 7020SOL    HW132519   0.405   2.812   4.525 -1.0906 -0.8695  1.5951
 7020SOL    HW232520   0.410   2.795   4.382  0.9502 -0.4877 -0.4395
 7021SOL     OW32521   4.157   2.578   1.318 -0.9524  0.1790  0.2049
 7021SOL    HW132522   4.130   2.500   1.271  1.6014 -1.8748  2.1784
 7021SOL    HW232523   4.153   2.646   1.250 -1.0068 -1.2408 -1.1906
 7022SOL     OW32524   0.120   0.217   8.136 -0.1133  0.4302 -0.1899
 7022SOL    HW132525   0.074   0.157   8.078  0.1404  0.8060 -0.7762
 7022SOL    HW232526   0.212   0.194   8.121 -0.0504 -0.1733  1.0753
 7023SOL     OW32527   3.226   1.155   4.818 -0.3752  0.2578 -0.0922
 7023SOL    HW132528   3.259   1.231   4.771  0.2333  0.1721  0.2013
 7023SOL    HW232529   3.171   1.196   4.885  1.9805  1.4654  1.1175
 7024SOL     OW32530   0.037   2.600   2.582  0.0437 -0.0836 -0.6150
 7024SOL    HW132531   4.709   2.520   2.598  0.6436 -0.2092  0.5839
 7024SOL    HW232532   0.112   2.552   2.548 -0.1275 -0.0497 -1.0425
 7025SOL     OW32533   2.222   1.239   8.829  0.3349 -0.1332  0.4870
 7025SOL    HW132534   2.225   1.323   8.782  0.8642 -0.4758 -0.0830
 7025SOL    HW232535   2.192   1.270   8.914 -0.5229 -0.7844  0.4134
 7026SOL     OW32536   2.391   4.465   1.229 -0.2989  0.0490  0.5477
 7026SOL    HW132537   2.484   4.490   1.223 -0.0027 -1.4653 -1.3024
 7026SOL    HW232538   2.345   4.548   1.218 -1.1553 -0.6230 -0.9507
 7027SOL     OW32539   2.557   2.799   2.588 -0.3330 -0.4175 -0.3144
 7027SOL    HW132540   2.467   2.776   2.612  0.2310 -3.4906 -1.2289
 7027SOL    HW232541   2.609   2.806   2.668 -1.5935  0.3319  0.4391
 7028SOL     OW32542   3.964   2.855  11.822 -0.2418 -0.3552 -0.2815
 7028SOL    HW132543   4.051   2.892  11.837 -0.5823  1.3218 -2.3881
 7028SOL    HW232544   3.970   2.780  11.881  1.8984  0.6483  0.7862
 7029SOL     OW32545   3.870   1.116  11.154  0.3869  0.4317 -0.6389
 7029SOL    HW132546   3.923   1.125  11.075 -0.1878  0.0344 -1.0722
 7029SOL    HW232547   3.910   1.192  11.195 -0.0078  0.3715 -0.1341
 7030SOL     OW32548   4.198   0.488   6.308  0.3164 -0.3938 -0.4124
 7030SOL    HW132549   4.230   0.403   6.339 -0.3948 -0.1645  0.9700
 7030SOL    HW232550   4.270   0.550   6.322  1.5426 -2.1565  1.0846
 7031SOL     OW32551   4.156   0.864   6.820 -0.4086  0.3940  0.7833
 7031SOL    HW132552   4.204   0.932   6.868 -1.1678  1.5403 -0.0716
 7031SOL    HW232553   4.074   0.856   6.868 -0.0722 -4.1054  0.5899
 7032SOL     OW32554   0.642   4.471  10.124 -0.2861  0.2791  0.0535
 7032SOL    HW132555   0.592   4.467  10.206 -2.4200 -2.3188 -1.3816
 7032SOL    HW232556   0.729   4.497  10.153 -1.2289  0.9592  2.2744
 7033SOL     OW32557   0.144   2.060   3.150 -0.8930  0.2747  0.2478
 7033SOL    HW132558   0.093   1.988   3.113 -1.0194 -0.5326  2.0033
 7033SOL    HW232559   0.122   2.132   3.090  3.4965  1.4786  0.0502
 7034SOL     OW32560   1.139   0.516   1.695 -0.0423 -0.6490  0.2098
 7034SOL    HW132561   1.060   0.483   1.651 -0.2636  0.2405 -0.0641
 7034SOL    HW232562   1.094   0.599   1.711 -1.0866 -1.5881  2.1786
 7035SOL     OW32563   0.914   3.605  13.711  0.0880  0.4028  0.2978
 7035SOL    HW132564   0.927   3.574  13.801 -0.6440 -0.4844  0.0946
 7035SOL    HW232565   0.984   3.668  13.693  0.2246 -0.2776 -1.5740
 7036SOL     OW32566   2.446   3.437   1.854  0.1596  0.7008  0.3628
 7036SOL    HW132567   2.423   3.349   1.827  0.0351  0.8485 -0.0066
 7036SOL    HW232568   2.470   3.427   1.946 -0.2430 -2.2987  0.1128
 7037SOL     OW32569   0.792   3.202   8.260  0.1413  0.5737 -0.1327
 7037SOL    HW132570   0.800   3.137   8.329  0.4740 -0.0900 -0.7984
 7037SOL    HW232571   0.883   3.232   8.253 -0.0874  0.6458 -2.6978
 7038SOL     OW32572   3.808   4.360   2.772  0.4162  0.6617 -0.4958
 7038SOL    HW132573   3.872   4.428   2.791 -0.3075  1.1961  0.0079
 7038SOL    HW232574   3.761   4.415   2.710  0.3571 -0.8214 -1.7624
 7039SOL     OW32575   3.020   1.749   2.829  0.0235  0.4449  0.3077
 7039SOL    HW132576   3.039   1.840   2.809 -0.2663  0.5629  0.5779
 7039SOL    HW232577   3.044   1.704   2.747 -0.7371 -1.2257  0.9919
 7040SOL     OW32578   3.472   2.796   3.416 -0.3311 -0.3850  0.3624
 7040SOL    HW132579   3.563   2.799   3.387 -0.0207 -1.9575  1.1563
 7040SOL    HW232580   3.485   2.792   3.511 -0.0991 -1.4913  0.2889
 7041SOL     OW32581   2.588   2.534   3.099 -0.3083 -0.2812  0.5845
 7041SOL    HW132582   2.614   2.444   3.122  1.2515 -0.0835 -0.3880
 7041SOL    HW232583   2.659   2.583   3.141 -0.8827  1.5615 -0.6249
 7042SOL     OW32584   1.202   4.145   9.698 -0.0729 -0.3190  0.2593
 7042SOL    HW132585   1.229   4.173   9.610  0.4335  0.3952  0.6392
 7042SOL    HW232586   1.108   4.129   9.688 -0.4343  3.0424 -1.7768
 7043SOL     OW32587   2.429   4.604   4.602 -0.0568 -0.5651 -0.0797
 7043SOL    HW132588   2.469   4.605   4.515 -1.6862  1.5781 -0.7909
 7043SOL    HW232589   2.379   4.685   4.599  1.4800  0.4109  0.1973
 7044SOL     OW32590   4.300   2.799   9.356 -0.2742  0.4575  0.3870
 7044SOL    HW132591   4.338   2.870   9.304 -1.7003  0.7868 -0.2069
 7044SOL    HW232592   4.361   2.792   9.429  1.5082  1.0598 -1.0629
 7045SOL     OW32593   1.961   4.409  11.156 -0.7312  0.1248 -0.0432
 7045SOL    HW132594   1.957   4.325  11.111 -3.2257 -2.3125  4.6715
 7045SOL    HW232595   2.038   4.456  11.125  0.9752 -2.1709  0.6684
 7046SOL     OW32596   0.305   0.959   8.588  0.1105 -0.0699  0.2470
 7046SOL    HW132597   0.380   0.901   8.590  0.4137  0.2950 -0.3702
 7046SOL    HW232598   0.252   0.883   8.563 -1.8867  1.0540  1.0366
 7047SOL     OW32599   2.208   0.308   5.990  0.5299  0.7874  0.0182
 7047SOL    HW132600   2.192   0.312   6.085  0.4887  0.2650  0.0328
 7047SOL    HW232601   2.126   0.341   5.956 -1.3050 -2.7504  1.0332
 7048SOL     OW32602   0.916   1.827   2.202  0.0588  0.2202 -0.3606
 7048SOL    HW132603   0.846   1.816   2.138 -1.4350 -1.2544  1.5201
 7048SOL    HW232604   0.889   1.757   2.261 -2.0061  1.2628 -0.0574
 7049SOL     OW32605   3.650   0.476   3.566  0.0867 -0.2583  0.3108
 7049SOL    HW132606   3.650   0.434   3.480  0.5270  1.0684 -0.3389
 7049SOL    HW232607   3.651   0.410   3.636 -1.6413  0.8643  1.4053
 7050SOL     OW32608   1.811   3.850  11.993  0.7380  0.7935 -0.2059
 7050SOL    HW132609   1.815   3.926  12.050 -3.2598  0.6714  0.2645
 7050SOL    HW232610   1.869   3.881  11.923  0.0583 -0.0890 -1.1620
 7051SOL     OW32611   2.588   4.400   4.145  0.2317 -0.4046 -0.4934
 7051SOL    HW132612   2.676   4.390   4.183  0.0888  0.2603  0.0323
 7051SOL    HW232613   2.599   4.443   4.060  1.4467 -1.1193 -0.6934
 7052SOL     OW32614   2.918   0.635  10.739 -0.6722 -0.4124 -0.4981
 7052SOL    HW132615   2.863   0.689  10.682  0.0320  1.5996  0.7301
 7052SOL    HW232616   2.994   0.691  10.753  0.4401 -2.2994  0.9310
 7053SOL     OW32617   4.011   2.549   8.640 -0.3153  0.4410 -0.1013
 7053SOL    HW132618   4.014   2.520   8.731 -1.4097  0.4978 -0.0539
 7053SOL    HW232619   3.942   2.615   8.639 -1.9662 -1.3289 -3.0555
 7054SOL     OW32620   2.074   3.461   1.523 -0.7295 -1.1619  0.2588
 7054SOL    HW132621   2.114   3.467   1.436 -0.2156  0.3921  0.6113
 7054SOL    HW232622   1.982   3.446   1.500 -0.4942 -1.6908 -0.3503
 7055SOL     OW32623   2.683   2.856   8.955  0.5235 -0.4618 -0.1116
 7055SOL    HW132624   2.597   2.889   8.981 -0.6732 -1.7396 -2.4339
 7055SOL    HW232625   2.698   2.775   9.004  2.0505  0.5162  1.0502
 7056SOL     OW32626   1.878   2.000   1.068  0.6269 -0.0673  0.0185
 7056SOL    HW132627   1.872   1.913   1.029  1.1821  0.5577 -1.4628
 7056SOL    HW232628   1.904   2.057   0.995 -0.6846  1.0009  0.3809
 7057SOL     OW32629   4.613   1.467   4.551  0.3487 -0.7867 -0.6596
 7057SOL    HW132630   4.629   1.536   4.615 -0.4813 -1.9725  0.8080
 7057SOL    HW232631   4.600   1.514   4.468  0.2916 -0.2005 -0.3132
 7058SOL     OW32632   0.570   3.742   6.166  0.3936  0.2318 -0.4720
 7058SOL    HW132633   0.613   3.714   6.086 -0.6072  1.8775 -1.5924
 7058SOL    HW232634   0.601   3.675   6.227  0.5059  0.6901 -0.0170
 7059SOL     OW32635   0.153   2.758   5.658  0.1765  0.0827  0.3645
 7059SOL    HW132636   0.103   2.684   5.693 -2.2448  1.0828 -0.9501
 7059SOL    HW232637   0.223   2.763   5.722 -0.8315  0.4090  1.4527
 7060SOL     OW32638   2.064   2.761  11.521 -0.3875  0.3573 -0.1029
 7060SOL    HW132639   2.085   2.700  11.592  0.9832 -1.1805 -1.8097
 7060SOL    HW232640   2.118   2.716  11.456  0.9866 -0.4530  1.6025
 7061SOL     OW32641   3.965   0.062   2.478 -0.4581 -0.0865 -0.3798
 7061SOL    HW132642   3.960   0.005   2.402 -0.8979  1.7859 -1.7589
 7061SOL    HW232643   4.054   0.095   2.463  0.0636 -1.7007 -0.7742
 7062SOL     OW32644   0.128   4.518   0.904  0.8326  0.0859  0.0333
 7062SOL    HW132645   0.168   4.556   0.825 -0.7417 -0.1984 -0.8904
 7062SOL    HW232646   0.084   4.445   0.861 -0.3970  2.3173 -2.5106
 7063SOL     OW32647   3.102   1.243   4.515 -0.6543  0.5228 -0.4199
 7063SOL    HW132648   3.063   1.275   4.597 -2.0001  0.6401 -1.1120
 7063SOL    HW232649   3.193   1.231   4.543 -0.3224 -1.0217 -2.2014
 7064SOL     OW32650   0.527   3.717   8.665 -0.0227  0.1605  0.0122
 7064SOL    HW132651   0.514   3.812   8.663 -0.0071  0.1507 -0.6040
 7064SOL    HW232652   0.467   3.686   8.733  0.2483 -1.4544 -0.4752
 7065SOL     OW32653   1.101   4.645   4.061  0.1224  0.3127 -0.0070
 7065SOL    HW132654   1.183   4.658   4.015 -0.6322 -1.4397 -1.8360
 7065SOL    HW232655   1.062   0.011   4.047  1.4273  0.5465 -2.1222
 7066SOL     OW32656   1.139   0.545   8.306 -0.1927  0.6962 -0.3847
 7066SOL    HW132657   1.228   0.551   8.340  0.1496  0.3783 -1.2330
 7066SOL    HW232658   1.121   0.451   8.298  1.5687  0.3602 -0.3635
 7067SOL     OW32659   4.294   2.445   8.326 -0.4486  0.4854  0.1925
 7067SOL    HW132660   4.303   2.363   8.376 -1.8608  2.3282  3.4565
 7067SOL    HW232661   4.248   2.498   8.391  0.3849 -0.0065  1.2007
 7068SOL     OW32662   3.295   2.559  10.004  0.8691  0.0407 -0.2385
 7068SOL    HW132663   3.203   2.562  10.029  1.3152 -0.2573  1.4525
 7068SOL    HW232664   3.335   2.594  10.084  0.3175 -1.2296  0.6021
 7069SOL     OW32665   1.444   1.436  16.676  0.0008  0.1588  0.4856
 7069SOL    HW132666   1.494   1.513  16.648  1.0642 -1.3022 -1.6255
 7069SOL    HW232667   1.381   1.416  16.608  0.5519 -1.6638  0.5180
 7070SOL     OW32668   2.835   4.431   6.219 -0.0863  0.3158  0.6076
 7070SOL    HW132669   2.920   4.451   6.258  0.0692  0.5302  0.1604
 7070SOL    HW232670   2.784   4.505   6.251 -2.1298 -0.9968  0.3395
 7071SOL     OW32671   2.958   1.313   6.074 -0.4057 -0.5427  0.0760
 7071SOL    HW132672   2.924   1.281   5.990  0.7722  0.1483 -0.6528
 7071SOL    HW232673   2.889   1.269   6.124  0.5506 -1.9240  0.1816
 7072SOL     OW32674   3.525   3.834   5.439 -0.2037 -0.1234 -0.4661
 7072SOL    HW132675   3.441   3.787   5.440  0.1471 -0.7191  1.2355
 7072SOL    HW232676   3.522   3.902   5.372 -2.7092  0.0848 -0.1417
 7073SOL     OW32677   1.545   0.746   1.816 -0.2246  0.1821  0.0014
 7073SOL    HW132678   1.562   0.696   1.737  0.6501 -0.2103  0.4371
 7073SOL    HW232679   1.450   0.754   1.810 -0.2632  0.5698  1.0972
 7074SOL     OW32680   1.810   0.152   1.726 -0.6014  0.3295 -0.0746
 7074SOL    HW132681   1.842   0.242   1.719 -0.4142  0.1686 -1.2654
 7074SOL    HW232682   1.715   0.164   1.720 -0.6364 -0.6673 -1.3159
 7075SOL     OW32683   3.251   3.331  11.687  0.2100  0.6355  0.6722
 7075SOL    HW132684   3.166   3.356  11.649 -0.5181 -3.6594 -0.5074
 7075SOL    HW232685   3.302   3.410  11.667 -2.1573  1.5177 -1.9516
 7076SOL     OW32686   2.707   2.169   0.478  0.5935 -0.2432  0.2414
 7076SOL    HW132687   2.755   2.247   0.450 -1.6779  1.8535  2.2274
 7076SOL    HW232688   2.671   2.211   0.556  0.7233 -0.3823  0.3781
 7077SOL     OW32689   4.683   0.839  17.174 -0.0595  0.4195 -0.3422
 7077SOL    HW132690   4.674   0.912  17.112 -1.7945  1.9260  1.6614
 7077SOL    HW232691   4.629   0.768  17.140 -0.6987  1.5684 -1.7735
 7078SOL     OW32692   1.865   2.913   2.954 -0.3622  0.8573  0.3645
 7078SOL    HW132693   1.830   2.858   2.883  0.0784 -1.1827  1.7093
 7078SOL    HW232694   1.960   2.904   2.950 -0.4062  0.5641 -0.0095
 7079SOL     OW32695   4.319   3.219   9.842  0.1656  0.5602  0.0285
 7079SOL    HW132696   4.275   3.303   9.828 -0.2959  0.0328 -1.6198
 7079SOL    HW232697   4.247   3.166   9.876 -0.3961 -0.3080 -2.5252
 7080SOL     OW32698   3.387   4.686   8.648 -0.1755  0.8420 -0.0327
 7080SOL    HW132699   3.433   0.013   8.579 -0.4617 -1.5624 -1.8759
 7080SOL    HW232700   3.304   4.662   8.606  0.4095 -1.4730  0.1636
 7081SOL     OW32701   4.015   2.736  15.478  0.8329 -0.3209  0.0505
 7081SOL    HW132702   3.989   2.759  15.388  0.5598  1.6781  0.6378
 7081SOL    HW232703   4.073   2.661  15.470  0.8980 -0.3883  1.1543
 7082SOL     OW32704   0.614   4.253  10.450  0.1687  0.7063  0.1579
 7082SOL    HW132705   0.557   4.217  10.517  0.6962 -0.1765  0.1271
 7082SOL    HW232706   0.572   4.333  10.419  0.9128  1.0108 -0.0849
 7083SOL     OW32707   4.460   2.376  16.102  0.4476  0.2295 -0.0611
 7083SOL    HW132708   4.427   2.457  16.140  1.7577  2.2126 -3.1023
 7083SOL    HW232709   4.515   2.413  16.033 -0.4804  0.2897 -0.7651
 7084SOL     OW32710   4.268   3.596   2.705  0.1337  0.4746 -0.0984
 7084SOL    HW132711   4.225   3.609   2.620  0.4004  2.0802  0.0034
 7084SOL    HW232712   4.244   3.683   2.737 -0.7678 -1.1250  3.5982
 7085SOL     OW32713   4.233   4.675   8.855 -0.3591 -0.5163 -0.2728
 7085SOL    HW132714   4.315   4.628   8.867 -0.4650 -1.3194 -2.6587
 7085SOL    HW232715   4.194   4.673   8.942 -0.3488 -2.9479 -0.3381
 7086SOL     OW32716   2.042   0.035   6.988 -0.6602  0.3195 -0.1505
 7086SOL    HW132717   2.112   4.706   6.948  0.2465  1.2633  0.2293
 7086SOL    HW232718   1.979   0.044   6.916  0.0250 -0.1782 -0.8052
 7087SOL     OW32719   4.240   3.033   4.842  0.5782  0.0128 -0.0896
 7087SOL    HW132720   4.310   2.996   4.896  0.6089 -0.2859 -0.3373
 7087SOL    HW232721   4.176   2.963   4.831  0.2850  0.0715  1.2387
 7088SOL     OW32722   2.752   2.168   0.825  0.1720  0.0677 -0.3759
 7088SOL    HW132723   2.739   2.262   0.813 -1.3047  0.2147  2.6228
 7088SOL    HW232724   2.804   2.147   0.747 -1.3309 -0.7301 -1.1548
 7089SOL     OW32725   2.730   1.235   6.212 -0.3812  0.1185 -0.1682
 7089SOL    HW132726   2.650   1.204   6.255  0.5301 -1.6249  0.2672
 7089SOL    HW232727   2.686   1.299   6.157 -0.5117 -1.8287 -2.3575
 7090SOL     OW32728   3.922   0.866   4.422  0.6112  0.0754  0.3990
 7090SOL    HW132729   3.863   0.903   4.487 -0.0688  0.0454 -0.2063
 7090SOL    HW232730   3.952   0.945   4.376  3.1070 -1.8511 -1.2861
 7091SOL     OW32731   4.388   4.471  15.281  0.2863 -0.0874  0.2647
 7091SOL    HW132732   4.320   4.406  15.301  0.0014 -0.0441 -0.5659
 7091SOL    HW232733   4.425   4.426  15.205  1.0392 -0.6559  0.9656
 7092SOL     OW32734   2.320   1.653   2.748  0.3111 -0.1600  0.0488
 7092SOL    HW132735   2.337   1.585   2.683  1.3951 -2.5927  2.9284
 7092SOL    HW232736   2.270   1.708   2.687  0.7580  3.2120  2.7146
 7093SOL     OW32737   4.668   2.539   9.420 -0.4578 -0.2307 -0.4483
 7093SOL    HW132738   4.663   2.504   9.509 -0.5893  0.8885 -0.0150
 7093SOL    HW232739   4.625   2.478   9.360 -0.3736  0.3153 -1.0519
 7094SOL     OW32740   0.522   1.448   6.432 -0.6330 -0.2730  0.1771
 7094SOL    HW132741   0.559   1.472   6.347 -3.8700  0.8608 -0.9185
 7094SOL    HW232742   0.576   1.496   6.495 -0.8867 -0.7791  0.7754
 7095SOL     OW32743   3.836   2.943   9.031  0.0279 -0.0758 -0.1062
 7095SOL    HW132744   3.870   2.921   9.118 -1.3179  1.1671  0.7310
 7095SOL    HW232745   3.901   3.009   9.004 -0.0785  0.0624 -0.0225
 7096SOL     OW32746   1.665   2.136   7.521 -0.4224  0.0365 -0.3208
 7096SOL    HW132747   1.699   2.064   7.468 -0.1850  1.0362 -1.5154
 7096SOL    HW232748   1.724   2.124   7.596  0.5496 -2.7129 -1.5435
 7097SOL     OW32749   1.181   0.774   5.855  0.1127  0.4867  0.7855
 7097SOL    HW132750   1.275   0.791   5.843 -0.0530 -1.3531 -2.9346
 7097SOL    HW232751   1.156   0.863   5.879  2.8441  1.6422 -0.5752
 7098SOL     OW32752   0.293   1.215  16.632  0.0475  0.0068  0.6647
 7098SOL    HW132753   0.212   1.264  16.645  0.1892  0.2497  0.6465
 7098SOL    HW232754   0.349   1.285  16.666  0.9313 -0.2160 -0.3179
 7099SOL     OW32755   1.140   2.855   9.189 -0.4647  0.4275 -0.1422
 7099SOL    HW132756   1.227   2.866   9.228 -1.5102  0.6924  2.1078
 7099SOL    HW232757   1.111   2.947   9.190  1.2729  0.9777 -0.2279
 7100SOL     OW32758   1.506   3.281   6.285 -0.4767  0.3408  0.0994
 7100SOL    HW132759   1.578   3.231   6.246 -0.3736 -1.2236  2.3162
 7100SOL    HW232760   1.435   3.229   6.248  0.6740 -0.1179 -1.5032
 7101SOL     OW32761   0.007   1.442   7.977  0.0897 -0.5746 -0.0893
 7101SOL    HW132762   0.000   1.517   8.036 -1.8381 -0.0576 -1.0031
 7101SOL    HW232763   0.094   1.447   7.937 -0.4532  0.6369 -1.0638
 7102SOL     OW32764   1.032   3.618   7.273 -0.2889 -0.0329  0.0376
 7102SOL    HW132765   0.986   3.641   7.354  0.2587 -0.3253  0.4356
 7102SOL    HW232766   1.021   3.701   7.227  0.4476 -0.8523 -1.6291
 7103SOL     OW32767   0.253   3.602   0.361  0.2710  0.3795 -0.2208
 7103SOL    HW132768   0.215   3.585   0.447 -0.1708  2.7129  0.0541
 7103SOL    HW232769   0.239   3.696   0.346 -3.1996 -0.2328 -0.7479
 7104SOL     OW32770   0.975   3.840   8.037 -0.5634  0.0851 -0.4510
 7104SOL    HW132771   0.924   3.919   8.020  1.0911  1.7045  2.2266
 7104SOL    HW232772   0.924   3.797   8.106 -1.1890  2.1890  0.3884
 7105SOL     OW32773   1.969   0.471   5.905  0.1903 -0.6975  0.8074
 7105SOL    HW132774   1.904   0.481   5.974 -0.6197 -1.8145  0.1977
 7105SOL    HW232775   1.944   0.386   5.869  0.8590 -0.2949 -0.6284
 7106SOL     OW32776   0.283   0.153  10.559 -0.3869  0.0738  0.0088
 7106SOL    HW132777   0.257   0.088  10.494  0.1836  0.3592 -0.5120
 7106SOL    HW232778   0.252   0.235  10.522 -1.3935 -0.9403 -1.4340
 7107SOL     OW32779   0.694   0.858   3.745  0.0572 -0.6302 -0.0699
 7107SOL    HW132780   0.652   0.911   3.812 -1.3513 -2.0056  0.1468
 7107SOL    HW232781   0.649   0.774   3.749 -0.2292 -0.3232  3.1945
 7108SOL     OW32782   2.333   3.374   4.148  0.2103 -0.0116 -0.3705
 7108SOL    HW132783   2.292   3.334   4.072  1.9707 -0.1346 -1.2494
 7108SOL    HW232784   2.370   3.458   4.120 -1.8284  0.9687 -0.0942
 7109SOL     OW32785   3.700   1.506   4.746 -0.8243  0.4921  0.8680
 7109SOL    HW132786   3.664   1.438   4.688  1.0584  0.8091 -0.6600
 7109SOL    HW232787   3.664   1.585   4.707  0.1697 -0.2955 -1.6711
 7110SOL     OW32788   0.264   0.572   9.178 -0.3387 -0.3202 -0.2001
 7110SOL    HW132789   0.303   0.520   9.108  1.2431 -0.1639  0.5654
 7110SOL    HW232790   0.336   0.580   9.241 -1.1432 -1.4746  0.8712
 7111SOL     OW32791   4.584   2.932  14.808  0.5485  1.0075  0.5380
 7111SOL    HW132792   4.497   2.968  14.788 -0.6823 -1.5811  1.1675
 7111SOL    HW232793   4.590   2.971  14.895  3.3576  0.2406  0.6821
 7112SOL     OW32794   0.470   2.796   8.636 -0.1212  0.0135  0.1764
 7112SOL    HW132795   0.477   2.828   8.726 -1.5542  2.7844 -0.6808
 7112SOL    HW232796   0.382   2.760   8.643 -0.7186  1.0250 -1.9199
 7113SOL     OW32797   1.685   2.746  10.078  0.2451  0.0147 -0.0157
 7113SOL    HW132798   1.671   2.658  10.114 -1.6365  0.3936  0.1855
 7113SOL    HW232799   1.661   2.801  10.152  1.1718 -1.7007  1.5716
 7114SOL     OW32800   2.633   0.644   5.870 -0.0726 -0.0631  0.0969
 7114SOL    HW132801   2.600   0.722   5.825 -0.8254  0.1939  1.0775
 7114SOL    HW232802   2.553   0.620   5.916 -1.0132  0.8905 -1.0338
 7115SOL     OW32803   2.303   1.478   6.592  0.4282 -0.4995 -0.7200
 7115SOL    HW132804   2.253   1.399   6.614  0.9295 -0.7327 -0.4285
 7115SOL    HW232805   2.267   1.502   6.506  0.0417 -0.8019 -0.6419
 7116SOL     OW32806   1.226   0.242   0.496  0.6274  0.5025 -0.0875
 7116SOL    HW132807   1.152   0.224   0.438  1.4773  2.3594 -1.7781
 7116SOL    HW232808   1.224   0.338   0.492  0.4681  0.4727 -0.6876
 7117SOL     OW32809   3.749   1.752   9.876 -0.1216  0.4119 -0.7497
 7117SOL    HW132810   3.665   1.729   9.838 -0.6053 -3.4679  2.6501
 7117SOL    HW232811   3.770   1.830   9.824  0.1897 -0.2131 -1.5562
 7118SOL     OW32812   2.234   2.945   0.603  0.5068 -0.2143 -0.3709
 7118SOL    HW132813   2.251   2.996   0.523  0.0881  1.2439  0.4829
 7118SOL    HW232814   2.258   2.856   0.576 -2.3000 -0.6673 -1.3619
 7119SOL     OW32815   3.138   1.395   3.405 -1.0464  0.0537  0.8430
 7119SOL    HW132816   3.091   1.372   3.325 -2.6239  2.0607  1.2144
 7119SOL    HW232817   3.090   1.331   3.457 -1.7137 -0.4594 -0.3970
 7120SOL     OW32818   0.317   3.488   2.724  0.2209  0.6324 -0.5306
 7120SOL    HW132819   0.256   3.457   2.791  1.4172  1.0727  0.7684
 7120SOL    HW232820   0.263   3.526   2.654 -1.4728  2.4516  1.7589
 7121SOL     OW32821   0.305   2.224   4.983 -0.1641 -0.4674  0.4776
 7121SOL    HW132822   0.395   2.192   4.992 -0.5589 -1.3023  1.3361
 7121SOL    HW232823   0.281   2.157   4.919  1.9536  0.7389 -1.6211
 7122SOL     OW32824   4.369   1.882   3.821  0.0783  0.7754  0.4302
 7122SOL    HW132825   4.317   1.962   3.813  0.5030  1.0747  0.5946
 7122SOL    HW232826   4.450   1.904   3.868  0.7726 -1.5969  0.3108
 7123SOL     OW32827   1.012   4.224   8.562 -0.6444 -0.2830 -0.5932
 7123SOL    HW132828   0.960   4.171   8.623 -1.8171  1.7914  0.1934
 7123SOL    HW232829   0.946   4.289   8.541 -1.2478 -0.5525  0.4770
 7124SOL     OW32830   3.170   3.277  13.230 -0.2333 -0.1867  0.0933
 7124SOL    HW132831   3.128   3.273  13.316  2.1898 -1.9483  1.1941
 7124SOL    HW232832   3.168   3.183  13.211 -1.8062 -0.1210 -0.0700
 7125SOL     OW32833   1.210   0.806   5.430 -0.1483  0.1721 -0.5415
 7125SOL    HW132834   1.268   0.872   5.468 -0.4832  0.2820 -0.2142
 7125SOL    HW232835   1.231   0.814   5.337 -0.0481 -1.8592 -0.6908
 7126SOL     OW32836   3.795   1.567   3.607 -0.5940 -0.6596 -0.3975
 7126SOL    HW132837   3.846   1.611   3.675 -3.2709 -0.7392  1.6714
 7126SOL    HW232838   3.743   1.507   3.660  0.9141 -0.0507  1.7816
 7127SOL     OW32839   1.715   1.038   4.835 -0.2363 -0.1424 -0.4912
 7127SOL    HW132840   1.806   1.035   4.806  0.5211 -0.9444  1.9443
 7127SOL    HW232841   1.716   1.126   4.872  0.3478  0.7351 -2.5952
 7128SOL     OW32842   2.837   3.238  13.706  0.0337 -0.4339 -0.6279
 7128SOL    HW132843   2.907   3.295  13.673 -0.2249 -0.2964 -0.9387
 7128SOL    HW232844   2.780   3.245  13.630  1.4613 -3.0776 -1.9652
 7129SOL     OW32845   0.096   2.477   7.274 -0.1971 -0.5613  0.3267
 7129SOL    HW132846   0.115   2.385   7.290 -2.1496 -1.4978 -2.8388
 7129SOL    HW232847   0.002   2.460   7.279 -1.0032  3.7128  0.1818
 7130SOL     OW32848   1.977   1.537   4.902 -0.0576  0.4453 -0.2011
 7130SOL    HW132849   1.908   1.595   4.935  0.8924  2.1607 -1.1924
 7130SOL    HW232850   2.043   1.556   4.969  1.0833 -0.2231 -1.1320
 7131SOL     OW32851   3.845   1.527  14.524 -0.4493 -0.4041 -0.1987
 7131SOL    HW132852   3.866   1.497  14.612 -0.4486  0.2110  0.0164
 7131SOL    HW232853   3.758   1.490  14.509  0.4114 -2.1214 -0.9181
 7132SOL     OW32854   0.555   1.354   3.635  0.7448 -0.5629  0.0163
 7132SOL    HW132855   0.479   1.342   3.578  0.5934 -1.2685  0.3669
 7132SOL    HW232856   0.600   1.271   3.623  0.9574 -0.2418 -1.3323
 7133SOL     OW32857   0.653   3.955   8.194 -0.2870  0.4041 -0.0652
 7133SOL    HW132858   0.693   3.903   8.264  0.1837  0.1700 -0.5110
 7133SOL    HW232859   0.725   4.011   8.165  0.7763 -0.2083  1.4089
 7134SOL     OW32860   0.008   4.009   4.977 -0.0133  0.3394  0.4092
 7134SOL    HW132861   0.071   4.011   4.906 -1.6542 -1.7097 -1.1161
 7134SOL    HW232862   4.694   4.098   4.970 -0.1230  0.0481 -2.5533
 7135SOL     OW32863   0.756   2.783   7.120  0.1441  0.4539 -0.2106
 7135SOL    HW132864   0.768   2.757   7.212  2.3617  0.9748 -0.3467
 7135SOL    HW232865   0.825   2.733   7.077 -0.8023 -1.0076 -0.0296
 7136SOL     OW32866   3.040   2.523   0.713 -0.1069  0.2513  0.1227
 7136SOL    HW132867   2.972   2.588   0.730 -1.8821 -1.5304 -0.2329
 7136SOL    HW232868   3.067   2.497   0.801 -0.1530 -1.0637 -0.2509
 7137SOL     OW32869   1.863   1.433   7.392  0.2998  0.7135 -0.5331
 7137SOL    HW132870   1.934   1.369   7.389 -0.3369  0.0127 -0.5078
 7137SOL    HW232871   1.782   1.383   7.386 -0.0340  1.2003 -0.1395
 7138SOL     OW32872   3.429   0.772   0.508  0.2772 -0.0731 -0.1026
 7138SOL    HW132873   3.405   0.735   0.593 -2.1404 -1.4669 -1.3799
 7138SOL    HW232874   3.348   0.822   0.499  1.3129  1.9384  1.8018
 7139SOL     OW32875   0.331   3.192  10.077  0.3431  0.0028  0.1378
 7139SOL    HW132876   0.357   3.228  10.162  0.9745 -0.5840  0.1938
 7139SOL    HW232877   0.347   3.098  10.086 -0.8502 -0.2715 -0.6874
 7140SOL     OW32878   2.434   2.433   8.155 -0.0056 -0.6048 -0.6720
 7140SOL    HW132879   2.514   2.485   8.148 -0.8310  0.7683  0.0195
 7140SOL    HW232880   2.371   2.475   8.097  1.1223  0.0190 -1.4391
 7141SOL     OW32881   2.364   3.211  11.712  0.2600  0.2762 -0.0025
 7141SOL    HW132882   2.456   3.234  11.730  0.8064 -1.6761 -0.2930
 7141SOL    HW232883   2.376   3.125  11.672 -0.5876  0.0658  0.2095
 7142SOL     OW32884   0.085   2.425   7.820  0.4978 -0.5065  0.1560
 7142SOL    HW132885   0.066   2.334   7.801 -2.6363  0.1560  0.1294
 7142SOL    HW232886   0.077   2.453   7.729  0.1996  0.4857  0.4899
 7143SOL     OW32887   0.026   4.596  17.610 -0.7012  0.4190  0.1811
 7143SOL    HW132888   0.054   4.524  17.667  0.8999 -1.0700 -2.4734
 7143SOL    HW232889   0.017   4.540  17.533 -0.4346  1.1876 -0.4106
 7144SOL     OW32890   1.297   0.056   5.788 -0.2396  0.1349 -0.1741
 7144SOL    HW132891   1.367   0.112   5.822  1.4218 -2.1407  0.1522
 7144SOL    HW232892   1.331   0.013   5.709 -0.4200  0.0634 -0.2132
 7145SOL     OW32893   3.099   1.040   6.178  0.2866 -0.0184  0.5256
 7145SOL    HW132894   3.022   1.013   6.228  0.4350  0.7801  1.2015
 7145SOL    HW232895   3.059   1.087   6.105  2.8931 -1.4606 -1.8138
 7146SOL     OW32896   4.435   2.825   0.206 -0.8006 -0.0883  0.5490
 7146SOL    HW132897   4.465   2.749   0.256  1.2818  0.7587  0.5690
 7146SOL    HW232898   4.499   2.809   0.137 -2.1183 -0.6460 -0.5426
 7147SOL     OW32899   0.416   3.506  10.414  0.1917  0.5288 -0.4019
 7147SOL    HW132900   0.425   3.599  10.394  4.4366  0.3982  0.9826
 7147SOL    HW232901   0.396   3.504  10.508  1.4357  0.8378 -0.1321
 7148SOL     OW32902   2.162   2.588   9.110 -0.3575 -0.5026 -0.0210
 7148SOL    HW132903   2.177   2.560   9.200 -1.5290 -2.0585 -0.2952
 7148SOL    HW232904   2.081   2.537   9.100 -1.3331  1.0400 -0.0928
 7149SOL     OW32905   0.131   0.368  10.480  1.1256 -0.2526 -0.2683
 7149SOL    HW132906   0.079   0.447  10.462  0.3723 -0.4971  0.8129
 7149SOL    HW232907   0.058   0.316  10.514  1.2225 -2.2090 -3.0204
 7150SOL     OW32908   2.739   4.628   6.001  0.4647 -0.1470  0.4511
 7150SOL    HW132909   2.741   4.715   6.041 -2.8174  0.6287 -1.0819
 7150SOL    HW232910   2.826   4.603   6.034  0.6396  0.3398  0.3595
 7151SOL     OW32911   0.456   2.410   1.303 -0.5322  0.2231  0.0639
 7151SOL    HW132912   0.476   2.321   1.273 -0.4106 -0.3581  1.8790
 7151SOL    HW232913   0.514   2.404   1.379  2.3346  0.9692 -2.1112
 7152SOL     OW32914   1.670   3.919   6.084  0.0667 -0.0903 -0.2525
 7152SOL    HW132915   1.674   3.930   5.989  3.4808 -0.3387 -0.1384
 7152SOL    HW232916   1.760   3.926   6.116 -0.1917 -0.0967  0.4730
 7153SOL     OW32917   3.191   0.861   1.968  0.5671 -0.1426 -0.0375
 7153SOL    HW132918   3.160   0.842   2.057  1.1322  0.4287  0.2874
 7153SOL    HW232919   3.223   0.949   1.992 -5.2240  1.1262  2.9594
 7154SOL     OW32920   2.964   4.170   8.342  0.7748 -0.4639 -0.1276
 7154SOL    HW132921   3.035   4.107   8.334 -1.0022 -2.2366 -2.0340
 7154SOL    HW232922   2.911   4.134   8.414 -0.4414 -0.5525 -1.0630
 7155SOL     OW32923   1.344   0.126   0.699  0.0751  0.2647  0.0800
 7155SOL    HW132924   1.364   0.211   0.740  1.7329  0.1856 -0.5696
 7155SOL    HW232925   1.297   0.164   0.624 -1.9626 -0.3820  1.0257
 7156SOL     OW32926   0.186   3.578   8.333  0.9354 -0.0660  0.4240
 7156SOL    HW132927   0.194   3.505   8.271 -1.4527 -0.7660  0.9391
 7156SOL    HW232928   0.259   3.559   8.393  1.2585  0.2659  0.1383
 7157SOL     OW32929   2.744   0.542   1.478 -0.0747 -0.1442  0.0069
 7157SOL    HW132930   2.785   0.556   1.393 -0.8843 -0.7286 -0.4717
 7157SOL    HW232931   2.652   0.542   1.450 -0.3451 -2.4520  0.9198
 7158SOL     OW32932   3.598   2.760  15.237  0.4561  0.0212 -0.2046
 7158SOL    HW132933   3.601   2.842  15.188 -0.1863  0.3171  0.2470
 7158SOL    HW232934   3.692   2.745  15.248  0.6361  1.5987  0.3980
 7159SOL     OW32935   2.717   3.737   3.175  1.1299 -0.1793  0.2745
 7159SOL    HW132936   2.759   3.690   3.247  1.2889 -2.6826 -1.4444
 7159SOL    HW232937   2.765   3.699   3.101  1.9411 -0.1805  0.8012
 7160SOL     OW32938   3.132   2.074  14.572 -0.5256  0.5009  0.1973
 7160SOL    HW132939   3.103   1.998  14.522 -1.8584  1.9507 -1.2792
 7160SOL    HW232940   3.067   2.091  14.640  0.4468 -0.9476  1.4753
 7161SOL     OW32941   3.817   0.371  16.359 -0.0132  0.0957  0.2522
 7161SOL    HW132942   3.900   0.416  16.338  0.8637 -2.0648 -0.8139
 7161SOL    HW232943   3.833   0.379  16.454 -0.2899  3.2704  0.0329
 7162SOL     OW32944   2.023   3.792  17.232  0.4004 -0.3978 -0.1904
 7162SOL    HW132945   2.060   3.806  17.145 -0.4278  0.2122 -0.4390
 7162SOL    HW232946   1.966   3.869  17.238  0.0039 -0.6461 -0.7494
 7163SOL     OW32947   3.669   0.532   2.307  0.1073  0.1282 -0.3385
 7163SOL    HW132948   3.630   0.484   2.380  2.3855  0.3018  1.0029
 7163SOL    HW232949   3.616   0.525   2.228  1.3377  0.9123 -1.2411
 7164SOL     OW32950   0.505   0.451  15.484 -0.0246 -0.0880  0.2343
 7164SOL    HW132951   0.523   0.392  15.557 -0.4080 -0.2902  0.1630
 7164SOL    HW232952   0.463   0.386  15.428  1.8838 -0.0034 -1.3048
 7165SOL     OW32953   0.259   4.634  15.696  0.3099  0.2052 -0.5539
 7165SOL    HW132954   0.173   4.670  15.676  0.4762 -0.9968 -3.5238
 7165SOL    HW232955   0.282   4.597  15.611 -0.8135  1.8241 -1.5610
 7166SOL     OW32956   1.158   4.295   9.068 -0.4853  1.3322 -0.0772
 7166SOL    HW132957   1.082   4.240   9.086  1.2066  0.1798  3.4956
 7166SOL    HW232958   1.121   4.362   9.010  0.9238  1.1942 -1.1489
 7167SOL     OW32959   3.550   0.785   6.746  0.5557 -0.1373 -0.2227
 7167SOL    HW132960   3.604   0.778   6.825  0.5523 -2.5809 -0.4375
 7167SOL    HW232961   3.463   0.791   6.784  0.8952  0.2022  0.5070
 7168SOL     OW32962   0.404   1.094   5.654 -0.7065  0.7639 -0.2962
 7168SOL    HW132963   0.364   1.043   5.725  1.2018 -0.1448  0.1237
 7168SOL    HW232964   0.485   1.123   5.697 -0.3292 -0.6240 -0.0710
 7169SOL     OW32965   1.624   0.290   3.303 -0.6026 -0.3709  0.3443
 7169SOL    HW132966   1.619   0.197   3.326  0.2307 -0.2561  1.0143
 7169SOL    HW232967   1.563   0.297   3.229  0.0466  2.4953  0.1132
 7170SOL     OW32968   4.560   0.938   5.793 -0.2820  0.6237 -0.6341
 7170SOL    HW132969   4.644   0.970   5.759 -0.4168  0.2195 -1.3552
 7170SOL    HW232970   4.503   1.005   5.757  0.5249  0.8481 -1.5172
 7171SOL     OW32971   3.612   0.897   4.670 -0.4252 -0.3062  0.2331
 7171SOL    HW132972   3.571   0.822   4.714 -0.2030 -0.7866 -0.3830
 7171SOL    HW232973   3.605   0.966   4.736 -0.0134 -0.1814  0.1449
 7172SOL     OW32974   4.376   1.736  14.830  0.5549 -0.1095  0.0870
 7172SOL    HW132975   4.366   1.666  14.894  2.2065  0.6109  1.1233
 7172SOL    HW232976   4.430   1.686  14.769  1.4885  0.4658  0.4480
 7173SOL     OW32977   1.518   1.951   7.096  0.6346 -0.1705 -0.4939
 7173SOL    HW132978   1.587   1.948   7.162  2.1520  4.0621 -1.9458
 7173SOL    HW232979   1.437   1.955   7.147  1.2950  1.2982  0.4270
 7174SOL     OW32980   2.651   4.108   3.780  0.0539 -0.3518 -0.6518
 7174SOL    HW132981   2.563   4.103   3.815  0.4007 -1.4753  0.0523
 7174SOL    HW232982   2.650   4.188   3.728 -1.0337  1.4803  2.2162
 7175SOL     OW32983   2.126   4.687   6.617  0.2069 -0.1306  0.2283
 7175SOL    HW132984   2.190   4.653   6.679  1.0350  0.8727 -0.0649
 7175SOL    HW232985   2.127   0.058   6.642  1.2636 -0.4388  1.3368
 7176SOL     OW32986   1.297   2.011   7.226 -0.7467  0.4788 -0.8058
 7176SOL    HW132987   1.201   2.010   7.219 -0.7603 -0.4912 -0.4612
 7176SOL    HW232988   1.326   2.062   7.302 -0.7140 -1.6713  0.6207
 7177SOL     OW32989   1.164   1.724  10.681 -0.2586  0.2605  0.0304
 7177SOL    HW132990   1.134   1.814  10.691 -3.0518 -0.3412 -2.9448
 7177SOL    HW232991   1.155   1.711  10.587 -0.8664  1.2044 -0.0409
 7178SOL     OW32992   3.384   3.396   6.428  0.3352  1.2029 -0.0910
 7178SOL    HW132993   3.365   3.490   6.431 -0.6189  0.9240  2.3221
 7178SOL    HW232994   3.301   3.358   6.455  0.3849  1.5879  0.5908
 7179SOL     OW32995   3.164   0.898   0.476 -0.2282 -0.3882 -0.4096
 7179SOL    HW132996   3.083   0.902   0.425  0.6546  0.4965 -1.7487
 7179SOL    HW232997   3.143   0.973   0.531  2.4524  0.5908 -0.7330
 7180SOL     OW32998   0.678   4.440  13.794  0.3978 -0.1284 -0.5715
 7180SOL    HW132999   0.756   4.433  13.850 -0.5134  0.2144  0.7491
 7180SOL    HW233000   0.703   4.380  13.724  2.3248  0.5274 -0.4349
 7181SOL     OW33001   2.380   1.072   7.202  0.4069 -0.1242 -0.1099
 7181SOL    HW133002   2.473   1.064   7.223 -0.0514 -0.7222  1.7499
 7181SOL    HW233003   2.380   1.159   7.164  1.4819  0.2652  0.7757
 7182SOL     OW33004   4.386   3.050   5.064 -0.3201  0.3158 -0.1235
 7182SOL    HW133005   4.316   3.104   5.099 -0.3279  0.6208 -0.6020
 7182SOL    HW233006   4.455   3.081   5.123 -0.4949 -0.2785  0.3872
 7183SOL     OW33007   4.656   1.231   2.975  0.4423 -0.0990 -0.0831
 7183SOL    HW133008   4.677   1.141   2.948 -2.2860 -1.2400  1.5857
 7183SOL    HW233009   4.567   1.211   3.003  0.2024 -0.7637 -1.2940
 7184SOL     OW33010   2.294   2.858   3.273  0.8266 -0.5536 -0.4555
 7184SOL    HW133011   2.297   2.773   3.228  0.0957 -1.2645  0.8408
 7184SOL    HW233012   2.383   2.891   3.266  0.2613  1.5084  2.2196
 7185SOL     OW33013   0.317   1.538   3.106  0.0915 -0.1012  0.0283
 7185SOL    HW133014   0.343   1.628   3.122  0.0374 -0.1410  0.3435
 7185SOL    HW233015   0.247   1.545   3.042  0.7969 -2.0901 -0.9726
 7186SOL     OW33016   1.983   2.654   0.147 -0.0726  0.1269 -0.5961
 7186SOL    HW133017   2.051   2.611   0.198 -0.9138 -1.3131 -0.6814
 7186SOL    HW233018   1.948   2.580   0.098 -1.8756 -0.1194  1.0194
 7187SOL     OW33019   2.772   3.477  17.488  0.0201 -0.1010 -0.4711
 7187SOL    HW133020   2.763   3.468  17.393 -1.7825  1.5455 -0.4372
 7187SOL    HW233021   2.763   3.390  17.528 -0.1177 -0.7021 -1.7884
 7188SOL     OW33022   1.577   0.724   6.034 -0.3420  0.2953 -0.1777
 7188SOL    HW133023   1.504   0.706   6.093  1.2141  2.4892  2.4067
 7188SOL    HW233024   1.582   0.819   6.047  0.8967  0.0377  1.3366
 7189SOL     OW33025   1.569   1.285   4.229 -0.2623  0.5813  0.1993
 7189SOL    HW133026   1.501   1.295   4.295 -0.1772  1.0534  0.2134
 7189SOL    HW233027   1.546   1.211   4.172 -0.6253 -0.0143  1.1298
 7190SOL     OW33028   0.067   4.017   5.368  0.5637  0.3411  0.4521
 7190SOL    HW133029   0.123   3.975   5.303  0.9585  0.7958  0.4963
 7190SOL    HW233030   0.077   3.951   5.437  0.1195 -0.0307  0.1564
 7191SOL     OW33031   3.802   2.334   5.477 -0.4774 -0.4264  1.0476
 7191SOL    HW133032   3.825   2.424   5.455  0.8606 -1.2070 -0.7579
 7191SOL    HW233033   3.774   2.305   5.390  1.5234 -0.4846  0.4369
 7192SOL     OW33034   0.491   1.471   9.207 -0.7767 -0.3052  0.6022
 7192SOL    HW133035   0.421   1.519   9.250 -1.7333 -0.2890 -0.9769
 7192SOL    HW233036   0.571   1.517   9.231 -0.4901  0.0304 -1.0197
 7193SOL     OW33037   4.179   3.511   3.738 -0.3689  0.6743 -0.7049
 7193SOL    HW133038   4.219   3.558   3.664  0.6125 -0.6728 -1.0373
 7193SOL    HW233039   4.149   3.426   3.706  0.8241  0.5134 -1.4308
 7194SOL     OW33040   0.583   3.574   3.628 -0.3113 -0.5389 -0.2020
 7194SOL    HW133041   0.551   3.641   3.688  1.2817 -0.0778  0.1266
 7194SOL    HW233042   0.607   3.507   3.692  0.6945 -0.2877 -0.3182
 7195SOL     OW33043   3.010   1.242   1.226 -0.2018 -0.1073 -0.3356
 7195SOL    HW133044   3.085   1.186   1.248 -1.1777 -0.4614  2.0893
 7195SOL    HW233045   3.015   1.239   1.131 -1.9848 -1.0719 -0.4019
 7196SOL     OW33046   0.206   1.910  11.929  0.8117  0.0544 -0.5349
 7196SOL    HW133047   0.258   1.969  11.984  1.1332 -1.8769  1.1985
 7196SOL    HW233048   0.136   1.885  11.988  0.0532 -0.6876 -1.7559
 7197SOL     OW33049   1.627   0.873  15.395  0.1617 -0.0204 -0.3377
 7197SOL    HW133050   1.680   0.952  15.385  0.7021 -0.0945  1.9588
 7197SOL    HW233051   1.538   0.906  15.379 -0.4109 -0.9247  0.9857
 7198SOL     OW33052   2.214   1.955   9.240  0.1387 -0.3166 -0.3576
 7198SOL    HW133053   2.137   1.899   9.253 -0.0919  0.4967  1.7477
 7198SOL    HW233054   2.168   2.019   9.185  0.2508  0.2356  0.1997
 7199SOL     OW33055   2.955   0.604   5.027  0.0104  1.3140 -1.2279
 7199SOL    HW133056   2.880   0.625   5.083 -0.3130 -2.1762 -0.2978
 7199SOL    HW233057   3.031   0.621   5.083  1.0057 -0.2878 -2.0664
 7200SOL     OW33058   2.385   4.482   6.011 -0.0805  0.4284  0.1105
 7200SOL    HW133059   2.420   4.537   6.082  0.4825 -0.9066  0.8704
 7200SOL    HW233060   2.466   4.472   5.961  0.0090  1.3597  0.0567
 7201SOL     OW33061   0.960   3.393   4.288  0.4550  0.1583  0.3328
 7201SOL    HW133062   1.043   3.423   4.251  0.2457  0.4705  0.1131
 7201SOL    HW233063   0.962   3.299   4.307 -0.2333  0.0004 -0.3578
 7202SOL     OW33064   3.981   4.563   8.183 -0.3512  0.1066 -0.2949
 7202SOL    HW133065   3.964   4.540   8.092  1.4259  1.2239 -0.9267
 7202SOL    HW233066   3.960   4.478   8.221 -0.0518  1.0581  2.0143
 7203SOL     OW33067   3.851   1.805  10.671  0.2068  0.8334 -0.1190
 7203SOL    HW133068   3.871   1.711  10.672 -1.0621  0.5781  1.4708
 7203SOL    HW233069   3.905   1.837  10.599 -1.8013 -0.8452 -2.3677
 7204SOL     OW33070   4.385   3.842  16.516 -0.2749 -0.1433  0.0780
 7204SOL    HW133071   4.294   3.837  16.489  0.3134 -2.1767 -1.5313
 7204SOL    HW233072   4.406   3.755  16.552  1.4059  0.5762  0.8715
 7205SOL     OW33073   1.013   2.513  11.628  0.5628 -0.3994  0.0264
 7205SOL    HW133074   0.931   2.545  11.590  0.9707 -0.2809 -0.7760
 7205SOL    HW233075   1.066   2.510  11.547 -1.2521 -0.4125 -1.1580
 7206SOL     OW33076   0.519   2.921   8.253 -0.3798  0.1879 -0.2937
 7206SOL    HW133077   0.460   2.913   8.178  1.3004  0.8563 -1.6642
 7206SOL    HW233078   0.500   3.012   8.278 -0.3479  0.7694 -2.3647
 7207SOL     OW33079   4.338   0.675   3.146 -0.1113  0.2800  0.3646
 7207SOL    HW133080   4.278   0.630   3.087  1.2993 -1.5005  0.2670
 7207SOL    HW233081   4.423   0.637   3.124 -0.0356 -0.0615  1.2255
 7208SOL     OW33082   2.218   4.198   8.121  0.9300 -0.2466  0.4109
 7208SOL    HW133083   2.158   4.124   8.132  1.3359 -0.5248  0.7311
 7208SOL    HW233084   2.182   4.249   8.193  0.1710  1.0365 -0.8819
 7209SOL     OW33085   0.289   4.521  10.740 -0.7325  0.0786  0.4736
 7209SOL    HW133086   0.303   4.597  10.797 -2.1628  0.5358  0.2024
 7209SOL    HW233087   0.247   4.565  10.666 -0.1940  1.4953  1.0126
 7210SOL     OW33088   1.414   0.276   7.397  0.2077  0.0453  0.3130
 7210SOL    HW133089   1.442   0.340   7.463  1.9154 -0.9297  0.5470
 7210SOL    HW233090   1.460   0.312   7.321  1.8722 -4.1571 -0.7042
 7211SOL     OW33091   4.511   3.703   3.822  0.5744 -0.2981  0.1029
 7211SOL    HW133092   4.585   3.764   3.828  0.4729 -0.2388  0.7411
 7211SOL    HW233093   4.436   3.759   3.803  0.4364  0.0200  1.5689
 7212SOL     OW33094   3.136   1.931   7.324  0.0385  0.2044  0.4233
 7212SOL    HW133095   3.185   1.881   7.390  0.8621  0.2453 -0.1527
 7212SOL    HW233096   3.200   1.947   7.255 -0.6072  0.4983 -0.1104
 7213SOL     OW33097   0.596   2.239  15.576 -0.0898 -0.3544 -0.2927
 7213SOL    HW133098   0.650   2.165  15.604 -0.1893 -0.0935  0.5789
 7213SOL    HW233099   0.542   2.215  15.501 -0.9532  0.3925  0.0882
 7214SOL     OW33100   1.464   3.092   8.832 -0.0357 -0.2088 -0.1640
 7214SOL    HW133101   1.435   3.094   8.923 -0.9779 -0.6412 -0.4566
 7214SOL    HW233102   1.392   3.119   8.776  0.0320  0.9953  0.3401
 7215SOL     OW33103   2.214   3.814   5.844  0.0782 -0.2254  0.2694
 7215SOL    HW133104   2.155   3.816   5.920  1.4645 -0.6315  1.3736
 7215SOL    HW233105   2.212   3.719   5.829 -2.1990 -0.2282  0.6202
 7216SOL     OW33106   4.054   0.400   7.520 -0.1810  0.1587 -0.2974
 7216SOL    HW133107   3.982   0.363   7.571  1.3538  0.2240  1.9311
 7216SOL    HW233108   4.114   0.430   7.588 -1.6026  1.5973  0.3333
 7217SOL     OW33109   4.185   2.006   7.180  0.2068  0.2154  0.1484
 7217SOL    HW133110   4.091   1.990   7.180 -0.0444  1.7278 -1.3917
 7217SOL    HW233111   4.186   2.101   7.192 -1.0149  0.7519 -3.9482
 7218SOL     OW33112   0.333   3.008  16.202  0.4505 -0.7237  0.0073
 7218SOL    HW133113   0.385   3.059  16.140  0.6524 -2.2492 -1.1072
 7218SOL    HW233114   0.379   2.924  16.196  0.2662 -0.5966 -3.2525
 7219SOL     OW33115   0.300   4.720   8.698 -0.1500  0.1493  0.5431
 7219SOL    HW133116   0.392   4.696   8.687 -0.2897  0.1379 -0.5694
 7219SOL    HW233117   0.256   4.635   8.695  1.6819 -0.7683 -0.0862
 7220SOL     OW33118   4.536   4.372  17.654 -0.2535 -0.1878 -0.2526
 7220SOL    HW133119   4.626   4.346  17.674  0.0778  0.0648 -1.4571
 7220SOL    HW233120   4.551   4.464  17.633 -1.4964 -0.6933 -3.2450
 7221SOL     OW33121   0.261   2.631  10.587  0.5206  0.6333 -0.0052
 7221SOL    HW133122   0.283   2.714  10.630 -1.1286  0.6089  0.9001
 7221SOL    HW233123   0.308   2.569  10.643  2.3416  1.7132 -0.3678
 7222SOL     OW33124   1.909   1.463   3.561  0.8163 -0.4715 -0.6099
 7222SOL    HW133125   1.859   1.526   3.612  0.8830  1.7075 -3.2256
 7222SOL    HW233126   1.994   1.498   3.588  0.6355 -0.2820 -0.2979
 7223SOL     OW33127   4.636   2.477   9.677 -0.1967  0.2338 -0.0852
 7223SOL    HW133128   4.677   2.423   9.745 -0.5874  2.9857  2.3075
 7223SOL    HW233129   4.544   2.453   9.671  0.5403 -1.6974 -3.5330
 7224SOL     OW33130   2.082   1.747   8.558 -0.3434  0.2641 -0.7796
 7224SOL    HW133131   2.063   1.675   8.497 -1.4755  1.8453 -2.2613
 7224SOL    HW233132   2.082   1.691   8.636 -0.1863 -1.2434 -1.8613
 7225SOL     OW33133   1.819   4.467   3.485 -0.6965  0.4989 -0.1616
 7225SOL    HW133134   1.795   4.423   3.404  1.1179 -0.9443  0.0835
 7225SOL    HW233135   1.814   4.391   3.543  1.1006  0.9470  0.6041
 7226SOL     OW33136   2.416   2.230   0.721 -0.3441 -0.0242  0.0458
 7226SOL    HW133137   2.360   2.197   0.791 -1.8255  0.1340 -1.0608
 7226SOL    HW233138   2.383   2.182   0.645  0.2515  1.7627 -1.3369
 7227SOL     OW33139   1.765   2.012   5.669  0.1307  0.1594 -0.0053
 7227SOL    HW133140   1.713   1.982   5.595  0.9338 -1.3405  0.0234
 7227SOL    HW233141   1.702   2.074   5.705  1.3569  1.7744 -0.6349
 7228SOL     OW33142   1.492   0.081   4.292 -0.7312 -0.0390  0.4650
 7228SOL    HW133143   1.429   0.132   4.240  0.9137  1.3909 -0.1501
 7228SOL    HW233144   1.559   0.063   4.225  1.3156 -0.6673  2.6857
 7229SOL     OW33145   0.589   4.640   5.663 -0.6736 -0.0339 -0.1235
 7229SOL    HW133146   0.580   4.573   5.595 -0.0939  0.9204 -1.1286
 7229SOL    HW233147   0.603   4.582   5.739 -1.1695 -1.3653 -1.0492
 7230SOL     OW33148   0.905   1.614   0.738 -0.2082  0.5979 -0.9551
 7230SOL    HW133149   0.913   1.692   0.792 -0.6185  0.1451 -0.2435
 7230SOL    HW233150   0.954   1.640   0.660  2.1661 -0.0873  0.3189
 7231SOL     OW33151   1.724   0.573   0.639 -0.1138 -0.0226 -0.1578
 7231SOL    HW133152   1.659   0.504   0.629 -1.0382  1.2316 -2.7836
 7231SOL    HW233153   1.810   0.537   0.618 -0.9520 -1.4498 -1.1230
 7232SOL     OW33154   0.492   4.515  10.381  0.0806 -0.4443 -0.1318
 7232SOL    HW133155   0.482   4.600  10.423  1.6608  0.0915 -0.8502
 7232SOL    HW233156   0.417   4.519  10.322 -0.6790  1.9217  1.0172
 7233SOL     OW33157   4.050   3.307   8.775  0.3452  0.3527  0.6154
 7233SOL    HW133158   4.064   3.279   8.685 -0.4669  1.9720 -0.0214
 7233SOL    HW233159   4.107   3.249   8.825 -0.0240 -1.6760 -1.3236
 7234SOL     OW33160   1.862   0.391  11.419 -0.8143 -0.3505 -0.0063
 7234SOL    HW133161   1.814   0.340  11.354 -0.1567 -1.1473  0.1385
 7234SOL    HW233162   1.953   0.359  11.413 -1.1656 -1.5279  1.0719
 7235SOL     OW33163   1.312   1.879  10.405  0.3398 -0.4154 -0.0945
 7235SOL    HW133164   1.280   1.954  10.455  0.5427 -1.0805  1.0387
 7235SOL    HW233165   1.247   1.812  10.425  0.1538  0.0564  0.8674
 7236SOL     OW33166   1.051   1.042   5.820 -0.0810 -0.0476 -0.1979
 7236SOL    HW133167   1.045   1.034   5.725  1.7649 -0.4073 -0.2906
 7236SOL    HW233168   1.008   1.127   5.836 -1.8126 -1.0397  0.4479
 7237SOL     OW33169   3.738   2.716   9.659 -0.1040  0.8362  0.3287
 7237SOL    HW133170   3.647   2.701   9.682 -0.0800 -1.6153 -1.2564
 7237SOL    HW233171   3.737   2.715   9.563  0.6626 -0.3282  0.3327
 7238SOL     OW33172   4.307   3.799   5.178  0.1233  0.1747 -0.8029
 7238SOL    HW133173   4.306   3.722   5.122  2.6296 -1.8712  1.9425
 7238SOL    HW233174   4.399   3.824   5.169 -0.2819  0.7220 -3.3371
 7239SOL     OW33175   3.517   4.030   5.230  0.1184 -0.2555 -0.2195
 7239SOL    HW133176   3.516   4.101   5.166  2.8273  0.3974  0.4904
 7239SOL    HW233177   3.609   4.006   5.231  0.2518  0.2485 -0.3691
 7240SOL     OW33178   1.378   2.398   6.005 -0.4209  0.3674 -0.3045
 7240SOL    HW133179   1.291   2.438   6.019 -1.0658 -0.0007 -3.1830
 7240SOL    HW233180   1.376   2.322   6.062  1.3871  0.2790 -0.3605
 7241SOL     OW33181   2.640   4.223   6.646 -0.0776  0.6588 -0.1736
 7241SOL    HW133182   2.603   4.286   6.708  0.0516  1.5123 -0.9737
 7241SOL    HW233183   2.729   4.216   6.681 -0.4707  1.4320  0.9819
 7242SOL     OW33184   2.468   4.465  10.492 -0.3043  0.0219  0.2140
 7242SOL    HW133185   2.561   4.457  10.471 -0.2141 -1.4746  1.1549
 7242SOL    HW233186   2.479   4.555  10.525 -1.7436  0.0260  0.6610
 7243SOL     OW33187   4.053   3.461   2.274  0.0242 -0.5563  0.1657
 7243SOL    HW133188   4.117   3.390   2.274 -0.4476 -0.9996  1.9112
 7243SOL    HW233189   3.970   3.413   2.270  1.3552 -2.9148  0.9241
 7244SOL     OW33190   2.243   3.622   1.697 -0.2572 -0.7215 -0.5782
 7244SOL    HW133191   2.165   3.567   1.696  0.0377 -1.1367 -1.1396
 7244SOL    HW233192   2.264   3.615   1.604  0.7370  1.3573 -0.5122
 7245SOL     OW33193   3.484   3.148  14.462 -0.0611  0.2750  0.1522
 7245SOL    HW133194   3.449   3.161  14.373 -0.3936 -0.5202  0.1605
 7245SOL    HW233195   3.457   3.056  14.467  0.4283  0.2091  1.4529
 7246SOL     OW33196   0.804   1.834  15.531  0.0812  0.2451 -0.0360
 7246SOL    HW133197   0.711   1.847  15.552  0.4847  2.1194  0.6029
 7246SOL    HW233198   0.823   1.926  15.550  2.0657 -0.0239 -0.6840
 7247SOL     OW33199   0.716   1.681  11.519  0.4186 -0.3608 -0.1484
 7247SOL    HW133200   0.705   1.664  11.613  1.4306 -1.0055 -0.1412
 7247SOL    HW233201   0.663   1.607  11.490  2.5756 -1.6055 -0.9716
 7248SOL     OW33202   3.619   1.355   7.525  0.3834  0.2092  0.7718
 7248SOL    HW133203   3.621   1.425   7.591  3.0478 -1.2100  2.1873
 7248SOL    HW233204   3.648   1.277   7.572 -1.3128  1.1673  3.4681
 7249SOL     OW33205   1.713   1.687  15.752  0.6641 -0.5738 -0.2121
 7249SOL    HW133206   1.801   1.721  15.732 -0.3142  0.6602 -2.3888
 7249SOL    HW233207   1.668   1.706  15.670 -0.7432  2.1712  1.2198
 7250SOL     OW33208   2.405   2.661  17.609 -0.3190  0.6988  0.3843
 7250SOL    HW133209   2.428   2.568  17.599  0.6785  0.6452  3.0785
 7250SOL    HW233210   2.436   2.661   0.012  1.0588 -1.5892 -0.0741
 7251SOL     OW33211   1.865   2.188   7.772  0.0344  0.0865 -0.4096
 7251SOL    HW133212   1.881   2.120   7.838  1.3131 -0.2860 -1.1017
 7251SOL    HW233213   1.936   2.162   7.714 -1.4049 -1.4697 -1.4591
 7252SOL     OW33214   0.848   2.150   6.626  0.0102 -0.4026 -0.4885
 7252SOL    HW133215   0.921   2.106   6.670 -2.1092 -0.3273  3.0508
 7252SOL    HW233216   0.770   2.124   6.675  0.2101  1.3890  0.7537
 7253SOL     OW33217   0.061   2.794  11.452 -0.0626  0.4374  0.2591
 7253SOL    HW133218   0.152   2.812  11.475 -0.3488  2.5530 -0.2607
 7253SOL    HW233219   0.046   2.707  11.489 -1.0027 -1.0069 -3.5428
 7254SOL     OW33220   2.975   1.255   0.937 -0.1551 -0.1925 -0.5795
 7254SOL    HW133221   2.913   1.284   0.869 -1.2270 -0.7263  0.1758
 7254SOL    HW233222   2.970   1.163   0.911  1.4381 -0.1825 -0.8735
 7255SOL     OW33223   3.694   4.406   6.035  0.7442 -0.5471  0.1541
 7255SOL    HW133224   3.621   4.408   5.974 -0.5684 -0.5443  1.7349
 7255SOL    HW233225   3.772   4.444   5.995  1.4753 -2.2468 -0.0653
 7256SOL     OW33226   3.227   0.427   3.098 -0.3633  0.1374  0.5232
 7256SOL    HW133227   3.236   0.522   3.101 -1.0858  0.2566 -1.0333
 7256SOL    HW233228   3.136   0.411   3.124 -0.9030  0.3288 -1.2294
 7257SOL     OW33229   0.576   0.221   6.261  0.2111 -0.2766 -0.1408
 7257SOL    HW133230   0.508   0.247   6.322 -0.2105  1.6306 -1.4320
 7257SOL    HW233231   0.532   0.166   6.196  0.3309  0.6673 -1.0215
 7258SOL     OW33232   4.484   0.693  17.087  0.1043 -0.2643  0.8761
 7258SOL    HW133233   4.444   0.678  17.173  0.6234  1.3842  1.4150
 7258SOL    HW233234   4.453   0.631  17.021  0.7328 -1.6913  1.9339
 7259SOL     OW33235   1.131   3.540   6.872 -0.1825 -0.5073  0.0288
 7259SOL    HW133236   1.169   3.491   6.945  1.0409  0.4987  0.0805
 7259SOL    HW233237   1.095   3.466   6.823 -1.4167 -0.2145  0.4983
 7260SOL     OW33238   3.704   0.890   2.642  1.1189  0.2416  0.2182
 7260SOL    HW133239   3.760   0.898   2.565 -0.7412 -2.8514 -1.4604
 7260SOL    HW233240   3.664   0.977   2.644 -0.1951 -0.4117  1.6725
 7261SOL     OW33241   0.202   1.902  17.001 -0.6934 -0.2807 -0.6833
 7261SOL    HW133242   0.262   1.841  17.043 -0.5214  1.3491  1.4684
 7261SOL    HW233243   0.257   1.960  16.948  0.9303 -0.1060  1.2058
 7262SOL     OW33244   0.916   2.325   7.833 -0.0161 -0.0802 -0.2684
 7262SOL    HW133245   0.826   2.315   7.866 -0.0842  0.9800 -0.1169
 7262SOL    HW233246   0.914   2.414   7.798 -0.1438  0.4751  1.1435
 7263SOL     OW33247   0.426   4.580  13.838  0.5731  0.2118  0.2524
 7263SOL    HW133248   0.508   4.534  13.821  0.5960 -0.3283  1.8443
 7263SOL    HW233249   0.405   4.609  13.749 -1.5521 -3.0030 -0.3041
 7264SOL     OW33250   1.304   0.491   7.738  0.1804  0.8019  0.5370
 7264SOL    HW133251   1.271   0.564   7.790  0.2776  1.2449 -0.0244
 7264SOL    HW233252   1.218   0.469   7.702  0.5604 -1.5864  1.0319
 7265SOL     OW33253   4.247   2.424   5.073 -0.4223 -0.9192 -0.4223
 7265SOL    HW133254   4.235   2.330   5.060  0.4758 -1.0116 -0.6070
 7265SOL    HW233255   4.303   2.429   5.151 -0.3650 -2.5425 -0.3665
 7266SOL     OW33256   1.828   1.098   7.697 -0.2477 -0.0327 -0.2518
 7266SOL    HW133257   1.819   1.191   7.679 -4.1114 -0.3093  0.1178
 7266SOL    HW233258   1.898   1.094   7.762 -0.1139 -2.1642 -0.5286
 7267SOL     OW33259   2.321   3.855   2.331  0.5899 -0.2637 -0.1185
 7267SOL    HW133260   2.332   3.790   2.262  1.7284  0.5800 -0.7564
 7267SOL    HW233261   2.228   3.848   2.353  0.6455  1.2786  0.6106
 7268SOL     OW33262   1.067   0.268   8.134 -0.1833 -0.1836 -0.6233
 7268SOL    HW133263   1.103   0.245   8.220 -0.1597  0.3662 -0.4865
 7268SOL    HW233264   1.135   0.232   8.077  1.9522 -0.7053  2.2328
 7269SOL     OW33265   2.098   1.532   4.150 -0.2329  0.4505  0.2458
 7269SOL    HW133266   2.036   1.506   4.082  1.6917 -0.1284 -1.3031
 7269SOL    HW233267   2.125   1.620   4.124  0.5127 -0.0200 -0.5816
 7270SOL     OW33268   4.287   3.218   2.721  0.1751 -1.2476 -0.2802
 7270SOL    HW133269   4.258   3.159   2.790  0.8735 -0.2713  0.8564
 7270SOL    HW233270   4.345   3.277   2.769  1.3100 -2.1183 -0.5934
 7271SOL     OW33271   4.695   4.581   7.678  0.5754 -0.6968 -0.3178
 7271SOL    HW133272   4.719   4.489   7.676  1.9613 -0.3446 -0.1334
 7271SOL    HW233273   4.660   4.584   7.767 -0.3549 -3.1048 -0.6278
 7272SOL     OW33274   3.618   0.099  17.032  0.5773  0.1661  0.0118
 7272SOL    HW133275   3.667   0.034  16.982  0.1209  0.7294 -1.1511
 7272SOL    HW233276   3.642   0.080  17.123  0.1996  1.2986  0.3468
 7273SOL     OW33277   1.995   0.819   2.036 -0.2622 -0.3920  0.0476
 7273SOL    HW133278   1.952   0.874   2.101  1.2415  1.3657 -0.4312
 7273SOL    HW233279   2.048   0.764   2.094 -1.7817 -0.7753  1.0555
 7274SOL     OW33280   2.672   1.622   7.467  0.0688  0.3215  0.6177
 7274SOL    HW133281   2.647   1.691   7.405  0.4386  0.9302  1.1432
 7274SOL    HW233282   2.757   1.661   7.489  0.8242 -0.2845 -1.2143
 7275SOL     OW33283   0.607   1.361   6.146 -0.6614  0.0713  0.1122
 7275SOL    HW133284   0.696   1.392   6.132 -0.7174  0.6900  1.1404
 7275SOL    HW233285   0.626   1.275   6.184 -0.4292  0.7805  1.6104
 7276SOL     OW33286   3.889   2.572   3.834  0.4269 -0.0595  0.4309
 7276SOL    HW133287   3.934   2.633   3.775  2.7848 -0.6379  1.6325
 7276SOL    HW233288   3.856   2.639   3.894  0.8912  0.6275 -0.0664
 7277SOL     OW33289   1.705   3.051   5.528  0.0114  0.0681  0.4814
 7277SOL    HW133290   1.712   3.133   5.480 -1.4479  0.6959  1.3357
 7277SOL    HW233291   1.685   2.988   5.458  2.6537 -0.6190  0.3370
 7278SOL     OW33292   1.816   2.536  15.977 -0.2683 -0.1147 -0.5852
 7278SOL    HW133293   1.772   2.606  15.929 -1.2678 -0.9826 -0.9389
 7278SOL    HW233294   1.754   2.469  16.006  2.6564 -2.1641  0.9130
 7279SOL     OW33295   3.437   1.739   3.979 -0.5564 -0.0982 -0.2644
 7279SOL    HW133296   3.520   1.707   4.015 -0.3947 -0.3708 -0.8712
 7279SOL    HW233297   3.435   1.710   3.888 -1.2270  0.9137 -0.5669
 7280SOL     OW33298   3.326   4.335   4.263 -0.6462  0.0402 -0.2604
 7280SOL    HW133299   3.401   4.394   4.275 -1.4341  0.6164  1.7314
 7280SOL    HW233300   3.292   4.370   4.180  1.0338  0.1976 -0.8887
 7281SOL     OW33301   0.654   1.256   2.987  0.1190  0.6277 -0.3478
 7281SOL    HW133302   0.651   1.348   2.960 -0.5262  0.5576 -0.5130
 7281SOL    HW233303   0.580   1.261   3.047  1.4858 -3.1884  1.5803
 7282SOL     OW33304   1.156   0.565  16.054 -0.8028 -0.1671 -0.1389
 7282SOL    HW133305   1.153   0.519  15.970 -3.0214 -1.9136  0.8790
 7282SOL    HW233306   1.061   0.577  16.053 -0.9022 -1.1288 -1.4210
 7283SOL     OW33307   2.805   2.645   7.256 -0.1785 -0.3164  0.6249
 7283SOL    HW133308   2.802   2.708   7.184 -0.6160 -0.4562  0.5199
 7283SOL    HW233309   2.882   2.672   7.305  0.1626 -0.6168  0.2528
 7284SOL     OW33310   1.486   3.782  10.691  0.1043 -0.1240  0.1500
 7284SOL    HW133311   1.416   3.718  10.708 -0.5697  0.3132 -0.9661
 7284SOL    HW233312   1.563   3.724  10.686  0.3487  0.0132  2.3808
 7285SOL     OW33313   4.294   2.979   3.764 -0.9502  0.3757 -0.7917
 7285SOL    HW133314   4.389   2.989   3.765 -1.0469  1.3362 -1.4276
 7285SOL    HW233315   4.270   2.895   3.803  2.2306  0.4270  1.2255
 7286SOL     OW33316   4.698   0.177   7.727 -0.7650 -0.5902 -0.2900
 7286SOL    HW133317   4.684   0.212   7.639 -1.9896  0.1829  0.2169
 7286SOL    HW233318   4.615   0.208   7.764 -0.0257  1.5241 -0.4057
 7287SOL     OW33319   2.366   1.149   1.425 -0.5367 -0.0400  0.0291
 7287SOL    HW133320   2.278   1.185   1.424  0.0551  1.3709 -0.6249
 7287SOL    HW233321   2.367   1.111   1.337  0.7240  3.1827 -1.3208
 7288SOL     OW33322   1.791   2.366   0.617  0.0322  0.0806  0.0747
 7288SOL    HW133323   1.776   2.320   0.699 -0.9299  0.4508  0.1056
 7288SOL    HW233324   1.701   2.369   0.584 -0.2032  1.5709  0.8252
 7289SOL     OW33325   4.440   3.825   7.322  0.2417  0.5948  0.1125
 7289SOL    HW133326   4.429   3.905   7.374  0.2748 -0.8777  2.3628
 7289SOL    HW233327   4.457   3.764   7.393  2.8810  1.3595  0.1187
 7290SOL     OW33328   1.484   1.361  10.929 -0.3992  0.0978  0.3102
 7290SOL    HW133329   1.555   1.417  10.962 -0.7528  0.0135  1.2081
 7290SOL    HW233330   1.529   1.297  10.874  1.2382  1.8028 -0.3353
 7291SOL     OW33331   1.751   3.402   2.204  0.3502  0.3154 -0.0141
 7291SOL    HW133332   1.729   3.486   2.165  0.9786  1.0045  1.1119
 7291SOL    HW233333   1.775   3.356   2.124 -0.9419  0.6830 -0.6132
 7292SOL     OW33334   0.443   1.149  13.232  0.3066  0.3032 -0.5558
 7292SOL    HW133335   0.538   1.139  13.242 -0.0421 -0.0389  2.3399
 7292SOL    HW233336   0.408   1.082  13.291  2.0750 -0.7502 -0.6958
 7293SOL     OW33337   2.935   0.674   6.199 -0.2643 -0.3471 -0.0551
 7293SOL    HW133338   3.007   0.731   6.171  0.3623 -0.8937  0.4643
 7293SOL    HW233339   2.984   0.592   6.201  0.1178 -0.1223 -0.0499
 7294SOL     OW33340   2.717   4.085   6.432  0.1624 -0.0640  0.7612
 7294SOL    HW133341   2.744   4.005   6.477 -0.3926 -2.0924 -2.5296
 7294SOL    HW233342   2.691   4.132   6.511  0.2464 -1.4933  1.6439
 7295SOL     OW33343   2.887   3.931   1.373 -0.3647 -0.1807 -0.7324
 7295SOL    HW133344   2.972   3.890   1.388 -0.7947  0.0429  2.2811
 7295SOL    HW233345   2.868   3.905   1.283  2.3188 -1.0830 -1.0582
 7296SOL     OW33346   3.375   1.818  16.357  0.0767 -0.1501  0.2442
 7296SOL    HW133347   3.335   1.769  16.429 -0.6197  1.5696  1.0254
 7296SOL    HW233348   3.404   1.897  16.403 -1.6915 -0.1620  1.3949
 7297SOL     OW33349   2.008   0.469   0.563  0.3290 -0.7038 -0.1712
 7297SOL    HW133350   2.044   0.532   0.625  1.8168 -0.9074 -0.8531
 7297SOL    HW233351   2.054   0.494   0.484  2.1843 -0.4327  1.0080
 7298SOL     OW33352   3.776   3.846   9.789  0.0535  0.1443 -0.5250
 7298SOL    HW133353   3.872   3.844   9.788  0.0436 -0.4203 -0.4613
 7298SOL    HW233354   3.758   3.937   9.768  2.5203  0.6129 -0.5380
 7299SOL     OW33355   4.621   2.731   6.258 -0.4574 -0.2248 -0.4086
 7299SOL    HW133356   4.579   2.754   6.341 -1.1781  0.6529 -1.0107
 7299SOL    HW233357   4.710   2.701   6.276 -0.3996 -0.4330 -1.0399
 7300SOL     OW33358   2.518   0.625   7.333 -0.2199 -0.1735 -0.1410
 7300SOL    HW133359   2.447   0.688   7.331  0.5821  0.8272  2.1809
 7300SOL    HW233360   2.484   0.557   7.274  2.8316 -0.7444 -1.2448
 7301SOL     OW33361   1.152   0.874   6.679 -0.1744 -0.1165 -0.0195
 7301SOL    HW133362   1.079   0.818   6.708  1.6565 -1.1393  2.6269
 7301SOL    HW233363   1.118   0.913   6.598 -1.4956  1.3997  1.2711
 7302SOL     OW33364   1.441   3.763   1.657  0.3701  0.0027 -0.3112
 7302SOL    HW133365   1.407   3.710   1.585  1.3871  2.5793 -2.6916
 7302SOL    HW233366   1.429   3.852   1.622 -1.6815 -1.1742 -2.6307
 7303SOL     OW33367   3.777   3.602   6.288  0.3861 -0.4791 -0.0607
 7303SOL    HW133368   3.734   3.645   6.362  1.1964  0.0922  0.0786
 7303SOL    HW233369   3.730   3.518   6.292  0.1854 -0.3920 -0.6086
 7304SOL     OW33370   0.117   2.435  12.284 -0.5704  0.2405  0.6066
 7304SOL    HW133371   0.151   2.515  12.325 -0.2556 -0.0287  0.8790
 7304SOL    HW233372   0.051   2.408  12.348  1.4415 -3.1789  1.2488
 7305SOL     OW33373   0.109   1.750   4.153  0.3341  0.2462  0.1861
 7305SOL    HW133374   0.168   1.741   4.228  1.8094 -0.9482 -1.1327
 7305SOL    HW233375   0.168   1.796   4.094 -0.7548  0.8017 -0.4597
 7306SOL     OW33376   3.123   0.219   8.104  0.1802 -0.1300 -0.1830
 7306SOL    HW133377   3.114   0.271   8.023  1.6274  2.6522  1.4306
 7306SOL    HW233378   3.122   0.295   8.162  0.9930  0.1231 -0.5023
 7307SOL     OW33379   4.122   2.752   4.765 -0.0757 -0.0374 -0.0656
 7307SOL    HW133380   4.200   2.760   4.710 -0.3087  1.0548 -0.2376
 7307SOL    HW233381   4.112   2.657   4.769 -2.3647  0.1368 -1.1838
 7308SOL     OW33382   3.220   3.781   8.773  0.6322 -0.4611 -0.5144
 7308SOL    HW133383   3.224   3.686   8.759  2.4357 -0.2828 -1.2061
 7308SOL    HW233384   3.279   3.784   8.849  2.2080  0.7599 -1.7870
 7309SOL     OW33385   1.966   3.577   1.012 -0.1781 -0.0802 -0.3811
 7309SOL    HW133386   1.908   3.630   1.065  1.6985  1.3665  0.2220
 7309SOL    HW233387   1.999   3.645   0.953 -1.7496  2.2237  1.4652
 7310SOL     OW33388   0.527   1.251   4.357 -0.1368 -0.1140 -0.0749
 7310SOL    HW133389   0.469   1.191   4.310 -1.3814  0.0038  1.2962
 7310SOL    HW233390   0.571   1.288   4.281  2.0560 -1.8650  0.3729
 7311SOL     OW33391   0.315   1.434   5.585 -0.1605  0.1588  0.4085
 7311SOL    HW133392   0.277   1.419   5.671 -0.1477 -2.5984 -0.0582
 7311SOL    HW233393   0.245   1.482   5.541 -0.4434  0.0390  0.7352
 7312SOL     OW33394   3.995   3.854   8.251 -0.4274 -0.6257  0.1648
 7312SOL    HW133395   4.046   3.789   8.202  2.9899  1.3692  1.1109
 7312SOL    HW233396   4.047   3.932   8.233  0.4277 -0.8577  1.6251
 7313SOL     OW33397   0.117   1.574   5.831  0.5986  0.2132 -0.1690
 7313SOL    HW133398   0.025   1.567   5.859  1.1495 -1.9719  1.1933
 7313SOL    HW233399   0.157   1.491   5.859 -0.4664 -0.5097 -0.7837
 7314SOL     OW33400   0.121   4.253   5.689  0.0178 -0.2950 -0.1352
 7314SOL    HW133401   0.215   4.237   5.682  0.2527  0.3676  1.4922
 7314SOL    HW233402   0.086   4.164   5.677 -1.3254  0.1366  0.5750
 7315SOL     OW33403   2.397   3.135   0.391 -0.3784  0.0933  0.0103
 7315SOL    HW133404   2.402   3.209   0.453 -0.1644  1.0293 -1.1259
 7315SOL    HW233405   2.419   3.172   0.306  1.5112 -1.4885 -0.2036
 7316SOL     OW33406   1.329   1.692   9.972  0.6334 -0.0086 -0.7174
 7316SOL    HW133407   1.292   1.625  10.030  2.0712  0.1597  0.3875
 7316SOL    HW233408   1.385   1.741  10.033 -1.0417 -0.6944  1.3991
 7317SOL     OW33409   3.039   1.700  14.174  0.4740  0.6788  0.0568
 7317SOL    HW133410   2.965   1.654  14.135  1.6963 -0.0241 -1.4371
 7317SOL    HW233411   3.120   1.665  14.135 -0.3131 -2.3378  1.1054
 7318SOL     OW33412   1.130   1.737   0.618  0.0221 -0.0213 -0.3579
 7318SOL    HW133413   1.135   1.758   0.525  2.2679 -1.7790 -0.6337
 7318SOL    HW233414   1.152   1.829   0.636  1.7801 -0.8450  1.6982
 7319SOL     OW33415   0.157   0.889   7.232 -0.0945 -0.2618 -0.6865
 7319SOL    HW133416   0.226   0.825   7.215  0.4034  0.2207 -0.4926
 7319SOL    HW233417   0.158   0.903   7.327 -0.2243  1.5469 -0.9420
 7320SOL     OW33418   1.305   3.896   5.771  0.2855 -0.1900 -0.5263
 7320SOL    HW133419   1.309   3.948   5.852  0.5045  0.0050 -0.6634
 7320SOL    HW233420   1.384   3.931   5.730  0.5103  0.0595  0.1175
 7321SOL     OW33421   2.731   0.735   3.952 -0.1877  0.1710 -0.2445
 7321SOL    HW133422   2.798   0.706   4.014 -0.5353  1.4069  0.7093
 7321SOL    HW233423   2.751   0.828   3.958  0.7315 -0.0833  0.6176
 7322SOL     OW33424   3.217   1.400  14.646 -0.7270  0.7307 -0.1848
 7322SOL    HW133425   3.259   1.483  14.666 -0.2906  0.6543 -0.7688
 7322SOL    HW233426   3.217   1.397  14.550  0.7099 -3.8403 -0.0445
 7323SOL     OW33427   3.821   1.989   0.187  0.3604 -0.6348  0.4784
 7323SOL    HW133428   3.795   1.896   0.187 -0.0621 -0.5148  0.9667
 7323SOL    HW233429   3.912   1.970   0.165  0.3445 -0.7363  0.4975
 7324SOL     OW33430   0.539   4.056  15.924  0.2576  0.9751  0.1651
 7324SOL    HW133431   0.484   4.001  15.979 -0.0216  1.0074 -0.0820
 7324SOL    HW233432   0.624   4.066  15.968  1.0208 -0.8877 -0.8607
 7325SOL     OW33433   4.587   1.456   0.188 -0.0048  0.4639  0.1624
 7325SOL    HW133434   4.610   1.529   0.246 -0.3126  0.5530  0.1711
 7325SOL    HW233435   4.649   1.457   0.115 -0.7170  0.9491 -0.4378
 7326SOL     OW33436   2.717   1.676   4.490  0.5201 -0.5607 -0.0199
 7326SOL    HW133437   2.664   1.695   4.412  3.6004  0.8559 -1.7856
 7326SOL    HW233438   2.716   1.755   4.544  0.4997 -1.1222  0.8024
 7327SOL     OW33439   0.532   4.166  17.349  0.8641  0.6101  0.5228
 7327SOL    HW133440   0.475   4.173  17.273  0.1264 -1.4676  0.8873
 7327SOL    HW233441   0.464   4.148  17.414  0.0756 -0.8796 -0.7059
 7328SOL     OW33442   2.485   0.001   8.311  0.5491  0.7395 -0.4039
 7328SOL    HW133443   2.403   4.675   8.301  1.0102  0.4455 -2.6742
 7328SOL    HW233444   2.530   4.672   8.379 -0.8597  0.5405  0.3683
 7329SOL     OW33445   0.207   4.013   7.397  0.0846 -0.5154  0.2606
 7329SOL    HW133446   0.218   3.925   7.434  0.8283 -0.2753  0.6092
 7329SOL    HW233447   0.251   4.066   7.463 -2.1280  1.4068  0.1788
 7330SOL     OW33448   1.695   4.407   1.860  0.5674  0.2039  0.7732
 7330SOL    HW133449   1.767   4.360   1.902  2.7704  2.6588 -0.2097
 7330SOL    HW233450   1.705   4.494   1.899 -1.0082  0.4822  0.5529
 7331SOL     OW33451   1.839   1.942   3.293 -0.5853 -0.0779  1.2824
 7331SOL    HW133452   1.789   1.993   3.228  1.1979 -0.5638 -0.4701
 7331SOL    HW233453   1.889   2.005   3.344  1.0772  0.7396 -1.3692
 7332SOL     OW33454   1.445   1.487   9.714  0.1233  0.0624 -0.2209
 7332SOL    HW133455   1.517   1.536   9.754 -1.2685  1.8642  0.0358
 7332SOL    HW233456   1.393   1.458   9.789  0.4894 -3.9158 -1.5312
 7333SOL     OW33457   1.236   1.689   8.015 -0.2568 -0.5465 -0.0638
 7333SOL    HW133458   1.159   1.739   7.990  0.5972  0.0752 -1.4436
 7333SOL    HW233459   1.294   1.760   8.043  0.8140 -2.3766  2.3720
 7334SOL     OW33460   1.829   2.576   4.613  0.2814  0.2278  0.0618
 7334SOL    HW133461   1.855   2.590   4.522 -0.0225  2.1714  0.2720
 7334SOL    HW233462   1.826   2.665   4.649  0.8152  0.6666 -0.9924
 7335SOL     OW33463   3.360   4.053   7.839  0.0585  0.6307  0.3213
 7335SOL    HW133464   3.353   4.027   7.931 -0.6669  0.3721  0.1961
 7335SOL    HW233465   3.446   4.092   7.827 -0.4381  2.1991  1.9173
 7336SOL     OW33466   0.594   2.563   1.653  0.1085  0.3733  0.0173
 7336SOL    HW133467   0.597   2.570   1.748  1.2445  0.4429 -0.0145
 7336SOL    HW233468   0.518   2.505   1.648  0.9483 -0.7063 -0.2929
 7337SOL     OW33469   1.344   1.092   8.307  0.0739 -0.0064 -0.1870
 7337SOL    HW133470   1.320   1.008   8.269  0.2313 -0.7533  1.3760
 7337SOL    HW233471   1.295   1.150   8.249 -3.0024 -0.7862  1.6472
 7338SOL     OW33472   4.553   0.819   0.974  0.0623 -0.3518  0.0587
 7338SOL    HW133473   4.552   0.909   1.006  0.2824 -0.3826  0.1520
 7338SOL    HW233474   4.625   0.779   1.023 -0.3035  0.0620  0.9216
 7339SOL     OW33475   0.505   0.443   8.218  0.1953  0.2695 -0.0660
 7339SOL    HW133476   0.541   0.442   8.129  0.0960  1.5962 -0.1230
 7339SOL    HW233477   0.563   0.385   8.267  1.7782  1.1210 -0.9122
 7340SOL     OW33478   4.485   1.663   4.081  0.7479  0.1190  0.0990
 7340SOL    HW133479   4.461   1.590   4.139  1.6300  0.9374  1.4850
 7340SOL    HW233480   4.431   1.637   4.006  0.8148  0.9989 -0.2506
 7341SOL     OW33481   3.541   1.364  13.826  0.2724 -0.0655 -0.2387
 7341SOL    HW133482   3.469   1.302  13.818  0.3984 -0.3508  0.7221
 7341SOL    HW233483   3.507   1.428  13.889  0.9261  0.3258 -0.2802
 7342SOL     OW33484   0.313   1.759   5.378 -0.2594 -0.1668 -0.3717
 7342SOL    HW133485   0.256   1.776   5.303 -0.1610  0.7931 -0.2298
 7342SOL    HW233486   0.268   1.716   5.450  0.7138  1.8461  1.4578
 7343SOL     OW33487   4.476   2.779   7.866  0.0786 -0.4360  0.1857
 7343SOL    HW133488   4.464   2.780   7.961 -2.0557 -0.4309 -0.0965
 7343SOL    HW233489   4.395   2.824   7.842  0.1823 -0.4201 -0.1387
 7344SOL     OW33490   3.654   1.524  13.471 -0.1309 -0.1005 -0.5585
 7344SOL    HW133491   3.605   1.570  13.540  0.8463  2.2949 -1.4654
 7344SOL    HW233492   3.681   1.445  13.519 -0.9680  0.3353  0.6471
 7345SOL     OW33493   0.128   1.733   4.621 -0.0099 -0.3074 -0.5124
 7345SOL    HW133494   0.135   1.820   4.582 -1.2157  0.2880  0.5836
 7345SOL    HW233495   0.039   1.724   4.655 -0.4792  0.6136 -1.4979
 7346SOL     OW33496   1.964   1.880   3.960 -0.2561  0.3698  0.3548
 7346SOL    HW133497   1.894   1.815   3.954  0.8402 -0.9543  2.0293
 7346SOL    HW233498   1.928   1.943   4.022 -1.5999 -1.3754  1.3603
 7347SOL     OW33499   4.656   4.443   5.719  0.1293  0.1853 -0.7559
 7347SOL    HW133500   0.003   4.382   5.689  0.6150  0.6159 -0.5359
 7347SOL    HW233501   4.642   4.499   5.643 -3.2437  1.0205  0.4876
 7348SOL     OW33502   1.988   1.420   6.574 -0.1243 -0.1971 -0.0995
 7348SOL    HW133503   1.993   1.503   6.526 -1.1319 -0.5342 -0.7937
 7348SOL    HW233504   1.926   1.442   6.644 -0.4603 -3.6143  0.6563
 7349SOL     OW33505   1.577   3.647  11.061 -0.0896 -0.4822 -0.2206
 7349SOL    HW133506   1.594   3.622  11.152  1.9619 -1.2089 -0.7899
 7349SOL    HW233507   1.606   3.738  11.057 -2.0924  0.2984  3.0892
 7350SOL     OW33508   2.212   1.178   3.273  0.7319  0.4029  0.0331
 7350SOL    HW133509   2.155   1.250   3.299  0.1537  0.1987 -0.6891
 7350SOL    HW233510   2.165   1.103   3.310  2.7163 -1.3994 -1.0801
 7351SOL     OW33511   4.577   2.431  11.744  0.1436 -0.1456 -0.0947
 7351SOL    HW133512   4.588   2.339  11.765 -1.2857  0.4937  3.4868
 7351SOL    HW233513   4.506   2.456  11.803  0.0285  0.8176 -0.6374
 7352SOL     OW33514   2.699   0.543   4.655 -0.7859  0.5702  0.1052
 7352SOL    HW133515   2.750   0.502   4.586 -0.0814  2.0262 -0.2458
 7352SOL    HW233516   2.757   0.529   4.730  0.2033 -1.5314 -1.0774
 7353SOL     OW33517   3.218   4.038   1.708 -0.2177  0.3253 -0.8084
 7353SOL    HW133518   3.172   4.110   1.750 -0.1826  1.4149 -2.6139
 7353SOL    HW233519   3.229   4.064   1.616  2.0225  1.7018 -0.1435
 7354SOL     OW33520   1.028   2.870   6.161  0.1397  0.5722  0.5822
 7354SOL    HW133521   1.058   2.917   6.083 -0.8804  0.9118  0.3875
 7354SOL    HW233522   1.081   2.791   6.151 -1.3602 -0.4088  0.3173
 7355SOL     OW33523   0.240   0.589   5.498 -0.1023 -0.0201  0.6123
 7355SOL    HW133524   0.282   0.505   5.516  1.7805  0.7422 -0.3351
 7355SOL    HW233525   0.310   0.647   5.527  1.0339 -1.4932  0.8284
 7356SOL     OW33526   2.648   1.294   3.571 -0.1787 -0.0639 -0.2102
 7356SOL    HW133527   2.638   1.363   3.505  0.8765  0.0769 -0.2352
 7356SOL    HW233528   2.576   1.233   3.555 -0.7281 -0.2318  2.9503
 7357SOL     OW33529   4.223   1.072   5.337 -0.2916 -0.3544  0.3877
 7357SOL    HW133530   4.242   1.166   5.337 -0.2309 -0.3635 -0.7513
 7357SOL    HW233531   4.208   1.057   5.244 -0.7150  1.1788  0.2178
 7358SOL     OW33532   1.061   1.166   1.555  0.4261 -0.3881 -0.2253
 7358SOL    HW133533   1.114   1.150   1.633  1.0841 -1.2908 -0.8546
 7358SOL    HW233534   0.974   1.168   1.594  0.0133 -0.4395 -1.1546
 7359SOL     OW33535   0.072   1.722   5.233 -0.0530  0.2954  0.1154
 7359SOL    HW133536   0.100   1.748   5.145  0.5971 -0.7556  0.0178
 7359SOL    HW233537   0.048   1.630   5.225 -2.0713  0.9350 -1.1950
 7360SOL     OW33538   4.518   1.472   6.566  0.3400  0.0931  0.5605
 7360SOL    HW133539   4.509   1.561   6.601 -1.1742 -0.1324  0.7312
 7360SOL    HW233540   4.567   1.424   6.633 -3.3861 -2.6312  1.3128
 7361SOL     OW33541   0.181   2.890  13.146  0.0818  0.4575 -0.6993
 7361SOL    HW133542   0.111   2.916  13.086  1.0754  1.4802 -1.4019
 7361SOL    HW233543   0.211   2.975  13.177 -1.0140  0.1276  1.2848
 7362SOL     OW33544   2.051   1.768   6.642 -0.3794 -0.0633 -0.2807
 7362SOL    HW133545   2.019   1.848   6.599 -0.2661 -0.6194 -1.3936
 7362SOL    HW233546   2.058   1.709   6.568  0.0836  2.2195 -2.0471
 7363SOL     OW33547   2.341   4.341   1.949  0.1863 -0.5888  0.4458
 7363SOL    HW133548   2.303   4.429   1.941  1.6642  0.0923  0.9578
 7363SOL    HW233549   2.365   4.324   1.858  2.2215  0.5001  0.7949
 7364SOL     OW33550   2.300   3.784   9.069  0.0122 -0.4498 -0.7009
 7364SOL    HW133551   2.377   3.837   9.090 -0.1140 -0.5938  0.1304
 7364SOL    HW233552   2.331   3.748   8.986  1.0114 -0.2826 -0.4012
 7365SOL     OW33553   2.790   0.050  13.832  0.1986  0.5341  0.3603
 7365SOL    HW133554   2.745   4.692  13.859 -0.1464  0.5512 -0.1647
 7365SOL    HW233555   2.720   0.094  13.784  0.0867  0.4312  0.4307
 7366SOL     OW33556   3.779   3.131  10.406  0.3827 -0.0434  0.0600
 7366SOL    HW133557   3.810   3.072  10.475 -1.0162  0.0906  0.7998
 7366SOL    HW233558   3.736   3.203  10.453 -0.2669 -0.9438  0.8435
 7367SOL     OW33559   2.892   3.508   0.379  0.0556 -0.1488 -0.2474
 7367SOL    HW133560   2.825   3.442   0.393  0.0930  0.2528  1.8590
 7367SOL    HW233561   2.840   3.562   0.319  1.8710  1.5290 -0.3204
 7368SOL     OW33562   0.717   0.666   9.024 -0.0699  0.3833  0.0523
 7368SOL    HW133563   0.729   0.576   8.993 -1.3675  0.3476 -0.3444
 7368SOL    HW233564   0.682   0.658   9.113 -1.4714  1.8418 -0.3742
 7369SOL     OW33565   0.775   0.098   1.766  0.1953 -0.4547 -0.1889
 7369SOL    HW133566   0.700   0.155   1.782 -0.5622 -0.9196 -2.0404
 7369SOL    HW233567   0.756   0.028   1.827 -0.7188  0.3854  0.4980
 7370SOL     OW33568   3.510   1.999   3.054  0.0245  0.3210 -0.1722
 7370SOL    HW133569   3.549   2.078   3.019 -2.0737  1.9534  1.2000
 7370SOL    HW233570   3.562   1.992   3.134 -0.8439  0.5438  0.4087
 7371SOL     OW33571   3.478   1.205  15.348  0.4098 -0.3747 -0.5174
 7371SOL    HW133572   3.515   1.261  15.280 -2.7476 -0.3114 -2.1465
 7371SOL    HW233573   3.400   1.173  15.303  0.6330 -0.5980 -0.7476
 7372SOL     OW33574   0.448   0.787   1.371  0.4598 -0.5108 -0.9091
 7372SOL    HW133575   0.510   0.722   1.404 -0.7135 -1.2614 -0.1836
 7372SOL    HW233576   0.508   0.857   1.347 -1.3403  2.1238  2.3152
 7373SOL     OW33577   0.186   1.662  11.461  0.2251 -0.2426  0.2584
 7373SOL    HW133578   0.261   1.721  11.452 -0.7493  0.6264 -2.2055
 7373SOL    HW233579   0.140   1.716  11.525 -1.5537 -3.2475  1.5005
 7374SOL     OW33580   1.522   1.791   3.883 -0.6464  0.2938 -0.3385
 7374SOL    HW133581   1.617   1.786   3.897 -0.7173  2.8355  1.1125
 7374SOL    HW233582   1.508   1.880   3.850 -2.3136 -0.6784 -2.1976
 7375SOL     OW33583   3.512   0.634   8.150  0.6765  0.4038  0.1367
 7375SOL    HW133584   3.434   0.601   8.105 -0.4913  3.4570 -0.0615
 7375SOL    HW233585   3.491   0.727   8.148  0.6508  0.4750  3.9554
 7376SOL     OW33586   2.543   4.370   3.648  0.6291 -0.7433 -0.3913
 7376SOL    HW133587   2.483   4.431   3.604 -0.8571 -0.7762  1.5884
 7376SOL    HW233588   2.566   4.429   3.719  1.7098 -0.0860 -1.2832
 7377SOL     OW33589   3.952   0.043   2.035 -0.0216  0.0919  0.2137
 7377SOL    HW133590   3.982   0.040   2.126  1.0941  0.4434 -0.1379
 7377SOL    HW233591   4.023   0.085   1.986 -0.1969  1.0068  0.7566
 7378SOL     OW33592   4.599   3.465   5.898  0.4346  0.0774  0.2292
 7378SOL    HW133593   4.603   3.377   5.860 -0.8049  0.4492 -0.7617
 7378SOL    HW233594   4.600   3.444   5.991  0.7542  1.8210  0.6138
 7379SOL     OW33595   0.943   3.373   5.705  0.1218 -0.1498  0.1378
 7379SOL    HW133596   0.863   3.424   5.689 -0.4433 -1.1487 -0.1781
 7379SOL    HW233597   0.917   3.319   5.780 -1.8706 -0.1392 -0.5544
 7380SOL     OW33598   3.255   2.755  13.123 -0.3163  0.5876  0.6408
 7380SOL    HW133599   3.221   2.817  13.057  1.7426  1.4151  0.3495
 7380SOL    HW233600   3.212   2.799  13.196 -0.8162  0.1558  0.6089
 7381SOL     OW33601   1.015   3.313  16.330 -0.0605  0.2087  0.4419
 7381SOL    HW133602   1.055   3.298  16.244 -1.9998 -1.7853 -0.0850
 7381SOL    HW233603   1.028   3.408  16.337  0.3917  0.3420 -1.9837
 7382SOL     OW33604   4.159   2.459   8.841  0.1454 -0.5768  0.1558
 7382SOL    HW133605   4.160   2.552   8.862 -0.1322 -0.4616 -0.3386
 7382SOL    HW233606   4.175   2.412   8.923  0.4513 -3.1436 -1.3739
 7383SOL     OW33607   1.589   4.066   3.723  0.0989  0.0292 -0.4086
 7383SOL    HW133608   1.632   3.985   3.750 -1.1523 -1.2123 -2.1476
 7383SOL    HW233609   1.501   4.061   3.759  0.2635  1.6639  0.2518
 7384SOL     OW33610   3.356   2.454  12.173 -0.4746  0.0431  0.1460
 7384SOL    HW133611   3.326   2.441  12.263 -1.0170  3.8445  0.5362
 7384SOL    HW233612   3.427   2.390  12.168 -0.4274  0.2986 -2.4257
 7385SOL     OW33613   3.923   4.328   6.725  0.7056 -0.1853  0.0123
 7385SOL    HW133614   3.980   4.304   6.652  1.5719  2.2684 -0.1412
 7385SOL    HW233615   3.849   4.369   6.681  0.9302 -0.4780 -0.6410
 7386SOL     OW33616   4.623   0.943   4.446 -0.5295 -0.5791  0.0263
 7386SOL    HW133617   4.648   1.033   4.468 -0.7234 -0.7480  0.9435
 7386SOL    HW233618   4.531   0.962   4.431 -0.5823 -1.4905 -0.7795
 7387SOL     OW33619   3.615   2.768   7.170  0.9519  0.0489 -0.2856
 7387SOL    HW133620   3.657   2.689   7.204 -0.7349 -0.3663  0.8494
 7387SOL    HW233621   3.613   2.738   7.079  1.2304 -0.7949 -0.0174
 7388SOL     OW33622   2.809   2.682   3.216 -0.2268 -0.3726 -0.1525
 7388SOL    HW133623   2.774   2.725   3.294  1.5073  1.0423 -0.1673
 7388SOL    HW233624   2.886   2.638   3.252  1.0158  1.5873 -0.4357
 7389SOL     OW33625   4.603   3.650   2.575 -0.7793 -0.3764  0.0647
 7389SOL    HW133626   4.696   3.675   2.576 -1.1249  0.9506 -0.9688
 7389SOL    HW233627   4.587   3.666   2.668  0.2639 -0.9553  0.3456
 7390SOL     OW33628   2.664   2.089   8.332 -0.0408  0.4592  0.5142
 7390SOL    HW133629   2.608   2.137   8.271  0.2629 -2.3356 -1.9508
 7390SOL    HW233630   2.653   2.144   8.410  0.5737  0.5387  0.5463
 7391SOL     OW33631   2.649   0.050   0.157  0.6548  0.1705 -0.4057
 7391SOL    HW133632   2.620   4.700   0.214 -0.9499  1.5623  0.5714
 7391SOL    HW233633   2.713   0.089   0.216 -0.3869 -0.9719  1.4802
 7392SOL     OW33634   3.074   0.230   3.501 -0.2484 -0.7976  0.0842
 7392SOL    HW133635   3.045   0.237   3.410  0.1130  2.7940  0.2614
 7392SOL    HW233636   3.169   0.225   3.495 -0.2677  0.6046 -1.2889
 7393SOL     OW33637   0.847   4.198  10.333  0.8346  0.5915  0.3745
 7393SOL    HW133638   0.875   4.107  10.324  3.2315  1.3597 -0.0696
 7393SOL    HW233639   0.759   4.194  10.371  0.7560  1.0327  0.2475
 7394SOL     OW33640   0.433   0.928  15.506 -0.0866  0.3335 -0.7150
 7394SOL    HW133641   0.470   0.843  15.482  0.8937  1.0195 -1.6636
 7394SOL    HW233642   0.503   0.990  15.484 -0.5375  0.7961 -0.8642
 7395SOL     OW33643   1.362   0.601  12.396  0.3116  0.1972  0.2471
 7395SOL    HW133644   1.343   0.545  12.321 -0.4302  2.0266 -0.9264
 7395SOL    HW233645   1.278   0.593  12.441 -0.0003 -0.0354 -0.3718
 7396SOL     OW33646   3.576   2.166   4.430  0.6289  0.2065 -0.0675
 7396SOL    HW133647   3.583   2.255   4.398 -0.2831  0.5985  0.8156
 7396SOL    HW233648   3.626   2.115   4.367 -0.9354  0.0805 -1.2166
 7397SOL     OW33649   4.474   3.465   1.144 -0.0140  0.1952 -0.1468
 7397SOL    HW133650   4.536   3.394   1.165  1.4434  1.7576  0.8581
 7397SOL    HW233651   4.406   3.443   1.208 -1.3497 -0.2538 -1.7280
 7398SOL     OW33652   1.713   2.151   1.235 -0.1582  0.4529 -0.6501
 7398SOL    HW133653   1.766   2.085   1.190  0.9039  1.0917 -0.3330
 7398SOL    HW233654   1.775   2.216   1.267  2.5960 -3.3334  1.6917
 7399SOL     OW33655   1.493   4.351   5.242 -0.2548  0.7655  0.4141
 7399SOL    HW133656   1.541   4.268   5.247 -1.9797 -0.2881 -0.7056
 7399SOL    HW233657   1.456   4.355   5.330 -0.0598  2.3836  0.4201
 7400SOL     OW33658   0.139   0.377   4.835  0.1054  0.2530 -0.1735
 7400SOL    HW133659   0.105   0.414   4.917  0.4331 -0.8514  0.4599
 7400SOL    HW233660   0.231   0.398   4.853  0.4264 -2.8605  1.7566
 7401SOL     OW33661   0.940   0.790   3.621 -0.3039 -0.1092 -0.4510
 7401SOL    HW133662   0.855   0.807   3.662  1.3508  1.8221  2.1411
 7401SOL    HW233663   0.969   0.862   3.565  1.5483  0.2220  0.9451
 7402SOL     OW33664   1.867   4.068   6.964  0.4309 -0.4544  0.5203
 7402SOL    HW133665   1.957   4.071   6.996  0.0024  0.8865  1.5985
 7402SOL    HW233666   1.877   4.070   6.868  0.2126 -0.1745  0.5015
 7403SOL     OW33667   4.078   0.563   3.282  0.1585 -0.4362  0.3547
 7403SOL    HW133668   4.147   0.539   3.220  0.2256 -2.6762  1.2883
 7403SOL    HW233669   4.053   0.479   3.320 -1.5690  0.8872  2.1684
 7404SOL     OW33670   2.471   3.305   7.030  0.4911  0.1732 -0.7956
 7404SOL    HW133671   2.412   3.353   6.972  2.5578  1.5802 -1.7355
 7404SOL    HW233672   2.499   3.380   7.083  2.1007  0.0700 -1.5122
 7405SOL     OW33673   3.532   3.221  15.945 -0.6731 -0.3771  0.2094
 7405SOL    HW133674   3.451   3.265  15.971  0.0864  1.0966  0.0535
 7405SOL    HW233675   3.507   3.132  15.971 -0.4324 -0.3683  0.4603
 7406SOL     OW33676   2.626   2.095   2.527  0.2374  0.1581 -0.2727
 7406SOL    HW133677   2.682   2.035   2.477  1.4113 -2.1485  3.7944
 7406SOL    HW233678   2.593   2.141   2.450 -0.1181  0.2955 -0.0346
 7407SOL     OW33679   4.200   3.235   3.035 -0.2178  0.4340 -0.0565
 7407SOL    HW133680   4.153   3.159   3.072 -0.6652 -0.0111 -1.5139
 7407SOL    HW233681   4.291   3.213   3.052 -0.6828 -2.1006 -0.7119
 7408SOL     OW33682   1.485   1.604   6.613 -0.6611  0.5291  0.1284
 7408SOL    HW133683   1.470   1.566   6.700  0.5294 -1.4155 -0.5123
 7408SOL    HW233684   1.506   1.697   6.628  0.8165  0.6071 -2.4202
 7409SOL     OW33685   3.803   3.214   2.735  0.0339 -0.0874 -0.0650
 7409SOL    HW133686   3.772   3.217   2.645 -2.1089  0.8115  0.6968
 7409SOL    HW233687   3.886   3.170   2.717  0.0567  0.7642 -1.9496
 7410SOL     OW33688   3.592   0.244   3.715 -0.1885 -0.0823 -0.0888
 7410SOL    HW133689   3.533   0.171   3.731  0.6986  0.2147  4.4820
 7410SOL    HW233690   3.660   0.235   3.782 -1.3652  1.2031  1.2832
 7411SOL     OW33691   3.475   2.864  10.625  0.4958 -0.5774 -0.0996
 7411SOL    HW133692   3.556   2.900  10.662  0.1340  0.1430 -0.0039
 7411SOL    HW233693   3.433   2.822  10.701 -0.8545 -0.6836 -0.9136
 7412SOL     OW33694   1.283   3.947  14.913  0.4856 -0.1659 -0.7389
 7412SOL    HW133695   1.349   3.929  14.846 -0.3016  0.1875 -1.6202
 7412SOL    HW233696   1.296   3.871  14.969  1.5612  0.0700 -0.6670
 7413SOL     OW33697   1.021   3.392  10.362 -0.0547  0.4923  0.4838
 7413SOL    HW133698   0.999   3.369  10.453  1.2902 -0.7219  0.4965
 7413SOL    HW233699   0.953   3.345  10.314  0.4396  0.7279 -0.4343
 7414SOL     OW33700   1.629   1.647   8.182 -0.2613  0.5003  0.0445
 7414SOL    HW133701   1.677   1.726   8.157 -1.2024  1.0778  0.0806
 7414SOL    HW233702   1.540   1.661   8.213  0.2535  1.6394  1.0003
 7415SOL     OW33703   4.452   4.329  11.148 -0.1239  0.3093  0.0924
 7415SOL    HW133704   4.377   4.335  11.089  0.9966  1.6941 -1.1953
 7415SOL    HW233705   4.461   4.416  11.188 -2.3412  1.0703 -1.0443
 7416SOL     OW33706   3.717   3.941   8.070  0.3535 -0.0762 -0.7527
 7416SOL    HW133707   3.762   4.023   8.092 -0.1891 -0.2490  0.9693
 7416SOL    HW233708   3.786   3.884   8.037 -1.1225 -1.0170 -2.2062
 7417SOL     OW33709   2.693   2.669   4.420  0.3884  0.3888  0.5158
 7417SOL    HW133710   2.769   2.684   4.476  2.2771  1.0765 -2.2489
 7417SOL    HW233711   2.641   2.621   4.485  2.3684 -1.3334  0.8183
 7418SOL     OW33712   3.614   0.654   2.770 -0.0171  0.4714 -0.3349
 7418SOL    HW133713   3.657   0.724   2.721  2.1078 -0.6326 -0.0371
 7418SOL    HW233714   3.690   0.615   2.813  0.3738 -0.3885 -1.8115
 7419SOL     OW33715   0.281   3.909   5.761  0.2457 -0.2308  0.3026
 7419SOL    HW133716   0.206   3.959   5.729 -0.1581 -1.1448 -0.1905
 7419SOL    HW233717   0.255   3.825   5.723  0.5182 -0.3790  0.4439
 7420SOL     OW33718   0.410   1.018   2.969 -0.1017 -0.0873  0.7223
 7420SOL    HW133719   0.361   0.974   3.039 -1.9551  2.2168  0.8620
 7420SOL    HW233720   0.375   1.107   2.979  0.6001  0.5628 -2.7777
 7421SOL     OW33721   0.868   1.390   6.028  0.5785 -0.4270 -0.5836
 7421SOL    HW133722   0.886   1.470   6.078  1.5960 -1.0662  0.0840
 7421SOL    HW233723   0.952   1.360   5.992  1.7410 -0.1631  1.8691
 7422SOL     OW33724   3.160   4.103  12.255 -0.1273  0.0343 -0.8499
 7422SOL    HW133725   3.159   4.012  12.285 -1.7866 -0.1993 -1.6296
 7422SOL    HW233726   3.133   4.158  12.328 -0.2562  1.2781 -1.8491
 7423SOL     OW33727   3.969   1.858  10.424  0.0385 -0.0995 -0.2959
 7423SOL    HW133728   3.899   1.913  10.390 -0.8675  1.5823  4.3020
 7423SOL    HW233729   4.042   1.909  10.390  1.1092 -1.4373  0.0036
 7424SOL     OW33730   3.104   2.158   8.678 -0.3029 -0.3978 -0.0496
 7424SOL    HW133731   3.192   2.140   8.712  0.8199 -0.3248 -2.9381
 7424SOL    HW233732   3.117   2.140   8.585 -1.7963 -1.6909 -0.0179
 7425SOL     OW33733   1.155   1.789   6.222 -0.2269 -0.2646  0.7948
 7425SOL    HW133734   1.062   1.772   6.241 -0.3184 -0.7355 -0.0826
 7425SOL    HW233735   1.158   1.798   6.127  0.3947  0.7825  0.9157
 7426SOL     OW33736   2.804   3.911   1.631  0.3018  0.2852 -0.8524
 7426SOL    HW133737   2.830   3.900   1.540  1.4850  1.3414 -0.6457
 7426SOL    HW233738   2.777   4.002   1.618  0.5203  0.6800  1.3959
 7427SOL     OW33739   2.257   0.726   4.538  0.8045  0.0656 -0.0602
 7427SOL    HW133740   2.326   0.691   4.593  1.3441 -0.0127 -0.7917
 7427SOL    HW233741   2.284   0.701   4.449 -0.3392 -1.2042 -0.0512
 7428SOL     OW33742   1.003   4.508   9.022  0.0031 -0.6204  0.4197
 7428SOL    HW133743   0.998   4.561   9.102 -2.6450  1.2415 -0.9658
 7428SOL    HW233744   1.040   4.577   8.966  1.7019 -1.3424  0.6444
 7429SOL     OW33745   2.398   0.198  11.760 -0.1046 -0.7404  0.3480
 7429SOL    HW133746   2.409   0.249  11.680  2.0416 -0.7512  0.6176
 7429SOL    HW233747   2.333   0.132  11.736  0.0456 -1.1663  1.1211
 7430SOL     OW33748   3.895   3.245   5.127  0.2438 -0.0296 -0.0632
 7430SOL    HW133749   3.856   3.181   5.068  1.0647  2.3730 -3.2265
 7430SOL    HW233750   3.832   3.316   5.113 -0.4743 -0.4395  1.0898
 7431SOL     OW33751   4.324   1.591   6.023  0.8189  0.4695  0.5775
 7431SOL    HW133752   4.417   1.612   6.028  0.5023  1.8866  0.3909
 7431SOL    HW233753   4.305   1.528   6.092  0.1488  0.0584  0.0232
 7432SOL     OW33754   0.692   3.421   1.361 -0.1420 -0.2083  0.7417
 7432SOL    HW133755   0.787   3.427   1.351 -0.4547  0.6723 -1.7168
 7432SOL    HW233756   0.658   3.505   1.333 -1.1236 -0.8469  0.0241
 7433SOL     OW33757   1.837   2.844  13.686 -0.1183 -0.6010 -0.2978
 7433SOL    HW133758   1.845   2.782  13.613 -0.3969 -0.3734 -0.5247
 7433SOL    HW233759   1.787   2.791  13.749 -0.2312  1.7223  1.5607
 7434SOL     OW33760   2.189   1.751   4.024 -0.1071 -0.1685 -0.4753
 7434SOL    HW133761   2.259   1.814   4.012 -0.6501  0.6846  0.8232
 7434SOL    HW233762   2.114   1.807   4.001 -0.4619 -0.1540  0.7394
 7435SOL     OW33763   2.811   3.021   8.803  0.5579  0.2786  0.1195
 7435SOL    HW133764   2.802   3.106   8.847 -0.4870 -0.4587  1.3396
 7435SOL    HW233765   2.757   2.967   8.861  0.1070  0.0303 -0.5398
 7436SOL     OW33766   3.660   2.067   5.796 -0.1853 -0.5854 -0.7142
 7436SOL    HW133767   3.734   2.097   5.848 -0.4056  0.5594 -1.0462
 7436SOL    HW233768   3.601   2.142   5.810 -0.6385 -0.8629 -1.1140
 7437SOL     OW33769   2.708   0.704   5.158 -0.1081  0.2468 -0.6278
 7437SOL    HW133770   2.765   0.771   5.120 -0.5616  0.1585 -1.4589
 7437SOL    HW233771   2.634   0.759   5.183  1.2904  1.6153  0.5345
 7438SOL     OW33772   1.764   2.305   0.266  0.2593  0.2903  0.8690
 7438SOL    HW133773   1.669   2.307   0.282  0.1861 -0.5309  0.5426
 7438SOL    HW233774   1.793   2.228   0.316  2.1714  1.0031  0.8578
 7439SOL     OW33775   1.355   4.132  10.175  0.3389  0.2076  0.3190
 7439SOL    HW133776   1.277   4.186  10.158  1.2871  1.3320 -0.4391
 7439SOL    HW233777   1.362   4.074  10.100  0.7934  0.6128  0.0473
 7440SOL     OW33778   2.452   4.417   4.942  0.4740 -0.3329  0.0322
 7440SOL    HW133779   2.373   4.464   4.916  0.3040 -0.0485  1.0851
 7440SOL    HW233780   2.423   4.352   5.005 -1.7249  0.1702 -0.4648
 7441SOL     OW33781   4.565   1.459   5.029 -0.1119 -0.2398  0.5546
 7441SOL    HW133782   4.650   1.497   5.005 -0.2281  0.0755  0.6368
 7441SOL    HW233783   4.529   1.422   4.949  0.1165  0.4598  0.1315
 7442SOL     OW33784   4.285   0.898   4.126  0.1410 -0.0704 -0.0577
 7442SOL    HW133785   4.321   0.901   4.214  0.4351 -0.2012 -0.1739
 7442SOL    HW233786   4.276   0.990   4.101 -0.0113 -0.2098 -0.5169
 7443SOL     OW33787   3.155   0.173   2.494  0.3605  0.3615  0.2998
 7443SOL    HW133788   3.203   0.252   2.468 -1.1210  1.0730 -0.2948
 7443SOL    HW233789   3.093   0.167   2.421 -0.2607 -0.0508  0.8665
 7444SOL     OW33790   1.842   2.034   4.136 -0.2929 -0.1025 -0.1589
 7444SOL    HW133791   1.785   2.079   4.074  0.2023  0.4779 -0.1873
 7444SOL    HW233792   1.797   2.040   4.220  0.2387 -0.1596  0.1324
 7445SOL     OW33793   4.582   3.865  16.275  0.1010 -0.4832 -0.3438
 7445SOL    HW133794   4.559   3.956  16.257  2.3520 -0.0673 -1.1672
 7445SOL    HW233795   4.525   3.843  16.348 -0.8666  2.1432 -0.3351
 7446SOL     OW33796   4.143   4.277   2.932  0.4381 -0.5254  0.2134
 7446SOL    HW133797   4.231   4.271   2.970  1.0609  1.2297 -0.9393
 7446SOL    HW233798   4.105   4.193   2.955 -1.0508  0.6029  1.8722
 7447SOL     OW33799   4.551   2.046  15.467  0.2825 -0.1976 -0.3894
 7447SOL    HW133800   4.522   1.974  15.524  0.0634  0.4488  0.3217
 7447SOL    HW233801   4.639   2.054  15.504  0.4139  1.4041 -1.0561
 7448SOL     OW33802   3.131   1.035   7.767  0.4648 -0.4824 -0.1004
 7448SOL    HW133803   3.069   1.098   7.804  1.3345  0.8177 -0.8769
 7448SOL    HW233804   3.209   1.073   7.807 -0.4116 -0.0071  1.1458
 7449SOL     OW33805   1.959   1.434   9.531  0.1541  0.3167  0.1460
 7449SOL    HW133806   1.926   1.422   9.442 -2.9977 -0.0510  1.3545
 7449SOL    HW233807   1.933   1.350   9.569  0.7017  0.5089  0.9297
 7450SOL     OW33808   2.827   3.790  10.400 -0.3443  0.4879  0.0847
 7450SOL    HW133809   2.786   3.872  10.374  1.1820  1.6133  1.2221
 7450SOL    HW233810   2.783   3.789  10.485 -0.2416 -0.2175  0.1310
 7451SOL     OW33811   2.905   1.366   4.328  0.4704  0.1479  0.4730
 7451SOL    HW133812   2.967   1.304   4.368 -0.7936 -1.9321 -0.7631
 7451SOL    HW233813   2.844   1.387   4.398 -0.1683  0.9728 -0.3436
 7452SOL     OW33814   1.703   2.473   3.427 -0.0297 -0.0651 -0.2987
 7452SOL    HW133815   1.723   2.555   3.472  2.5844 -1.3712  0.9532
 7452SOL    HW233816   1.758   2.408   3.472  0.7877  1.4717  0.9431
 7453SOL     OW33817   0.628   0.649  11.846  0.4210 -0.2942  0.0593
 7453SOL    HW133818   0.711   0.672  11.886 -0.3541  0.0226  1.4971
 7453SOL    HW233819   0.574   0.645  11.926 -0.5595  0.2935 -0.5655
 7454SOL     OW33820   4.040   3.769   7.788  0.2343  0.6037 -0.1696
 7454SOL    HW133821   4.015   3.860   7.806  1.2893  1.0521 -1.0236
 7454SOL    HW233822   3.996   3.719   7.857  1.6136 -1.4624 -0.8038
 7455SOL     OW33823   0.677   3.415   5.144  0.1115 -0.4135 -0.0334
 7455SOL    HW133824   0.690   3.405   5.050  1.6703 -0.7429  0.2153
 7455SOL    HW233825   0.677   3.509   5.130 -0.1838 -0.1288  1.9236
 7456SOL     OW33826   1.616   0.776   5.284 -0.0735 -0.1612 -0.1495
 7456SOL    HW133827   1.580   0.811   5.202  1.2429  0.6201 -0.3807
 7456SOL    HW233828   1.557   0.701   5.277  1.0691 -1.2232  1.6052
 7457SOL     OW33829   4.566   4.016   2.723 -0.1602  0.0920 -0.3779
 7457SOL    HW133830   4.501   3.980   2.782  1.1297  1.1330  1.6794
 7457SOL    HW233831   4.535   3.981   2.639 -0.0159 -1.0222  0.0405
 7458SOL     OW33832   3.265   3.771   4.352  0.2788 -0.2786 -0.2584
 7458SOL    HW133833   3.358   3.748   4.356  0.8549  1.2457 -4.3490
 7458SOL    HW233834   3.247   3.765   4.446  1.0328  1.0311 -0.0290
 7459SOL     OW33835   3.759   2.003   3.256  0.0651 -0.6969  0.4932
 7459SOL    HW133836   3.778   1.969   3.344 -1.5866  0.2838  1.2263
 7459SOL    HW233837   3.806   1.936   3.206 -0.4888  2.0766 -3.6952
 7460SOL     OW33838   0.140   0.997   3.992  0.1742  0.3770  0.0218
 7460SOL    HW133839   0.137   0.922   4.052  1.6133  2.1568  2.3246
 7460SOL    HW233840   0.165   0.932   3.926 -3.4157 -2.2234  1.1909
 7461SOL     OW33841   2.161   2.952  10.872 -0.4917  0.3400 -0.5384
 7461SOL    HW133842   2.158   2.930  10.779 -1.7984  0.1476 -0.4489
 7461SOL    HW233843   2.188   2.867  10.909 -0.8823  0.7367  0.6739
 7462SOL     OW33844   0.562   1.401   2.315 -0.4349 -0.4632 -0.0369
 7462SOL    HW133845   0.597   1.396   2.226  0.4546  0.1184  0.2762
 7462SOL    HW233846   0.510   1.481   2.308 -1.9972 -1.4894 -0.0072
 7463SOL     OW33847   3.876   0.368   7.003 -0.0538  0.5988  0.4251
 7463SOL    HW133848   3.904   0.336   7.089 -1.4840 -1.3856  0.1708
 7463SOL    HW233849   3.891   0.296   6.942 -0.7441  1.5401 -0.8573
 7464SOL     OW33850   0.497   3.742   0.847 -0.0116 -0.2909  0.6180
 7464SOL    HW133851   0.486   3.671   0.784  0.9946 -1.5079  1.8154
 7464SOL    HW233852   0.409   3.761   0.881  0.2310 -0.4228  1.3060
 7465SOL     OW33853   1.711   4.338  14.667  0.0705 -0.0736  0.7496
 7465SOL    HW133854   1.785   4.390  14.699  0.1197  0.0389  0.4526
 7465SOL    HW233855   1.758   4.254  14.666 -0.5877 -0.4358  0.4779
 7466SOL     OW33856   0.857   2.006   8.779  0.7352  0.0111 -0.3170
 7466SOL    HW133857   0.788   2.045   8.725  1.1875  0.1498 -0.7989
 7466SOL    HW233858   0.924   2.074   8.771 -0.3836  1.1486  0.0122
 7467SOL     OW33859   3.068   3.596   8.478 -0.1704 -0.0505 -0.5858
 7467SOL    HW133860   2.995   3.618   8.536 -0.8954 -0.6871 -1.2618
 7467SOL    HW233861   3.039   3.653   8.407 -1.5780  1.0779  0.8868
 7468SOL     OW33862   2.382   0.303  13.921 -0.0650 -0.2757 -0.3100
 7468SOL    HW133863   2.298   0.297  13.967  0.4209  2.2863  0.8755
 7468SOL    HW233864   2.403   0.396  13.923  0.1336 -0.3197 -0.3536
 7469SOL     OW33865   2.399   0.706  11.319 -0.0922 -0.0933 -0.4297
 7469SOL    HW133866   2.308   0.681  11.334 -0.2789  1.3153  0.7921
 7469SOL    HW233867   2.419   0.673  11.407  0.1862  1.2497  0.0181
 7470SOL     OW33868   2.044   4.508   3.165 -0.8001  0.2007  0.4181
 7470SOL    HW133869   1.978   4.556   3.114  0.2355  1.4209  0.2291
 7470SOL    HW233870   2.035   4.551   3.250 -1.8956  0.9203 -0.0595
 7471SOL     OW33871   4.129   1.615   2.767  0.5382  0.4215  0.9796
 7471SOL    HW133872   4.112   1.544   2.705 -0.8299  1.2087  0.4649
 7471SOL    HW233873   4.177   1.575   2.839  1.6005 -0.4915 -0.2309
 7472SOL     OW33874   0.041   0.858   6.488 -0.2073  0.0275 -0.0135
 7472SOL    HW133875   0.031   0.953   6.483 -2.4573 -0.2685 -1.4084
 7472SOL    HW233876   4.669   0.846   6.473 -0.2735 -1.5172  1.5835
 7473SOL     OW33877   0.103   3.461  10.178  0.1569 -0.4876  0.0221
 7473SOL    HW133878   0.160   3.515  10.124  0.3573  0.2615  0.9885
 7473SOL    HW233879   0.058   3.527  10.231  1.0347  0.3213 -0.2638
 7474SOL     OW33880   3.715   0.855  17.076  0.0527  0.1912 -0.0818
 7474SOL    HW133881   3.669   0.771  17.074 -0.2805  0.4152 -1.8041
 7474SOL    HW233882   3.640   0.906  17.046  0.0214  0.7224  0.8871
 7475SOL     OW33883   0.487   3.600   5.640 -0.2071  0.2267  0.0297
 7475SOL    HW133884   0.393   3.585   5.652  0.1339 -1.6050  0.4247
 7475SOL    HW233885   0.491   3.692   5.666 -1.1177  0.5245 -0.9023
 7476SOL     OW33886   2.421   4.067   2.813 -0.3385  0.1160  0.6166
 7476SOL    HW133887   2.473   4.111   2.746 -0.5059 -0.6825 -0.0317
 7476SOL    HW233888   2.333   4.059   2.776 -0.6492  1.1853  1.1398
 7477SOL     OW33889   1.519   3.183   3.533  0.4514 -0.3156  0.0957
 7477SOL    HW133890   1.592   3.133   3.570 -0.7211 -1.4488  0.8859
 7477SOL    HW233891   1.498   3.136   3.452  1.1651  0.5261 -0.5867
 7478SOL     OW33892   2.300   4.188   2.177  0.1080 -0.1647 -0.5274
 7478SOL    HW133893   2.315   4.261   2.117 -1.1476  1.2866  0.9386
 7478SOL    HW233894   2.275   4.122   2.111 -0.0852 -0.0912 -0.5280
 7479SOL     OW33895   0.164   1.611  17.120 -0.7562  0.1698 -0.5700
 7479SOL    HW133896   0.257   1.633  17.129 -0.2214 -2.6308  0.5069
 7479SOL    HW233897   0.168   1.518  17.139 -2.3538  0.8333  3.0040
 7480SOL     OW33898   2.988   3.915   7.903 -0.1251  0.4814  0.0226
 7480SOL    HW133899   2.990   4.010   7.912  1.5312  0.3929  0.5719
 7480SOL    HW233900   2.932   3.887   7.975  0.1171  1.7755  0.7131
 7481SOL     OW33901   1.026   4.684   3.387  0.4817 -0.6552 -0.6410
 7481SOL    HW133902   1.014   4.618   3.456  0.7179  0.3828  0.3942
 7481SOL    HW233903   1.018   4.642   3.302  1.9976  1.0276 -1.6123
 7482SOL     OW33904   1.797   3.818   7.087  0.1592 -1.0710  0.0407
 7482SOL    HW133905   1.803   3.901   7.040 -1.9838 -1.3334 -0.7175
 7482SOL    HW233906   1.816   3.846   7.176 -0.5986  2.5444 -0.9541
 7483SOL     OW33907   1.698   1.647   5.506  0.0931 -0.3989  0.0439
 7483SOL    HW133908   1.706   1.587   5.580  1.0101  1.4068  1.4012
 7483SOL    HW233909   1.661   1.727   5.542  1.1101 -0.3687  1.0136
 7484SOL     OW33910   3.083   0.472   5.847 -0.1318 -0.0127 -0.3518
 7484SOL    HW133911   2.992   0.446   5.859 -0.6976  0.9470 -2.5809
 7484SOL    HW233912   3.134   0.408   5.897  0.8467 -1.0135 -2.6102
 7485SOL     OW33913   2.554   4.187  17.165 -0.1818 -0.2312 -0.0120
 7485SOL    HW133914   2.623   4.234  17.211 -2.0298  0.4051  2.1386
 7485SOL    HW233915   2.611   4.145  17.101  1.0092  1.2054  0.1309
 7486SOL     OW33916   0.170   3.130  13.815 -0.0561  0.0140 -0.4122
 7486SOL    HW133917   0.205   3.219  13.819  0.2290 -0.0621 -1.0703
 7486SOL    HW233918   0.118   3.130  13.734  1.7790  0.0401 -1.6036
 7487SOL     OW33919   4.539   1.629   3.231 -0.3142  0.4488  0.0308
 7487SOL    HW133920   4.542   1.632   3.327  2.2624 -0.6753  0.0007
 7487SOL    HW233921   4.544   1.723   3.214  1.2150  0.3694  0.0036
 7488SOL     OW33922   2.134   3.125   2.579 -0.3030  0.0247  0.5567
 7488SOL    HW133923   2.173   3.059   2.636  1.1391  1.6453  1.4350
 7488SOL    HW233924   2.156   3.205   2.626  2.6058  0.1210 -0.9761
 7489SOL     OW33925   3.927   1.317   5.291 -0.0665  0.1145 -0.3957
 7489SOL    HW133926   4.015   1.303   5.325 -0.0705  1.5217  0.1851
 7489SOL    HW233927   3.872   1.282   5.361 -0.8532  1.3031 -0.4202
 7490SOL     OW33928   0.891   0.152   7.661 -0.0311 -0.5687  0.0554
 7490SOL    HW133929   0.798   0.150   7.682 -0.1431  0.7544 -0.2757
 7490SOL    HW233930   0.899   0.218   7.591  0.4884  0.8764  1.4796
 7491SOL     OW33931   1.462   3.515   5.505 -0.0154  0.3101 -0.2672
 7491SOL    HW133932   1.416   3.556   5.578  0.2579 -0.5086  0.3714
 7491SOL    HW233933   1.390   3.534   5.445  0.6179  0.8102 -0.8633
 7492SOL     OW33934   3.293   1.488   6.703  0.5907 -0.3857 -0.2135
 7492SOL    HW133935   3.221   1.455   6.756  1.0546  0.6164  1.0369
 7492SOL    HW233936   3.362   1.428   6.731  1.9511  2.3085  2.1731
 7493SOL     OW33937   2.861   4.398   4.203 -0.0017  0.8208 -0.0215
 7493SOL    HW133938   2.908   4.368   4.125 -0.4776 -2.3416  0.9356
 7493SOL    HW233939   2.921   4.457   4.250  0.1541  0.8574 -0.2694
 7494SOL     OW33940   1.658   4.386   5.651  0.0120 -0.3665 -0.9881
 7494SOL    HW133941   1.637   4.450   5.719  2.6959 -2.0790  1.4248
 7494SOL    HW233942   1.724   4.437   5.604 -0.9316  0.7082 -1.1528
 7495SOL     OW33943   3.057   0.123   5.613  0.6139  0.1946  0.4641
 7495SOL    HW133944   2.971   0.098   5.648  0.0015 -1.8725 -2.4817
 7495SOL    HW233945   3.047   0.111   5.519  1.4551 -1.2721  0.5592
 7496SOL     OW33946   1.264   1.417   7.664  0.4557 -0.9441 -0.6058
 7496SOL    HW133947   1.218   1.449   7.741  2.4896  0.4650  0.0341
 7496SOL    HW233948   1.210   1.454   7.594  0.9342  1.2612  0.1923
 7497SOL     OW33949   3.886   1.234  12.546  0.8799  0.1733 -0.5728
 7497SOL    HW133950   3.834   1.267  12.619 -0.0636 -3.3268  0.3629
 7497SOL    HW233951   3.970   1.262  12.581 -0.0790  0.2002  1.7234
 7498SOL     OW33952   1.722   3.573   5.076  0.9377 -0.3476 -0.1018
 7498SOL    HW133953   1.677   3.491   5.055 -1.3698  0.7466  0.5985
 7498SOL    HW233954   1.813   3.547   5.094 -0.3381 -1.8670  4.2088
 7499SOL     OW33955   1.648   0.381  12.380  0.2328 -0.1893 -0.0374
 7499SOL    HW133956   1.614   0.341  12.300 -2.5027 -0.4905  1.2720
 7499SOL    HW233957   1.741   0.358  12.374 -0.3534 -2.1111 -1.8485
 7500SOL     OW33958   0.724   2.741   8.156  0.2341  0.3660  0.0821
 7500SOL    HW133959   0.654   2.797   8.188 -0.9172  0.4818 -2.6158
 7500SOL    HW233960   0.785   2.803   8.114  2.4394 -1.0894  1.1733
 7501SOL     OW33961   0.993   0.509   2.131 -0.3329 -0.2203  0.6162
 7501SOL    HW133962   1.038   0.557   2.062 -0.1281 -1.4078 -0.0642
 7501SOL    HW233963   0.907   0.551   2.133 -1.3444 -2.3506  0.7108
 7502SOL     OW33964   1.895   2.270  16.653  0.3172  0.0831 -0.2428
 7502SOL    HW133965   1.986   2.300  16.646  0.1708  0.2408 -1.3528
 7502SOL    HW233966   1.885   2.177  16.633 -1.4431  0.7735 -2.4860
 7503SOL     OW33967   1.200   2.647  12.344  0.2410  0.3443  0.1954
 7503SOL    HW133968   1.177   2.583  12.412  2.1622  2.0419  2.4607
 7503SOL    HW233969   1.160   2.727  12.378  0.3107  1.5027 -2.4995
 7504SOL     OW33970   2.748   3.584   7.168  0.0053 -0.1030  0.4488
 7504SOL    HW133971   2.817   3.612   7.107  0.8116 -3.0635 -0.0134
 7504SOL    HW233972   2.778   3.496   7.189 -1.1979 -1.2485 -2.6709
 7505SOL     OW33973   4.402   2.837  15.312  0.1979 -0.1271  0.8330
 7505SOL    HW133974   4.466   2.820  15.382 -1.7303 -1.8954  2.1609
 7505SOL    HW233975   4.337   2.887  15.362 -1.6241  0.8719 -2.5361
 7506SOL     OW33976   3.626   3.705   4.075 -0.2541 -0.0186  0.2350
 7506SOL    HW133977   3.606   3.741   3.989  0.3066  1.0592  0.5660
 7506SOL    HW233978   3.586   3.769   4.134 -2.4849  1.1029 -2.4398
 7507SOL     OW33979   2.304   0.838  16.307 -0.7411 -0.6361  0.2374
 7507SOL    HW133980   2.269   0.749  16.299 -1.6116 -0.2103 -0.7295
 7507SOL    HW233981   2.270   0.854  16.394  0.1796 -0.7092  0.6128
 7508SOL     OW33982   2.216   0.525   7.912  0.2102 -0.1306 -0.0272
 7508SOL    HW133983   2.157   0.488   7.847 -0.7089  0.2469  0.5936
 7508SOL    HW233984   2.219   0.617   7.885 -1.1321  0.4403  1.7619
 7509SOL     OW33985   3.818   3.239   7.169  0.1328 -0.0933  0.4420
 7509SOL    HW133986   3.846   3.278   7.085 -0.4320  0.3949  0.4801
 7509SOL    HW233987   3.743   3.189   7.137  0.5973 -0.4026 -0.1562
 7510SOL     OW33988   2.733   2.883   8.030 -0.6137 -0.0156 -0.0305
 7510SOL    HW133989   2.773   2.840   8.105  1.4580  0.6703 -0.7378
 7510SOL    HW233990   2.810   2.899   7.976  0.3094  0.7214  1.5143
 7511SOL     OW33991   3.075   2.471  11.105 -0.2349  0.4570  0.2923
 7511SOL    HW133992   3.090   2.382  11.135 -1.3756 -0.5199 -1.9977
 7511SOL    HW233993   3.123   2.521  11.171 -0.3442  0.3875  0.4256
 7512SOL     OW33994   0.782   0.545   5.443 -0.1943  0.2821 -0.0006
 7512SOL    HW133995   0.803   0.540   5.350  0.4637  2.0335  0.0510
 7512SOL    HW233996   0.856   0.497   5.479 -0.5332 -1.0243 -1.0260
 7513SOL     OW33997   0.955   1.213   7.179  0.0592  0.8027  0.1025
 7513SOL    HW133998   1.029   1.219   7.241  0.4063 -1.5319 -0.0893
 7513SOL    HW233999   0.987   1.128   7.148 -1.8495 -0.6063  2.0130
 7514SOL     OW34000   4.108   3.068   9.622  0.0923 -0.2577 -0.0338
 7514SOL    HW134001   4.077   3.125   9.693 -0.9718 -1.2179  0.2725
 7514SOL    HW234002   4.160   3.007   9.674  0.2770 -1.3256 -1.4565
 7515SOL     OW34003   2.460   4.366  10.804 -0.0557  0.8621 -0.2091
 7515SOL    HW134004   2.382   4.396  10.758  0.7938  3.6119  0.1460
 7515SOL    HW234005   2.528   4.376  10.738  1.2829 -0.2147  1.0167
 7516SOL     OW34006   0.125   3.040   8.000 -0.2339 -0.1129  0.7907
 7516SOL    HW134007   0.089   3.011   8.083 -1.7813 -0.9411 -0.1604
 7516SOL    HW234008   0.097   3.132   7.992  1.1780  0.3039  0.6529
 7517SOL     OW34009   1.168   3.104  10.420 -0.5573  0.7600  0.4375
 7517SOL    HW134010   1.162   3.123  10.326  2.0602  1.7054  0.4774
 7517SOL    HW234011   1.076   3.085  10.440 -0.2585 -2.3330 -1.1794
 7518SOL     OW34012   2.737   4.576   7.596  0.0671 -0.2758  0.7473
 7518SOL    HW134013   2.656   4.615   7.564  0.8470 -0.6723 -1.6680
 7518SOL    HW234014   2.708   4.527   7.673  1.7310  0.3885  1.7943
 7519SOL     OW34015   3.871   3.131  10.156 -0.1351  0.5242  0.6141
 7519SOL    HW134016   3.849   3.146  10.248 -1.1588 -1.2477  0.6608
 7519SOL    HW234017   3.921   3.211  10.138  0.1741 -0.2210 -1.7914
 7520SOL     OW34018   2.769   0.396   1.918 -0.3032  0.0879  0.2624
 7520SOL    HW134019   2.863   0.392   1.902 -0.7842 -1.0091 -2.2021
 7520SOL    HW234020   2.768   0.472   1.976  1.4398 -0.3361  0.8283
 7521SOL     OW34021   3.057   1.337   3.928  0.3744 -0.4226 -0.3387
 7521SOL    HW134022   3.056   1.254   3.976  1.9829 -0.3143 -0.1261
 7521SOL    HW234023   3.130   1.370   3.980  1.1477 -1.9492 -0.4424
 7522SOL     OW34024   0.723   2.981   5.214 -0.0926  0.0515 -0.3144
 7522SOL    HW134025   0.675   2.923   5.273 -0.4810 -1.3375 -2.0084
 7522SOL    HW234026   0.702   3.060   5.265  1.8117  0.5696 -0.3395
 7523SOL     OW34027   1.915   2.500   0.421 -0.3948  0.0512 -0.8188
 7523SOL    HW134028   1.863   2.491   0.501  0.4658  0.9600 -0.1681
 7523SOL    HW234029   1.852   2.457   0.363 -1.0398 -0.4512  0.2610
 7524SOL     OW34030   3.376   0.403   8.569 -0.3394  0.4640  0.0168
 7524SOL    HW134031   3.423   0.486   8.562 -1.5688  1.0716 -1.2560
 7524SOL    HW234032   3.430   0.357   8.632 -3.0882 -0.5888  1.6142
 7525SOL     OW34033   0.502   0.700  12.553  0.6444 -0.3271 -0.1511
 7525SOL    HW134034   0.496   0.796  12.552 -0.2640 -0.3652  1.7505
 7525SOL    HW234035   0.426   0.678  12.500 -0.1297  3.1103 -0.4892
 7526SOL     OW34036   3.312   2.151   4.722  0.1995 -0.5642  0.1427
 7526SOL    HW134037   3.220   2.163   4.745 -0.0103  1.5443 -1.8119
 7526SOL    HW234038   3.361   2.204   4.784 -0.4016 -0.6820  0.7074
 7527SOL     OW34039   1.212   0.865   8.462 -0.3564 -0.5531  0.0743
 7527SOL    HW134040   1.264   0.826   8.391 -0.3611 -0.4400  0.0094
 7527SOL    HW234041   1.154   0.919   8.409 -0.7386 -3.3615 -2.3922
 7528SOL     OW34042   0.033   2.723   8.417  0.0498 -0.5267 -0.4263
 7528SOL    HW134043   4.692   2.752   8.350  1.4173 -1.0553 -1.9313
 7528SOL    HW234044   4.706   2.768   8.486  1.4641 -0.7367  0.7029
 7529SOL     OW34045   4.231   1.263  12.531 -0.1023  0.7255  0.0862
 7529SOL    HW134046   4.213   1.170  12.520  0.1794  0.5807  0.8866
 7529SOL    HW234047   4.211   1.285  12.440 -0.7991  1.4818  0.4166
 7530SOL     OW34048   3.442   1.542   6.486  0.1110 -0.0524 -0.2719
 7530SOL    HW134049   3.384   1.525   6.411  0.4333 -1.3390 -0.2353
 7530SOL    HW234050   3.384   1.538   6.562 -1.0398  1.5954 -1.0575
 7531SOL     OW34051   1.771   3.214   0.141 -0.2104 -0.0726 -0.9856
 7531SOL    HW134052   1.794   3.130   0.180 -1.7009  0.1470  0.4133
 7531SOL    HW234053   1.821   3.269   0.203 -1.1715 -1.2892  0.8821
 7532SOL     OW34054   0.942   2.746   5.480  0.3484 -0.2847 -0.5090
 7532SOL    HW134055   1.002   2.786   5.543 -1.9834  0.8697  0.9752
 7532SOL    HW234056   0.920   2.815   5.418 -1.2432 -0.0663  0.3009
 7533SOL     OW34057   2.726   2.705  11.949  0.2736 -0.0345 -0.1988
 7533SOL    HW134058   2.746   2.681  12.040  1.1404  0.2498 -0.3103
 7533SOL    HW234059   2.642   2.661  11.941 -0.8603  1.5372  2.9460
 7534SOL     OW34060   0.391   2.795   6.835  0.0679 -0.1006  0.4595
 7534SOL    HW134061   0.418   2.713   6.876 -0.0563 -1.0890 -1.4238
 7534SOL    HW234062   0.298   2.802   6.860 -0.7043  0.7698 -2.6341
 7535SOL     OW34063   0.722   4.289  10.758  0.2211  0.0433  0.1831
 7535SOL    HW134064   0.635   4.312  10.728 -1.0120 -2.8002  1.5683
 7535SOL    HW234065   0.727   4.296  10.854 -0.3910  0.0097  0.2174
 7536SOL     OW34066   0.765   1.774  16.175 -0.3831  0.0522 -0.2269
 7536SOL    HW134067   0.831   1.831  16.135  2.2665 -1.4564  2.0267
 7536SOL    HW234068   0.711   1.752  16.099  1.8082  0.4658 -1.9082
 7537SOL     OW34069   4.704   4.054   7.822  0.4875 -0.1184  0.3702
 7537SOL    HW134070   4.686   4.015   7.908 -1.5622  0.4100  0.1840
 7537SOL    HW234071   4.654   3.994   7.768  0.1911  0.1800  0.3083
 7538SOL     OW34072   3.385   0.507   5.314 -0.3440 -0.1736  0.4704
 7538SOL    HW134073   3.411   0.424   5.352 -1.0834 -0.6281 -0.0181
 7538SOL    HW234074   3.466   0.554   5.335 -0.3609 -1.0693  2.5122
 7539SOL     OW34075   1.484   2.418   4.148  0.3122  0.3662  0.1305
 7539SOL    HW134076   1.495   2.393   4.056 -3.1326  1.6098 -0.5925
 7539SOL    HW234077   1.470   2.336   4.194 -2.8745  1.9092  1.8728
 7540SOL     OW34078   0.848   4.701  16.194 -0.3431 -0.2290  0.2266
 7540SOL    HW134079   0.837   0.034  16.272  0.8871 -0.6581  0.6991
 7540SOL    HW234080   0.790   4.628  16.215 -0.9368  0.2077  0.1248
 7541SOL     OW34081   4.391   3.414   7.118 -0.2718  0.0471  0.1576
 7541SOL    HW134082   4.437   3.481   7.067 -1.2998  1.6812  1.3684
 7541SOL    HW234083   4.320   3.470   7.152 -0.2127 -1.3760  2.6411
 7542SOL     OW34084   1.290   0.438   9.236  0.3478 -0.1205 -0.2688
 7542SOL    HW134085   1.316   0.350   9.209  1.9153  0.4047 -0.4979
 7542SOL    HW234086   1.374   0.461   9.276 -0.6026  1.4834  0.8094
 7543SOL     OW34087   0.517   0.633   5.592 -0.1414  0.1723 -0.1219
 7543SOL    HW134088   0.525   0.581   5.672  1.7470 -0.6343 -0.8209
 7543SOL    HW234089   0.609   0.646   5.570  0.0201  0.4460  0.7080
 7544SOL     OW34090   2.451   1.721   4.858  0.5822  0.5474 -0.3376
 7544SOL    HW134091   2.515   1.664   4.816 -0.5489 -0.4485 -0.6861
 7544SOL    HW234092   2.460   1.678   4.943  0.8792 -0.1489 -0.7234
 7545SOL     OW34093   4.717   0.969   2.906 -0.1425  0.1301 -0.1735
 7545SOL    HW134094   0.076   0.984   2.858  0.5203 -3.4253 -0.2237
 7545SOL    HW234095   0.027   0.907   2.973 -0.3409 -1.7289 -1.8002
 7546SOL     OW34096   0.200   0.265   5.364 -0.5845  0.4149 -0.3536
 7546SOL    HW134097   0.196   0.169   5.364 -0.7271  0.4027  2.7057
 7546SOL    HW234098   0.270   0.292   5.423 -0.6252 -1.8120  0.7192
 7547SOL     OW34099   0.046   2.743   1.364 -0.1372 -0.0783  0.6446
 7547SOL    HW134100   0.026   2.660   1.322 -0.9594  0.8418 -0.7712
 7547SOL    HW234101   4.695   2.742   1.427  0.2663  0.9752  1.1373
 7548SOL     OW34102   3.885   1.643   2.879 -0.3055  1.0993  0.3217
 7548SOL    HW134103   3.840   1.643   2.795  0.9373 -1.5839 -0.3230
 7548SOL    HW234104   3.971   1.641   2.837  0.0109 -2.0731  1.1388
 7549SOL     OW34105   2.614   0.255  14.077  0.4048 -0.2028  0.9393
 7549SOL    HW134106   2.540   0.269  14.019  1.2749  0.2031 -0.0741
 7549SOL    HW234107   2.566   0.243  14.158 -0.7612 -0.6092  0.1876
 7550SOL     OW34108   0.994   1.980   4.726  0.1345  0.2485  0.1337
 7550SOL    HW134109   0.924   1.953   4.785 -1.3028  1.9317 -0.8391
 7550SOL    HW234110   1.023   2.061   4.768  1.0079 -1.0766  2.0865
 7551SOL     OW34111   4.573   0.351   1.319  0.0075  0.2168  0.0482
 7551SOL    HW134112   4.542   0.262   1.328 -0.8837  0.3394 -1.9467
 7551SOL    HW234113   4.658   0.337   1.277 -0.5881 -2.4328 -0.2350
 7552SOL     OW34114   1.258   0.655   3.467  1.0103  0.3671 -0.9491
 7552SOL    HW134115   1.276   0.682   3.557 -0.1355  1.6662 -1.1160
 7552SOL    HW234116   1.222   0.736   3.430 -0.4562  0.3170  0.3742
 7553SOL     OW34117   3.286   1.463   5.418  0.2470  0.0351  0.2048
 7553SOL    HW134118   3.330   1.548   5.415 -1.2005  0.7685 -0.5278
 7553SOL    HW234119   3.197   1.494   5.433  0.9214  1.2814  1.6098
 7554SOL     OW34120   0.245   4.648  11.700  0.0810 -0.6849  0.7945
 7554SOL    HW134121   0.181   4.589  11.661  0.4968 -0.4455 -0.2369
 7554SOL    HW234122   0.328   4.639  11.653 -0.2995 -1.6508  0.3156
 7555SOL     OW34123   0.164   0.593   9.605 -0.6067  0.4784 -0.4496
 7555SOL    HW134124   0.077   0.613   9.642 -0.9717 -0.4667 -0.8156
 7555SOL    HW234125   0.190   0.526   9.668  1.0238  0.7719 -0.8274
 7556SOL     OW34126   2.361   3.641   0.755 -0.1021 -0.2651  0.0106
 7556SOL    HW134127   2.308   3.689   0.819 -0.9756 -0.7601 -0.3431
 7556SOL    HW234128   2.412   3.588   0.816  2.3807  0.1525 -1.6856
 7557SOL     OW34129   0.726   3.045   5.613 -0.3444  0.7966  0.2722
 7557SOL    HW134130   0.657   2.979   5.611  0.6201 -0.2014 -0.8907
 7557SOL    HW234131   0.718   3.092   5.530  0.0898 -0.7106 -0.6304
 7558SOL     OW34132   1.770   4.707   4.284 -0.7095  0.1230 -0.0632
 7558SOL    HW134133   1.843   4.663   4.241 -0.9217 -1.1190  0.8515
 7558SOL    HW234134   1.719   4.629   4.303  1.4603 -1.5636 -1.2434
 7559SOL     OW34135   0.992   1.639   4.040 -0.3609 -0.4793 -0.0001
 7559SOL    HW134136   0.996   1.732   4.066  1.9215  0.3844 -3.4538
 7559SOL    HW234137   0.918   1.606   4.091  1.4594  0.2165  3.1070
 7560SOL     OW34138   2.862   3.197  17.252 -0.1714  0.0302  0.0917
 7560SOL    HW134139   2.836   3.274  17.202 -0.4425 -0.8435 -1.1282
 7560SOL    HW234140   2.855   3.124  17.190 -1.1107 -0.6048  0.9424
 7561SOL     OW34141   2.250   4.634   2.446 -0.6098 -0.2426  0.4415
 7561SOL    HW134142   2.158   4.661   2.446  0.0807  2.0757 -2.9263
 7561SOL    HW234143   2.263   4.658   2.538 -0.7255  1.2335  0.0731
 7562SOL     OW34144   3.154   0.266   9.751  0.0849  1.0964 -0.3729
 7562SOL    HW134145   3.187   0.311   9.673  0.3254  1.8179  0.1459
 7562SOL    HW234146   3.087   0.213   9.709 -0.2772 -0.3198  1.9678
 7563SOL     OW34147   2.653   4.562   5.639  0.8016  0.5262  0.1072
 7563SOL    HW134148   2.665   4.490   5.577 -0.7822 -0.5627  1.0867
 7563SOL    HW234149   2.623   4.509   5.712 -1.6209 -0.8716 -1.9035
 7564SOL     OW34150   4.337   2.058   4.280 -0.2179  0.2514 -0.4559
 7564SOL    HW134151   4.417   2.054   4.226 -0.5282  0.2094 -0.9141
 7564SOL    HW234152   4.319   2.151   4.269  0.3822  0.5527  1.1054
 7565SOL     OW34153   4.163   1.690   2.414 -0.1995  0.4753 -0.3227
 7565SOL    HW134154   4.225   1.648   2.473  1.1746  0.9369 -1.4468
 7565SOL    HW234155   4.167   1.638   2.334  0.2648 -2.2868  1.5285
 7566SOL     OW34156   3.145   0.864   3.265 -0.3943  0.1759 -0.2354
 7566SOL    HW134157   3.144   0.888   3.358 -0.3112  2.1792 -0.7441
 7566SOL    HW234158   3.116   0.950   3.234  0.9527  1.2090  1.3305
 7567SOL     OW34159   1.469   2.051   3.158  0.1705 -0.1465 -0.2971
 7567SOL    HW134160   1.377   2.077   3.151  0.3779  0.4188 -0.9301
 7567SOL    HW234161   1.518   2.102   3.094 -0.4725 -1.2499 -1.6816
 7568SOL     OW34162   3.681   3.975  13.007 -0.2762  0.2724  0.3426
 7568SOL    HW134163   3.644   4.062  13.001 -0.5451  0.1572  0.3292
 7568SOL    HW234164   3.634   3.932  13.078 -1.5163  0.9652 -0.0729
 7569SOL     OW34165   4.509   2.168   3.610  0.1490  0.6136  0.6115
 7569SOL    HW134166   4.533   2.243   3.555  0.8598  1.4511  2.0665
 7569SOL    HW234167   4.426   2.191   3.654  0.1441  2.6085 -0.4186
 7570SOL     OW34168   3.329   0.493   9.268 -0.2784  0.1622 -0.0240
 7570SOL    HW134169   3.409   0.546   9.270  0.4115 -0.8704  0.4168
 7570SOL    HW234170   3.331   0.462   9.177 -1.6871 -2.0399  0.6928
 7571SOL     OW34171   4.194   0.088   0.062 -0.3727  0.1070 -0.1431
 7571SOL    HW134172   4.116   0.115   0.013 -0.7905 -1.7975 -0.5187
 7571SOL    HW234173   4.257   0.154   0.033 -1.1471  0.9711  0.1596
 7572SOL     OW34174   2.798   2.979   3.396  0.2268  0.4561  0.7511
 7572SOL    HW134175   2.745   2.976   3.476 -1.3994  0.2907 -0.3372
 7572SOL    HW234176   2.856   3.052   3.417  0.7441  0.8625 -2.0518
 7573SOL     OW34177   0.532   3.126  17.353 -0.6385 -0.0024 -0.1155
 7573SOL    HW134178   0.549   3.046  17.404  1.0048  1.0337  0.9533
 7573SOL    HW234179   0.523   3.196  17.417  0.9595 -0.1162  0.2446
 7574SOL     OW34180   1.181   0.561   6.015  0.0556 -0.2712  0.3042
 7574SOL    HW134181   1.238   0.629   6.051  1.5025 -1.2187 -0.1848
 7574SOL    HW234182   1.159   0.596   5.928  2.2689 -0.4137 -0.3154
 7575SOL     OW34183   3.924   0.765   3.165  0.9914 -0.0921 -0.9026
 7575SOL    HW134184   3.977   0.695   3.201  1.5216  1.2830  0.9401
 7575SOL    HW234185   3.849   0.760   3.225  1.6534  1.9354  0.0988
 7576SOL     OW34186   3.410   3.754   4.845 -0.3405  0.3692  0.9194
 7576SOL    HW134187   3.338   3.697   4.873 -1.4926  1.4516  0.2075
 7576SOL    HW234188   3.489   3.701   4.856  0.5154  1.1390 -1.4709
 7577SOL     OW34189   1.529   4.171  16.725 -0.1484  0.9212  0.1510
 7577SOL    HW134190   1.458   4.214  16.676  0.4415 -0.7179 -2.1374
 7577SOL    HW234191   1.538   4.088  16.678 -0.5627 -0.1148  1.9154
 7578SOL     OW34192   4.004   2.391   8.264  0.0478 -0.3748  0.2613
 7578SOL    HW134193   4.066   2.426   8.328  1.7760 -1.0464 -1.0644
 7578SOL    HW234194   3.942   2.341   8.316  1.7716 -1.8752  0.8634
 7579SOL     OW34195   3.320   2.157   3.658  0.6208 -0.3219  0.4070
 7579SOL    HW134196   3.337   2.246   3.628  0.1801 -0.0419  0.9840
 7579SOL    HW234197   3.397   2.105   3.636 -0.5668 -1.0302 -2.0568
 7580SOL     OW34198   0.844   2.182   3.067  0.6282 -0.2910 -0.0344
 7580SOL    HW134199   0.798   2.119   3.010 -0.0921 -0.5624  0.8381
 7580SOL    HW234200   0.886   2.239   3.002  0.1802  0.9443  0.7601
 7581SOL     OW34201   2.302   3.533   0.507 -0.0713  0.9081 -0.5565
 7581SOL    HW134202   2.302   3.576   0.593  1.8975  0.0925 -0.1393
 7581SOL    HW234203   2.261   3.451   0.535 -0.7377  1.7295  0.8871
 7582SOL     OW34204   1.981   3.032   7.542  0.5709 -0.1842  0.2527
 7582SOL    HW134205   1.939   3.069   7.464 -0.1604 -0.8769  0.3171
 7582SOL    HW234206   2.019   2.950   7.509  0.0201 -1.1138  1.9314
 7583SOL     OW34207   4.120   3.983   6.978 -0.4219  0.0307  0.2649
 7583SOL    HW134208   4.161   3.918   7.035  0.8756  0.5614 -0.0444
 7583SOL    HW234209   4.028   3.966   6.994  0.3158 -2.9816  1.2013
 7584SOL     OW34210   4.667   2.263   5.834 -0.1598  0.4672  0.0738
 7584SOL    HW134211   4.588   2.316   5.821 -1.4908 -1.2846  0.9745
 7584SOL    HW234212   4.630   2.174   5.834 -0.1230  0.4484 -0.7965
 7585SOL     OW34213   0.004   0.540   4.208 -0.4149 -0.1456  0.7952
 7585SOL    HW134214   0.043   0.456   4.232 -0.5966  0.0273  1.6902
 7585SOL    HW234215   4.649   0.535   4.265  0.0814  0.7687  1.5290
 7586SOL     OW34216   0.099   2.204   7.337 -0.0534 -0.6145  0.3061
 7586SOL    HW134217   0.186   2.166   7.347 -0.2459 -0.6002  1.9867
 7586SOL    HW234218   0.050   2.165   7.409  1.9080  0.0426  2.0154
 7587SOL     OW34219   4.352   1.565   0.386  0.3001  0.1716 -0.0839
 7587SOL    HW134220   4.355   1.481   0.431  0.3205 -0.8683 -2.0243
 7587SOL    HW234221   4.320   1.539   0.300  0.2202 -0.4816  0.1455
 7588SOL     OW34222   0.681   1.122  17.057  0.2258 -0.3380  0.1007
 7588SOL    HW134223   0.716   1.077  16.980  0.2311 -0.2934  0.0774
 7588SOL    HW234224   0.594   1.143  17.022 -0.3107 -1.4763  0.7415
 7589SOL     OW34225   3.386   3.532   2.266  0.3735  0.0460 -0.1654
 7589SOL    HW134226   3.391   3.572   2.179  1.0618 -1.2630 -0.7310
 7589SOL    HW234227   3.457   3.576   2.313  0.5793  2.3750 -2.6620
 7590SOL     OW34228   4.141   4.052   0.179 -0.3111 -0.4518 -0.2936
 7590SOL    HW134229   4.116   4.078   0.268  1.1625 -0.6744  0.1822
 7590SOL    HW234230   4.191   4.129   0.152  0.3958 -0.9916 -0.5271
 7591SOL     OW34231   2.242   3.079  16.084 -0.0846  0.1726 -0.0635
 7591SOL    HW134232   2.323   3.028  16.083 -1.7766 -2.5750  2.1090
 7591SOL    HW234233   2.210   3.042  16.166  2.4908  1.4206  1.4868
 7592SOL     OW34234   4.388   1.718   2.963 -0.2579 -0.2130 -0.2745
 7592SOL    HW134235   4.397   1.625   2.944 -1.2640 -0.6023  1.1357
 7592SOL    HW234236   4.355   1.718   3.053  0.1682  3.1162 -0.0920
 7593SOL     OW34237   2.754   1.370   7.246  0.1813  0.4108  0.5422
 7593SOL    HW134238   2.766   1.465   7.239 -1.6096  0.5872 -0.1683
 7593SOL    HW234239   2.837   1.333   7.274 -0.6250 -2.1079 -0.4203
 7594SOL     OW34240   1.878   0.839   4.332  0.5378  0.0835  0.0531
 7594SOL    HW134241   1.965   0.799   4.327 -0.0175 -0.8691 -1.9284
 7594SOL    HW234242   1.899   0.932   4.318  1.6909 -0.3842 -1.3244
 7595SOL     OW34243   0.787   1.636   3.427 -0.0058  0.1727 -0.1035
 7595SOL    HW134244   0.833   1.650   3.344  0.9446  2.0899  0.7532
 7595SOL    HW234245   0.841   1.696   3.478 -0.8523  0.9272 -0.0897
 7596SOL     OW34246   2.776   2.930   6.072 -0.5849  0.6554  0.3026
 7596SOL    HW134247   2.724   2.897   6.145  0.4218 -0.9699  0.2677
 7596SOL    HW234248   2.727   2.908   5.993  0.0801  0.1414  0.0365
 7597SOL     OW34249   4.006   2.991   7.032  0.6653 -0.0907  0.1354
 7597SOL    HW134250   3.974   2.918   7.085  1.0049  1.0530  1.9170
 7597SOL    HW234251   4.090   3.001   7.075  1.3372 -3.1514 -0.4802
 7598SOL     OW34252   2.364   3.949   9.935  0.1636 -0.2723  0.1063
 7598SOL    HW134253   2.442   4.005   9.935  0.7466 -1.0838  0.5987
 7598SOL    HW234254   2.310   4.009   9.883  1.3490  0.6443 -0.0817
 7599SOL     OW34255   2.200   1.743   8.936  0.1343 -0.1507 -0.0883
 7599SOL    HW134256   2.249   1.779   8.862 -0.1203  0.8463  0.2306
 7599SOL    HW234257   2.128   1.805   8.948 -1.2562 -1.4801 -1.5594
 7600SOL     OW34258   1.530   0.729  14.646  0.1737  0.5277 -0.3678
 7600SOL    HW134259   1.490   0.709  14.731 -1.4499  1.6740 -0.8558
 7600SOL    HW234260   1.482   0.666  14.591  2.7066 -0.2477 -1.6578
 7601SOL     OW34261   2.320   0.855  15.072 -0.5596  0.3170 -0.9770
 7601SOL    HW134262   2.298   0.771  15.111 -0.7583 -0.3153 -2.4739
 7601SOL    HW234263   2.280   0.904  15.144  2.2513 -0.3868  1.0597
 7602SOL     OW34264   1.694   2.872   5.321 -0.0326  0.0536 -0.0597
 7602SOL    HW134265   1.770   2.836   5.367  0.1246  0.1412 -0.2519
 7602SOL    HW234266   1.731   2.864   5.233 -0.1990 -1.0111 -0.0270
 7603SOL     OW34267   0.769   4.347  14.682 -0.0367 -0.2052  0.0034
 7603SOL    HW134268   0.773   4.318  14.773  1.4044 -0.4843 -0.1387
 7603SOL    HW234269   0.713   4.286  14.635 -2.3942  2.3430 -0.5168
 7604SOL     OW34270   3.523   3.462  13.205  0.4152  0.4397  0.6137
 7604SOL    HW134271   3.459   3.471  13.275 -0.5625 -0.8709 -0.1129
 7604SOL    HW234272   3.573   3.536  13.240  0.0257  1.6199 -1.3426
 7605SOL     OW34273   4.209   3.237   2.239 -0.3219  0.5403 -0.3124
 7605SOL    HW134274   4.259   3.252   2.159  0.7751 -0.0015  0.2822
 7605SOL    HW234275   4.285   3.240   2.298 -0.1265 -2.3685 -0.4508
 7606SOL     OW34276   2.814   3.811  11.093  0.2029  0.3739  0.7825
 7606SOL    HW134277   2.851   3.778  11.011 -1.4340  0.5427 -0.0444
 7606SOL    HW234278   2.870   3.888  11.106 -0.7900  1.1003  0.7764
 7607SOL     OW34279   3.881   4.650   6.586 -0.6614  0.9013 -0.4964
 7607SOL    HW134280   3.845   4.636   6.674  0.4034 -0.9759 -0.3565
 7607SOL    HW234281   3.957   4.592   6.589 -2.1698 -1.0319  0.9428
 7608SOL     OW34282   0.523   1.936  15.576  0.1904 -0.4027 -0.4820
 7608SOL    HW134283   0.499   2.000  15.510 -0.2102 -0.7695 -0.6931
 7608SOL    HW234284   0.457   1.867  15.565  1.5638 -1.7986  0.0159
 7609SOL     OW34285   0.778   2.138   4.055  0.1054 -0.2203  0.1417
 7609SOL    HW134286   0.806   2.151   4.145 -0.2014 -1.1222  0.3678
 7609SOL    HW234287   0.730   2.219   4.037  1.1760  0.1048 -1.2603
 7610SOL     OW34288   1.055   2.566   1.546 -0.6113  0.8102 -0.0008
 7610SOL    HW134289   1.127   2.529   1.495 -0.0355 -1.4138  2.4480
 7610SOL    HW234290   1.022   2.488   1.590  0.4939 -0.8670 -2.1553
 7611SOL     OW34291   1.500   2.326   3.326 -0.0293  0.0137 -0.1880
 7611SOL    HW134292   1.550   2.312   3.245 -0.3703 -1.1088 -0.2060
 7611SOL    HW234293   1.550   2.393   3.371 -0.9545  0.8583 -0.4123
 7612SOL     OW34294   1.599   1.701  11.714 -0.0559 -0.2738  0.0786
 7612SOL    HW134295   1.579   1.639  11.644 -0.1694  0.9709 -0.9999
 7612SOL    HW234296   1.544   1.666  11.784  0.7614 -3.9068 -1.0862
 7613SOL     OW34297   0.421   1.315  11.287 -0.0132  0.5940  0.2691
 7613SOL    HW134298   0.465   1.356  11.212 -0.2674 -0.7718 -0.6368
 7613SOL    HW234299   0.489   1.255  11.315 -0.0993  0.1454 -0.4819
 7614SOL     OW34300   3.361   0.347   5.727 -0.2282  0.2040  0.1292
 7614SOL    HW134301   3.324   0.324   5.813  0.4388 -1.5036 -0.0491
 7614SOL    HW234302   3.341   0.261   5.689  1.0245 -0.1151  0.1894
 7615SOL     OW34303   4.205   3.525   2.040 -0.5385  0.2706 -0.0305
 7615SOL    HW134304   4.210   3.433   2.012  0.9422  1.0050 -2.1141
 7615SOL    HW234305   4.116   3.538   2.007  0.0892  1.2132 -1.3526
 7616SOL     OW34306   0.383   2.761   1.811 -0.5237  0.3123  0.2057
 7616SOL    HW134307   0.401   2.849   1.777  0.5881  0.4826  1.2419
 7616SOL    HW234308   0.389   2.707   1.732  0.7265 -2.0627  1.9455
 7617SOL     OW34309   3.470   1.486   8.775 -0.0022  0.2414  0.4408
 7617SOL    HW134310   3.505   1.530   8.698  0.3001  1.8856  1.5255
 7617SOL    HW234311   3.375   1.497   8.769  0.1229  0.5570 -0.9753
 7618SOL     OW34312   1.261   2.814   4.553  0.3378 -0.3412 -0.0633
 7618SOL    HW134313   1.236   2.851   4.468 -1.3582 -1.2396  0.0472
 7618SOL    HW234314   1.243   2.890   4.609 -3.1455 -1.9176  0.9464
 7619SOL     OW34315   2.430   0.234  15.174  1.0606  0.3033 -0.4930
 7619SOL    HW134316   2.379   0.285  15.237 -1.6994 -1.0097 -1.7024
 7619SOL    HW234317   2.510   0.282  15.152  0.8270  0.8649 -0.1362
 7620SOL     OW34318   0.807   3.283   3.188 -0.5769  0.1064  0.3733
 7620SOL    HW134319   0.763   3.251   3.110 -1.5869  0.4795  0.7882
 7620SOL    HW234320   0.759   3.362   3.213  1.9695  1.1823  1.8984
 7621SOL     OW34321   1.465   3.377   1.813 -0.2905  0.2036  0.0436
 7621SOL    HW134322   1.448   3.405   1.723 -1.1816 -0.1077  0.1214
 7621SOL    HW234323   1.549   3.416   1.838 -1.1513  2.5264 -0.6710
 7622SOL     OW34324   3.351   3.519  15.028  0.2885  0.7530 -1.0672
 7622SOL    HW134325   3.428   3.469  14.999  0.6885  1.2408 -0.8428
 7622SOL    HW234326   3.380   3.554  15.112 -0.2502  0.1594 -0.6355
 7623SOL     OW34327   3.498   1.098   2.879  0.5032  0.6361 -0.2244
 7623SOL    HW134328   3.592   1.107   2.866  0.2282  2.3337 -1.0044
 7623SOL    HW234329   3.489   1.004   2.894 -0.5238  0.6876 -0.4877
 7624SOL     OW34330   0.479   1.798   4.184  0.0673 -0.3521  0.6507
 7624SOL    HW134331   0.439   1.711   4.182  0.1270 -0.3870  1.1101
 7624SOL    HW234332   0.416   1.840   4.125 -0.4390 -0.4210  1.1332
 7625SOL     OW34333   1.437   2.472  15.441  0.0071  0.3960  0.0366
 7625SOL    HW134334   1.498   2.538  15.407 -1.6626  2.4996  1.1644
 7625SOL    HW234335   1.499   2.429  15.500  1.7850  2.9413  0.0162
 7626SOL     OW34336   1.542   1.728   5.739 -0.3543  0.2879  0.1253
 7626SOL    HW134337   1.493   1.716   5.821 -0.5471 -0.7168 -0.1356
 7626SOL    HW234338   1.469   1.708   5.681 -0.6691 -0.0558  0.6431
 7627SOL     OW34339   4.627   0.188  14.593  0.1115  0.1120  0.9033
 7627SOL    HW134340   4.690   0.183  14.665  2.7499  0.9139 -1.3652
 7627SOL    HW234341   4.614   0.095  14.577 -1.0306  0.7364 -1.7497
 7628SOL     OW34342   3.586   2.136   7.616  0.3709 -0.2029 -0.5214
 7628SOL    HW134343   3.583   2.041   7.617  3.0796 -0.2885  0.6409
 7628SOL    HW234344   3.673   2.150   7.655 -0.1987  2.5461 -0.2573
 7629SOL     OW34345   1.702   1.591   9.782  0.3697  0.0237 -0.0956
 7629SOL    HW134346   1.692   1.670   9.836 -2.2823 -0.4758  0.1545
 7629SOL    HW234347   1.786   1.621   9.746 -0.2228  1.0485 -0.6419
 7630SOL     OW34348   0.606   2.556   6.906 -0.2855  0.4587  0.0461
 7630SOL    HW134349   0.641   2.533   6.820  1.1171  0.3184  0.6596
 7630SOL    HW234350   0.669   2.617   6.943  0.2763  1.4049 -2.5126
 7631SOL     OW34351   1.175   2.923   7.975 -0.2158 -0.4245  0.2118
 7631SOL    HW134352   1.213   3.006   8.004  0.2459 -1.3676  2.2987
 7631SOL    HW234353   1.210   2.926   7.886 -0.8940  0.9543 -0.0078
 7632SOL     OW34354   1.865   4.180   4.448 -0.1415 -0.1937  0.0007
 7632SOL    HW134355   1.911   4.106   4.487  0.5473  0.0456 -0.3479
 7632SOL    HW234356   1.859   4.233   4.528 -0.0182 -0.2215  0.0280
 7633SOL     OW34357   4.084   4.104   0.486  0.0675  1.1391 -0.1713
 7633SOL    HW134358   4.138   4.052   0.546  0.1485 -1.1836 -2.2670
 7633SOL    HW234359   3.999   4.070   0.514  0.8609  0.0446  0.9097
 7634SOL     OW34360   4.599   0.472   8.010 -0.0792 -0.4146 -0.3853
 7634SOL    HW134361   4.523   0.434   7.966 -2.2023  0.6243  2.4129
 7634SOL    HW234362   4.669   0.426   7.963  0.3313 -0.5198  0.3326
 7635SOL     OW34363   2.734   0.825   6.049 -0.1449 -0.1855  0.7902
 7635SOL    HW134364   2.800   0.779   6.102 -1.3382  0.6368  2.9809
 7635SOL    HW234365   2.703   0.755   5.991 -3.1789  0.2916  1.8246
 7636SOL     OW34366   4.067   4.579  13.027 -0.3920 -0.2644  0.0193
 7636SOL    HW134367   4.105   4.542  13.107  2.7467  0.7167 -1.0333
 7636SOL    HW234368   4.057   4.671  13.051 -3.7381 -0.1196 -1.8257
 7637SOL     OW34369   2.757   0.974  15.995 -0.2688 -0.1800  0.1199
 7637SOL    HW134370   2.711   0.897  16.027 -0.9260  1.2829  2.6375
 7637SOL    HW234371   2.703   1.005  15.922 -0.7158 -1.9003 -0.2892
 7638SOL     OW34372   4.193   4.469   3.977  0.7859 -0.5438  0.0912
 7638SOL    HW134373   4.251   4.539   4.007 -1.3345  0.6979  1.2907
 7638SOL    HW234374   4.149   4.442   4.057 -1.0150  0.5336 -0.5611
 7639SOL     OW34375   0.156   1.253   5.819 -0.3186  0.1622  0.0113
 7639SOL    HW134376   0.126   1.295   5.899  0.9308  3.1910 -1.0736
 7639SOL    HW234377   0.214   1.183   5.850  0.8483  1.5176  0.9111
 7640SOL     OW34378   0.357   2.292  14.279 -0.3811 -0.4031  0.5142
 7640SOL    HW134379   0.402   2.331  14.355  2.2899 -0.6462 -0.9496
 7640SOL    HW234380   0.301   2.363  14.246 -0.0578 -0.7743 -0.8070
 7641SOL     OW34381   3.697   2.792  12.361 -0.1296  0.2053  0.1317
 7641SOL    HW134382   3.657   2.770  12.277 -2.8073  1.3759  1.1045
 7641SOL    HW234383   3.777   2.833  12.327 -0.1391 -0.5316 -0.7826
 7642SOL     OW34384   1.286   0.063   8.047  0.3046  0.4025  0.1779
 7642SOL    HW134385   1.324   0.140   8.005 -1.0281 -1.1661 -3.8481
 7642SOL    HW234386   1.234   0.029   7.974  0.1745 -3.6141  2.1777
 7643SOL     OW34387   0.398   3.361   4.561 -0.0192 -0.0543 -0.3682
 7643SOL    HW134388   0.381   3.290   4.623  1.9674  0.5449  0.8604
 7643SOL    HW234389   0.318   3.355   4.509  0.0750  0.5821 -0.5875
 7644SOL     OW34390   2.304   4.549   6.793 -0.3763  0.3987 -0.3969
 7644SOL    HW134391   2.298   4.501   6.876 -0.4845 -1.5093 -1.5086
 7644SOL    HW234392   2.366   4.618   6.814 -0.2720  1.0615 -2.8875
 7645SOL     OW34393   4.473   3.130   9.591 -0.1324  0.3789 -0.3919
 7645SOL    HW134394   4.534   3.121   9.664  0.8782 -1.6992 -1.4795
 7645SOL    HW234395   4.407   3.190   9.626  0.2329  1.3226 -1.3471
 7646SOL     OW34396   0.303   2.519   6.937  0.4013  0.4812 -0.2921
 7646SOL    HW134397   0.365   2.481   6.999 -1.0130  1.8842  1.9838
 7646SOL    HW234398   0.242   2.576   6.984  0.2955  1.1922 -1.2941
 7647SOL     OW34399   1.986   3.530   5.188 -0.2391  0.2160 -0.2163
 7647SOL    HW134400   2.037   3.523   5.269 -0.3008  2.1378  0.0077
 7647SOL    HW234401   2.027   3.613   5.160 -3.6317  1.8144 -0.4454
 7648SOL     OW34402   4.211   2.533   4.583 -0.2240  0.7032  0.0098
 7648SOL    HW134403   4.296   2.510   4.622 -0.6824 -0.6536  0.2130
 7648SOL    HW234404   4.240   2.567   4.499 -0.3637  1.1429  0.1420
 7649SOL     OW34405   1.453   4.353   4.966 -0.2193  0.2279  0.0905
 7649SOL    HW134406   1.395   4.428   4.951 -0.0603  0.1702 -0.7801
 7649SOL    HW234407   1.458   4.347   5.061  0.3952  1.4479  0.1336
 7650SOL     OW34408   3.973   3.610   0.994 -0.5666  0.4584 -1.0569
 7650SOL    HW134409   3.940   3.625   1.082 -0.1823 -0.4000 -0.7753
 7650SOL    HW234410   4.032   3.536   1.007 -0.8029  0.3273 -0.7248
 7651SOL     OW34411   2.928   0.543   6.471  0.0572 -0.2781 -0.0130
 7651SOL    HW134412   3.001   0.501   6.425 -0.0999  1.6226 -2.0148
 7651SOL    HW234413   2.909   0.618   6.414  1.3572 -1.0860 -1.5055
 7652SOL     OW34414   4.043   3.630   6.070 -0.2955 -0.5292 -0.1476
 7652SOL    HW134415   4.049   3.542   6.031 -0.6052 -0.6947  0.1800
 7652SOL    HW234416   3.948   3.639   6.079 -0.1243 -0.3435  1.4582
 7653SOL     OW34417   0.056   2.111   7.068  0.4950  0.2968 -0.5303
 7653SOL    HW134418   0.110   2.034   7.050 -1.3348 -0.8707 -1.0481
 7653SOL    HW234419   0.106   2.157   7.135 -1.0530  1.2241 -0.0229
 7654SOL     OW34420   3.759   3.803   4.961  0.4553 -0.0490 -0.3432
 7654SOL    HW134421   3.852   3.784   4.951  0.2045 -0.0526 -2.6527
 7654SOL    HW234422   3.766   3.840   5.049  2.7496  0.1734 -0.6212
 7655SOL     OW34423   3.437   2.848  15.449  0.7391 -0.0869  0.0661
 7655SOL    HW134424   3.432   2.797  15.368 -2.0761 -0.2827  0.3421
 7655SOL    HW234425   3.529   2.875  15.447  0.5081  0.8364  1.6752
 7656SOL     OW34426   3.187   3.350  15.221 -0.1172 -0.3890  0.0101
 7656SOL    HW134427   3.109   3.392  15.184 -0.0439  1.2003  1.6688
 7656SOL    HW234428   3.178   3.257  15.200 -0.8512 -0.3251  0.0329
 7657SOL     OW34429   4.036   3.224   8.484 -0.3249 -0.7207  0.3207
 7657SOL    HW134430   4.011   3.135   8.456 -0.9263  0.2195 -2.1419
 7657SOL    HW234431   4.129   3.219   8.462  0.2371  0.8005  2.4197
 7658SOL     OW34432   1.936   2.518   6.963 -0.5496  0.3312 -0.4371
 7658SOL    HW134433   2.006   2.495   6.902 -0.2037 -0.8134  0.4019
 7658SOL    HW234434   1.951   2.454   7.032  2.0042  1.2949 -0.0920
 7659SOL     OW34435   4.286   3.831   6.814 -0.4103 -0.5661 -0.2982
 7659SOL    HW134436   4.359   3.856   6.870 -0.3794 -0.4533 -0.3885
 7659SOL    HW234437   4.226   3.901   6.839 -1.9311 -2.3594  1.0623
 7660SOL     OW34438   1.067   2.295   5.685  0.0111  0.0820 -0.5564
 7660SOL    HW134439   1.041   2.326   5.599  0.9202 -2.0698 -1.5864
 7660SOL    HW234440   1.081   2.384   5.718  1.2119 -0.1594 -0.4390
 7661SOL     OW34441   1.553   3.835   7.423  0.4627  0.0031 -0.0649
 7661SOL    HW134442   1.606   3.878   7.356  0.0065  1.9147  0.7941
 7661SOL    HW234443   1.527   3.911   7.476 -0.3234 -0.4412  0.1769
 7662SOL     OW34444   0.217   0.076  16.085 -0.3191  0.2284  0.9031
 7662SOL    HW134445   0.265   0.088  16.167  0.5942 -1.5661  0.6449
 7662SOL    HW234446   0.136   0.054  16.131 -1.9961  1.3230 -1.5238
 7663SOL     OW34447   4.348   1.797   0.524  0.0575 -0.7205  0.2782
 7663SOL    HW134448   4.335   1.717   0.475  1.2652 -1.4030  1.0674
 7663SOL    HW234449   4.421   1.771   0.581 -0.8309 -2.2388  0.7201
 7664SOL     OW34450   1.538   2.724   7.699  0.2484  1.3570 -0.4510
 7664SOL    HW134451   1.617   2.712   7.646  0.2509 -0.0781 -0.1411
 7664SOL    HW234452   1.470   2.729   7.633  1.6775 -1.3664 -2.1491
 7665SOL     OW34453   0.394   2.119   1.869 -0.0732 -0.2263  0.2488
 7665SOL    HW134454   0.318   2.144   1.815  1.4875  1.2160 -1.2672
 7665SOL    HW234455   0.367   2.155   1.953 -3.1736  0.6119 -1.0715
 7666SOL     OW34456   1.477   3.046   5.751 -0.1577  0.1997  0.1175
 7666SOL    HW134457   1.420   3.032   5.675  1.6616 -1.8137 -0.8906
 7666SOL    HW234458   1.562   3.033   5.709 -0.4890 -1.5646 -0.0174
 7667SOL     OW34459   4.341   0.829  11.859 -0.1876  0.2283 -0.1768
 7667SOL    HW134460   4.306   0.917  11.870 -1.7017 -0.4982  0.8552
 7667SOL    HW234461   4.274   0.777  11.905 -1.1343  2.1920  0.6698
 7668SOL     OW34462   2.984   4.070   2.199  0.5680 -0.3483 -0.0286
 7668SOL    HW134463   3.043   4.053   2.126  0.8025 -1.0076  0.3133
 7668SOL    HW234464   2.899   4.034   2.174  0.3979  0.1928 -0.2444
 7669SOL     OW34465   1.214   2.556   6.214 -0.0044 -0.2180 -0.1596
 7669SOL    HW134466   1.247   2.630   6.163 -0.8719  1.8469  2.2272
 7669SOL    HW234467   1.124   2.580   6.235  1.2404  1.8604  2.8702
 7670SOL     OW34468   0.142   2.343   3.521 -0.4224 -0.6825 -0.4967
 7670SOL    HW134469   0.182   2.282   3.459  1.2522 -0.7072  0.5919
 7670SOL    HW234470   0.229   2.377   3.544  0.0760 -1.6662 -0.9133
 7671SOL     OW34471   2.074   2.396   3.601 -0.1657  0.3057  0.3369
 7671SOL    HW134472   2.161   2.361   3.584  0.1006  0.2943  1.6806
 7671SOL    HW234473   2.097   2.472   3.655 -0.3323 -0.0761  0.9519
 7672SOL     OW34474   1.855   2.447  14.425 -0.1751  0.2450 -0.0921
 7672SOL    HW134475   1.797   2.500  14.479  1.9837 -0.3316  2.8083
 7672SOL    HW234476   1.929   2.435  14.485 -0.1469  1.8280  0.1736
 7673SOL     OW34477   1.009   0.945   5.571  0.5750 -0.5950 -0.1520
 7673SOL    HW134478   1.027   1.008   5.501 -0.0662 -0.2142  0.0275
 7673SOL    HW234479   1.072   0.877   5.546  1.4627 -0.4042  1.5813
 7674SOL     OW34480   1.396   2.789   0.786 -0.3089 -0.2019  0.4564
 7674SOL    HW134481   1.352   2.858   0.835 -2.1063 -1.0576  0.0496
 7674SOL    HW234482   1.485   2.816   0.810 -0.4880  1.6458 -1.0244
 7675SOL     OW34483   1.653   2.176   0.759 -0.0467  0.6517 -0.2478
 7675SOL    HW134484   1.598   2.122   0.702 -1.1044  2.2468 -0.7604
 7675SOL    HW234485   1.687   2.116   0.824 -3.2029 -0.8503 -0.0094
 7676SOL     OW34486   2.277   0.085   0.628 -0.6944  0.2190  0.6589
 7676SOL    HW134487   2.227   0.083   0.709 -1.8283 -0.3879 -0.0509
 7676SOL    HW234488   2.362   0.056   0.661 -0.5258 -2.9424 -2.5649
 7677SOL     OW34489   1.146   3.942  14.627 -0.5584  0.3711  0.2670
 7677SOL    HW134490   1.223   3.888  14.610 -0.7111  0.8175 -1.9732
 7677SOL    HW234491   1.143   3.923  14.720  1.2783  3.2524  0.9026
 7678SOL     OW34492   0.704   0.969   9.134  0.2582  0.1658 -0.8484
 7678SOL    HW134493   0.726   0.981   9.042 -3.2386 -0.6408 -1.7878
 7678SOL    HW234494   0.723   0.876   9.148 -0.0550  0.0708 -1.0566
 7679SOL     OW34495   4.082   3.363  13.448  0.5333  0.1567  0.0781
 7679SOL    HW134496   4.157   3.368  13.507 -0.0196 -0.2504  0.8217
 7679SOL    HW234497   4.019   3.430  13.473  0.2246  1.1413 -3.3887
 7680SOL     OW34498   2.330   1.479   8.387  0.6842  0.3460  0.0912
 7680SOL    HW134499   2.364   1.549   8.331  0.1031  0.7773  0.2855
 7680SOL    HW234500   2.283   1.423   8.324  0.6027  2.6589 -1.9001
 7681SOL     OW34501   3.669   1.678   7.440  0.6520 -0.7843 -0.3145
 7681SOL    HW134502   3.652   1.640   7.526 -2.9440  1.7252  0.0962
 7681SOL    HW234503   3.709   1.607   7.391  0.7566 -1.6666  1.0749
 7682SOL     OW34504   4.103   1.184  16.000 -0.1151 -0.1772 -0.3646
 7682SOL    HW134505   4.018   1.142  15.986 -1.4891  2.1288  1.0147
 7682SOL    HW234506   4.098   1.263  15.946  1.0874  0.7483  0.8785
 7683SOL     OW34507   0.489   3.126   4.370  0.3145  0.6022  0.5680
 7683SOL    HW134508   0.524   3.089   4.451 -0.2558 -1.2032 -0.0259
 7683SOL    HW234509   0.413   3.170   4.408 -1.5616 -1.7511 -0.4829
 7684SOL     OW34510   2.949   3.208  11.590 -0.4018  0.2507 -0.6588
 7684SOL    HW134511   2.996   3.286  11.559 -0.3218  0.2863 -0.4500
 7684SOL    HW234512   2.862   3.225  11.555 -1.2374 -0.8821  0.8435
 7685SOL     OW34513   0.794   3.466  10.624  0.1855 -0.0322  0.3099
 7685SOL    HW134514   0.825   3.557  10.626  2.6891 -0.8953  0.3710
 7685SOL    HW234515   0.767   3.461  10.533 -0.6555  0.7567  0.5185
 7686SOL     OW34516   4.540   4.297  17.109 -0.6014 -0.0583  0.0595
 7686SOL    HW134517   4.523   4.368  17.048 -1.5931  0.3368  0.8062
 7686SOL    HW234518   4.459   4.295  17.159 -0.5523  1.8593  0.2120
 7687SOL     OW34519   1.359   3.328   7.577 -0.0517 -0.0337 -0.2206
 7687SOL    HW134520   1.378   3.381   7.654 -1.9448 -0.9796  0.8915
 7687SOL    HW234521   1.264   3.331   7.577 -0.0822 -0.7169  1.7374
 7688SOL     OW34522   0.278   1.859   3.977 -0.5950 -0.1582 -0.2800
 7688SOL    HW134523   0.273   1.938   3.924  1.1049  0.4361  0.4515
 7688SOL    HW234524   0.343   1.808   3.928 -0.3987  1.0358 -1.2888
 7689SOL     OW34525   0.359   3.639  16.101  0.4108  0.2811 -0.2281
 7689SOL    HW134526   0.409   3.653  16.181 -1.2844 -0.9148  1.0251
 7689SOL    HW234527   0.289   3.582  16.132 -2.5846  2.8223 -2.4092
 7690SOL     OW34528   3.593   1.112  11.089  0.3689  0.3529  0.0866
 7690SOL    HW134529   3.623   1.100  10.999 -0.8548 -1.1594 -0.1227
 7690SOL    HW234530   3.676   1.105  11.136  0.2692  3.0253  0.6581
 7691SOL     OW34531   1.347   2.088   9.437 -0.4226 -0.1140  0.2431
 7691SOL    HW134532   1.374   2.053   9.523 -0.6533  0.1500  0.4202
 7691SOL    HW234533   1.301   2.014   9.399 -1.5000  0.6299  0.1264
 7692SOL     OW34534   3.539   3.070  12.324  0.0098 -0.0845 -0.2728
 7692SOL    HW134535   3.552   3.084  12.231  1.7685  0.3562  0.0384
 7692SOL    HW234536   3.530   2.975  12.334 -0.2038 -0.2083 -1.7066
 7693SOL     OW34537   0.545   0.344   1.646 -0.0006 -0.0810 -0.4017
 7693SOL    HW134538   0.516   0.427   1.684 -1.5312 -1.3524  1.2243
 7693SOL    HW234539   0.525   0.349   1.553 -0.1468 -2.4880 -0.4951
 7694SOL     OW34540   2.917   3.069   8.339  0.3747  0.3894 -0.7406
 7694SOL    HW134541   2.926   2.982   8.377 -2.8407  1.1721  1.8354
 7694SOL    HW234542   3.001   3.077   8.293  1.9422  0.9653  2.2153
 7695SOL     OW34543   1.447   3.293   9.787 -0.3994 -0.0866 -0.3016
 7695SOL    HW134544   1.495   3.366   9.828  1.0146 -1.5238  0.6103
 7695SOL    HW234545   1.366   3.295   9.837  0.4151 -1.0475  1.0444
 7696SOL     OW34546   1.481   2.311   5.250  0.1077 -0.0681 -0.2892
 7696SOL    HW134547   1.548   2.249   5.280  0.1916  0.1944  0.0587
 7696SOL    HW234548   1.423   2.253   5.200  0.0036  0.7772 -1.1513
 7697SOL     OW34549   0.007   0.602   9.374  0.1825 -0.5346  0.2348
 7697SOL    HW134550   4.649   0.550   9.388 -1.8697  2.5877  0.2044
 7697SOL    HW234551   0.063   0.602   9.451  1.0255  1.2136 -0.3879
 7698SOL     OW34552   0.652   2.482   8.209  0.2171  0.4073 -0.3051
 7698SOL    HW134553   0.583   2.505   8.271  0.0600 -0.8486 -0.0243
 7698SOL    HW234554   0.668   2.571   8.177 -0.6989  0.4727 -0.5754
 7699SOL     OW34555   1.893   0.368   3.086  0.5704 -0.2512 -0.0420
 7699SOL    HW134556   1.921   0.317   3.163 -0.5738 -0.1603  0.4475
 7699SOL    HW234557   1.881   0.298   3.022  0.6865  0.1058 -0.4508
 7700SOL     OW34558   2.907   2.363   9.623 -0.8026 -0.4855 -0.6779
 7700SOL    HW134559   2.887   2.283   9.671  2.1340 -0.8142 -0.0127
 7700SOL    HW234560   3.002   2.363   9.611 -0.5650  1.0266  1.3696
 7701SOL     OW34561   0.923   1.813   3.632 -0.2826  0.1893 -0.9246
 7701SOL    HW134562   0.975   1.786   3.707 -1.0031 -1.3509 -0.9779
 7701SOL    HW234563   0.870   1.878   3.679  0.2625 -0.0691  0.0495
 7702SOL     OW34564   1.328   2.122   2.537 -0.2469  0.0253 -0.0851
 7702SOL    HW134565   1.334   2.027   2.531 -1.7952 -0.1242  0.7608
 7702SOL    HW234566   1.309   2.122   2.631  0.5967  0.0635  0.0887
 7703SOL     OW34567   2.900   4.545   2.970 -0.2084 -0.2730 -0.6580
 7703SOL    HW134568   2.845   4.574   2.898  2.5982  1.6790 -1.9506
 7703SOL    HW234569   2.860   4.586   3.047  0.2205  1.1879 -1.2366
 7704SOL     OW34570   3.870   3.676   1.229 -0.3056 -0.2242 -0.5245
 7704SOL    HW134571   3.776   3.674   1.248 -0.2612 -1.8436 -0.4909
 7704SOL    HW234572   3.913   3.644   1.308 -0.0971 -1.6543 -1.2188
 7705SOL     OW34573   4.326   4.595  11.741  0.5761 -0.4466 -0.1680
 7705SOL    HW134574   4.371   4.551  11.813  4.5701  3.0852 -0.4961
 7705SOL    HW234575   4.395   4.636  11.688 -0.2446 -1.3364 -1.9231
 7706SOL     OW34576   1.269   1.179  10.767 -0.0612  0.2116 -0.2600
 7706SOL    HW134577   1.181   1.215  10.781 -1.0427 -2.5410  0.6089
 7706SOL    HW234578   1.330   1.253  10.771  0.6506 -0.5262  2.9463
 7707SOL     OW34579   2.115   4.194   7.318  0.0726 -0.4600  1.1739
 7707SOL    HW134580   2.080   4.264   7.262  2.9574  0.0622  0.0276
 7707SOL    HW234581   2.191   4.236   7.359 -0.7266  0.8450  1.3234
 7708SOL     OW34582   1.205   3.491  11.779  0.6037  0.2713 -0.3241
 7708SOL    HW134583   1.201   3.447  11.694 -0.4330  1.2262 -0.7752
 7708SOL    HW234584   1.168   3.428  11.842  2.5433 -1.8339 -1.3089
 7709SOL     OW34585   1.125   1.468   4.689 -0.5410 -0.6659  0.0474
 7709SOL    HW134586   1.121   1.564   4.688 -0.2419 -0.6385  1.1534
 7709SOL    HW234587   1.216   1.459   4.716 -0.0661  0.4528 -1.1861
 7710SOL     OW34588   1.591   3.753  13.758 -0.1944 -0.1444 -0.0329
 7710SOL    HW134589   1.584   3.697  13.835 -0.2085  2.4317  1.8593
 7710SOL    HW234590   1.606   3.839  13.798  0.2496  0.2923 -1.1611
 7711SOL     OW34591   1.655   4.566   8.628  0.1311  0.1953  0.0691
 7711SOL    HW134592   1.630   4.564   8.536  0.9383  0.2330 -0.1502
 7711SOL    HW234593   1.613   4.486   8.659 -1.5485  1.4214  0.9998
 7712SOL     OW34594   1.342   3.932   2.377 -0.2093 -0.3578 -0.0218
 7712SOL    HW134595   1.255   3.968   2.394  0.2622  1.1346 -0.7512
 7712SOL    HW234596   1.385   3.938   2.463  1.1645 -1.6472 -0.6232
 7713SOL     OW34597   2.171   4.484   0.991  0.3960  0.3661  0.0656
 7713SOL    HW134598   2.168   4.536   1.071 -2.4830 -0.9187  0.7961
 7713SOL    HW234599   2.169   4.404   1.043 -0.8653  0.4693  0.1880
 7714SOL     OW34600   1.700   3.629   1.658 -0.4472  0.3834  0.1549
 7714SOL    HW134601   1.765   3.691   1.623  0.3554  0.0683  1.0984
 7714SOL    HW234602   1.623   3.685   1.652 -1.0553 -0.4675  0.0376
 7715SOL     OW34603   2.608   3.459   4.310  0.3069  0.5844  0.4909
 7715SOL    HW134604   2.625   3.492   4.222  0.4833 -1.0868 -0.0974
 7715SOL    HW234605   2.669   3.522   4.349 -0.7975  1.0470  1.4535
 7716SOL     OW34606   1.870   0.549   7.860  0.6096  0.4060  0.6598
 7716SOL    HW134607   1.891   0.622   7.801 -0.4860 -0.3487 -0.6482
 7716SOL    HW234608   1.934   0.484   7.833 -0.1015 -0.1776  0.3714
 7717SOL     OW34609   3.225   4.616   5.660 -0.7260 -0.3705 -0.2283
 7717SOL    HW134610   3.146   4.665   5.683 -0.6026  0.5035 -1.6494
 7717SOL    HW234611   3.192   4.530   5.635  3.4376 -1.3402 -2.4634
 7718SOL     OW34612   4.418   2.382   1.799  0.3871 -0.5974 -0.2086
 7718SOL    HW134613   4.451   2.416   1.882  1.6494  1.6715 -1.6531
 7718SOL    HW234614   4.324   2.371   1.811  0.5391 -0.3412  1.2097
 7719SOL     OW34615   2.601   0.165   2.554  0.4670 -0.6258 -0.1419
 7719SOL    HW134616   2.621   0.147   2.462  2.6600 -0.6561  0.3419
 7719SOL    HW234617   2.661   0.238   2.567 -1.0537  0.5316  0.3405
 7720SOL     OW34618   0.769   2.195   2.631 -0.2564 -0.3577 -0.1939
 7720SOL    HW134619   0.774   2.137   2.555 -1.8764 -0.2483 -0.3823
 7720SOL    HW234620   0.757   2.282   2.593 -1.6249 -1.3699 -2.0197
 7721SOL     OW34621   0.948   4.175   5.645  0.0450 -0.2324 -0.2218
 7721SOL    HW134622   1.000   4.185   5.724  1.2175  1.7476 -1.2604
 7721SOL    HW234623   0.867   4.134   5.678 -1.0476 -0.5143 -3.2295
 7722SOL     OW34624   4.626   1.809   5.454 -0.2653  0.4386 -0.0861
 7722SOL    HW134625   4.676   1.870   5.508  1.0277  0.3296 -1.1641
 7722SOL    HW234626   4.704   1.770   5.415 -0.4736  1.8579 -1.9284
 7723SOL     OW34627   4.542   4.356  10.348  0.1984 -0.6260 -0.5531
 7723SOL    HW134628   4.547   4.343  10.253 -1.0324  0.7503 -0.7953
 7723SOL    HW234629   4.516   4.269  10.380  0.9962 -0.5695  0.2470
 7724SOL     OW34630   2.338   3.127   3.949 -0.4210 -0.0138 -0.2467
 7724SOL    HW134631   2.388   3.097   4.026  0.2793  0.8041 -0.3818
 7724SOL    HW234632   2.335   3.048   3.896 -2.9955  1.3184 -2.0525
 7725SOL     OW34633   1.620   3.952  10.180 -0.1341  0.6990 -0.0575
 7725SOL    HW134634   1.577   3.947  10.094  0.4434 -0.9489 -0.2501
 7725SOL    HW234635   1.622   3.859  10.205  1.1587  0.9256  0.6552
 7726SOL     OW34636   2.684   3.174  11.534  0.4182  0.2373  0.3562
 7726SOL    HW134637   2.667   3.103  11.595  4.1121 -0.4368  0.6161
 7726SOL    HW234638   2.664   3.251  11.588  0.1834  0.8509 -0.6057
 7727SOL     OW34639   1.447   0.025  10.988 -0.2793 -0.7326  0.1243
 7727SOL    HW134640   1.435   0.024  11.083  1.9601 -1.0250  0.4097
 7727SOL    HW234641   1.355   0.019  10.962 -0.6602  1.1976  1.1058
 7728SOL     OW34642   0.585   2.482   0.918 -0.3708  0.3711  0.1812
 7728SOL    HW134643   0.630   2.550   0.868 -0.4012 -0.9509 -1.6210
 7728SOL    HW234644   0.531   2.533   0.979  0.7220 -0.6960  2.0437
 7729SOL     OW34645   1.940   2.551  10.188  0.7265 -0.1404 -0.2019
 7729SOL    HW134646   1.849   2.539  10.215  0.4402 -0.5376 -1.3534
 7729SOL    HW234647   1.973   2.461  10.192 -3.6124 -1.8025 -2.4052
 7730SOL     OW34648   4.174   1.796   5.346 -0.8828 -0.2457 -0.0620
 7730SOL    HW134649   4.137   1.723   5.296 -2.5187  1.1881 -0.9784
 7730SOL    HW234650   4.247   1.759   5.394 -2.4311 -3.1999  0.0086
 7731SOL     OW34651   4.289   0.635   5.625 -0.3375  0.1509 -0.3031
 7731SOL    HW134652   4.346   0.575   5.576  0.5659  1.3090 -0.6626
 7731SOL    HW234653   4.316   0.714   5.578 -0.9345  1.8368  2.1900
 7732SOL     OW34654   0.444   1.764   3.784  0.0600 -0.0568  0.2918
 7732SOL    HW134655   0.374   1.746   3.720 -0.1302 -1.2712  0.8575
 7732SOL    HW234656   0.519   1.710   3.758  1.1710  1.0495  1.2240
 7733SOL     OW34657   3.005   4.262  13.941  0.9078  0.3826 -0.2774
 7733SOL    HW134658   3.064   4.200  13.897 -0.7760 -1.0486 -0.4988
 7733SOL    HW234659   3.015   4.336  13.881 -2.8891  0.1903 -1.1371
 7734SOL     OW34660   2.514   2.851  17.294  0.3902  0.2154  0.0214
 7734SOL    HW134661   2.446   2.787  17.272  3.4017 -2.7017 -0.9072
 7734SOL    HW234662   2.460   2.929  17.279 -1.7993 -1.0210  1.4748
 7735SOL     OW34663   1.305   0.199   3.852  0.0530  0.0571  0.6674
 7735SOL    HW134664   1.311   0.283   3.806  2.9244  0.3213  1.5014
 7735SOL    HW234665   1.211   0.182   3.853  0.0711 -0.2100 -0.9071
 7736SOL     OW34666   2.031   0.478   2.331 -0.0009  0.6585  0.3098
 7736SOL    HW134667   1.967   0.496   2.400  1.3104 -1.3420  2.0491
 7736SOL    HW234668   1.994   0.399   2.292  0.7020  0.2457  0.4829
 7737SOL     OW34669   0.633   1.544   3.992  0.1928  0.6135  0.0522
 7737SOL    HW134670   0.692   1.620   3.987  1.1203 -0.0104  1.7058
 7737SOL    HW234671   0.596   1.547   3.903 -0.1878 -0.2030  0.1869
 7738SOL     OW34672   3.739   3.903   4.645 -0.0142 -0.5950  0.2978
 7738SOL    HW134673   3.651   3.938   4.631  1.3377  2.9257  0.7484
 7738SOL    HW234674   3.772   3.968   4.707 -0.5454 -0.4255  0.4035
 7739SOL     OW34675   3.355   3.987   2.940 -0.1332 -0.4713  0.0669
 7739SOL    HW134676   3.389   4.071   2.971  0.1247  0.2597 -2.1896
 7739SOL    HW234677   3.330   4.011   2.851 -1.4077  0.9001  0.8077
 7740SOL     OW34678   2.331   2.807   7.302  0.1335 -0.5032  0.2353
 7740SOL    HW134679   2.398   2.865   7.268 -0.0732 -1.0826 -1.1404
 7740SOL    HW234680   2.355   2.738   7.240 -2.1000 -0.4650 -0.6814
 7741SOL     OW34681   1.722   0.682   4.477  0.5103  0.3302 -0.8349
 7741SOL    HW134682   1.806   0.640   4.492 -0.0140 -0.3145  0.2639
 7741SOL    HW234683   1.743   0.756   4.420  0.2369  0.9328 -0.1528
 7742SOL     OW34684   0.593   1.083  17.454 -0.1653  0.0961 -0.0881
 7742SOL    HW134685   0.522   1.087  17.391  0.3143 -1.1316 -0.7010
 7742SOL    HW234686   0.664   1.118  17.401  0.2514 -1.0960 -0.3326
 7743SOL     OW34687   4.533   3.147   9.274 -0.2067 -0.6831 -0.5231
 7743SOL    HW134688   4.523   3.177   9.364 -1.2772  0.2454 -0.9432
 7743SOL    HW234689   4.628   3.153   9.259 -0.1253 -0.8071 -0.0345
 7744SOL     OW34690   3.118   4.619  13.133  0.0157 -0.3764  0.0536
 7744SOL    HW134691   3.190   4.558  13.119 -2.3761 -2.9100 -1.0000
 7744SOL    HW234692   3.144   4.647  13.221  0.2425 -0.8248  0.1261
 7745SOL     OW34693   2.212   2.885   8.320 -0.6295 -0.0200  0.0164
 7745SOL    HW134694   2.163   2.968   8.318  0.0844  0.4310  0.9951
 7745SOL    HW234695   2.147   2.825   8.284 -1.5031  0.7904  0.2120
 7746SOL     OW34696   1.684   3.192   1.350 -0.1188  0.3124 -0.3781
 7746SOL    HW134697   1.611   3.221   1.296 -0.7128 -0.3191  0.0929
 7746SOL    HW234698   1.717   3.278   1.373 -0.5842 -0.0545  1.6678
 7747SOL     OW34699   4.687   0.790   3.420  0.1274  0.5116  0.3238
 7747SOL    HW134700   4.679   0.722   3.353  1.1936  0.8220 -0.1179
 7747SOL    HW234701   0.047   0.760   3.461 -1.1070  0.9923  3.1688
 7748SOL     OW34702   0.332   1.520   7.469 -0.4797  0.5792  0.6487
 7748SOL    HW134703   0.393   1.554   7.534  1.0939  1.2122 -1.1444
 7748SOL    HW234704   0.252   1.537   7.517 -0.1940 -1.9118  2.0297
 7749SOL     OW34705   4.034   2.545  14.725  0.1228  0.0533  0.2719
 7749SOL    HW134706   4.024   2.478  14.657 -0.2611 -0.4610  0.8426
 7749SOL    HW234707   4.106   2.511  14.778  0.6191  0.0141 -0.4170
 7750SOL     OW34708   3.323   1.739   3.478  0.3837  0.1812  0.4305
 7750SOL    HW134709   3.392   1.680   3.448 -1.4755 -1.5575 -0.3694
 7750SOL    HW234710   3.372   1.810   3.519 -0.4031  0.8787  0.1634
 7751SOL     OW34711   0.860   0.459   3.111  0.5717 -0.9975 -0.2871
 7751SOL    HW134712   0.854   0.394   3.181 -0.9862 -1.6587 -1.0508
 7751SOL    HW234713   0.769   0.460   3.081  1.9939  0.3440 -4.5813
 7752SOL     OW34714   0.372   4.285  13.379 -0.1626  0.0736 -0.0694
 7752SOL    HW134715   0.460   4.321  13.390  0.0457 -1.3178  2.8062
 7752SOL    HW234716   0.371   4.207  13.323 -1.0716  0.2962 -0.3523
 7753SOL     OW34717   3.818   2.591   7.110  0.1260 -0.1575  0.2469
 7753SOL    HW134718   3.796   2.503   7.078  0.4544  0.3475 -1.3609
 7753SOL    HW234719   3.827   2.634   7.025  0.9378  1.0906  0.9716
 7754SOL     OW34720   2.279   1.394   0.030 -0.3849 -0.0462  0.2736
 7754SOL    HW134721   2.189   1.381  17.687  0.3858 -1.9170 -1.1901
 7754SOL    HW234722   2.269   1.439   0.114  0.7662 -0.3010  0.5500
 7755SOL     OW34723   1.130   3.487  11.328 -0.2623  0.0325 -0.0304
 7755SOL    HW134724   1.223   3.462  11.330 -0.8361 -2.1016  0.2908
 7755SOL    HW234725   1.117   3.488  11.233 -0.8051 -0.6771  0.0356
 7756SOL     OW34726   4.687   4.579   3.475 -0.1055  0.3879  0.4760
 7756SOL    HW134727   0.020   4.583   3.554  0.0673 -1.1209  0.4392
 7756SOL    HW234728   0.008   4.496   3.451 -0.8242  0.1248  0.1127
 7757SOL     OW34729   2.100   0.759   1.514  0.1937  0.0426 -0.2341
 7757SOL    HW134730   2.007   0.762   1.492  0.3521  1.5659 -0.6397
 7757SOL    HW234731   2.092   0.793   1.603  0.1446  0.2920 -0.3355
 7758SOL     OW34732   0.009   4.474   6.397  0.1096 -0.2644  0.0546
 7758SOL    HW134733   4.669   4.515   6.457 -1.0658 -2.4197  0.3169
 7758SOL    HW234734   0.044   4.397   6.443  1.6685  0.1885 -0.3744
 7759SOL     OW34735   3.436   3.352   4.459  0.0054 -0.9452 -0.3815
 7759SOL    HW134736   3.495   3.354   4.384  1.8040 -0.1262  1.0510
 7759SOL    HW234737   3.457   3.436   4.500 -0.5895 -1.2906  0.6375
 7760SOL     OW34738   1.830   2.843   4.695  0.7068 -0.3886 -0.4710
 7760SOL    HW134739   1.879   2.904   4.750 -0.4615  0.0850  0.0322
 7760SOL    HW234740   1.835   2.882   4.608  1.4166  0.5871  0.0155
 7761SOL     OW34741   4.081   2.867   4.047 -0.2314 -0.3275  0.0593
 7761SOL    HW134742   4.143   2.926   4.090  1.5705 -0.7227 -1.9700
 7761SOL    HW234743   4.136   2.806   3.996 -0.7686  0.9707 -2.0618
 7762SOL     OW34744   3.415   3.063   4.908 -0.4108 -0.2558  0.7422
 7762SOL    HW134745   3.466   3.042   4.829 -1.0701 -0.9763  0.5075
 7762SOL    HW234746   3.327   3.047   4.876 -0.5777  0.1123  1.0146
 7763SOL     OW34747   2.439   1.049   7.497 -0.1012 -0.1976 -0.3274
 7763SOL    HW134748   2.516   1.059   7.441  2.8137 -0.4139  3.6718
 7763SOL    HW234749   2.394   1.133   7.489 -1.9075 -0.9616  1.6879
 7764SOL     OW34750   1.107   3.611  12.733  0.0351 -0.1580 -0.7633
 7764SOL    HW134751   1.193   3.577  12.707 -0.1612  1.6310 -3.6851
 7764SOL    HW234752   1.100   3.670  12.658  0.6897  1.0614  0.1368
 7765SOL     OW34753   2.694   2.821   2.867 -0.1274  0.5019  0.0165
 7765SOL    HW134754   2.761   2.754   2.850 -0.7725  0.2539 -1.5252
 7765SOL    HW234755   2.748   2.895   2.894  3.4726 -2.2621  0.5064
 7766SOL     OW34756   1.553   3.860   8.393  0.0343  0.1885  0.5148
 7766SOL    HW134757   1.465   3.896   8.398  1.0947  2.6635  1.4538
 7766SOL    HW234758   1.546   3.771   8.359  0.5029  0.2256  0.3195
 7767SOL     OW34759   1.351   1.577   8.359  0.2871  0.2602 -0.1067
 7767SOL    HW134760   1.305   1.649   8.402  0.5602  1.4877 -1.8707
 7767SOL    HW234761   1.278   1.537   8.312  0.1356 -1.3546  1.5023
 7768SOL     OW34762   0.881   1.967   3.325  0.0420 -0.0157 -0.1986
 7768SOL    HW134763   0.964   1.976   3.371  1.1809 -0.3844 -2.1635
 7768SOL    HW234764   0.901   1.884   3.280 -1.8088 -1.3589  1.4250
 7769SOL     OW34765   4.376   1.718  13.161 -0.0641  0.7905  0.0100
 7769SOL    HW134766   4.329   1.753  13.085 -0.2104 -1.2490 -0.8318
 7769SOL    HW234767   4.318   1.657  13.207 -1.1216 -1.0989 -3.8486
 7770SOL     OW34768   0.052   1.442  11.389 -0.6436  0.1242  0.2332
 7770SOL    HW134769   0.077   1.455  11.297  0.9177 -0.6895  0.5373
 7770SOL    HW234770   0.087   1.517  11.437  1.0054 -1.2189  1.1235
 7771SOL     OW34771   2.564   1.144   3.004 -0.1943  0.5717 -0.7026
 7771SOL    HW134772   2.633   1.205   2.980 -0.6508  2.5009  2.9200
 7771SOL    HW234773   2.570   1.155   3.099  0.4482 -0.0318 -0.6723
 7772SOL     OW34774   0.486   4.509   9.677 -0.0688  0.0981  0.0800
 7772SOL    HW134775   0.450   4.442   9.620 -0.7754  1.9386 -1.6294
 7772SOL    HW234776   0.567   4.468   9.708  0.1536  0.5672  0.1150
 7773SOL     OW34777   2.518   3.049  13.886  0.4369  0.4296  0.4777
 7773SOL    HW134778   2.427   3.045  13.916 -0.3850  1.6935 -1.8394
 7773SOL    HW234779   2.515   3.022  13.795 -2.7621 -2.5964  1.4965
 7774SOL     OW34780   3.446   3.708   8.153 -0.7336 -0.5212 -0.1186
 7774SOL    HW134781   3.449   3.662   8.070 -1.7123 -0.4482 -0.1902
 7774SOL    HW234782   3.538   3.709   8.180 -1.0122 -2.0040  0.8810
 7775SOL     OW34783   0.246   1.403  12.586  0.5799  0.3577  0.1921
 7775SOL    HW134784   0.204   1.456  12.654  1.6772  0.7423  0.5633
 7775SOL    HW234785   0.330   1.447  12.600 -0.4087  2.5011 -0.6441
 7776SOL     OW34786   0.925   4.360  10.592 -0.2159 -0.0623 -0.1295
 7776SOL    HW134787   0.917   4.302  10.516  0.1122 -0.8067  0.4065
 7776SOL    HW234788   0.851   4.328  10.643 -0.5299  1.1335  0.1545
 7777SOL     OW34789   2.380   3.663   2.121  0.4900 -0.1534  0.0121
 7777SOL    HW134790   2.475   3.646   2.117  0.4763  0.0408 -1.0761
 7777SOL    HW234791   2.357   3.606   2.195 -0.3406  0.3946  0.1734
 7778SOL     OW34792   3.054   2.435   5.690 -0.0854 -0.4059 -0.5544
 7778SOL    HW134793   3.044   2.365   5.626 -1.6006 -1.1532  0.4966
 7778SOL    HW234794   3.066   2.512   5.634  0.5639  0.1237  0.2971
 7779SOL     OW34795   1.907   0.242   6.100  0.4695  0.2119 -0.1805
 7779SOL    HW134796   1.941   0.159   6.068  0.2701 -0.3501  1.0716
 7779SOL    HW234797   1.965   0.254   6.176  2.1486 -0.3190 -1.3705
 7780SOL     OW34798   3.840   3.951  16.713 -0.1996  1.0406 -0.4734
 7780SOL    HW134799   3.761   3.982  16.671 -0.1801  0.0586 -1.2388
 7780SOL    HW234800   3.809   3.874  16.761 -1.4122  2.1814  0.5663
 7781SOL     OW34801   0.443   4.295  10.760  0.1966  0.1319 -0.2316
 7781SOL    HW134802   0.374   4.253  10.708  0.0237 -0.9814  0.8645
 7781SOL    HW234803   0.423   4.388  10.750 -0.5105 -0.0436 -0.4866
 7782SOL     OW34804   1.042   2.219   8.688 -0.1931  0.7733  0.1487
 7782SOL    HW134805   1.059   2.264   8.605 -3.1503 -0.3189 -1.0264
 7782SOL    HW234806   1.059   2.294   8.745  1.8491 -0.0290  0.6062
 7783SOL     OW34807   4.082   2.646   9.091 -0.3083 -0.7376  0.2570
 7783SOL    HW134808   4.134   2.604   9.160  1.0001  1.3528  0.5138
 7783SOL    HW234809   4.031   2.704   9.148  1.6879  0.0229  1.2754
 7784SOL     OW34810   3.752   0.545   4.644  0.2767 -0.2782  0.3617
 7784SOL    HW134811   3.783   0.576   4.729  1.9277  2.9502 -1.4350
 7784SOL    HW234812   3.730   0.456   4.672  1.8399 -1.1791 -1.2300
 7785SOL     OW34813   3.563   3.038   4.328 -0.1237  0.2784  0.3214
 7785SOL    HW134814   3.570   3.003   4.417  0.6055 -1.9080 -0.5918
 7785SOL    HW234815   3.474   3.008   4.312 -0.1016 -0.0200  0.7527
 7786SOL     OW34816   4.387   2.262  17.042 -0.3612 -0.1640 -0.3520
 7786SOL    HW134817   4.346   2.198  17.100  0.0272 -0.2054 -0.1216
 7786SOL    HW234818   4.472   2.272  17.085 -0.1161 -1.1173 -0.6224
 7787SOL     OW34819   2.581   3.671   8.621  0.3604 -0.6628 -0.4530
 7787SOL    HW134820   2.537   3.717   8.549 -0.1558  0.9816  0.8990
 7787SOL    HW234821   2.618   3.597   8.574  0.1919  0.1552 -1.8744
 7788SOL     OW34822   0.781   2.714  16.272 -0.0766 -0.1529  0.1580
 7788SOL    HW134823   0.780   2.687  16.364 -1.0266  0.7194  0.4118
 7788SOL    HW234824   0.841   2.649  16.237 -2.6260 -1.9495 -0.7994
 7789SOL     OW34825   1.361   1.856   4.867  0.2081 -0.0162 -0.2046
 7789SOL    HW134826   1.438   1.812   4.902 -0.0977 -0.1153  0.3634
 7789SOL    HW234827   1.350   1.809   4.785  0.4097 -2.7794  1.3556
 7790SOL     OW34828   0.587   1.502   2.938  0.3975 -0.4049 -0.1922
 7790SOL    HW134829   0.558   1.518   2.848  1.4214  1.4682 -0.1805
 7790SOL    HW234830   0.507   1.494   2.991  0.7613 -0.6071  0.3282
 7791SOL     OW34831   3.117   2.266  16.961 -0.1679  0.1678  0.3721
 7791SOL    HW134832   3.176   2.316  17.017 -0.2072 -1.0152  1.4747
 7791SOL    HW234833   3.125   2.180  17.002 -0.1624  0.4776  1.0250
 7792SOL     OW34834   1.902   0.787   8.699 -0.4701 -0.1306 -0.3145
 7792SOL    HW134835   1.932   0.707   8.743  1.2413  1.0479  0.7090
 7792SOL    HW234836   1.841   0.748   8.637 -0.9054  0.8502 -0.5091
 7793SOL     OW34837   3.813   1.939   7.426 -0.5165  0.1430 -0.0856
 7793SOL    HW134838   3.865   1.950   7.505 -0.9598 -2.8720  0.6387
 7793SOL    HW234839   3.765   1.857   7.436  2.3240 -1.5436 -0.0919
 7794SOL     OW34840   3.888   2.889  16.832 -0.7977  0.0677 -0.1375
 7794SOL    HW134841   3.812   2.840  16.864  0.6370 -3.6338 -2.3447
 7794SOL    HW234842   3.949   2.824  16.797 -0.7040  0.4234 -0.6342
 7795SOL     OW34843   2.400   2.486   8.711  0.3403 -0.5387  0.3431
 7795SOL    HW134844   2.406   2.577   8.684 -1.2897 -0.4168  0.3863
 7795SOL    HW234845   2.492   2.469   8.731  0.4462  2.7075  2.5991
 7796SOL     OW34846   3.211   1.751   5.438 -0.0085 -0.5658 -0.2184
 7796SOL    HW134847   3.238   1.758   5.530 -0.2534  0.1692 -0.1974
 7796SOL    HW234848   3.144   1.819   5.437 -0.1420 -0.7043 -0.6455
 7797SOL     OW34849   2.478   0.516   4.442 -0.0131 -0.3229  0.3258
 7797SOL    HW134850   2.523   0.590   4.401  0.3966 -1.5679 -1.4781
 7797SOL    HW234851   2.478   0.449   4.374 -0.1705  1.9364 -1.9019
 7798SOL     OW34852   3.260   4.494   7.472  0.5486 -0.1733 -0.0297
 7798SOL    HW134853   3.299   4.427   7.528  0.5503 -0.0993  0.0571
 7798SOL    HW234854   3.254   4.561   7.541 -0.1049 -0.2005 -0.0582
 7799SOL     OW34855   4.353   1.828   9.084  0.3082 -0.4249  0.0172
 7799SOL    HW134856   4.387   1.906   9.041  1.1276 -1.0296 -0.4420
 7799SOL    HW234857   4.426   1.766   9.077 -1.7800 -2.8039 -0.6809
 7800SOL     OW34858   2.080   3.026   1.874 -0.1262  0.4210  0.2162
 7800SOL    HW134859   2.046   3.072   1.798 -1.2284 -0.7779 -0.0156
 7800SOL    HW234860   2.050   2.939   1.849  0.7091 -0.6903  3.0802
 7801SOL     OW34861   2.695   2.246   3.628  0.1490  0.1890 -0.0256
 7801SOL    HW134862   2.744   2.166   3.611  0.9897  0.8858 -0.9263
 7801SOL    HW234863   2.733   2.263   3.714 -2.2367 -1.4515  1.3237
 7802SOL     OW34864   0.616   1.775   8.227  0.2922 -0.2018  0.0131
 7802SOL    HW134865   0.663   1.858   8.219  0.0506 -0.2330 -1.8292
 7802SOL    HW234866   0.580   1.780   8.315  2.6316 -0.1716  0.9828
 7803SOL     OW34867   0.423   3.445   5.923 -0.2779  0.0200  0.4034
 7803SOL    HW134868   0.390   3.486   5.842 -0.9760  0.8141  1.0838
 7803SOL    HW234869   0.340   3.464   5.968 -0.9173  2.7949 -1.9409
 7804SOL     OW34870   2.365   1.442   2.542 -0.3463  0.1214  0.0888
 7804SOL    HW134871   2.334   1.352   2.545 -2.3323  0.8564  1.3957
 7804SOL    HW234872   2.431   1.430   2.474 -0.3213 -1.2143  0.3555
 7805SOL     OW34873   2.267   1.523  16.731  0.8941 -0.0804 -0.0400
 7805SOL    HW134874   2.282   1.599  16.675  0.5664  1.1767  1.5843
 7805SOL    HW234875   2.313   1.549  16.811  2.0667 -2.2087 -0.0142
 7806SOL     OW34876   4.069   3.460   5.662 -0.3423  0.1621  0.0187
 7806SOL    HW134877   4.035   3.427   5.580 -0.4618  2.0791 -0.7063
 7806SOL    HW234878   4.116   3.382   5.690  0.1789 -0.0791 -1.5443
 7807SOL     OW34879   1.800   4.355   4.644  0.3217  0.1032 -0.3621
 7807SOL    HW134880   1.739   4.341   4.716  1.5340  0.2568  0.6938
 7807SOL    HW234881   1.872   4.402   4.686 -0.0980  0.8737 -0.5140
 7808SOL     OW34882   4.023   1.483   8.802 -0.4313  0.1010  0.5006
 7808SOL    HW134883   4.109   1.515   8.829 -0.8040  0.4566  1.2759
 7808SOL    HW234884   3.966   1.551   8.837 -0.7938  1.0956 -1.9976
 7809SOL     OW34885   1.658   3.624   2.047 -0.1128 -0.3783 -0.5303
 7809SOL    HW134886   1.604   3.658   2.119  1.4886  3.1281 -1.0097
 7809SOL    HW234887   1.698   3.705   2.017  0.6521 -0.8913 -0.9064
 7810SOL     OW34888   0.181   2.844   3.132 -0.2387 -0.3310 -0.0769
 7810SOL    HW134889   0.235   2.804   3.200 -0.5870  1.4743  1.2560
 7810SOL    HW234890   0.237   2.850   3.055  1.7925 -2.7645  1.2037
 7811SOL     OW34891   1.736   1.873   2.669 -0.0157 -0.1514 -0.0827
 7811SOL    HW134892   1.807   1.852   2.730 -1.2492  0.7997  1.6753
 7811SOL    HW234893   1.710   1.953   2.714  1.1748  0.4390 -0.4670
 7812SOL     OW34894   0.288   0.194   6.317 -0.3397 -0.3423 -0.3913
 7812SOL    HW134895   0.210   0.156   6.357  1.1427 -1.4997  1.4256
 7812SOL    HW234896   0.280   0.172   6.225  2.5678 -0.2000 -0.6685
 7813SOL     OW34897   1.219   0.220   4.822  0.1233 -0.0600 -0.5434
 7813SOL    HW134898   1.187   0.159   4.888  0.5401  0.4695  0.1543
 7813SOL    HW234899   1.160   0.202   4.749 -0.7242  1.1686 -0.1711
 7814SOL     OW34900   3.663   0.019   4.112 -0.1316  0.7193 -0.6068
 7814SOL    HW134901   3.696   0.109   4.117  1.4232  0.1631 -1.0634
 7814SOL    HW234902   3.738   4.682   4.115  1.5982  2.8923 -1.7741
 7815SOL     OW34903   1.502   2.923   4.382 -0.3472  0.2016  0.3100
 7815SOL    HW134904   1.484   3.005   4.338 -2.3709  0.2014  1.1388
 7815SOL    HW234905   1.415   2.883   4.377  0.0775 -0.4413 -1.6756
 7816SOL     OW34906   1.722   2.968   3.668 -0.5230  0.2976  0.0888
 7816SOL    HW134907   1.722   2.913   3.590  0.4841 -0.1008  0.3788
 7816SOL    HW234908   1.645   2.948   3.721  0.1509 -0.1726  0.8763
 7817SOL     OW34909   2.569   3.606   2.741  0.8597  0.2238  0.3240
 7817SOL    HW134910   2.607   3.648   2.818 -1.0319 -0.4465  1.6255
 7817SOL    HW234911   2.529   3.674   2.687  1.4453  0.3171  0.0113
 7818SOL     OW34912   0.056   2.890  13.437 -0.1912 -0.3914  0.2233
 7818SOL    HW134913   0.038   2.853  13.350  1.8582 -0.4199 -0.1795
 7818SOL    HW234914   0.076   2.813  13.489  6.5659  0.7148 -0.7792
 7819SOL     OW34915   3.708   1.371   3.287  0.5993  0.2113 -0.9198
 7819SOL    HW134916   3.733   1.401   3.200  0.2358 -0.7112 -1.3407
 7819SOL    HW234917   3.790   1.395   3.332  0.0229  0.4216  0.0079
 7820SOL     OW34918   3.780   3.221  13.348  0.1484 -0.2090  0.2798
 7820SOL    HW134919   3.745   3.260  13.268  0.7492  0.8483  0.5327
 7820SOL    HW234920   3.732   3.268  13.416  0.1567 -1.7480  1.3416
 7821SOL     OW34921   4.675   2.092   9.264 -0.1881 -0.1972 -0.1131
 7821SOL    HW134922   4.719   2.018   9.223 -0.0879  0.2067 -0.7281
 7821SOL    HW234923   0.012   2.163   9.235 -0.4346 -1.2991 -3.2360
 7822SOL     OW34924   0.924   0.334   2.340  0.1068 -0.1960  0.3498
 7822SOL    HW134925   0.985   0.347   2.267 -2.0735  0.2978 -1.3754
 7822SOL    HW234926   0.889   0.419   2.366 -1.2226 -0.6440  0.0343
 7823SOL     OW34927   2.598   2.574   5.292  0.8503 -0.0209  0.2532
 7823SOL    HW134928   2.640   2.658   5.309 -1.2128  1.2209 -0.7586
 7823SOL    HW234929   2.545   2.563   5.371  0.3775  0.6750  0.0362
 7824SOL     OW34930   1.453   3.559  11.931 -0.0457 -0.1382 -0.0706
 7824SOL    HW134931   1.483   3.609  11.855 -0.2478  1.1902  0.7124
 7824SOL    HW234932   1.378   3.515  11.892 -0.3445  0.9394 -0.7193
 7825SOL     OW34933   2.082   3.517   9.648 -0.2954  0.5475  0.0750
 7825SOL    HW134934   2.033   3.599   9.649  0.7090  1.1419  0.3721
 7825SOL    HW234935   2.027   3.469   9.586  0.2579  1.3243 -1.0120
 7826SOL     OW34936   2.725   3.127   8.158  0.4877 -0.2520 -0.5863
 7826SOL    HW134937   2.712   3.043   8.115 -1.5814  0.0180 -0.4892
 7826SOL    HW234938   2.794   3.112   8.223  1.0601  1.5701 -0.7572
 7827SOL     OW34939   4.042   1.395   9.162 -0.4361 -0.0790 -0.6426
 7827SOL    HW134940   4.109   1.373   9.097 -1.4931 -0.5385 -1.5877
 7827SOL    HW234941   4.083   1.433   9.239 -1.7612 -1.4413  0.7254
 7828SOL     OW34942   2.610   3.712   1.153 -0.0744  0.0308  0.4181
 7828SOL    HW134943   2.644   3.647   1.215  0.6983  0.9243  0.9409
 7828SOL    HW234944   2.520   3.680   1.150 -0.0519 -0.1295  1.3059
 7829SOL     OW34945   1.301   2.935   2.868 -0.4318 -0.5232 -0.0208
 7829SOL    HW134946   1.274   2.971   2.784 -0.1471 -0.9283 -0.2886
 7829SOL    HW234947   1.295   3.017   2.917  0.1132  0.9951 -2.4752
 7830SOL     OW34948   2.284   1.156   1.888  0.2706  0.0465  0.4625
 7830SOL    HW134949   2.329   1.210   1.953 -1.3157 -0.5325  2.0656
 7830SOL    HW234950   2.196   1.151   1.926 -1.2065 -0.0135 -2.9982
 7831SOL     OW34951   4.457   4.563  10.496 -0.0188 -0.1275 -0.1212
 7831SOL    HW134952   4.413   4.500  10.552 -0.4272  1.6157  1.5343
 7831SOL    HW234953   4.491   4.506  10.427 -0.2153 -1.3518  0.8063
 7832SOL     OW34954   2.222   0.738   6.482  0.2453 -0.2654 -0.0835
 7832SOL    HW134955   2.195   0.794   6.555  3.2291 -1.4496  1.8957
 7832SOL    HW234956   2.148   0.743   6.421 -0.9026 -0.0926  1.3110
 7833SOL     OW34957   0.517   2.631   7.852  0.0502  0.0514 -0.0051
 7833SOL    HW134958   0.500   2.537   7.852  0.2015  0.0267  1.4260
 7833SOL    HW234959   0.425   2.657   7.851 -0.9476 -3.5056  0.5144
 7834SOL     OW34960   4.304   0.184   8.706 -0.3898  0.4821  0.2444
 7834SOL    HW134961   4.346   0.125   8.644 -0.5775 -1.6582  2.1374
 7834SOL    HW234962   4.307   0.116   8.773 -1.0550  0.3908  0.1884
 7835SOL     OW34963   2.911   4.041  17.531  0.5092 -0.4430 -0.5202
 7835SOL    HW134964   2.959   3.972  17.486 -1.2225 -2.0117  0.0435
 7835SOL    HW234965   2.837   3.997  17.572 -0.6076  1.1892 -0.8099
 7836SOL     OW34966   0.338   2.047  17.453 -0.2716  0.6690  0.0846
 7836SOL    HW134967   0.358   2.010  17.539  0.4874 -2.2102 -1.3324
 7836SOL    HW234968   0.385   2.130  17.449  2.4402 -0.8787 -0.9153
 7837SOL     OW34969   4.694   3.878   5.935 -0.3712  0.1094 -0.3215
 7837SOL    HW134970   0.017   3.892   6.018 -0.5386 -0.6283 -0.1105
 7837SOL    HW234971   4.603   3.897   5.957  0.4645  2.3989  1.1843
 7838SOL     OW34972   0.685   4.676  11.314  0.0311 -0.9405 -0.9227
 7838SOL    HW134973   0.633   0.022  11.269  1.2717 -0.0167 -0.9631
 7838SOL    HW234974   0.664   4.603  11.255  2.2664 -1.1295 -1.4624
 7839SOL     OW34975   1.863   1.502   2.426  0.1604 -0.8173 -0.3255
 7839SOL    HW134976   1.794   1.442   2.400  0.5130 -0.8771 -1.1228
 7839SOL    HW234977   1.825   1.524   2.511 -0.8570 -1.1686 -0.6965
 7840SOL     OW34978   1.394   1.401   3.261 -0.5822 -0.7047 -0.5299
 7840SOL    HW134979   1.342   1.481   3.259  1.0464  0.3282 -1.9231
 7840SOL    HW234980   1.404   1.389   3.356  0.4886 -1.3895 -0.7287
 7841SOL     OW34981   3.849   2.666  12.557  0.4861  0.5277 -0.3646
 7841SOL    HW134982   3.895   2.745  12.585  1.1001 -0.7877  2.3510
 7841SOL    HW234983   3.778   2.686  12.496 -1.2742 -1.7594  0.9441
 7842SOL     OW34984   4.327   3.668  14.263  0.1041  0.3809  0.0117
 7842SOL    HW134985   4.412   3.627  14.282  0.3065  0.6910 -0.2335
 7842SOL    HW234986   4.335   3.690  14.171  1.4398 -0.6324 -0.1158
 7843SOL     OW34987   1.716   1.033  11.165  0.1198  0.0717 -0.0691
 7843SOL    HW134988   1.795   1.050  11.217 -0.0227  0.8609 -0.1163
 7843SOL    HW234989   1.643   1.044  11.227 -0.6478 -2.0993 -0.5936
 7844SOL     OW34990   1.107   3.027   3.246  0.4865  0.0726 -0.2940
 7844SOL    HW134991   1.067   3.062   3.166  0.0527 -3.4298 -1.6021
 7844SOL    HW234992   1.133   2.944   3.207  0.5429 -0.0332 -0.0246
 7845SOL     OW34993   3.791   3.597   0.795 -0.0662  0.1070 -0.2342
 7845SOL    HW134994   3.853   3.626   0.861 -2.4149  1.5608  1.3701
 7845SOL    HW234995   3.765   3.508   0.819 -2.3645  1.3968  2.0274
 7846SOL     OW34996   1.791   3.833   8.577 -0.3113 -0.1761  0.4573
 7846SOL    HW134997   1.865   3.830   8.517  0.0710 -0.4269  0.9394
 7846SOL    HW234998   1.718   3.810   8.519 -1.7199 -1.0184  2.5711
 7847SOL     OW34999   1.168   4.253   9.958  0.3538  0.3786  0.3986
 7847SOL    HW135000   1.131   4.341   9.947 -3.0010 -1.1913 -0.7179
 7847SOL    HW235001   1.187   4.244   9.865  2.1427 -0.3529  0.8338
 7848SOL     OW35002   2.177   1.627   7.251 -0.4759  0.0371  0.0755
 7848SOL    HW135003   2.152   1.543   7.214  1.0087  0.2163 -1.3455
 7848SOL    HW235004   2.184   1.682   7.173 -2.1499  1.2523  0.7744
 7849SOL     OW35005   2.869   0.982   5.503  0.5462  0.4479 -0.1465
 7849SOL    HW135006   2.945   0.982   5.560  0.5732  1.8364 -0.1736
 7849SOL    HW235007   2.826   0.902   5.534 -0.9678  0.6957 -1.5729
 7850SOL     OW35008   1.878   0.677   6.653  0.3036 -0.0713 -0.2632
 7850SOL    HW135009   1.872   0.768   6.682  2.3193  0.3877 -1.2938
 7850SOL    HW235010   1.795   0.649   6.691  0.8888  1.6828  2.3070
 7851SOL     OW35011   1.815   2.540   3.835  0.3542  0.7601  0.0104
 7851SOL    HW135012   1.732   2.587   3.829 -1.0282 -1.5773  0.9713
 7851SOL    HW235013   1.800   2.485   3.912 -1.3471 -0.7024 -1.3772
 7852SOL     OW35014   0.875   2.771   4.563 -0.2693  0.5741  0.0028
 7852SOL    HW135015   0.907   2.782   4.473 -0.9651 -0.9279 -0.4298
 7852SOL    HW235016   0.890   2.857   4.601 -0.1755  0.4353  0.2794
 7853SOL     OW35017   1.845   2.629   1.565 -0.3899 -0.1546 -0.0681
 7853SOL    HW135018   1.786   2.631   1.640 -0.6255 -1.5971 -0.2158
 7853SOL    HW235019   1.897   2.553   1.591 -1.4550 -0.5060  1.0041
 7854SOL     OW35020   0.610   4.541   7.865  0.5214 -0.1541  0.1307
 7854SOL    HW135021   0.677   4.499   7.811  3.1430  2.2520  1.5633
 7854SOL    HW235022   0.546   4.557   7.795  2.1674 -1.1053 -1.5872
 7855SOL     OW35023   1.695   0.323  10.702 -0.3324  0.1976 -0.4767
 7855SOL    HW135024   1.722   0.405  10.743  1.2751 -0.1597 -0.7976
 7855SOL    HW235025   1.600   0.316  10.715 -0.1434 -0.3606  0.5785
 7856SOL     OW35026   0.347   3.152  15.892  0.2213 -0.3336 -0.0760
 7856SOL    HW135027   0.291   3.224  15.922  1.9570  0.3847  1.3976
 7856SOL    HW235028   0.311   3.138  15.804  1.5574  1.4224 -0.8868
 7857SOL     OW35029   2.686   0.598   0.433  0.5369  0.2305  0.0351
 7857SOL    HW135030   2.692   0.627   0.524 -0.9944 -1.0860  0.5537
 7857SOL    HW235031   2.674   0.503   0.440 -3.1304  0.6889  0.0889
 7858SOL     OW35032   3.968   0.292   6.507  0.2252  0.0627 -0.1396
 7858SOL    HW135033   3.907   0.278   6.580  0.9476  0.5127  0.5556
 7858SOL    HW235034   3.946   0.382   6.484  0.9425  0.0581 -0.8015
 7859SOL     OW35035   0.661   4.654   4.255  0.1723 -0.0633  0.5154
 7859SOL    HW135036   0.657   4.688   4.166 -0.0806 -0.2227  0.4636
 7859SOL    HW235037   0.623   4.569   4.233  0.4365  0.3485 -1.4789
 7860SOL     OW35038   1.406   1.750  16.700 -0.3011 -0.3391  0.4212
 7860SOL    HW135039   1.359   1.669  16.722 -0.6009  0.1892  1.7590
 7860SOL    HW235040   1.449   1.732  16.616 -1.8908  1.4493 -0.7643
 7861SOL     OW35041   2.725   4.459  10.416  0.1694 -0.1437 -0.0054
 7861SOL    HW135042   2.814   4.424  10.419  0.1220 -0.2073  0.7142
 7861SOL    HW235043   2.739   4.547  10.451 -1.3107 -0.0985  0.5133
 7862SOL     OW35044   1.087   0.092   9.832  0.4556  0.2166  0.0337
 7862SOL    HW135045   1.040   0.162   9.786  2.1963  1.1445 -0.3345
 7862SOL    HW235046   1.045   0.082   9.918 -1.2468  0.7032 -0.7286
 7863SOL     OW35047   0.971   3.395  14.247  0.3835 -0.7303 -0.3765
 7863SOL    HW135048   0.978   3.490  14.253 -2.3596 -0.6472  1.3376
 7863SOL    HW235049   0.948   3.377  14.338 -0.7820  0.4622 -0.4359
 7864SOL     OW35050   4.057   0.446   3.851 -0.3531 -0.0327  0.5435
 7864SOL    HW135051   4.102   0.410   3.774 -4.7461 -3.5468 -0.3427
 7864SOL    HW235052   4.129   0.460   3.912 -0.2513 -0.3017  0.4871
 7865SOL     OW35053   1.653   0.291   2.024 -0.3484  0.3432 -0.1069
 7865SOL    HW135054   1.570   0.256   2.057  0.6877  0.0978  2.2595
 7865SOL    HW235055   1.703   0.308   2.104 -0.1837 -0.6198 -0.0041
 7866SOL     OW35056   0.554   4.196   1.389  0.2910 -0.4049 -0.1919
 7866SOL    HW135057   0.635   4.247   1.398 -0.4907  1.1349 -1.7945
 7866SOL    HW235058   0.497   4.251   1.335 -1.4421 -2.2530 -0.2184
 7867SOL     OW35059   1.762   3.634   1.243 -0.1590 -0.0084 -0.2224
 7867SOL    HW135060   1.783   3.725   1.265 -1.0911  0.4092 -1.1118
 7867SOL    HW235061   1.702   3.638   1.169 -0.5742  2.5300  0.2516
 7868SOL     OW35062   2.677   1.439   2.717 -0.3561 -0.1070 -0.3407
 7868SOL    HW135063   2.678   1.433   2.813  3.8439 -0.4893 -0.3863
 7868SOL    HW235064   2.684   1.346   2.694  0.2448 -0.5678  1.6437
 7869SOL     OW35065   4.178   1.722   6.867  0.2465 -0.2286  0.1164
 7869SOL    HW135066   4.117   1.682   6.928 -0.5751 -0.5990 -0.9407
 7869SOL    HW235067   4.144   1.700   6.780  0.8710  0.8189 -0.4049
 7870SOL     OW35068   0.737   3.299   3.771 -0.1556  0.0857 -0.4635
 7870SOL    HW135069   0.800   3.237   3.734  1.1509  1.3600 -0.3933
 7870SOL    HW235070   0.664   3.240   3.791 -0.4920 -0.1903 -2.4884
 7871SOL     OW35071   3.553   1.369   4.069  0.1045 -0.2086 -0.5471
 7871SOL    HW135072   3.492   1.337   4.003  1.3508 -1.4365 -1.1146
 7871SOL    HW235073   3.522   1.458   4.085 -0.5224 -1.0507  2.8608
 7872SOL     OW35074   0.765   2.914   2.989 -0.1210 -0.1350  0.6029
 7872SOL    HW135075   0.838   2.967   3.021  0.0747 -0.6396  0.9924
 7872SOL    HW235076   0.696   2.945   3.048 -1.0033 -0.6443 -0.1703
 7873SOL     OW35077   2.331   1.392  16.396  0.7977  0.9388  0.1020
 7873SOL    HW135078   2.424   1.411  16.385  0.8246  1.0053  0.4566
 7873SOL    HW235079   2.318   1.439  16.478 -0.1676 -0.2797  0.6409
 7874SOL     OW35080   1.220   1.005   6.165 -0.0502  0.0290 -0.0328
 7874SOL    HW135081   1.169   1.074   6.208  0.6932  1.0636 -0.8543
 7874SOL    HW235082   1.244   1.047   6.083  0.8662 -0.7541 -0.1659
 7875SOL     OW35083   0.162   3.215  16.283 -0.0017  0.3634  0.9604
 7875SOL    HW135084   0.176   3.178  16.371 -1.6695 -1.4387  0.4743
 7875SOL    HW235085   0.214   3.149  16.238  0.7562  1.1438  0.6963
 7876SOL     OW35086   1.595   2.739  11.992 -0.0547  0.1539 -0.4293
 7876SOL    HW135087   1.569   2.701  12.075 -3.2521  0.6539 -1.1860
 7876SOL    HW235088   1.507   2.747  11.955 -0.5802 -1.0413  0.6082
 7877SOL     OW35089   3.874   4.587   4.123 -0.6504 -0.4959 -0.2052
 7877SOL    HW135090   3.905   4.568   4.212 -1.7131 -1.9939 -0.1607
 7877SOL    HW235091   3.945   4.548   4.073 -0.7010  2.2887 -2.4867
 7878SOL     OW35092   4.538   2.736   9.745  0.1241  0.2487  0.0662
 7878SOL    HW135093   4.587   2.673   9.692  0.3686  1.1511 -0.7966
 7878SOL    HW235094   4.462   2.686   9.774 -0.2093  0.4000 -0.5410
 7879SOL     OW35095   1.530   0.482  15.872 -0.4692 -0.1842  0.1186
 7879SOL    HW135096   1.509   0.532  15.950  0.2179 -1.3328  1.0411
 7879SOL    HW235097   1.584   0.418  15.917  0.5305  0.9271  0.4710
 7880SOL     OW35098   4.456   3.761   0.268  0.1449 -0.5863  0.1409
 7880SOL    HW135099   4.493   3.824   0.205  0.2818  0.5976  1.3940
 7880SOL    HW235100   4.528   3.747   0.329  2.0984  1.5498 -1.6588
 7881SOL     OW35101   1.270   4.362   0.826  0.1317  0.0284 -0.3046
 7881SOL    HW135102   1.235   4.274   0.835  0.0197 -0.1358 -2.3615
 7881SOL    HW235103   1.360   4.343   0.797  0.3809  1.3540 -0.4284
 7882SOL     OW35104   1.121   1.272   0.883  0.7213 -0.1022  0.6657
 7882SOL    HW135105   1.044   1.278   0.827  0.6172  1.2869  0.9515
 7882SOL    HW235106   1.162   1.357   0.867 -0.7857  0.1078 -2.1395
 7883SOL     OW35107   0.843   0.740   2.841  0.0781 -0.0531  0.3397
 7883SOL    HW135108   0.908   0.733   2.911  0.4875 -1.1984 -0.1478
 7883SOL    HW235109   0.881   0.714   2.757 -0.0732  1.0842 -0.0759
 7884SOL     OW35110   0.470   3.956  10.803 -0.4426 -0.2452  0.0564
 7884SOL    HW135111   0.411   3.954  10.878 -2.5421  0.0650 -1.5843
 7884SOL    HW235112   0.549   3.986  10.849  0.2205 -0.7199 -0.7643
 7885SOL     OW35113   1.254   4.036   8.032 -0.0078 -0.1902  0.2115
 7885SOL    HW135114   1.247   3.988   7.949 -0.2836  0.8354 -0.3591
 7885SOL    HW235115   1.163   4.031   8.060 -0.8718  1.2786 -2.3303
 7886SOL     OW35116   4.332   4.438  13.866 -0.5417  0.1282 -0.2721
 7886SOL    HW135117   4.261   4.470  13.809  1.2843  1.6784 -1.6873
 7886SOL    HW235118   4.384   4.517  13.877 -0.6882  0.0167  1.1972
 7887SOL     OW35119   2.897   4.197   3.463  0.1054  0.4660 -0.6742
 7887SOL    HW135120   2.805   4.169   3.469  0.4747 -0.0999  2.3130
 7887SOL    HW235121   2.886   4.291   3.478 -1.1961  0.0686  0.9086
 7888SOL     OW35122   1.617   0.475   3.511  0.0226  0.2340 -0.1718
 7888SOL    HW135123   1.638   0.423   3.433  0.7072  1.8342 -1.0558
 7888SOL    HW235124   1.532   0.439   3.537  1.3334 -0.6565  2.8920
 7889SOL     OW35125   1.059   0.181   3.936  0.1111 -0.2836  0.6238
 7889SOL    HW135126   0.967   0.172   3.914 -0.5440  1.4519  2.6968
 7889SOL    HW235127   1.049   0.259   3.991 -0.6997  1.8691 -2.5240
 7890SOL     OW35128   1.741   1.517   1.903 -0.4646 -0.1766 -0.7803
 7890SOL    HW135129   1.695   1.459   1.843  2.5262 -1.9227 -1.4031
 7890SOL    HW235130   1.804   1.457   1.942  1.1201  2.1890  0.3515
 7891SOL     OW35131   2.423   1.200   4.317  0.0799 -0.3132 -0.1476
 7891SOL    HW135132   2.363   1.269   4.289  1.0887  0.1460 -1.2029
 7891SOL    HW235133   2.511   1.237   4.305 -0.2786  0.1843 -1.2358
 7892SOL     OW35134   1.072   0.814   3.880 -0.0190  0.3058 -0.4119
 7892SOL    HW135135   1.040   0.901   3.903 -1.0293  0.2833 -1.7438
 7892SOL    HW235136   1.012   0.791   3.809  0.3416 -0.1579 -0.5626
 7893SOL     OW35137   4.287   0.975  13.878 -0.2378 -0.0934  0.3552
 7893SOL    HW135138   4.284   1.062  13.839 -1.1895  0.7736  2.3596
 7893SOL    HW235139   4.241   0.929  13.808  1.8324  0.6601 -1.5008
 7894SOL     OW35140   0.398   2.902   0.910  0.9922 -0.3970  0.3629
 7894SOL    HW135141   0.492   2.913   0.898  0.6395  0.8576 -1.2452
 7894SOL    HW235142   0.390   2.818   0.955  0.5889 -1.4464 -1.6788
 7895SOL     OW35143   4.197   0.202   2.357  0.1078 -0.9465  0.6742
 7895SOL    HW135144   4.220   0.260   2.284  3.1919 -0.9453  1.6570
 7895SOL    HW235145   4.216   0.261   2.430 -0.9460 -0.5287  0.6230
 7896SOL     OW35146   1.305   1.086   7.476  0.0450  0.6494  0.3703
 7896SOL    HW135147   1.362   1.126   7.543 -0.7619 -1.8493  2.5429
 7896SOL    HW235148   1.264   1.015   7.524 -1.1375  1.1049  0.0265
 7897SOL     OW35149   1.214   4.391   7.896  0.4436  0.2991  0.8226
 7897SOL    HW135150   1.147   4.459   7.885  2.2285  1.9877  0.4280
 7897SOL    HW235151   1.154   4.318   7.878 -0.5028  0.7817  2.0323
 7898SOL     OW35152   0.301   2.223   8.013 -0.2188 -0.2456  0.2707
 7898SOL    HW135153   0.251   2.252   8.090  1.0702  1.1145  0.5822
 7898SOL    HW235154   0.337   2.150   8.064  0.5366 -0.6934 -0.9296
 7899SOL     OW35155   3.372   0.078  10.321 -0.0406 -0.6594  0.5719
 7899SOL    HW135156   3.429   0.023  10.374  0.0718 -2.2808 -1.2376
 7899SOL    HW235157   3.287   0.081  10.364 -0.5792 -2.6175 -0.3439
 7900SOL     OW35158   3.585   4.033   5.674 -0.4506  0.2794  0.6056
 7900SOL    HW135159   3.585   4.007   5.766  0.5370  0.6129  0.6939
 7900SOL    HW235160   3.553   3.959   5.622  2.9331 -1.6991  1.3534
 7901SOL     OW35161   4.381   3.584  16.382  0.0616 -0.1542 -0.2941
 7901SOL    HW135162   4.384   3.601  16.288  0.9459 -0.3665 -0.3039
 7901SOL    HW235163   4.308   3.522  16.384  1.3128 -1.5524  2.2981
 7902SOL     OW35164   1.881   4.700  13.847  0.0739 -0.4859 -0.9532
 7902SOL    HW135165   1.941   0.026  13.789  0.2576  0.5646  0.0967
 7902SOL    HW235166   1.914   0.010  13.931 -0.5403 -0.4684 -0.7199
 7903SOL     OW35167   3.717   0.339  16.919  0.6949  0.3863  1.2143
 7903SOL    HW135168   3.741   0.328  16.827 -1.9978 -1.3073  0.7221
 7903SOL    HW235169   3.652   0.272  16.940  0.8242 -0.4294 -1.0505
 7904SOL     OW35170   3.106   0.907   2.761  0.1653  0.2938 -0.0174
 7904SOL    HW135171   3.029   0.887   2.813  1.5823 -0.6383  1.7239
 7904SOL    HW235172   3.071   0.973   2.702 -0.0393  2.2599  2.3354
 7905SOL     OW35173   0.503   3.136  12.322  0.4904  0.6503 -0.1079
 7905SOL    HW135174   0.451   3.143  12.402 -0.5614  1.5776 -0.8669
 7905SOL    HW235175   0.469   3.208  12.270 -1.9176 -1.2940 -1.2094
 7906SOL     OW35176   0.194   1.329   3.288  0.2576 -0.2966  0.4044
 7906SOL    HW135177   0.177   1.238   3.262  1.8347 -0.7356  0.8562
 7906SOL    HW235178   0.171   1.382   3.212 -0.7993 -0.7275  0.4253
 7907SOL     OW35179   2.060   0.690  14.712 -0.3957  0.4030 -0.7505
 7907SOL    HW135180   2.011   0.622  14.666  1.1444 -1.5703  0.4673
 7907SOL    HW235181   2.025   0.686  14.801  0.3512 -2.9543 -0.5963
 7908SOL     OW35182   0.666   0.171   5.352  0.2724  0.2380 -0.0113
 7908SOL    HW135183   0.684   0.178   5.446  0.8968 -0.4065 -0.0818
 7908SOL    HW235184   0.612   0.247   5.329 -0.9623 -1.4410 -2.6775
 7909SOL     OW35185   1.869   3.160   7.295  0.3589  0.0888 -0.5436
 7909SOL    HW135186   1.785   3.148   7.249  0.3813 -1.3005 -0.2335
 7909SOL    HW235187   1.914   3.093   7.243 -1.1360 -1.4410  0.1071
 7910SOL     OW35188   3.167   0.652   5.189 -0.3228 -0.6901 -0.3614
 7910SOL    HW135189   3.235   0.705   5.146  0.2794  0.4208  1.9466
 7910SOL    HW235190   3.201   0.622   5.274  1.5282 -1.4735 -1.3854
 7911SOL     OW35191   2.898   3.609   9.980 -0.3275  0.5279 -0.1050
 7911SOL    HW135192   2.979   3.558   9.986 -0.7068 -0.0721 -0.1484
 7911SOL    HW235193   2.938   3.687  10.019  0.2607  0.6498 -0.9456
 7912SOL     OW35194   3.127   1.720  11.440  0.3988  0.2491  0.0017
 7912SOL    HW135195   3.072   1.776  11.385  1.1472  1.0239  0.0364
 7912SOL    HW235196   3.057   1.707  11.504 -1.3586 -0.5351 -2.0859
 7913SOL     OW35197   3.312   4.170   4.015 -0.5686 -0.2295  0.1553
 7913SOL    HW135198   3.392   4.217   4.040 -1.4552  0.2780  2.0785
 7913SOL    HW235199   3.275   4.154   4.102 -1.5878  3.5511  0.4189
 7914SOL     OW35200   0.247   4.197   0.120  0.9245  0.4918  0.4977
 7914SOL    HW135201   0.299   4.156   0.189  0.7450  0.6526  0.7308
 7914SOL    HW235202   0.207   4.128   0.067 -0.7745 -0.3060  2.8353
 7915SOL     OW35203   1.181   2.680   8.546 -0.1968 -0.5912  0.4891
 7915SOL    HW135204   1.233   2.683   8.627  0.4241 -2.7579  0.1701
 7915SOL    HW235205   1.119   2.746   8.577 -1.0066 -0.5430 -1.2251
 7916SOL     OW35206   3.423   0.584   4.528 -0.2009  0.3671  0.4301
 7916SOL    HW135207   3.407   0.593   4.622 -0.5135  2.4063  0.1732
 7916SOL    HW235208   3.494   0.520   4.531  0.6999  1.3360  0.0052
 7917SOL     OW35209   3.588   3.435   5.711  0.4204 -0.0738  0.7709
 7917SOL    HW135210   3.663   3.456   5.767  1.6712  2.3939 -1.8587
 7917SOL    HW235211   3.626   3.476   5.634 -0.6148 -0.1171  0.2362
 7918SOL     OW35212   0.889   2.541  17.077  0.0061 -0.4423  0.2838
 7918SOL    HW135213   0.859   2.586  17.156  1.9841 -0.8024  1.2466
 7918SOL    HW235214   0.904   2.457  17.120  1.9318 -0.7847 -1.0602
 7919SOL     OW35215   0.212   0.511   0.240  0.2440 -0.0115 -1.0298
 7919SOL    HW135216   0.247   0.434   0.195  0.6989  0.3617 -1.3174
 7919SOL    HW235217   0.274   0.516   0.312 -1.1254  0.1455  0.1386
 7920SOL     OW35218   3.204   2.154   6.582  0.1737 -0.0556 -0.4799
 7920SOL    HW135219   3.160   2.205   6.650 -0.3275 -1.1478  0.0073
 7920SOL    HW235220   3.144   2.080   6.570 -1.9048  1.5650 -0.0857
 7921SOL     OW35221   3.966   1.393   5.907  0.2823 -0.6533 -0.4015
 7921SOL    HW135222   4.001   1.471   5.864  1.5523 -0.1916  1.4430
 7921SOL    HW235223   3.955   1.417   5.999 -3.2125  0.5413 -1.1538
 7922SOL     OW35224   4.349   2.167   9.510 -0.2880 -0.0836  0.1611
 7922SOL    HW135225   4.302   2.217   9.577 -1.5215 -0.5092 -0.3903
 7922SOL    HW235226   4.440   2.169   9.539 -0.8439  0.2368  1.8863
 7923SOL     OW35227   2.223   4.082  16.127  0.4296 -0.1003  0.8193
 7923SOL    HW135228   2.163   4.061  16.056  1.2487  2.0952 -0.5176
 7923SOL    HW235229   2.302   4.042  16.091  0.9423  1.2862  0.3998
 7924SOL     OW35230   4.306   1.903  17.639 -0.4735 -0.1040  0.6349
 7924SOL    HW135231   4.314   1.956   0.030 -0.4992 -0.6252  0.9880
 7924SOL    HW235232   4.355   1.829  17.674 -1.3634 -0.3695  1.3251
 7925SOL     OW35233   1.591   3.992   1.234  0.5443 -0.0712 -0.1285
 7925SOL    HW135234   1.528   4.024   1.300  2.5019  2.3560  0.5782
 7925SOL    HW235235   1.557   4.023   1.150 -0.2271 -1.0018 -0.1570
 7926SOL     OW35236   1.713   4.705   2.730 -0.4079  0.0520 -0.5112
 7926SOL    HW135237   1.637   4.651   2.750  0.8794 -1.4983  0.2306
 7926SOL    HW235238   1.671   0.068   2.712  0.7566  1.0038  1.1973
 7927SOL     OW35239   0.024   0.589   2.543 -0.0348 -0.0440 -0.0503
 7927SOL    HW135240   4.708   0.536   2.473  4.0704 -1.5591 -1.1090
 7927SOL    HW235241   0.024   0.682   2.521 -0.1254 -0.0194  0.0567
 7928SOL     OW35242   3.174   4.347   4.739  0.5151 -0.1709 -0.0061
 7928SOL    HW135243   3.232   4.423   4.744  0.9951 -0.6786  1.8681
 7928SOL    HW235244   3.152   4.339   4.646 -2.6487 -0.6555  0.7837
 7929SOL     OW35245   1.601   1.544  10.403  0.1938  0.2964  0.6558
 7929SOL    HW135246   1.614   1.633  10.438 -1.3190  1.3608 -1.4809
 7929SOL    HW235247   1.560   1.497  10.475 -2.4730 -0.7784 -1.5788
 7930SOL     OW35248   0.354   1.486  14.972  0.2794  0.2228 -0.6794
 7930SOL    HW135249   0.444   1.466  14.997 -0.6825 -2.7987  0.3769
 7930SOL    HW235250   0.298   1.458  15.045 -1.2554  2.0747 -1.1418
 7931SOL     OW35251   3.317   2.377   4.523  0.5079 -0.2997  0.5501
 7931SOL    HW135252   3.258   2.307   4.496  0.2946 -0.2236  0.8157
 7931SOL    HW235253   3.390   2.325   4.559  0.4786 -0.3248  0.5736
 7932SOL     OW35254   4.251   1.462   1.924  0.4908 -0.3683  0.1400
 7932SOL    HW135255   4.339   1.427   1.933  1.1333  1.7536  2.1789
 7932SOL    HW235256   4.241   1.487   1.832 -1.6575 -0.6463  0.2909
 7933SOL     OW35257   1.430   2.068  13.984 -0.4360  0.4597  0.2975
 7933SOL    HW135258   1.453   2.090  13.893  0.2666  0.0656  0.3759
 7933SOL    HW235259   1.355   2.010  13.972 -0.2800  0.7789 -2.2733
 7934SOL     OW35260   0.894   2.680   2.847  0.8241  0.1650  0.2298
 7934SOL    HW135261   0.846   2.763   2.852  3.5655  1.5598  3.2202
 7934SOL    HW235262   0.952   2.693   2.772  1.3332  1.3914  0.8338
 7935SOL     OW35263   4.268   0.030   8.149 -0.2667  0.0558  0.6714
 7935SOL    HW135264   4.265   4.658   8.129 -0.1907 -0.2506  2.1419
 7935SOL    HW235265   4.227   0.034   8.235 -0.4945  1.2562  0.4973
 7936SOL     OW35266   0.260   1.141  17.537 -0.2569 -0.6918  0.2298
 7936SOL    HW135267   0.303   1.170  17.457 -0.6317  0.9696  0.6256
 7936SOL    HW235268   0.264   1.045  17.537 -0.7683 -0.7112 -0.8903
 7937SOL     OW35269   1.302   0.823   1.754 -0.1395 -0.1574  0.3422
 7937SOL    HW135270   1.287   0.916   1.769 -1.5837  0.0138 -2.1087
 7937SOL    HW235271   1.223   0.792   1.710  0.5940 -0.8663 -0.4658
 7938SOL     OW35272   3.385   2.336   4.960 -0.1429  0.0524  0.0069
 7938SOL    HW135273   3.366   2.309   5.050 -1.0046  0.5073 -0.0425
 7938SOL    HW235274   3.402   2.430   4.969  2.3355 -0.4840  0.9441
 7939SOL     OW35275   3.506   2.876   6.383 -0.5866 -0.1453  0.1682
 7939SOL    HW135276   3.413   2.897   6.372 -0.7742 -0.5627  0.9882
 7939SOL    HW235277   3.525   2.843   6.295  0.5322 -0.6876  0.6127
 7940SOL     OW35278   1.761   0.043   8.133 -0.2092  0.0265  0.1014
 7940SOL    HW135279   1.804   0.111   8.083 -1.3102  0.1799 -0.6336
 7940SOL    HW235280   1.690   0.017   8.074 -0.9040  2.1007  0.0270
 7941SOL     OW35281   0.212   0.256   0.545 -0.3447 -0.2800 -0.3304
 7941SOL    HW135282   0.235   0.225   0.458 -0.1896 -2.0558  0.3365
 7941SOL    HW235283   0.282   0.318   0.563  0.7449 -1.4700 -0.4333
 7942SOL     OW35284   0.462   1.850   1.910  0.2481 -0.0954 -0.2929
 7942SOL    HW135285   0.425   1.792   1.843  0.7824 -1.7934  0.8868
 7942SOL    HW235286   0.456   1.934   1.863 -0.0316  0.3263  0.4910
 7943SOL     OW35287   3.710   1.073  15.403 -0.4623 -0.4847  0.7403
 7943SOL    HW135288   3.752   1.125  15.334 -2.1272 -0.4725 -0.2449
 7943SOL    HW235289   3.618   1.089  15.385 -0.5841 -1.1734  0.7498
 7944SOL     OW35290   0.861   1.323   0.417  0.3114  0.0023  0.2589
 7944SOL    HW135291   0.862   1.259   0.346  1.4605 -0.4422  0.6734
 7944SOL    HW235292   0.879   1.403   0.367 -1.2095 -0.0664 -0.4042
 7945SOL     OW35293   3.045   3.322   8.742 -0.6970 -0.1538  0.2027
 7945SOL    HW135294   2.999   3.356   8.665  1.9221  0.0269 -1.2604
 7945SOL    HW235295   2.992   3.352   8.816 -1.6752  1.8572 -1.3104
 7946SOL     OW35296   3.006   1.978  12.750  0.0082  0.0968 -0.0447
 7946SOL    HW135297   2.921   1.995  12.789  0.1701  2.5236 -0.7435
 7946SOL    HW235298   2.993   1.986  12.655  0.4697 -0.1192 -0.1314
 7947SOL     OW35299   0.765   1.974   8.188  0.1516 -0.5577  0.4533
 7947SOL    HW135300   0.786   2.066   8.207 -0.8484 -0.5396  1.4696
 7947SOL    HW235301   0.854   1.941   8.174 -0.0241 -1.3577  1.2080
 7948SOL     OW35302   4.325   4.616   1.690  0.3064 -0.4860  0.4322
 7948SOL    HW135303   4.273   4.581   1.762  0.6189 -0.5046  0.6495
 7948SOL    HW235304   4.344   4.530   1.652  2.2023  1.0584 -2.0759
 7949SOL     OW35305   1.923   3.241  17.603 -0.4882  0.4947  0.2178
 7949SOL    HW135306   1.934   3.328  17.566 -1.1525  0.3056 -0.4460
 7949SOL    HW235307   1.849   3.252  17.662 -0.0967  2.1626  0.3790
 7950SOL     OW35308   2.859   4.708   3.554  0.1521  0.3655  0.3331
 7950SOL    HW135309   2.888   4.620   3.532 -1.1802 -0.1004  0.4412
 7950SOL    HW235310   2.915   0.051   3.510  0.4567 -0.0852  0.0672
 7951SOL     OW35311   1.627   0.448  11.578 -0.6615  0.5917  0.0660
 7951SOL    HW135312   1.645   0.517  11.641  0.8160  1.8736 -1.7690
 7951SOL    HW235313   1.694   0.453  11.510  0.1278 -2.6215  0.6133
 7952SOL     OW35314   1.290   3.539  10.083 -0.2541 -0.7072 -0.2468
 7952SOL    HW135315   1.300   3.567   9.992 -2.0996 -1.1779 -0.5929
 7952SOL    HW235316   1.317   3.618  10.130  0.1289 -0.2100 -1.2904
 7953SOL     OW35317   0.552   3.653   9.483 -0.3277 -0.0742  0.0623
 7953SOL    HW135318   0.640   3.690   9.485  0.0822 -1.0614  0.3958
 7953SOL    HW235319   0.560   3.591   9.410  2.7518 -0.8464  1.0487
 7954SOL     OW35320   2.155   1.641   7.512  1.2272  0.6251  0.6244
 7954SOL    HW135321   2.210   1.566   7.534  0.5821 -0.5630 -1.8433
 7954SOL    HW235322   2.127   1.625   7.422  0.7470  0.4647  0.8013
 7955SOL     OW35323   4.543   2.742  17.397 -0.5516 -0.5135 -0.4495
 7955SOL    HW135324   4.615   2.694  17.357  1.4923  2.9831 -0.9497
 7955SOL    HW235325   4.548   2.820  17.341 -0.5461 -0.8282 -0.8845
 7956SOL     OW35326   4.142   4.701   6.848 -0.3208  0.1772  0.5680
 7956SOL    HW135327   4.056   0.014   6.870 -0.3712  0.2518  0.2516
 7956SOL    HW235328   4.127   4.669   6.759 -0.1001  1.0754  0.2116
 7957SOL     OW35329   1.194   0.713   7.832 -0.1065 -0.5199 -0.0954
 7957SOL    HW135330   1.186   0.767   7.911  1.0447  3.6890 -2.8685
 7957SOL    HW235331   1.101   0.693   7.823 -0.1847 -0.7923  1.2159
 7958SOL     OW35332   4.202   1.184   6.654  0.7388  0.5610 -0.3136
 7958SOL    HW135333   4.172   1.188   6.564  1.3300  3.5896 -0.4029
 7958SOL    HW235334   4.294   1.158   6.647  0.5357  0.2989 -1.9099
 7959SOL     OW35335   3.443   0.808   2.933 -0.6184 -0.3086 -0.4183
 7959SOL    HW135336   3.495   0.824   3.011 -1.0956 -0.8279  0.0093
 7959SOL    HW235337   3.492   0.739   2.888 -0.5902  0.5205 -1.6745
 7960SOL     OW35338   1.640   3.520   4.456 -0.1025 -0.0638 -0.0217
 7960SOL    HW135339   1.616   3.439   4.501 -0.4455 -0.0292 -0.1416
 7960SOL    HW235340   1.602   3.588   4.511 -0.1725 -0.3287  0.2613
 7961SOL     OW35341   1.084   0.314   5.786  0.4158  0.4328 -0.3308
 7961SOL    HW135342   1.120   0.387   5.735 -0.7276  0.1559 -1.5121
 7961SOL    HW235343   1.170   0.270   5.788  0.6967  0.9763 -0.3937
 7962SOL     OW35344   3.998   4.468   3.593  0.2630 -0.0928 -0.0943
 7962SOL    HW135345   4.022   4.523   3.518 -1.2613 -0.5072 -0.8778
 7962SOL    HW235346   3.906   4.459   3.568 -0.5634  1.0607  2.5323
 7963SOL     OW35347   3.724   3.919   8.427 -0.2706 -0.5957  0.2325
 7963SOL    HW135348   3.750   3.980   8.358  0.1212 -0.1484  0.7652
 7963SOL    HW235349   3.775   3.951   8.502 -1.9090  0.4258  0.9068
 7964SOL     OW35350   0.933   1.919  13.732 -1.1895 -0.1548 -0.0703
 7964SOL    HW135351   0.923   1.968  13.650  1.3076 -0.5978 -0.6384
 7964SOL    HW235352   0.923   1.989  13.796 -0.8418  0.1590 -0.3530
 7965SOL     OW35353   2.353   2.698   0.492 -0.1185  0.7109  0.2252
 7965SOL    HW135354   2.290   2.628   0.509 -0.6500  1.9701  3.3412
 7965SOL    HW235355   2.433   2.646   0.502  0.0043  1.2265  1.8769
 7966SOL     OW35356   1.931   1.860   2.876  0.2125 -0.2166  0.3077
 7966SOL    HW135357   2.012   1.813   2.889 -0.4004 -1.9599 -2.1534
 7966SOL    HW235358   1.971   1.947   2.867  0.8500 -0.5443  0.0119
 7967SOL     OW35359   2.768   4.055   4.900  0.3840  0.0868 -0.2096
 7967SOL    HW135360   2.760   4.046   4.805 -2.8979  3.1512 -0.2034
 7967SOL    HW235361   2.733   4.141   4.922  0.7345  0.4479 -1.0681
 7968SOL     OW35362   2.402   2.731   4.791  0.4941 -0.0203  0.4460
 7968SOL    HW135363   2.470   2.715   4.726  1.9615  0.9224  1.7515
 7968SOL    HW235364   2.424   2.678   4.867 -0.5037 -0.0521  0.7188
 7969SOL     OW35365   0.693   0.938   4.853 -0.2868 -0.3350 -0.2122
 7969SOL    HW135366   0.744   0.867   4.814  0.5652 -0.5494  1.3040
 7969SOL    HW235367   0.714   0.918   4.944  0.4333  0.5124 -0.2034
 7970SOL     OW35368   0.728   1.225   1.373 -0.3610  0.5612 -0.1728
 7970SOL    HW135369   0.784   1.275   1.433 -1.7677  0.0325  1.5700
 7970SOL    HW235370   0.773   1.231   1.288  0.4217 -1.9915  0.0631
 7971SOL     OW35371   0.086   3.337   2.061 -0.4565  0.3713  0.4060
 7971SOL    HW135372   0.157   3.281   2.029 -1.0053 -0.1766  0.1318
 7971SOL    HW235373   0.016   3.272   2.066  0.8961 -1.1898 -0.9652
 7972SOL     OW35374   1.465   1.416   5.512 -0.1831 -0.1327  0.3587
 7972SOL    HW135375   1.456   1.451   5.600  1.0093 -0.0499  0.4417
 7972SOL    HW235376   1.552   1.378   5.517  0.7929  2.1664  0.6314
 7973SOL     OW35377   0.903   1.764   2.768 -1.1340 -0.8827  0.1886
 7973SOL    HW135378   0.957   1.841   2.750 -2.0791 -0.9087 -2.7696
 7973SOL    HW235379   0.815   1.793   2.742 -0.3180 -0.2803 -1.8573
 7974SOL     OW35380   3.746   3.696   5.596  0.1982 -0.4157 -0.3630
 7974SOL    HW135381   3.681   3.763   5.571 -0.1170 -0.8530 -0.7101
 7974SOL    HW235382   3.778   3.660   5.514 -1.8555  0.8563 -1.7406
 7975SOL     OW35383   0.793   1.623   7.398  0.7864 -0.5139  0.2104
 7975SOL    HW135384   0.817   1.698   7.453 -0.2753  0.7740 -1.0732
 7975SOL    HW235385   0.796   1.546   7.454  3.2094 -0.3273  0.3325
 7976SOL     OW35386   1.628   0.008   3.986  0.0594  0.1738  0.1393
 7976SOL    HW135387   1.665   0.096   3.980  0.8695 -0.1428  0.4652
 7976SOL    HW235388   1.703   4.683   4.022 -0.4299 -0.8615 -0.1948
 7977SOL     OW35389   0.232   3.178   4.667  0.1551 -0.9996  0.3491
 7977SOL    HW135390   0.209   3.141   4.582 -0.5682 -0.6223  0.3789
 7977SOL    HW235391   0.247   3.097   4.715 -2.0634 -0.3185  2.2206
 7978SOL     OW35392   2.962   3.271   0.059 -0.2990  0.2871 -0.1938
 7978SOL    HW135393   3.013   3.251   0.137  2.7104  0.4524 -2.1171
 7978SOL    HW235394   3.026   3.286  17.677  0.6305  0.8498  0.7913
 7979SOL     OW35395   1.380   2.343   9.247  0.3877 -0.2695 -0.2356
 7979SOL    HW135396   1.303   2.371   9.197  0.8654  0.3113 -0.6294
 7979SOL    HW235397   1.368   2.396   9.326 -0.7358 -0.1653 -0.4769
 7980SOL     OW35398   2.629   3.219   4.084 -0.3710  0.3404  0.7442
 7980SOL    HW135399   2.625   3.242   3.991  0.4651  0.5619  0.7643
 7980SOL    HW235400   2.687   3.144   4.070  0.5628  1.2314 -0.1902
 7981SOL     OW35401   4.307   2.562   7.726  0.3718 -0.5391 -0.1701
 7981SOL    HW135402   4.268   2.562   7.814  1.1512 -0.5883  0.1696
 7981SOL    HW235403   4.328   2.653   7.707 -1.2011 -0.2916 -0.7419
 7982SOL     OW35404   1.323   2.819  13.286  0.3626 -0.3191 -0.1245
 7982SOL    HW135405   1.343   2.913  13.293  1.3025 -0.4608 -0.8831
 7982SOL    HW235406   1.354   2.812  13.195 -3.3308 -0.4543 -1.3567
 7983SOL     OW35407   1.302   4.357   6.247 -0.5620 -0.8528 -0.1080
 7983SOL    HW135408   1.263   4.270   6.248 -0.7499 -0.7472  1.5352
 7983SOL    HW235409   1.226   4.413   6.261 -0.1499 -0.3191  0.0214
 7984SOL     OW35410   4.541   2.823   6.497  0.0745  0.3629  0.3018
 7984SOL    HW135411   4.514   2.781   6.579  0.0447  1.4746  0.8587
 7984SOL    HW235412   4.486   2.901   6.508  2.1129  2.2467 -2.7965
 7985SOL     OW35413   2.704   2.503   8.701  0.6206 -0.1298 -0.5770
 7985SOL    HW135414   2.784   2.460   8.670  2.6657  2.3518  1.2389
 7985SOL    HW235415   2.723   2.531   8.790  1.5497 -0.3841 -0.6931
 7986SOL     OW35416   0.009   1.827   3.810  0.5140 -0.6600 -0.0565
 7986SOL    HW135417   4.660   1.763   3.799  1.6204 -1.9959  0.7576
 7986SOL    HW235418   0.089   1.787   3.776  0.5485 -1.9538  1.5978
 7987SOL     OW35419   2.053   2.937  16.948  0.0714  0.1507 -0.0043
 7987SOL    HW135420   2.035   3.029  16.930 -0.9491 -0.1897 -0.6915
 7987SOL    HW235421   2.042   2.928  17.043  1.1583 -2.0143 -0.0755
 7988SOL     OW35422   1.995   3.061   6.740 -0.2816 -0.2830 -0.3685
 7988SOL    HW135423   1.994   3.116   6.818  3.9050  1.9461 -1.8279
 7988SOL    HW235424   2.080   3.016   6.739  0.6612  1.4745  0.2697
 7989SOL     OW35425   4.599   3.771   6.273  0.5118 -0.6417 -0.4434
 7989SOL    HW135426   4.573   3.788   6.363  0.1974  0.3258 -0.7262
 7989SOL    HW235427   4.605   3.860   6.239  0.4877 -0.4681  0.0052
 7990SOL     OW35428   3.414   3.810  12.142  0.3041  0.7247 -0.6201
 7990SOL    HW135429   3.430   3.798  12.049 -1.1811 -0.0041 -0.7847
 7990SOL    HW235430   3.474   3.881  12.163  1.0004 -0.5631  1.8124
 7991SOL     OW35431   3.019   1.605   6.558 -0.3846 -0.1125 -0.8356
 7991SOL    HW135432   3.077   1.547   6.508  2.1275  1.7708 -0.0932
 7991SOL    HW235433   3.020   1.673   6.490  0.7354 -0.2076 -0.9145
 7992SOL     OW35434   3.587   3.560   3.304 -0.7132 -0.0811 -0.2476
 7992SOL    HW135435   3.600   3.494   3.372 -0.1338 -0.0758 -0.3533
 7992SOL    HW235436   3.653   3.535   3.239  0.5669 -0.3415  1.1499
 7993SOL     OW35437   1.945   1.022   8.911  0.4079 -0.3838 -0.3085
 7993SOL    HW135438   2.022   1.001   8.964 -0.2407 -2.9057 -0.3636
 7993SOL    HW235439   1.882   0.958   8.943 -2.0047  0.9743 -2.3084
 7994SOL     OW35440   2.656   1.188   2.665 -0.5048  0.3891 -0.7359
 7994SOL    HW135441   2.667   1.131   2.741  0.6297  2.3005  0.5256
 7994SOL    HW235442   2.567   1.164   2.640 -1.3022  0.3090  2.1747
 7995SOL     OW35443   2.952   1.578   5.692  0.7623 -0.0036  0.2851
 7995SOL    HW135444   2.877   1.594   5.749  2.2044 -0.8567  2.3892
 7995SOL    HW235445   3.019   1.622   5.744  1.6450 -1.2734  0.2305
 7996SOL     OW35446   2.536   2.491   2.833  0.3389 -0.1748  0.5519
 7996SOL    HW135447   2.580   2.532   2.908  1.6406  2.0667 -1.4377
 7996SOL    HW235448   2.511   2.410   2.877 -0.2697 -0.6649 -0.6866
 7997SOL     OW35449   2.641   1.679  17.301 -0.0932 -0.4435  0.6985
 7997SOL    HW135450   2.574   1.649  17.240  0.2518 -0.5111  0.3572
 7997SOL    HW235451   2.676   1.596  17.333  3.2669  1.3181  1.5722
 7998SOL     OW35452   4.314   4.048  14.106  0.1087  0.2237  0.2055
 7998SOL    HW135453   4.313   4.142  14.123 -0.3710  0.3768 -0.6857
 7998SOL    HW235454   4.255   4.016  14.175 -0.9883 -0.2696 -0.9478
 7999SOL     OW35455   1.405   3.586   9.529  0.0928 -0.0337  0.0986
 7999SOL    HW135456   1.402   3.491   9.518 -0.8871  0.0588 -0.4617
 7999SOL    HW235457   1.483   3.597   9.583  0.4395 -0.8370 -0.2482
 8000SOL     OW35458   2.125   4.388   5.251  0.5150  0.0286 -0.7372
 8000SOL    HW135459   2.147   4.480   5.263 -0.4386  0.3459 -1.3961
 8000SOL    HW235460   2.177   4.382   5.171 -0.2867 -2.3703 -1.0814
 8001SOL     OW35461   4.565   1.668   9.085  0.0218 -0.1947 -0.1311
 8001SOL    HW135462   4.491   1.607   9.095 -0.2224  0.1859  0.3676
 8001SOL    HW235463   4.636   1.607   9.065  0.5076 -0.1579  1.4889
 8002SOL     OW35464   0.153   3.893   0.296 -0.1419  0.3773  0.0905
 8002SOL    HW135465   0.139   3.944   0.217 -0.3185 -0.8246 -0.6546
 8002SOL    HW235466   0.101   3.938   0.363 -2.2599 -1.4759 -0.3183
 8003SOL     OW35467   3.373   1.257   3.093 -0.0506 -0.3979  0.6818
 8003SOL    HW135468   3.408   1.211   3.016 -5.2298 -0.5365 -1.6011
 8003SOL    HW235469   3.282   1.264   3.066  0.0308 -1.9005 -0.0445
 8004SOL     OW35470   2.464   2.302  12.459 -0.8258 -0.1196  0.1690
 8004SOL    HW135471   2.402   2.250  12.407  0.6695  0.3763 -2.1089
 8004SOL    HW235472   2.501   2.236  12.518 -1.3174 -0.2065  0.3772
 8005SOL     OW35473   2.440   3.314   2.159  0.2707 -0.2060  0.3166
 8005SOL    HW135474   2.517   3.266   2.188  0.2494  0.1176  0.9059
 8005SOL    HW235475   2.391   3.252   2.105  0.3406 -0.6610  0.7747
 8006SOL     OW35476   0.604   2.823   4.337 -0.4284 -0.2624  0.2005
 8006SOL    HW135477   0.678   2.825   4.398 -0.5207  1.5753  0.2576
 8006SOL    HW235478   0.600   2.916   4.315 -0.9804 -0.9746 -2.6939
 8007SOL     OW35479   1.058   0.461   8.686 -0.7795  0.4223  0.4672
 8007SOL    HW135480   1.130   0.398   8.687 -1.0828  0.0842  0.6277
 8007SOL    HW235481   0.984   0.412   8.720 -0.6803  0.1679  0.3140
 8008SOL     OW35482   1.364   0.379   6.388  0.6041  0.4550 -0.2676
 8008SOL    HW135483   1.428   0.353   6.321  0.8398  1.0351 -0.2711
 8008SOL    HW235484   1.299   0.310   6.374  0.3981  0.5711  0.1081
 8009SOL     OW35485   2.157   1.916   8.031  0.0493  0.4353 -0.4139
 8009SOL    HW135486   2.085   1.971   7.999 -0.9663 -0.4829  0.2989
 8009SOL    HW235487   2.121   1.828   8.032  2.6234 -0.5874  0.6437
 8010SOL     OW35488   2.916   3.820   7.665 -0.4856 -0.2822 -0.7061
 8010SOL    HW135489   2.847   3.755   7.676 -1.5751  1.6259  3.7522
 8010SOL    HW235490   2.939   3.835   7.757  0.8391  0.5412 -1.1729
 8011SOL     OW35491   0.877   1.865   5.064  0.4772 -0.0092 -0.0611
 8011SOL    HW135492   0.918   1.782   5.040  1.0430 -0.5962  2.9344
 8011SOL    HW235493   0.792   1.835   5.097  0.4310  1.8229  1.4667
 8012SOL     OW35494   1.106   4.509  14.061 -0.6104  0.7714 -0.0043
 8012SOL    HW135495   1.200   4.512  14.078 -0.9823 -1.3926  2.4184
 8012SOL    HW235496   1.076   4.509  14.152  1.1993 -1.8348  0.6052
 8013SOL     OW35497   2.693   4.520   4.862  0.2756  0.0941 -0.2133
 8013SOL    HW135498   2.743   4.449   4.821 -0.5809 -0.2049 -0.7383
 8013SOL    HW235499   2.608   4.485   4.888 -0.4415  1.3162 -0.9243
 8014SOL     OW35500   3.906   4.190  15.032 -0.7026  0.4264  0.2897
 8014SOL    HW135501   3.924   4.265  14.975 -0.0905  1.3995  1.7496
 8014SOL    HW235502   3.877   4.241  15.108  0.0423  0.5441  0.4876
 8015SOL     OW35503   4.582   4.188   4.000  0.7116 -0.1686 -0.0771
 8015SOL    HW135504   4.580   4.243   4.078 -0.4394 -1.0537  0.5164
 8015SOL    HW235505   4.510   4.127   4.017  0.2221  0.6423  0.7394
 8016SOL     OW35506   1.604   1.119   5.434  0.0563  0.4261 -0.0147
 8016SOL    HW135507   1.691   1.103   5.397 -0.5285 -0.7699 -0.8623
 8016SOL    HW235508   1.637   1.195   5.483 -0.7165  0.9137 -0.2514
 8017SOL     OW35509   0.169   3.807   5.049  0.1955  0.1296 -0.0467
 8017SOL    HW135510   0.109   3.880   5.037  0.5426  0.4811  0.3419
 8017SOL    HW235511   0.241   3.855   5.089  0.0137  2.3630 -2.4800
 8018SOL     OW35512   3.974   4.540  15.209  0.2646  0.4919  0.0701
 8018SOL    HW135513   3.910   4.477  15.176  0.1437 -0.4259  2.0603
 8018SOL    HW235514   4.041   4.480  15.240 -0.4270  0.2499  1.0815
 8019SOL     OW35515   1.005   2.689   7.706 -0.4466 -0.4930  0.2680
 8019SOL    HW135516   0.995   2.782   7.686  0.9840  0.1584  2.5333
 8019SOL    HW235517   0.934   2.676   7.770  0.3216 -1.7481  0.8770
 8020SOL     OW35518   4.687   3.349   5.415 -0.4028  0.0769 -0.2443
 8020SOL    HW135519   4.718   3.421   5.360 -1.2389  1.1144  0.6535
 8020SOL    HW235520   4.631   3.402   5.472  2.3911  2.9572 -0.2089
 8021SOL     OW35521   2.774   3.900   2.129  0.0305 -0.1042  0.4710
 8021SOL    HW135522   2.801   3.859   2.047  0.9174  1.0292  0.1961
 8021SOL    HW235523   2.681   3.885   2.114 -0.2250  0.5171  1.4582
 8022SOL     OW35524   2.611   2.941   8.617  0.4318 -0.7176 -0.0811
 8022SOL    HW135525   2.661   2.870   8.576  1.0522  0.0216 -0.6174
 8022SOL    HW235526   2.666   2.977   8.686  0.2335  2.9458 -1.8387
 8023SOL     OW35527   0.141   1.294   7.208  0.3316 -0.0955  0.1260
 8023SOL    HW135528   0.129   1.383   7.176 -1.2662 -0.1522  0.5805
 8023SOL    HW235529   0.142   1.307   7.302  0.4691  1.4513 -0.0987
 8024SOL     OW35530   0.304   4.279   2.845  0.1616 -0.9174  0.2766
 8024SOL    HW135531   0.228   4.221   2.846 -2.5522  2.6128 -0.2612
 8024SOL    HW235532   0.376   4.216   2.852  1.0453 -0.1323 -1.8000
 8025SOL     OW35533   2.731   2.517   0.351  0.2628 -0.3243  0.2353
 8025SOL    HW135534   2.703   2.491   0.439 -0.5537 -0.1267  0.0385
 8025SOL    HW235535   2.826   2.515   0.362 -0.0731 -1.3304  3.0475
 8026SOL     OW35536   0.487   0.758  13.868 -0.7717 -0.3796 -0.1699
 8026SOL    HW135537   0.445   0.838  13.899  1.7127  0.8929 -0.0369
 8026SOL    HW235538   0.577   0.782  13.890 -0.8050  0.0308 -0.4889
 8027SOL     OW35539   2.620   3.234  17.563 -0.5569 -0.1277 -0.0094
 8027SOL    HW135540   2.583   3.147  17.548 -0.6743 -0.0570 -0.1358
 8027SOL    HW235541   2.656   3.230  17.651  0.8575  0.2296 -0.5622
 8028SOL     OW35542   2.080   3.401  10.558 -0.1307  0.2053  0.5474
 8028SOL    HW135543   2.092   3.347  10.636 -0.4559 -0.8064 -0.1112
 8028SOL    HW235544   2.168   3.424  10.527  0.0244 -1.3756 -0.2105
 8029SOL     OW35545   4.195   1.397   8.596  0.4060 -0.0570  0.1097
 8029SOL    HW135546   4.126   1.394   8.662  1.0779  2.6569  0.9666
 8029SOL    HW235547   4.212   1.306   8.572  0.5656 -1.0585  3.9581
 8030SOL     OW35548   1.869   4.211   9.329  0.0844  0.1352  0.6208
 8030SOL    HW135549   1.810   4.140   9.304 -1.9934  1.6584  1.1590
 8030SOL    HW235550   1.943   4.183   9.274 -0.2001 -0.9057  0.7759
 8031SOL     OW35551   3.441   3.038   2.411 -0.0518 -0.5629 -0.4807
 8031SOL    HW135552   3.460   2.944   2.418 -1.8831 -0.8065  1.0321
 8031SOL    HW235553   3.346   3.037   2.417  0.1489 -0.0815  3.0067
 8032SOL     OW35554   0.086   0.290   4.237 -0.4348 -0.1229  0.3141
 8032SOL    HW135555   0.043   0.212   4.273 -0.3918  0.2879  1.2668
 8032SOL    HW235556   0.150   0.245   4.181 -2.9232 -1.2192 -1.6188
 8033SOL     OW35557   3.916   3.037   7.837 -0.1059 -0.1799 -0.6469
 8033SOL    HW135558   3.848   2.978   7.803 -0.8772 -1.7849  3.7466
 8033SOL    HW235559   3.913   3.100   7.764  0.1594 -0.1107 -0.5976
 8034SOL     OW35560   2.700   1.825   8.305  0.2608  0.0920  0.8076
 8034SOL    HW135561   2.683   1.918   8.318  0.9378  0.0907  1.6807
 8034SOL    HW235562   2.731   1.791   8.389  1.6577  0.0853  0.2829
 8035SOL     OW35563   0.068   2.509   6.787 -0.1164  0.0770  0.1449
 8035SOL    HW135564   0.149   2.491   6.834 -0.5499 -0.1719  0.8061
 8035SOL    HW235565   0.009   2.454   6.838 -0.0423 -1.6757 -1.6523
 8036SOL     OW35566   3.891   1.380   7.009 -0.2064  0.1407 -0.7167
 8036SOL    HW135567   3.865   1.295   6.974  0.3456  0.2623 -1.4197
 8036SOL    HW235568   3.984   1.381   6.988 -0.0091  0.9466  0.2365
 8037SOL     OW35569   1.366   4.328   8.121  0.4228 -0.1050  0.5520
 8037SOL    HW135570   1.302   4.356   8.055 -0.4547 -1.3437  0.8995
 8037SOL    HW235571   1.346   4.235   8.120  1.7038 -0.3921  2.5785
 8038SOL     OW35572   1.779   1.669   3.904  0.1936 -0.8326 -0.2181
 8038SOL    HW135573   1.847   1.606   3.926  0.4079 -0.4988  0.0804
 8038SOL    HW235574   1.798   1.688   3.812 -1.9251 -1.9936 -0.8894
 8039SOL     OW35575   2.010   0.121  12.043 -0.3120  0.5427  0.1878
 8039SOL    HW135576   1.922   0.123  12.005 -1.4715  1.0136  2.8305
 8039SOL    HW235577   2.063   0.190  12.005 -2.4635  1.7060 -0.7017
 8040SOL     OW35578   1.621   0.738   1.069 -0.3448 -0.1150  0.7160
 8040SOL    HW135579   1.662   0.759   0.985  0.8750  1.0789  1.6240
 8040SOL    HW235580   1.698   0.743   1.125 -1.8161 -2.2157  2.8929
 8041SOL     OW35581   0.629   4.044   3.810  0.0287  0.8044  0.1004
 8041SOL    HW135582   0.593   4.107   3.872  0.8994  0.3267  1.0986
 8041SOL    HW235583   0.657   4.102   3.739 -0.5773 -0.7919 -1.4377
 8042SOL     OW35584   0.135   3.780   3.287  0.7409 -0.1564  0.3446
 8042SOL    HW135585   0.210   3.751   3.340 -0.0094  0.8440  1.9493
 8042SOL    HW235586   0.058   3.784   3.343 -0.3317  1.2983 -1.2471
 8043SOL     OW35587   3.234   1.502  14.366 -0.4160  0.1809  0.1132
 8043SOL    HW135588   3.166   1.468  14.307 -0.2056 -0.2148  0.1012
 8043SOL    HW235589   3.312   1.490  14.312 -0.7421  1.0131 -0.5471
 8044SOL     OW35590   1.928   4.039  17.244  0.1705 -0.2816 -0.1138
 8044SOL    HW135591   1.927   4.089  17.163 -0.2082  2.1019  1.3543
 8044SOL    HW235592   1.872   4.095  17.299 -0.2005  1.2686 -2.0716
 8045SOL     OW35593   3.293   0.371  11.797  0.2545  0.7265  0.2996
 8045SOL    HW135594   3.355   0.343  11.865 -1.8629 -2.9390  0.7629
 8045SOL    HW235595   3.334   0.454  11.775  0.2954  0.6988  0.2704
 8046SOL     OW35596   1.293   0.119  14.825  0.2845 -0.0073 -0.0884
 8046SOL    HW135597   1.316   0.210  14.804  0.4031  0.0781  0.4107
 8046SOL    HW235598   1.294   0.126  14.920 -3.1932  0.4248 -0.1044
 8047SOL     OW35599   2.928   0.110   1.628 -0.2084  0.1684 -0.5849
 8047SOL    HW135600   2.945   0.163   1.550  1.8534  0.4215  0.0585
 8047SOL    HW235601   2.930   0.022   1.590 -1.7279 -1.1612  2.4475
 8048SOL     OW35602   3.640   0.914  16.262  0.0083  0.6959  0.4916
 8048SOL    HW135603   3.548   0.893  16.273 -0.1233 -0.0150 -2.0622
 8048SOL    HW235604   3.690   0.834  16.279  3.1863  2.1473 -2.0099
 8049SOL     OW35605   1.683   3.228   2.386 -0.1494  0.0281  0.1790
 8049SOL    HW135606   1.731   3.289   2.330 -1.4865 -0.0990 -1.1031
 8049SOL    HW235607   1.702   3.253   2.476 -0.2491  1.9060 -0.3332
 8050SOL     OW35608   4.325   1.968   8.120  0.0636  0.3334  0.2880
 8050SOL    HW135609   4.341   2.059   8.143  0.6120 -0.0231  1.3075
 8050SOL    HW235610   4.295   1.942   8.207  1.3872  3.1621  1.5780
 8051SOL     OW35611   3.329   2.889  14.672  0.0191  0.1731  0.5426
 8051SOL    HW135612   3.381   2.867  14.595  0.8834  2.6550  0.4274
 8051SOL    HW235613   3.262   2.819  14.670 -0.0267  0.2413 -0.1822
 8052SOL     OW35614   2.138   0.574   0.332  0.2996 -0.1028  0.7087
 8052SOL    HW135615   2.163   0.575   0.239  2.0001  2.1106  1.1775
 8052SOL    HW235616   2.212   0.523   0.366 -0.8244 -2.6688 -0.7099
 8053SOL     OW35617   3.102   1.158   2.951 -0.7812  0.8313 -0.1797
 8053SOL    HW135618   3.057   1.228   2.904 -1.4329  0.6294  0.1315
 8053SOL    HW235619   3.100   1.087   2.887  0.6505 -0.9612  1.7381
 8054SOL     OW35620   0.716   3.811  13.800 -0.0209 -0.3995  0.2341
 8054SOL    HW135621   0.735   3.718  13.815 -0.7496 -0.2731  2.0233
 8054SOL    HW235622   0.623   3.800  13.779 -0.9137  2.5173  2.7229
 8055SOL     OW35623   3.693   2.703   3.281 -0.1079 -0.0148 -0.4213
 8055SOL    HW135624   3.687   2.619   3.237  0.3539 -0.2899  0.0343
 8055SOL    HW235625   3.788   2.707   3.281 -0.1086  0.0152 -0.3464
 8056SOL     OW35626   0.629   2.777   5.648  0.5807 -0.3049 -0.5621
 8056SOL    HW135627   0.659   2.728   5.572  0.9637  0.8916 -1.1785
 8056SOL    HW235628   0.539   2.743   5.641  0.5470 -0.2315 -0.4927
 8057SOL     OW35629   2.994   0.077   7.652 -0.2502 -0.2144 -0.8154
 8057SOL    HW135630   2.921   0.110   7.600 -1.9678  0.4752  2.0293
 8057SOL    HW235631   2.956   0.022   7.721  0.7009 -0.7291 -0.6914
 8058SOL     OW35632   1.839   0.033  14.529 -0.9484 -0.0100 -0.3561
 8058SOL    HW135633   1.792   0.113  14.505  1.2475  0.6820 -2.3746
 8058SOL    HW235634   1.771   4.692  14.552  0.0087 -2.3551 -3.9255
 8059SOL     OW35635   4.068   3.335  10.701 -0.7991 -0.4434 -0.1106
 8059SOL    HW135636   4.014   3.262  10.733 -1.5516  0.6982  1.2194
 8059SOL    HW235637   4.077   3.385  10.782 -0.8155 -0.1813 -0.2725
 8060SOL     OW35638   4.487   1.166   5.300  0.6825 -0.7094 -0.0082
 8060SOL    HW135639   4.417   1.114   5.341  0.5120 -1.5661 -1.3872
 8060SOL    HW235640   4.447   1.252   5.290  2.0416 -0.0203  0.5077
 8061SOL     OW35641   2.208   0.561   6.243  0.0053 -0.1398  0.2883
 8061SOL    HW135642   2.247   0.589   6.326  0.0462 -0.0515  0.2388
 8061SOL    HW235643   2.205   0.465   6.246  0.8489 -0.1451  0.9448
 8062SOL     OW35644   0.992   4.298   6.420 -0.4333  0.1442 -0.1483
 8062SOL    HW135645   1.015   4.387   6.392  0.0356 -0.1111 -0.5447
 8062SOL    HW235646   0.913   4.286   6.367 -0.5480  1.0042 -0.1710
 8063SOL     OW35647   0.151   0.817   5.314  0.3203 -0.0586 -0.1957
 8063SOL    HW135648   0.133   0.910   5.331  1.0148  0.1422 -0.5582
 8063SOL    HW235649   0.237   0.808   5.355  0.1093 -1.6181 -0.1142
 8064SOL     OW35650   3.732   4.003  12.120 -1.1236 -0.0428  0.0931
 8064SOL    HW135651   3.793   4.047  12.180  0.2640  0.9619 -2.0577
 8064SOL    HW235652   3.646   4.029  12.154 -1.4150 -1.1142  0.1718
 8065SOL     OW35653   4.189   4.035   8.084  0.2842  0.1007  0.0227
 8065SOL    HW135654   4.215   4.040   7.992 -0.2001 -1.1657 -0.1886
 8065SOL    HW235655   4.276   4.038   8.124  0.4628  0.7853 -0.4255
 8066SOL     OW35656   4.580   2.787  12.849 -0.2387  0.3515 -0.7555
 8066SOL    HW135657   4.583   2.711  12.907  1.6998 -0.1486 -1.5225
 8066SOL    HW235658   4.622   2.853  12.905 -1.2454  1.5876 -1.4604
 8067SOL     OW35659   0.522   3.281  17.589  0.4590  0.3537  0.3875
 8067SOL    HW135660   0.598   3.324  17.550 -0.4895  1.8635  0.1920
 8067SOL    HW235661   0.547   3.302  17.679 -0.5168 -0.9895  0.9613
 8068SOL     OW35662   0.483   2.383  14.510 -0.3316  0.1075 -0.3251
 8068SOL    HW135663   0.493   2.449  14.579 -2.0239  1.2731 -1.2087
 8068SOL    HW235664   0.577   2.370  14.494 -0.2396  1.0258 -0.5454
 8069SOL     OW35665   1.188   0.608   8.925  0.1921  0.0877  0.3740
 8069SOL    HW135666   1.264   0.583   8.873 -1.2013 -1.9742 -0.6667
 8069SOL    HW235667   1.125   0.542   8.898 -1.6325  2.0164 -0.1361
 8070SOL     OW35668   0.536   4.673   6.391  0.2818 -0.0229 -0.5221
 8070SOL    HW135669   0.632   4.665   6.396  0.2699  0.8655  1.2603
 8070SOL    HW235670   0.540   0.032   6.339 -4.1723  2.5197  3.0518
 8071SOL     OW35671   1.213   0.823   9.441 -0.0567  0.0271 -0.2133
 8071SOL    HW135672   1.202   0.769   9.362 -0.8207  1.4185 -1.0597
 8071SOL    HW235673   1.144   0.783   9.494 -0.3345 -1.5413 -1.7526
 8072SOL     OW35674   0.581   2.680   4.067  0.2160  0.2886  0.3177
 8072SOL    HW135675   0.647   2.683   4.136  1.0392  0.0788 -0.4657
 8072SOL    HW235676   0.538   2.595   4.077 -0.8796  0.6573 -1.1921
 8073SOL     OW35677   0.849   0.375   7.500  0.0986  0.2623 -0.1298
 8073SOL    HW135678   0.871   0.397   7.409  0.6778  2.0543  0.4571
 8073SOL    HW235679   0.773   0.431   7.514 -0.9621 -1.7656  2.2740
 8074SOL     OW35680   1.792   2.959  17.379  0.4454 -0.6206  0.0351
 8074SOL    HW135681   1.804   2.969  17.473 -1.5219 -2.0440  0.4358
 8074SOL    HW235682   1.713   3.011  17.367  0.4828 -0.7734 -0.9047
 8075SOL     OW35683   3.155   1.366   6.912  0.3331  0.1981  0.0147
 8075SOL    HW135684   3.090   1.435   6.901  1.0480  0.8704  0.0760
 8075SOL    HW235685   3.104   1.285   6.917 -0.3103  0.6400  0.5876
 8076SOL     OW35686   0.531   1.119   8.927  0.3339 -0.4768 -0.0013
 8076SOL    HW135687   0.515   1.122   8.832  0.3626 -0.4055 -0.0039
 8076SOL    HW235688   0.626   1.104   8.932  0.3576  0.0482  0.9206
 8077SOL     OW35689   3.645   1.025   2.301  0.0921 -0.1308  0.0145
 8077SOL    HW135690   3.699   0.947   2.307 -1.3376 -1.0981  0.0814
 8077SOL    HW235691   3.634   1.012   2.206  0.4815 -3.6998  0.4889
 8078SOL     OW35692   2.289   3.682   7.841 -0.3867 -0.1385  0.4738
 8078SOL    HW135693   2.242   3.600   7.828 -1.4413 -0.0451  3.5140
 8078SOL    HW235694   2.240   3.749   7.794  0.6253  0.6695  0.5636
 8079SOL     OW35695   0.634   2.966   0.777 -0.4157 -0.5435 -0.4133
 8079SOL    HW135696   0.688   2.971   0.856 -1.3009 -1.3282  0.2396
 8079SOL    HW235697   0.704   2.983   0.714 -0.6031  0.3288 -0.3879
 8080SOL     OW35698   1.659   1.863   9.592 -0.2445  0.0398  0.0093
 8080SOL    HW135699   1.730   1.802   9.614  0.6431  0.8196 -0.7073
 8080SOL    HW235700   1.648   1.826   9.505 -1.6607  2.5119 -0.8540
 8081SOL     OW35701   1.963   2.120  14.442  0.1205 -0.0526 -0.5970
 8081SOL    HW135702   2.045   2.120  14.492 -0.3323 -0.3893  0.1506
 8081SOL    HW235703   1.934   2.029  14.443  2.6460 -0.8777 -1.3410
 8082SOL     OW35704   1.024   1.344   2.909  0.0428  0.0709  0.0609
 8082SOL    HW135705   0.977   1.261   2.920 -0.0628  0.1660  0.3136
 8082SOL    HW235706   1.064   1.325   2.824 -0.7108 -0.0361 -0.2672
 8083SOL     OW35707   0.893   2.329   6.957  0.0473  0.4489 -0.3794
 8083SOL    HW135708   0.913   2.416   6.923  0.1012  0.7499  0.4192
 8083SOL    HW235709   0.974   2.280   6.942 -0.1378  0.4588 -1.4024
 8084SOL     OW35710   2.429   2.069  11.110 -0.0770 -0.0257  0.0267
 8084SOL    HW135711   2.452   2.043  11.021  1.6301 -0.9453  0.7205
 8084SOL    HW235712   2.487   2.010  11.160  1.8261  2.2577  0.5267
 8085SOL     OW35713   0.851   0.744  12.098 -0.1390 -0.2540  0.1438
 8085SOL    HW135714   0.925   0.737  12.159  0.1539 -2.2489 -0.4134
 8085SOL    HW235715   0.780   0.709  12.153 -0.2223  0.5043  0.5195
 8086SOL     OW35716   4.617   0.115   6.994  0.5140  0.0139  0.1621
 8086SOL    HW135717   4.553   0.044   6.984  2.4279 -1.4442 -1.7640
 8086SOL    HW235718   4.618   0.120   7.089  1.9396 -0.9607  0.2032
 8087SOL     OW35719   1.709   4.022   7.720  0.1381 -0.2432 -0.5468
 8087SOL    HW135720   1.724   3.930   7.702 -1.3393 -0.3740 -1.0900
 8087SOL    HW235721   1.749   4.068   7.647  0.9610  1.3281  0.8829
 8088SOL     OW35722   2.565   3.934  11.395 -0.0654 -0.1772 -0.8386
 8088SOL    HW135723   2.544   3.904  11.483 -1.3719  2.6405 -0.1697
 8088SOL    HW235724   2.659   3.913  11.394  0.0195 -0.0022  3.9020
 8089SOL     OW35725   4.183   0.150   9.479 -0.5773 -0.2483 -0.7407
 8089SOL    HW135726   4.203   0.073   9.532 -2.2259 -0.9435 -1.1346
 8089SOL    HW235727   4.202   0.125   9.388 -0.3774  1.0450 -1.0601
 8090SOL     OW35728   4.437   3.120   8.655  0.2508  0.5198  0.4303
 8090SOL    HW135729   4.421   3.176   8.731 -1.8624 -1.3569  1.3745
 8090SOL    HW235730   4.526   3.131   8.623  0.0134  2.2763  0.3636
 8091SOL     OW35731   2.744   1.965   5.462  0.4269  0.1086 -0.6269
 8091SOL    HW135732   2.745   1.983   5.556 -1.0175  0.1657 -0.6175
 8091SOL    HW235733   2.707   1.876   5.455  1.5573 -0.4835  0.7727
 8092SOL     OW35734   4.263   2.734   3.886  0.2094  0.4541 -0.1740
 8092SOL    HW135735   4.287   2.672   3.956 -0.7592  0.9590  0.6106
 8092SOL    HW235736   4.255   2.668   3.817 -1.4635 -0.4659  0.8948
 8093SOL     OW35737   1.883   1.655   6.139 -0.3376 -0.1011 -0.0933
 8093SOL    HW135738   1.819   1.601   6.093  0.7733 -0.0049 -1.7108
 8093SOL    HW235739   1.917   1.713   6.071  0.0413 -0.4163 -0.1699
 8094SOL     OW35740   0.025   4.081   4.575  0.1435  0.6299 -0.6591
 8094SOL    HW135741   4.716   3.990   4.568  0.3724  0.5270 -0.2851
 8094SOL    HW235742   0.110   4.063   4.614 -0.7387 -1.2914  0.4129
 8095SOL     OW35743   4.323   3.016  11.427 -0.7273 -0.3265 -0.3320
 8095SOL    HW135744   4.405   3.032  11.474 -0.0249  1.8485 -2.3285
 8095SOL    HW235745   4.264   3.039  11.499 -0.7679 -1.3593 -0.0399
 8096SOL     OW35746   2.462   2.525   5.515  0.5109  0.5895 -0.5214
 8096SOL    HW135747   2.431   2.571   5.593 -2.4940  1.9260 -2.4822
 8096SOL    HW235748   2.529   2.464   5.544 -1.3672 -0.5198  1.4866
 8097SOL     OW35749   1.190   2.339   3.281 -0.0706 -0.3222 -0.1522
 8097SOL    HW135750   1.280   2.354   3.308 -0.3996 -0.0578  0.7925
 8097SOL    HW235751   1.197   2.327   3.186 -1.2450 -0.9665 -0.1617
 8098SOL     OW35752   4.575   1.030   8.603 -0.5585  0.0910  0.6804
 8098SOL    HW135753   4.570   0.940   8.635  3.0114 -0.5910 -0.6143
 8098SOL    HW235754   4.608   1.002   8.517 -0.0344  0.8705  0.6275
 8099SOL     OW35755   2.514   2.197   6.022  0.4048  0.2170  0.6270
 8099SOL    HW135756   2.436   2.225   5.974 -0.2335  0.2395  1.6705
 8099SOL    HW235757   2.470   2.118   6.054  0.5162 -0.1644 -0.1696
 8100SOL     OW35758   2.720   3.313   0.371 -0.4405  0.0024 -0.6177
 8100SOL    HW135759   2.751   3.260   0.297 -2.2182 -1.3369 -0.3886
 8100SOL    HW235760   2.636   3.346   0.339 -0.5745 -0.7556 -1.0515
 8101SOL     OW35761   0.077   1.489   6.502  0.2680 -0.3058 -0.1139
 8101SOL    HW135762   0.016   1.443   6.560 -0.9511  1.4068 -0.0178
 8101SOL    HW235763   0.149   1.427   6.496  0.9986  0.5698 -0.4594
 8102SOL     OW35764   4.118   3.852   2.041 -0.4233  0.0838  0.0328
 8102SOL    HW135765   4.068   3.785   1.992  1.1221 -1.2554  0.2869
 8102SOL    HW235766   4.175   3.881   1.970 -1.3161  1.1909 -0.2372
 8103SOL     OW35767   4.619   3.498   7.339 -0.2192  0.4625  0.3790
 8103SOL    HW135768   4.596   3.410   7.312 -0.4325  1.4748 -2.7840
 8103SOL    HW235769   4.608   3.499   7.434  2.5685  2.5973  0.6703
 8104SOL     OW35770   1.935   1.098   1.886 -0.0744 -0.5439  0.1743
 8104SOL    HW135771   1.853   1.057   1.861 -0.7855  0.7171  0.4138
 8104SOL    HW235772   1.904   1.133   1.970  1.2218 -0.2011  0.5216
 8105SOL     OW35773   3.722   3.607   8.176  0.2547 -0.0184 -0.0999
 8105SOL    HW135774   3.741   3.515   8.195 -0.0814 -0.1530 -0.4036
 8105SOL    HW235775   3.690   3.634   8.263  1.0704 -1.3272  0.6074
 8106SOL     OW35776   2.235   1.196  15.789  0.3884 -0.3723  0.6547
 8106SOL    HW135777   2.162   1.138  15.766 -0.7710  1.0385  0.7966
 8106SOL    HW235778   2.285   1.142  15.851  1.3668  1.2984  1.3030
 8107SOL     OW35779   3.292   4.606   5.946  0.4957 -0.1516 -0.3960
 8107SOL    HW135780   3.326   4.588   5.858 -1.9119 -1.4483 -1.0468
 8107SOL    HW235781   3.365   4.651   5.989 -0.2647  0.8111 -0.1046
 8108SOL     OW35782   4.023   0.866   5.932 -0.2281 -0.3599 -0.1572
 8108SOL    HW135783   4.094   0.802   5.931 -1.1998 -1.4084 -1.6201
 8108SOL    HW235784   3.970   0.832   5.860 -1.4032 -0.4602  0.7445
 8109SOL     OW35785   4.600   1.603   3.782 -0.4703  0.1241 -0.4475
 8109SOL    HW135786   4.684   1.580   3.821  0.0786  0.3358 -1.5303
 8109SOL    HW235787   4.547   1.532   3.819  0.2721 -0.0508  0.2780
 8110SOL     OW35788   0.764   0.203   3.547  0.0679  0.2200 -0.2803
 8110SOL    HW135789   0.749   0.118   3.589  2.5427 -0.4787 -0.8730
 8110SOL    HW235790   0.756   0.265   3.620 -4.3421 -1.3556  0.6319
 8111SOL     OW35791   3.763   3.318   6.801  0.6493 -0.3928 -0.2327
 8111SOL    HW135792   3.698   3.329   6.732  1.2945  0.1091 -0.7508
 8111SOL    HW235793   3.781   3.224   6.794  2.0542 -0.2166  0.9527
 8112SOL     OW35794   2.110   1.168   4.018 -0.2468 -0.6112 -0.3968
 8112SOL    HW135795   2.136   1.106   4.086 -0.4492 -1.2947 -0.9397
 8112SOL    HW235796   2.017   1.147   4.010 -0.9357  2.0981  0.5224
 8113SOL     OW35797   2.941   2.083   2.455  0.0594 -0.2437  0.0876
 8113SOL    HW135798   2.981   2.039   2.530  0.8266  0.3001  0.0030
 8113SOL    HW235799   3.001   2.154   2.431  0.7124 -0.9125 -0.2714
 8114SOL     OW35800   2.158   3.811   6.858  0.2781 -0.3361 -0.2847
 8114SOL    HW135801   2.169   3.870   6.932  0.1934 -0.0674 -0.4860
 8114SOL    HW235802   2.232   3.835   6.802  0.9404  2.2899  1.7428
 8115SOL     OW35803   4.236   2.537   9.293  0.3608 -0.0404 -0.1001
 8115SOL    HW135804   4.247   2.631   9.307 -0.2630  0.1665 -0.9568
 8115SOL    HW235805   4.267   2.508   9.379 -2.0317 -3.3535 -0.3548
 8116SOL     OW35806   2.868   4.483   8.064 -0.4115 -0.1554 -0.1520
 8116SOL    HW135807   2.902   4.571   8.053 -0.0026 -0.5161 -1.7233
 8116SOL    HW235808   2.793   4.475   8.005 -0.4808 -0.0558 -0.0773
 8117SOL     OW35809   4.371   1.413  16.522 -0.0771  0.0684 -0.1927
 8117SOL    HW135810   4.327   1.491  16.488 -0.5150 -1.5835 -3.4299
 8117SOL    HW235811   4.346   1.349  16.455  1.2042  0.1528 -0.7481
 8118SOL     OW35812   2.376   0.458   2.617 -0.0033  0.4484 -0.2487
 8118SOL    HW135813   2.334   0.394   2.560 -0.0823 -1.8251  2.3509
 8118SOL    HW235814   2.400   0.515   2.544 -1.5325  1.1590 -0.2017
 8119SOL     OW35815   2.946   0.972   6.738  0.0379  0.1429 -0.2458
 8119SOL    HW135816   2.875   1.035   6.730  1.2015  1.0580 -3.4052
 8119SOL    HW235817   2.984   0.993   6.823  0.9042 -1.5031 -0.2242
 8120SOL     OW35818   4.211   4.395  17.540 -0.5039 -0.1202  0.3288
 8120SOL    HW135819   4.142   4.459  17.557  0.1787  0.5188  0.6815
 8120SOL    HW235820   4.274   4.454  17.498 -2.7716  2.0544  0.0100
 8121SOL     OW35821   4.637   1.601   8.164 -0.2819 -0.5821  0.2746
 8121SOL    HW135822   4.599   1.660   8.229 -0.4521 -1.8639  1.3368
 8121SOL    HW235823   4.577   1.620   8.092 -1.6187  0.7168  1.7208
 8122SOL     OW35824   1.102   1.798   7.618 -0.7878 -0.1815 -0.3467
 8122SOL    HW135825   1.142   1.764   7.538 -0.2729  0.5946 -0.4142
 8122SOL    HW235826   1.182   1.812   7.668 -1.9961 -0.7242  1.7202
 8123SOL     OW35827   4.497   0.803   4.784 -0.8569 -0.0376  0.3666
 8123SOL    HW135828   4.552   0.875   4.815 -0.6970  1.3886 -3.3353
 8123SOL    HW235829   4.562   0.762   4.727 -0.2440  0.4336  0.7290
 8124SOL     OW35830   0.451   4.710   7.217 -0.5305  0.1219 -0.1074
 8124SOL    HW135831   0.380   0.008   7.279 -0.4771 -1.0024  0.3049
 8124SOL    HW235832   0.520   0.039   7.260 -1.0679  0.9001 -0.1610
 8125SOL     OW35833   2.383   2.845   2.025  0.3832  1.1934  0.2490
 8125SOL    HW135834   2.354   2.937   2.022  0.2932  1.1634  0.1842
 8125SOL    HW235835   2.299   2.799   2.027 -0.3856  2.5320 -0.9436
 8126SOL     OW35836   1.538   3.485   7.012  0.1171  0.2208 -0.2037
 8126SOL    HW135837   1.471   3.530   7.065 -0.4813  2.1690 -2.6598
 8126SOL    HW235838   1.562   3.560   6.959  0.8241  0.9294  1.1211
 8127SOL     OW35839   1.939   2.835   8.562 -0.0862  0.0564 -0.2626
 8127SOL    HW135840   1.963   2.871   8.648  1.2782 -3.3783  0.7819
 8127SOL    HW235841   1.928   2.923   8.526 -1.5784  1.2025  3.0278
 8128SOL     OW35842   2.940   1.359   3.224 -0.1290 -0.1326 -0.3532
 8128SOL    HW135843   2.960   1.430   3.163 -0.7216 -0.8209 -1.3610
 8128SOL    HW235844   2.845   1.357   3.233 -0.3612 -0.0050 -2.7234
 8129SOL     OW35845   3.738   2.984  16.159 -0.4960 -0.1639  0.0487
 8129SOL    HW135846   3.806   3.051  16.160  1.2164 -1.9245  1.4012
 8129SOL    HW235847   3.725   2.972  16.065  0.8263 -0.4007 -0.1019
 8130SOL     OW35848   4.398   1.732   4.985 -0.0783 -0.0421 -0.1892
 8130SOL    HW135849   4.421   1.716   5.077 -0.0313 -0.4000 -0.2657
 8130SOL    HW235850   4.315   1.778   4.999 -0.3923 -0.4987 -0.5853
 8131SOL     OW35851   4.513   0.474  13.485  0.7548  0.0643 -0.2829
 8131SOL    HW135852   4.464   0.557  13.493  2.2332  0.7965  1.0999
 8131SOL    HW235853   4.484   0.434  13.403  0.4492  1.7552 -0.9986
 8132SOL     OW35854   2.732   4.063   5.327 -0.2338  0.2581  0.0374
 8132SOL    HW135855   2.738   4.008   5.405  0.6775 -0.3588 -0.4708
 8132SOL    HW235856   2.806   4.042   5.271 -0.1208 -0.9323  0.6357
 8133SOL     OW35857   4.208   2.529   5.392  0.2397 -0.2121  0.7627
 8133SOL    HW135858   4.207   2.611   5.441  0.3174  0.6073 -0.6112
 8133SOL    HW235859   4.113   2.521   5.379 -0.2878  0.9857  3.8770
 8134SOL     OW35860   1.052   3.317   7.289 -0.5949 -0.2522  0.1576
 8134SOL    HW135861   1.088   3.349   7.372  0.0007  0.2311 -0.2861
 8134SOL    HW235862   1.056   3.401   7.242 -0.7892  0.1005  0.7632
 8135SOL     OW35863   1.843   4.400   0.143  0.1355 -0.2413  0.5882
 8135SOL    HW135864   1.935   4.416   0.165  0.0304  2.6408 -1.1656
 8135SOL    HW235865   1.798   4.474   0.183  1.7363  0.7349  0.5868
 8136SOL     OW35866   0.304   2.917   7.190 -0.1707 -0.2202 -0.2660
 8136SOL    HW135867   0.250   2.877   7.123 -0.3971  0.2539 -0.3706
 8136SOL    HW235868   0.238   2.903   7.258 -0.4852  0.2687 -0.4698
 8137SOL     OW35869   0.041   3.297   8.836 -0.1974  0.0792  0.1294
 8137SOL    HW135870   0.079   3.299   8.924  0.6966 -0.7956 -0.2287
 8137SOL    HW235871   0.035   3.392   8.820  1.4542  0.3604  1.1670
 8138SOL     OW35872   2.162   0.996   2.559  0.0148  0.2239  0.1179
 8138SOL    HW135873   2.184   0.926   2.498 -0.8016 -1.5855  1.8877
 8138SOL    HW235874   2.074   1.013   2.526 -1.2026 -0.1303  3.1116
 8139SOL     OW35875   0.044   1.475   2.099 -0.3490  0.5898 -0.4385
 8139SOL    HW135876   4.695   1.459   2.036  0.4711 -0.0841 -1.1951
 8139SOL    HW235877   0.074   1.562   2.071 -2.7834  0.9410 -1.9536
 8140SOL     OW35878   3.097   1.253  13.346  0.0581  0.1021  0.1617
 8140SOL    HW135879   3.155   1.324  13.318  0.0772  0.6034  1.4634
 8140SOL    HW235880   3.143   1.232  13.427  0.1266  0.1122  0.1251
 8141SOL     OW35881   1.163   3.934   8.659 -0.2373 -0.8084  0.3244
 8141SOL    HW135882   1.190   4.008   8.713  0.4884 -0.9485  0.1443
 8141SOL    HW235883   1.175   3.857   8.715 -1.8161 -1.0099  0.3862
 8142SOL     OW35884   1.576   2.527   5.112 -0.0282 -0.4522  0.0545
 8142SOL    HW135885   1.553   2.445   5.155  1.1550 -1.8601 -2.0210
 8142SOL    HW235886   1.649   2.551   5.169 -1.1859  0.6562  1.0814
 8143SOL     OW35887   1.635   4.631   3.649 -0.9879  0.1580 -0.2016
 8143SOL    HW135888   1.683   4.587   3.579 -2.0595  0.6184 -1.2243
 8143SOL    HW235889   1.669   4.720   3.643 -1.9127  0.3702 -2.0235
 8144SOL     OW35890   2.302   3.266   5.676  0.0458 -0.1645 -0.0574
 8144SOL    HW135891   2.210   3.259   5.650  0.9630 -1.0745 -2.9656
 8144SOL    HW235892   2.340   3.304   5.597  1.3000  0.5247  0.8789
 8145SOL     OW35893   1.580   0.991   2.416 -0.6647 -0.2752 -0.2194
 8145SOL    HW135894   1.512   0.930   2.389  0.5265 -1.4376 -0.6500
 8145SOL    HW235895   1.634   0.990   2.337  0.1929 -2.6157  0.3802
 8146SOL     OW35896   3.509   3.793  12.774 -0.1080  0.2687 -0.4134
 8146SOL    HW135897   3.603   3.784  12.790 -0.4425 -0.8777  1.0109
 8146SOL    HW235898   3.482   3.828  12.859 -1.8415 -0.4341 -0.6634
 8147SOL     OW35899   1.317   2.290  10.990  0.2300 -0.6910 -0.2139
 8147SOL    HW135900   1.381   2.286  10.920  1.3499  2.8248  0.5938
 8147SOL    HW235901   1.239   2.331  10.952  1.3929 -0.9129 -2.8238
 8148SOL     OW35902   1.607   3.081   9.217  0.4648 -0.3086 -0.1157
 8148SOL    HW135903   1.517   3.098   9.188  0.7841  1.2736 -0.1785
 8148SOL    HW235904   1.626   2.991   9.190 -2.3700 -0.9425 -0.0046
 8149SOL     OW35905   0.512   1.891  13.228 -0.0062  0.1551 -0.4534
 8149SOL    HW135906   0.505   1.799  13.255 -2.8553  0.1655 -1.1772
 8149SOL    HW235907   0.424   1.903  13.192  0.5726 -0.6984 -2.1912
 8150SOL     OW35908   2.453   2.024   3.120  0.0193 -0.0863 -0.4898
 8150SOL    HW135909   2.489   1.957   3.062 -1.2950  0.3612 -1.8161
 8150SOL    HW235910   2.368   1.988   3.145 -0.6566  1.3059 -0.7771
 8151SOL     OW35911   0.057   0.001  11.910  0.2689  0.4482  0.5208
 8151SOL    HW135912   0.135   4.710  11.856  1.3000  1.6381  1.7255
 8151SOL    HW235913   4.712   4.711  11.842  0.9101 -0.2759  0.0229
 8152SOL     OW35914   2.625   3.398   6.049  0.0817 -0.2384 -0.0783
 8152SOL    HW135915   2.682   3.330   6.085 -3.0627 -0.7763  3.8543
 8152SOL    HW235916   2.576   3.340   5.991  0.3305  1.0864 -1.6157
 8153SOL     OW35917   2.867   1.092   4.347 -0.6184  0.1017 -0.1912
 8153SOL    HW135918   2.812   1.021   4.315 -0.6590  0.1657 -0.2644
 8153SOL    HW235919   2.860   1.158   4.278 -1.6211 -1.3573 -1.4781
 8154SOL     OW35920   2.313   2.741  10.958 -0.2754 -0.6727  0.1600
 8154SOL    HW135921   2.328   2.647  10.961  4.3825  0.1475  3.0807
 8154SOL    HW235922   2.396   2.782  10.930  1.0073 -1.8322  2.3265
 8155SOL     OW35923   1.353   3.708  10.281 -0.3742  0.0755 -0.3835
 8155SOL    HW135924   1.440   3.686  10.249 -0.2621 -2.9006  1.9355
 8155SOL    HW235925   1.370   3.787  10.331 -0.0830 -0.5118  0.4427
 8156SOL     OW35926   4.400   4.510   3.147 -0.0206 -0.6708  0.5346
 8156SOL    HW135927   4.393   4.526   3.241 -0.8056  1.5726  0.0795
 8156SOL    HW235928   4.337   4.572   3.112  2.0025  1.1510  0.1678
 8157SOL     OW35929   0.823   3.919  10.123 -0.3931 -0.6690 -0.1268
 8157SOL    HW135930   0.785   3.832  10.124  1.8401 -1.6376  0.5175
 8157SOL    HW235931   0.856   3.920  10.213  0.6515 -1.3553 -0.5085
 8158SOL     OW35932   3.166   2.466   6.953  0.5252 -0.2653  0.4717
 8158SOL    HW135933   3.153   2.430   6.865 -0.7160  0.0972  0.5081
 8158SOL    HW235934   3.076   2.442   6.976  0.0578  0.5666 -0.4911
 8159SOL     OW35935   3.122   3.012   2.987  0.1290  0.0889 -0.4740
 8159SOL    HW135936   3.217   3.023   2.995 -0.0689  1.2788  0.1524
 8159SOL    HW235937   3.126   2.923   2.952 -1.5464 -0.3365  0.4159
 8160SOL     OW35938   2.944   2.525   5.243  0.2184  0.3359  0.1124
 8160SOL    HW135939   2.891   2.460   5.288  2.1135 -0.3347  1.3503
 8160SOL    HW235940   2.880   2.592   5.217 -1.9746 -1.8824 -0.2245
 8161SOL     OW35941   2.794   0.762  10.356  0.4005  0.1504 -0.1070
 8161SOL    HW135942   2.776   0.788  10.446  2.4303  1.5593 -0.0914
 8161SOL    HW235943   2.800   0.851  10.320 -1.7976  0.7647  1.0229
 8162SOL     OW35944   1.904   2.990  12.704  0.0030 -0.2970  0.2720
 8162SOL    HW135945   1.845   2.969  12.631 -0.3620 -0.6768  0.6758
 8162SOL    HW235946   1.966   3.047  12.660  0.8286 -2.1555 -0.9449
 8163SOL     OW35947   2.782   1.378   0.771 -0.1158  0.6473 -0.3152
 8163SOL    HW135948   2.712   1.313   0.767 -0.3759  0.7792  1.6920
 8163SOL    HW235949   2.733   1.458   0.790 -0.5895  0.5069 -0.9716
 8164SOL     OW35950   0.748   0.878   7.064  0.3678  0.0978 -0.1306
 8164SOL    HW135951   0.690   0.841   6.997 -1.0914 -1.3226  1.9066
 8164SOL    HW235952   0.761   0.803   7.122 -2.0423  1.7080  2.5253
 8165SOL     OW35953   2.232   0.795   2.774  0.4364  0.2686  0.1826
 8165SOL    HW135954   2.138   0.798   2.758  0.9130  0.0075 -2.7294
 8165SOL    HW235955   2.270   0.870   2.728 -1.1880  0.6355 -0.5605
 8166SOL     OW35956   4.203   4.124   7.342  0.4587 -0.0523  0.0997
 8166SOL    HW135957   4.162   4.200   7.382  0.3020  1.4752 -2.9659
 8166SOL    HW235958   4.276   4.109   7.401  1.8269 -1.8981 -2.0364
 8167SOL     OW35959   0.774   4.003   6.374  0.0234  1.0845 -0.1873
 8167SOL    HW135960   0.823   4.067   6.425 -0.0436  0.0705  1.1604
 8167SOL    HW235961   0.839   3.934   6.362  0.4364  1.1731  1.6376
 8168SOL     OW35962   1.454   3.450   5.121 -0.1192  0.3661  0.8132
 8168SOL    HW135963   1.377   3.469   5.174 -2.1487  1.3087 -2.4674
 8168SOL    HW235964   1.509   3.511   5.171 -0.7023  1.2271  0.4161
 8169SOL     OW35965   1.820   1.898   7.488 -0.4728 -0.5621 -0.1747
 8169SOL    HW135966   1.910   1.896   7.519 -0.5388 -0.4132  0.0261
 8169SOL    HW235967   1.778   1.816   7.512  0.1707 -0.3978  1.5214
 8170SOL     OW35968   2.207   0.772   3.052  0.6401  0.1204 -0.3220
 8170SOL    HW135969   2.295   0.744   3.026  0.3423 -1.7787  0.7717
 8170SOL    HW235970   2.169   0.789   2.966 -0.0315 -1.7062 -0.3757
 8171SOL     OW35971   1.217   4.175   8.753  0.2989 -0.5404 -0.2622
 8171SOL    HW135972   1.229   4.266   8.777 -1.7788 -0.0145 -1.1739
 8171SOL    HW235973   1.161   4.185   8.676  2.2995  2.2967 -1.2950
 8172SOL     OW35974   1.978   3.513   7.948 -0.2684 -0.0478  0.4260
 8172SOL    HW135975   2.038   3.497   7.875  0.1679  1.5089  0.4330
 8172SOL    HW235976   1.896   3.487   7.907 -0.7938 -1.0901  2.1521
 8173SOL     OW35977   1.089   2.975  14.622  0.1138  0.5407 -0.6197
 8173SOL    HW135978   1.119   3.015  14.704 -0.1237 -0.8807  0.1656
 8173SOL    HW235979   1.007   2.942  14.661  1.9506 -0.7138  2.1933
 8174SOL     OW35980   2.628   2.311   8.502  0.0597 -0.1208  0.5078
 8174SOL    HW135981   2.631   2.391   8.555  1.7299 -0.7222  1.3010
 8174SOL    HW235982   2.555   2.267   8.546 -0.9624  1.2043  0.1531
 8175SOL     OW35983   2.125   4.152   4.140 -0.1314  0.2019 -0.3850
 8175SOL    HW135984   2.062   4.083   4.118  0.1700 -1.0895  2.7467
 8175SOL    HW235985   2.164   4.101   4.212  1.9520  1.2690 -0.7406
 8176SOL     OW35986   4.319   3.354   6.604 -0.6966  0.2546 -0.2286
 8176SOL    HW135987   4.345   3.442   6.632  4.6561 -0.8964 -1.6358
 8176SOL    HW235988   4.253   3.383   6.540 -1.3557  0.2673  0.4553
 8177SOL     OW35989   0.537   0.240   9.760  1.0181 -0.5625  0.1646
 8177SOL    HW135990   0.527   0.336   9.757  3.9593 -0.1971  1.4698
 8177SOL    HW235991   0.505   0.218   9.673  2.2188  0.0595 -0.4423
 8178SOL     OW35992   2.183   0.888   0.431 -0.3185 -0.1660  0.3512
 8178SOL    HW135993   2.089   0.869   0.422 -0.1033 -0.9672 -0.1773
 8178SOL    HW235994   2.224   0.809   0.468  0.4091 -0.5741 -1.3609
 8179SOL     OW35995   4.564   0.977   5.487  0.2972 -0.1336  0.4433
 8179SOL    HW135996   4.614   0.993   5.567  3.9917 -0.2690 -1.8416
 8179SOL    HW235997   4.546   1.069   5.468 -1.2724 -0.8067 -1.3819
 8180SOL     OW35998   1.223   2.812   3.102 -0.0647  0.9686  0.4962
 8180SOL    HW135999   1.240   2.861   3.022 -1.1736  1.2047  0.4029
 8180SOL    HW236000   1.281   2.737   3.093  0.2766  1.3137 -0.1314
 8181SOL     OW36001   2.231   0.124  17.132  0.4147  0.0556  0.3462
 8181SOL    HW136002   2.277   0.102  17.050 -1.5860 -1.3875 -0.3916
 8181SOL    HW236003   2.297   0.081  17.187 -0.1369  0.4915  1.3288
 8182SOL     OW36004   2.484   3.252  16.164 -0.5441 -0.3678  0.0219
 8182SOL    HW136005   2.490   3.215  16.076  0.4877 -1.1104  0.4001
 8182SOL    HW236006   2.545   3.205  16.220  1.8190 -0.2993 -2.4960
 8183SOL     OW36007   2.056   2.409   1.282 -0.0575  0.7548  0.0472
 8183SOL    HW136008   2.062   2.505   1.289  3.4378  0.3980  1.8557
 8183SOL    HW236009   2.102   2.385   1.202 -0.6520 -1.0299  0.2344
 8184SOL     OW36010   1.470   2.436   2.911 -0.5435 -0.3874  0.3687
 8184SOL    HW136011   1.505   2.451   2.823 -1.3769  0.6687  0.2243
 8184SOL    HW236012   1.394   2.389   2.876 -1.1465 -0.1357  1.3309
 8185SOL     OW36013   4.504   2.098   8.754 -0.9339 -0.1262  0.0431
 8185SOL    HW136014   4.517   2.003   8.754  1.9357  0.2771 -3.3403
 8185SOL    HW236015   4.519   2.120   8.846 -2.4697 -0.8716  0.4629
 8186SOL     OW36016   3.262   1.232   4.271 -0.3730 -0.3033 -0.1823
 8186SOL    HW136017   3.300   1.145   4.281  1.2101  0.2544 -1.2484
 8186SOL    HW236018   3.206   1.231   4.349  1.2870 -0.1864  1.0201
 8187SOL     OW36019   3.870   3.060  11.259  0.6777 -0.3425 -0.1950
 8187SOL    HW136020   3.959   3.062  11.223  1.4925  0.9750  1.8878
 8187SOL    HW236021   3.878   2.997  11.330 -2.3160  0.7305  1.0531
 8188SOL     OW36022   0.359   4.598  15.954 -0.0631 -0.1191  0.1321
 8188SOL    HW136023   0.330   4.603  15.863 -0.7589 -1.5251  0.2764
 8188SOL    HW236024   0.309   4.672  15.988  1.1137  1.4849 -1.6682
 8189SOL     OW36025   4.393   4.623  16.619  0.3624  0.3959  0.1531
 8189SOL    HW136026   4.353   4.581  16.695  2.1964 -1.1355  0.2700
 8189SOL    HW236027   4.407   4.552  16.556  0.0738  2.8770 -2.7370
 8190SOL     OW36028   0.933   0.330   2.800  0.3438  1.0264  0.0854
 8190SOL    HW136029   0.934   0.409   2.746 -1.3521 -2.1394 -4.6107
 8190SOL    HW236030   0.840   0.320   2.819  0.2678 -0.1012 -0.8684
 8191SOL     OW36031   0.248   2.619   1.611 -0.1030 -0.3279  0.0709
 8191SOL    HW136032   0.162   2.654   1.633  0.3509  0.5907  0.3729
 8191SOL    HW236033   0.232   2.578   1.526 -1.2436  2.3824 -1.0318
 8192SOL     OW36034   1.023   3.590   5.559 -0.0954 -0.0537 -0.0770
 8192SOL    HW136035   0.976   3.570   5.477  0.8057 -1.5859 -0.2164
 8192SOL    HW236036   1.000   3.517   5.617  1.4302  0.2706  0.9112
 8193SOL     OW36037   3.616   4.627   8.811 -0.6027 -0.1409  0.0237
 8193SOL    HW136038   3.532   4.616   8.767 -0.6374  0.1235  0.0212
 8193SOL    HW236039   3.666   4.652   8.733  1.5616  1.0059  1.7724
 8194SOL     OW36040   1.688   0.212   3.683  0.0519  0.0481 -0.4456
 8194SOL    HW136041   1.695   0.258   3.767  0.7044  0.2187 -0.5930
 8194SOL    HW236042   1.738   0.267   3.622 -0.5284 -0.5698 -1.4791
 8195SOL     OW36043   1.614   2.041   2.224 -0.1339 -0.0544 -0.0670
 8195SOL    HW136044   1.544   2.037   2.158  0.9387 -0.9125 -1.1545
 8195SOL    HW236045   1.578   1.994   2.298 -1.0823 -0.3130 -0.6948
 8196SOL     OW36046   2.430   0.394   0.227 -0.0719 -0.0736 -0.4882
 8196SOL    HW136047   2.491   0.356   0.290  1.2481 -3.3340 -3.7705
 8196SOL    HW236048   2.463   0.484   0.225 -0.0993 -0.0208  1.7744
 8197SOL     OW36049   2.018   2.668  17.134  0.8045 -0.2130  0.4048
 8197SOL    HW136050   2.026   2.746  17.189  0.7961 -0.8379  1.3076
 8197SOL    HW236051   1.924   2.652  17.147  1.4913 -4.1791  0.5198
 8198SOL     OW36052   3.570   4.595  13.785  0.3192 -0.2323  0.1278
 8198SOL    HW136053   3.503   4.632  13.841 -2.1248 -0.8324 -2.3902
 8198SOL    HW236054   3.643   4.651  13.811  0.2339 -0.3642  0.6446
 8199SOL     OW36055   4.709   4.370   3.849  0.4286 -0.1076 -0.0620
 8199SOL    HW136056   4.646   4.300   3.865 -0.5490  0.4978 -1.2763
 8199SOL    HW236057   0.066   4.315   3.854  0.0679 -0.4754  1.6519
 8200SOL     OW36058   1.413   3.822   5.187  0.6723  0.1896  0.0616
 8200SOL    HW136059   1.408   3.905   5.236  1.9274 -0.0796  0.6507
 8200SOL    HW236060   1.361   3.763   5.242 -1.2223  0.7844 -1.0722
 8201SOL     OW36061   0.669   1.740   5.158 -0.7192 -0.4863 -0.5299
 8201SOL    HW136062   0.649   1.666   5.101 -2.6655  0.4365 -1.0474
 8201SOL    HW236063   0.685   1.710   5.248 -1.6931  2.1718  0.5368
 8202SOL     OW36064   0.187   3.747  17.171 -0.4013  0.2545 -0.5516
 8202SOL    HW136065   0.105   3.699  17.161 -0.9550  0.9312  0.7381
 8202SOL    HW236066   0.247   3.679  17.201 -1.6270 -0.5033  0.2101
 8203SOL     OW36067   0.231   0.849  11.739 -0.5759 -0.2356 -0.0978
 8203SOL    HW136068   0.314   0.888  11.711 -0.0799 -2.4423 -1.7158
 8203SOL    HW236069   0.257   0.791  11.811  2.7398  0.6666 -0.5645
 8204SOL     OW36070   2.928   1.720   2.451  0.3297 -0.0969 -0.4998
 8204SOL    HW136071   2.883   1.711   2.367 -0.3764 -2.5802  0.1320
 8204SOL    HW236072   2.863   1.692   2.516 -0.8759  2.9229 -0.4255
 8205SOL     OW36073   2.627   0.014   5.020 -0.5927 -0.0091 -0.0583
 8205SOL    HW136074   2.555   4.717   4.959 -0.1488 -1.9279  0.0103
 8205SOL    HW236075   2.690   4.680   4.973 -0.2012  0.7254 -0.3921
 8206SOL     OW36076   3.302   0.749   6.511 -0.5806  0.8091 -0.5180
 8206SOL    HW136077   3.218   0.790   6.528 -1.1800 -1.9303  3.2388
 8206SOL    HW236078   3.290   0.655   6.525 -1.4359  1.2803  1.8746
 8207SOL     OW36079   1.338   1.202  17.510 -0.3553  0.2226 -0.3951
 8207SOL    HW136080   1.336   1.149  17.430  1.0993  0.0951 -0.3472
 8207SOL    HW236081   1.432   1.211  17.527 -0.1331 -1.3980 -0.7657
 8208SOL     OW36082   1.069   2.700  10.361  0.0217 -0.0648  0.4621
 8208SOL    HW136083   0.998   2.684  10.299 -0.2203 -1.0953  0.9996
 8208SOL    HW236084   1.126   2.751  10.304  1.8111 -1.0044  1.4053
 8209SOL     OW36085   2.239   0.083   4.573 -0.2627  0.2590 -0.2932
 8209SOL    HW136086   2.154   0.097   4.613  0.2030  0.9930  0.4378
 8209SOL    HW236087   2.292   0.154   4.609  0.3542  1.1170 -2.8199
 8210SOL     OW36088   4.699   4.501   2.466 -0.4266 -0.1146  0.1857
 8210SOL    HW136089   4.628   4.446   2.498  0.6581 -1.5038  0.1907
 8210SOL    HW236090   4.720   4.561   2.537  0.3863 -0.6845  0.4270
 8211SOL     OW36091   3.605   0.172   3.159 -0.6035  0.2121  0.0415
 8211SOL    HW136092   3.584   0.083   3.188  3.0176 -1.3942 -2.2689
 8211SOL    HW236093   3.540   0.219   3.212 -2.5629  0.8218 -2.9388
 8212SOL     OW36094   1.665   4.045  10.687  0.1237 -0.3335 -0.0720
 8212SOL    HW136095   1.612   4.119  10.719 -0.1685 -0.7449  0.3951
 8212SOL    HW236096   1.604   3.976  10.712  0.9142 -0.6141  1.0967
 8213SOL     OW36097   4.453   4.329  15.066 -0.3050 -0.1087 -0.5173
 8213SOL    HW136098   4.435   4.237  15.043 -0.0204 -0.1177 -0.7099
 8213SOL    HW236099   4.455   4.377  14.983 -2.8010  3.5900  1.5659
 8214SOL     OW36100   1.186   4.532   1.342 -0.3980 -0.6366  0.2876
 8214SOL    HW136101   1.201   4.525   1.248  0.9911 -3.8044  0.7306
 8214SOL    HW236102   1.266   4.498   1.383  0.0864 -0.4266 -0.4924
 8215SOL     OW36103   4.345   4.438   6.778  0.5274  0.1925  0.2009
 8215SOL    HW136104   4.298   4.362   6.813 -0.9857  1.7212  1.4938
 8215SOL    HW236105   4.331   4.506   6.844  2.5989 -0.4576  1.3344
 8216SOL     OW36106   2.441   1.648  15.613 -0.3067  0.4206  0.0202
 8216SOL    HW136107   2.453   1.652  15.707 -2.1750  0.1137  0.2602
 8216SOL    HW236108   2.516   1.593  15.589 -0.1723 -0.6346  2.8395
 8217SOL     OW36109   0.119   3.465   3.338 -0.2589  0.6807 -0.1316
 8217SOL    HW136110   0.184   3.489   3.272  1.8556 -3.4470  0.5030
 8217SOL    HW236111   0.047   3.430   3.286  0.5687 -1.8981  0.4706
 8218SOL     OW36112   3.599   1.235   8.581 -0.0532 -0.7507  0.0635
 8218SOL    HW136113   3.666   1.300   8.600 -0.0111 -0.9055  0.4463
 8218SOL    HW236114   3.549   1.231   8.663 -1.9050 -2.5556 -1.1453
 8219SOL     OW36115   4.440   4.026   6.314  0.2961 -0.5634  0.4962
 8219SOL    HW136116   4.355   4.067   6.332  1.3555  1.0622  1.7565
 8219SOL    HW236117   4.466   3.992   6.399  0.3284 -0.8551  0.3708
 8220SOL     OW36118   3.384   3.085   3.699 -0.0319 -0.1624  0.1676
 8220SOL    HW136119   3.447   3.048   3.762 -0.8691  1.3055  1.8604
 8220SOL    HW236120   3.334   3.008   3.673 -1.0633  0.4684  0.3028
 8221SOL     OW36121   4.318   3.155   6.800  0.2134 -0.3796  0.1218
 8221SOL    HW136122   4.236   3.190   6.834  0.9412 -0.0294  1.5505
 8221SOL    HW236123   4.333   3.215   6.728 -2.1912 -1.2823 -1.1115
 8222SOL     OW36124   2.400   2.480   7.735 -0.1122  0.1328 -0.6009
 8222SOL    HW136125   2.383   2.417   7.665  1.4694 -2.3994  1.2847
 8222SOL    HW236126   2.396   2.551   7.671  0.4595  1.1290  0.4779
 8223SOL     OW36127   3.200   1.221   0.513  0.0101  0.5951  0.0809
 8223SOL    HW136128   3.159   1.182   0.590 -0.0549 -1.8992 -1.2473
 8223SOL    HW236129   3.135   1.288   0.491  1.4523  1.8423 -0.3739
 8224SOL     OW36130   2.556   4.556   0.302 -0.1547  0.2829  0.1367
 8224SOL    HW136131   2.586   4.554   0.393  1.4384 -0.4624 -0.4061
 8224SOL    HW236132   2.573   4.465   0.279 -1.3136  0.4829 -1.5009
 8225SOL     OW36133   3.236   2.634   6.618 -0.2515 -0.0100  0.0283
 8225SOL    HW136134   3.225   2.686   6.698 -5.0199 -1.5304  0.3851
 8225SOL    HW236135   3.208   2.702   6.557 -0.0421 -1.7922 -2.0231
 8226SOL     OW36136   2.322   3.467   9.737 -0.8444  0.1367 -0.2481
 8226SOL    HW136137   2.367   3.551   9.742  0.4333 -0.5926  0.6083
 8226SOL    HW236138   2.234   3.502   9.722 -0.9635  0.0413  0.2315
 8227SOL     OW36139   0.588   3.684   7.206  0.3352 -0.2792  0.1866
 8227SOL    HW136140   0.625   3.598   7.225 -1.0912 -0.5702  1.6351
 8227SOL    HW236141   0.506   3.653   7.169 -0.7402 -0.4682  2.7461
 8228SOL     OW36142   4.509   2.150   9.044 -0.4780 -0.2066  0.0104
 8228SOL    HW136143   4.561   2.131   9.121  0.4678 -0.1910 -0.6282
 8228SOL    HW236144   4.478   2.230   9.085 -2.1910 -1.2333  0.7254
 8229SOL     OW36145   1.979   3.238   3.200  0.5806 -0.5128  0.4732
 8229SOL    HW136146   2.006   3.147   3.191 -0.5703 -0.8190  0.0845
 8229SOL    HW236147   1.986   3.265   3.109 -2.0995  0.6742  0.6046
 8230SOL     OW36148   0.827   1.404   7.536 -0.8258 -0.4892  0.2395
 8230SOL    HW136149   0.800   1.411   7.628  2.6564 -0.2864  1.2574
 8230SOL    HW236150   0.762   1.343   7.501 -2.8570  2.1234 -0.5687
 8231SOL     OW36151   4.381   3.795  14.015 -0.3029  0.1269  0.1712
 8231SOL    HW136152   4.472   3.823  14.005  0.3817 -1.8936  0.7201
 8231SOL    HW236153   4.342   3.881  14.029  0.1541  0.7752 -2.5071
 8232SOL     OW36154   3.417   3.318  12.369 -0.4889 -0.2406 -0.2900
 8232SOL    HW136155   3.442   3.229  12.344  2.2228  0.3109  0.4837
 8232SOL    HW236156   3.362   3.335  12.292  0.7781  3.3497 -0.3932
 8233SOL     OW36157   2.221   1.866   3.144  0.2452  0.1787 -0.2552
 8233SOL    HW136158   2.164   1.938   3.118 -0.7890 -0.5820 -0.0748
 8233SOL    HW236159   2.204   1.800   3.077  0.6861  1.9627 -2.1153
 8234SOL     OW36160   2.642   3.701   8.202 -0.0335  0.5719  0.1850
 8234SOL    HW136161   2.625   3.617   8.244 -0.1028 -0.7417 -2.4402
 8234SOL    HW236162   2.626   3.683   8.109  1.4442 -0.4753  0.1276
 8235SOL     OW36163   1.109   2.509  12.541 -0.1435 -0.1134 -0.1724
 8235SOL    HW136164   1.019   2.483  12.523 -0.0028 -0.3450 -0.5564
 8235SOL    HW236165   1.093   2.560  12.620 -0.5433  0.1963 -0.4544
 8236SOL     OW36166   2.127   1.716  15.407 -0.6315 -0.4304 -0.0226
 8236SOL    HW136167   2.166   1.637  15.368  0.1104  1.0791 -2.3038
 8236SOL    HW236168   2.202   1.774  15.421  0.8212 -2.6957  1.6940
 8237SOL     OW36169   0.131   0.732   6.713  0.6749 -0.3761  0.6266
 8237SOL    HW136170   0.092   0.771   6.635  1.8155  0.1134  0.2906
 8237SOL    HW236171   0.188   0.662   6.679  0.3534 -1.9027  3.2504
 8238SOL     OW36172   1.437   0.073   4.811 -0.1945 -0.5939 -0.8495
 8238SOL    HW136173   1.442   0.086   4.716 -2.0816  4.7434 -0.2554
 8238SOL    HW236174   1.372   0.143   4.820 -0.2058 -0.7301  0.1118
 8239SOL     OW36175   2.773   0.015   8.535  0.2878 -0.7939 -0.2705
 8239SOL    HW136176   2.842   4.713   8.473  0.4844  1.4676 -0.8840
 8239SOL    HW236177   2.717   4.658   8.537 -1.5775  0.4317 -3.3685
 8240SOL     OW36178   4.085   2.673   8.401  0.3732 -0.0974 -0.0197
 8240SOL    HW136179   4.072   2.636   8.489  0.0056  0.4405  0.1561
 8240SOL    HW236180   3.997   2.686   8.364  0.7541 -0.7178 -1.1226
 8241SOL     OW36181   3.250   4.081   2.681 -0.1321  0.1921  0.1593
 8241SOL    HW136182   3.157   4.074   2.662  0.2910  0.0554 -1.8981
 8241SOL    HW236183   3.261   4.176   2.685 -0.6828  0.2101  1.0838
 8242SOL     OW36184   2.765   1.688   2.235 -0.2008  0.2789  0.5238
 8242SOL    HW136185   2.679   1.664   2.269 -0.1366  0.8252  1.0669
 8242SOL    HW236186   2.798   1.601   2.213 -1.7965  0.1862 -1.4285
 8243SOL     OW36187   3.111   2.253  10.319  0.1844 -0.3044 -0.2759
 8243SOL    HW136188   3.044   2.317  10.343 -0.9732 -1.1078 -1.3878
 8243SOL    HW236189   3.137   2.282  10.232 -0.9247 -1.2310 -0.9191
 8244SOL     OW36190   3.667   0.658   8.763  0.0689 -0.1516 -0.4596
 8244SOL    HW136191   3.718   0.577   8.772 -0.1409  0.0745  2.7501
 8244SOL    HW236192   3.611   0.650   8.841 -0.4153 -1.8112 -0.9890
 8245SOL     OW36193   0.332   3.665   6.875 -0.2904  0.0153  0.2184
 8245SOL    HW136194   0.378   3.589   6.911 -0.5268 -0.7437 -1.1214
 8245SOL    HW236195   0.341   3.721   6.952 -0.2337  1.8881 -1.1593
 8246SOL     OW36196   2.391   1.467   4.474 -0.5456 -0.0905  0.1281
 8246SOL    HW136197   2.416   1.552   4.439  1.2646 -0.0678  1.4902
 8246SOL    HW236198   2.296   1.465   4.463 -0.5555 -1.9388  0.4540
 8247SOL     OW36199   1.087   2.147   2.240  0.3447 -0.0222  0.0733
 8247SOL    HW136200   1.102   2.238   2.214 -0.6725 -0.1351 -0.9100
 8247SOL    HW236201   1.129   2.108   2.163  0.9373 -0.4791  0.6212
 8248SOL     OW36202   1.148   1.503  11.216 -1.1341 -0.5993 -0.1594
 8248SOL    HW136203   1.172   1.432  11.157 -0.2637  0.0139 -0.5551
 8248SOL    HW236204   1.210   1.573  11.191 -0.1443 -2.1238 -1.9791
 8249SOL     OW36205   2.220   0.770  12.505 -0.0502  0.2306  0.7432
 8249SOL    HW136206   2.302   0.820  12.508 -0.0892  0.3768 -0.7235
 8249SOL    HW236207   2.187   0.765  12.595 -0.4625 -0.5225  0.5429
 8250SOL     OW36208   0.054   0.024   7.956 -0.0553  0.2807 -0.6758
 8250SOL    HW136209   0.004   0.037   7.875  0.5298  1.9278 -0.7713
 8250SOL    HW236210   4.721   4.686   8.007  0.4201  0.2796 -0.1765
 8251SOL     OW36211   0.541   4.220   4.559 -0.5068  0.2117  0.1088
 8251SOL    HW136212   0.555   4.125   4.564 -0.5032  0.1253 -1.4965
 8251SOL    HW236213   0.538   4.234   4.654  3.4405  1.6455 -0.0217
 8252SOL     OW36214   0.831   3.627   3.963 -0.0521 -0.1292 -0.1130
 8252SOL    HW136215   0.889   3.702   3.969 -1.3225  0.7350  1.1518
 8252SOL    HW236216   0.887   3.574   3.905  1.5640 -1.5217  2.6877
 8253SOL     OW36217   3.251   2.236  15.153 -0.6868  0.1386  0.1613
 8253SOL    HW136218   3.246   2.255  15.059 -0.8438  1.1553  0.3765
 8253SOL    HW236219   3.184   2.169  15.169 -0.3367 -0.2675 -0.0756
 8254SOL     OW36220   1.170   1.985  13.335 -0.2678 -0.2686  0.4167
 8254SOL    HW136221   1.257   1.953  13.312 -0.7718 -1.3966  0.0801
 8254SOL    HW236222   1.114   1.930  13.279 -0.4859  1.1848 -0.7871
 8255SOL     OW36223   2.921   3.063  10.163 -0.2681 -0.3199  0.1125
 8255SOL    HW136224   2.983   3.099  10.099  2.0739 -0.6956  2.2071
 8255SOL    HW236225   2.915   3.141  10.218 -1.1667 -0.8259  0.7424
 8256SOL     OW36226   4.053   4.012   4.105  0.7664 -0.5868 -0.5255
 8256SOL    HW136227   4.062   3.952   4.179 -0.6766  0.9171  0.8636
 8256SOL    HW236228   3.979   4.058   4.144  2.3271  1.4006  0.0455
 8257SOL     OW36229   4.103   3.956  11.268  0.2703  0.3274 -0.4490
 8257SOL    HW136230   4.120   3.926  11.357 -1.8172 -2.1022 -0.8809
 8257SOL    HW236231   4.052   3.887  11.226 -1.0446  1.0604 -0.0279
 8258SOL     OW36232   2.847   1.743  17.483  0.5443  0.1843 -0.1653
 8258SOL    HW136233   2.895   1.825  17.468  1.6308 -0.7852 -1.9165
 8258SOL    HW236234   2.794   1.735  17.404  0.0933 -2.6704  0.4555
 8259SOL     OW36235   1.855   4.459  11.953 -0.0843  0.4365 -0.2611
 8259SOL    HW136236   1.938   4.473  11.908 -0.1818  2.1402  0.0845
 8259SOL    HW236237   1.798   4.498  11.887  1.7125  0.5482 -1.7546
 8260SOL     OW36238   4.483   1.287   7.833  0.3206  0.1230 -0.3859
 8260SOL    HW136239   4.571   1.323   7.834  1.4265 -2.5832 -0.4907
 8260SOL    HW236240   4.476   1.231   7.911  0.1794  1.1664  0.3466
 8261SOL     OW36241   0.731   0.171  11.497 -0.0376 -0.1506 -0.3543
 8261SOL    HW136242   0.652   0.214  11.464 -0.4699 -0.3104  0.4543
 8261SOL    HW236243   0.749   0.099  11.436 -1.1507 -1.5639  0.9481
 8262SOL     OW36244   4.504   3.449   3.750 -0.3265 -0.0376 -0.3931
 8262SOL    HW136245   4.410   3.447   3.732 -0.4165  0.8173 -0.0610
 8262SOL    HW236246   4.518   3.539   3.779  0.1129  0.6550 -2.7505
 8263SOL     OW36247   2.598   2.753   3.949  0.2383 -0.8146 -0.3549
 8263SOL    HW136248   2.657   2.766   4.023  0.7294 -2.5184 -0.4522
 8263SOL    HW236249   2.657   2.701   3.894 -1.0387 -0.0066 -2.5012
 8264SOL     OW36250   3.404   3.064   5.462 -0.2276 -0.1147  0.1404
 8264SOL    HW136251   3.388   3.146   5.508  1.4669 -0.1053  0.7253
 8264SOL    HW236252   3.353   3.070   5.381 -1.5302  1.4123  1.0664
 8265SOL     OW36253   0.121   3.872  17.465 -0.5736 -0.3567  0.0276
 8265SOL    HW136254   0.031   3.878  17.431  0.2134  1.6415 -1.6968
 8265SOL    HW236255   0.172   3.857  17.386 -1.1251 -2.3997  0.0706
 8266SOL     OW36256   4.633   2.076  12.721 -0.0035 -0.2221 -0.4578
 8266SOL    HW136257   4.571   2.141  12.687  1.9850  1.0304 -1.6695
 8266SOL    HW236258   4.714   2.115  12.689 -1.2796  1.9834 -1.0654
 8267SOL     OW36259   1.976   3.757   3.647  0.2181 -0.0333  0.2763
 8267SOL    HW136260   1.954   3.748   3.554 -0.1229  0.5928  0.2942
 8267SOL    HW236261   2.069   3.737   3.647  0.7350  2.3874 -0.9410
 8268SOL     OW36262   2.104   2.380   1.974 -0.1536 -0.2486  0.1483
 8268SOL    HW136263   2.072   2.466   1.945  1.1407  0.5518  1.0521
 8268SOL    HW236264   2.089   2.325   1.897  0.3191  0.5179 -0.4970
 8269SOL     OW36265   4.169   1.759   3.167  0.2319  0.2666 -0.3807
 8269SOL    HW136266   4.189   1.742   3.259  2.9805  0.0555 -1.0060
 8269SOL    HW236267   4.082   1.798   3.176 -0.6147 -1.5057 -1.0305
 8270SOL     OW36268   4.013   3.845  10.485  0.2418 -0.2860 -0.0164
 8270SOL    HW136269   3.990   3.894  10.406 -0.3316 -0.8463 -0.1963
 8270SOL    HW236270   3.942   3.866  10.547 -1.2228 -1.3477 -1.3455
 8271SOL     OW36271   0.086   3.029  15.187  0.0279 -0.5474  0.3952
 8271SOL    HW136272   0.051   3.114  15.214  3.5659  0.9178  0.4984
 8271SOL    HW236273   0.164   3.028  15.243 -1.2327 -0.9140  2.1321
 8272SOL     OW36274   3.444   2.803  12.252 -0.2931 -0.4306  0.1834
 8272SOL    HW136275   3.381   2.862  12.210  0.3537  1.1086  1.3462
 8272SOL    HW236276   3.431   2.726  12.197  1.2421  0.0255 -0.8198
 8273SOL     OW36277   3.081   3.316   0.343 -0.2781 -0.0649 -0.8522
 8273SOL    HW136278   3.168   3.354   0.344 -0.9993  1.5759 -0.6948
 8273SOL    HW236279   3.021   3.389   0.356 -1.3477 -0.8792 -1.1683
 8274SOL     OW36280   0.154   2.287   8.241 -0.0142  0.3638 -0.1441
 8274SOL    HW136281   0.131   2.268   8.332  2.7420 -1.0469  0.2655
 8274SOL    HW236282   0.193   2.374   8.249 -0.4716  0.4443  1.2654
 8275SOL     OW36283   3.363   1.775  14.654 -0.4543  0.3008 -0.2065
 8275SOL    HW136284   3.380   1.862  14.691  2.4857  0.1732 -1.2556
 8275SOL    HW236285   3.438   1.763  14.595  0.9826  0.3685  1.5849
 8276SOL     OW36286   2.799   2.365   7.782 -0.3717  0.3506 -0.2822
 8276SOL    HW136287   2.841   2.338   7.700 -1.8599 -0.0795 -0.9016
 8276SOL    HW236288   2.844   2.447   7.802 -2.9603  1.5475  0.5647
 8277SOL     OW36289   3.380   1.880   4.251  0.1874  0.1304 -0.3845
 8277SOL    HW136290   3.342   1.797   4.279  2.1037 -0.9106 -0.8051
 8277SOL    HW236291   3.392   1.861   4.158 -0.2804  0.4557 -0.5067
 8278SOL     OW36292   4.434   0.812   7.881 -0.2921 -0.2624 -0.1270
 8278SOL    HW136293   4.379   0.866   7.826 -1.8701  0.4457  2.1301
 8278SOL    HW236294   4.362   0.762   7.921 -1.0201  2.9217  2.5329
 8279SOL     OW36295   0.716   3.494   8.897 -0.9120 -0.7268 -0.1107
 8279SOL    HW136296   0.727   3.566   8.959 -0.8267 -2.0847  1.4710
 8279SOL    HW236297   0.678   3.421   8.946  1.1385 -2.0401 -0.4445
 8280SOL     OW36298   2.348   3.925   3.100 -0.4595 -0.1672 -0.0445
 8280SOL    HW136299   2.364   3.991   3.167  1.4931 -1.9112  1.2055
 8280SOL    HW236300   2.381   3.969   3.022  1.9919 -0.5780  0.7745
 8281SOL     OW36301   2.875   0.570   3.182  0.0078  0.4930 -0.4252
 8281SOL    HW136302   2.913   0.552   3.096  1.0236  0.4794  0.0310
 8281SOL    HW236303   2.784   0.539   3.178 -0.1615  0.8641  0.5073
 8282SOL     OW36304   1.870   0.602  15.851  0.0725  0.5231  0.3022
 8282SOL    HW136305   1.833   0.516  15.873 -2.0697  1.6168  0.9591
 8282SOL    HW236306   1.819   0.619  15.772 -0.1079 -0.3176  0.2321
 8283SOL     OW36307   2.226   4.665  12.032 -0.4626  0.6064 -0.1914
 8283SOL    HW136308   2.217   4.703  11.944 -2.1961  0.5682 -0.0350
 8283SOL    HW236309   2.148   4.704  12.070 -0.2975  1.1837 -0.4392
 8284SOL     OW36310   2.198   0.337   1.877 -0.1672 -0.1878 -0.3950
 8284SOL    HW136311   2.250   0.274   1.827  0.6153  0.8389 -0.8600
 8284SOL    HW236312   2.240   0.420   1.856 -2.9830  1.0456 -1.2110
 8285SOL     OW36313   0.174   1.699   2.007 -0.6546  0.2536 -0.2177
 8285SOL    HW136314   0.269   1.707   2.004 -0.5130 -1.4568 -0.3089
 8285SOL    HW236315   0.146   1.757   1.936 -0.4653  1.1566  0.4425
 8286SOL     OW36316   0.167   0.443   6.073 -0.2595 -0.4437  0.5006
 8286SOL    HW136317   0.161   0.491   5.990 -0.2686 -3.5080 -1.2891
 8286SOL    HW236318   0.159   0.355   6.037 -1.5189  0.0766 -0.5225
 8287SOL     OW36319   0.653   0.609   7.973  0.1562 -0.2266 -0.3701
 8287SOL    HW136320   0.693   0.660   7.903  1.9544 -1.0260  0.0751
 8287SOL    HW236321   0.726   0.551   7.996  0.1905  0.9129  2.3368
 8288SOL     OW36322   0.156   0.597  12.927  0.6934 -0.2453  0.0950
 8288SOL    HW136323   0.184   0.687  12.911  2.1082 -1.2146 -2.9311
 8288SOL    HW236324   0.235   0.554  12.894  0.7004  0.3874 -0.7282
 8289SOL     OW36325   3.264   1.520  13.599 -0.1542 -0.5669 -0.9347
 8289SOL    HW136326   3.284   1.449  13.660 -1.4685  1.0383  1.3687
 8289SOL    HW236327   3.295   1.602  13.637 -1.6861  0.8653 -2.8400
 8290SOL     OW36328   2.382   3.365   5.431 -0.1741  0.6506 -0.2909
 8290SOL    HW136329   2.437   3.433   5.392  0.9114 -0.1735 -0.1736
 8290SOL    HW236330   2.418   3.290   5.384 -1.7396 -2.0872  2.9059
 8291SOL     OW36331   3.429   2.342   9.712  0.8608 -0.3943 -0.1386
 8291SOL    HW136332   3.379   2.334   9.793 -2.1206 -0.2303 -1.9330
 8291SOL    HW236333   3.376   2.406   9.664 -2.7118 -2.0345  1.6721
 8292SOL     OW36334   1.800   4.210   6.059  0.1918 -1.1000  0.3460
 8292SOL    HW136335   1.741   4.185   6.131  0.7448  0.3518  1.2898
 8292SOL    HW236336   1.745   4.193   5.983  0.8626 -0.7627 -0.2188
 8293SOL     OW36337   0.512   4.587   2.854  0.0872  0.4767  0.7940
 8293SOL    HW136338   0.547   4.583   2.943  2.5366 -1.0640 -0.2372
 8293SOL    HW236339   0.549   4.668   2.821  0.3908 -0.0749 -0.2429
 8294SOL     OW36340   2.985   3.110  11.056 -0.2827  0.8755  0.3954
 8294SOL    HW136341   2.923   3.183  11.057 -0.4257  0.7565  0.2659
 8294SOL    HW236342   3.035   3.125  11.136 -0.2821  0.1928  0.5208
 8295SOL     OW36343   4.297   2.258  11.600  0.1444  0.2760  0.7212
 8295SOL    HW136344   4.375   2.253  11.545 -1.1443 -1.0532 -0.9868
 8295SOL    HW236345   4.315   2.214  11.683  0.6508  0.2205  0.5778
 8296SOL     OW36346   2.574   0.216  17.123  0.4527 -0.1274  0.3270
 8296SOL    HW136347   2.616   0.163  17.054  0.6170 -0.1511  0.4449
 8296SOL    HW236348   2.578   0.166  17.205  1.6306  3.4635  2.4529
 8297SOL     OW36349   0.596   4.457   5.878 -0.1890 -0.6243 -0.1251
 8297SOL    HW136350   0.618   4.480   5.968 -0.2995 -1.9739  0.2504
 8297SOL    HW236351   0.505   4.437   5.900 -0.3689  1.9737  1.4642
 8298SOL     OW36352   3.089   0.362   6.817  0.2274  0.1290 -0.4186
 8298SOL    HW136353   3.082   0.297   6.747 -1.1439 -0.7396  0.5374
 8298SOL    HW236354   3.066   0.322   6.900 -0.3907 -0.4332 -0.8553
 8299SOL     OW36355   2.673   4.276  13.309 -0.2039  0.2054  0.6452
 8299SOL    HW136356   2.696   4.207  13.372 -1.9103  1.0579  2.1850
 8299SOL    HW236357   2.586   4.293  13.345 -1.0494 -0.6985 -0.9787
 8300SOL     OW36358   4.063   0.735   8.831 -0.0599  0.0918 -0.1956
 8300SOL    HW136359   4.004   0.763   8.902  0.5685  2.8362 -0.7512
 8300SOL    HW236360   4.021   0.652   8.808 -1.5722  1.3557 -1.9336
 8301SOL     OW36361   2.017   1.515  14.371  0.2260  0.6754 -0.3658
 8301SOL    HW136362   1.979   1.602  14.365 -1.5073 -0.2073 -2.2650
 8301SOL    HW236363   2.071   1.512  14.292  0.3377 -1.2928 -0.2205
 8302SOL     OW36364   2.152   3.844   7.687  0.0551  0.2846  0.0122
 8302SOL    HW136365   2.077   3.791   7.659  0.9701  0.3175 -2.4571
 8302SOL    HW236366   2.100   3.918   7.720  1.2462  0.8095  0.7067
 8303SOL     OW36367   1.935   2.596   3.137  0.3189 -0.1045  0.0201
 8303SOL    HW136368   2.004   2.643   3.090 -1.4227  1.1733 -1.2208
 8303SOL    HW236369   1.966   2.603   3.227 -1.2255  0.0395  0.5443
 8304SOL     OW36370   4.253   1.246   9.068 -0.1891  0.2832 -0.5845
 8304SOL    HW136371   4.221   1.191   9.140  1.6498 -0.3109 -0.2096
 8304SOL    HW236372   4.295   1.187   9.005 -0.2309 -0.5164  0.1317
 8305SOL     OW36373   4.236   1.519   0.140 -0.0914 -0.2565  0.2297
 8305SOL    HW136374   4.218   1.439   0.091 -1.1739 -2.6975  4.5886
 8305SOL    HW236375   4.180   1.584   0.098 -0.2518 -1.8052 -1.9430
 8306SOL     OW36376   2.414   4.663  12.885 -0.6269 -0.5439 -0.3728
 8306SOL    HW136377   2.501   4.624  12.893  0.0255  1.3520  1.6069
 8306SOL    HW236378   2.420   0.005  12.956  0.6119 -0.0357 -0.9401
 8307SOL     OW36379   1.138   4.129   5.476  0.0506 -0.0653 -0.1376
 8307SOL    HW136380   1.155   4.222   5.458 -0.6401  0.0549 -0.1887
 8307SOL    HW236381   1.077   4.130   5.550 -0.0527  1.1303 -0.2385
 8308SOL     OW36382   1.311   3.686   7.474  0.2331 -0.3713  0.0482
 8308SOL    HW136383   1.319   3.597   7.507  0.1387 -0.6469 -0.6939
 8308SOL    HW236384   1.399   3.723   7.479 -0.1874  0.6793 -0.2425
 8309SOL     OW36385   0.016   2.302   8.559 -0.2526  0.4516  0.5360
 8309SOL    HW136386   4.718   2.363   8.629 -1.5370  1.6502 -0.8635
 8309SOL    HW236387   0.055   2.235   8.614  0.8245  0.8565  0.2749
 8310SOL     OW36388   2.663   4.153   2.193  0.5431 -0.3639 -0.1221
 8310SOL    HW136389   2.676   4.058   2.186  0.5681 -0.1440 -2.8011
 8310SOL    HW236390   2.625   4.185   2.112 -0.3106  1.6073  1.0749
 8311SOL     OW36391   0.695   0.709  16.701  0.1972  0.3076 -0.7112
 8311SOL    HW136392   0.672   0.673  16.615 -0.2623  1.3037 -1.0024
 8311SOL    HW236393   0.727   0.626  16.738 -0.2295  0.2554 -0.4610
 8312SOL     OW36394   2.023   4.297   8.885 -0.4967 -0.3388  0.6169
 8312SOL    HW136395   1.961   4.330   8.820 -2.5714 -0.0944  2.7175
 8312SOL    HW236396   1.980   4.215   8.910 -0.8657 -0.6404 -1.0599
 8313SOL     OW36397   0.143   2.582   5.080  0.2254  0.1628 -0.1517
 8313SOL    HW136398   0.110   2.530   5.007 -1.0521 -0.2555  0.7339
 8313SOL    HW236399   0.238   2.580   5.066 -0.1356  1.4351 -2.8652
 8314SOL     OW36400   0.584   2.063  13.805  0.3409  0.0332  0.5476
 8314SOL    HW136401   0.589   1.971  13.830  1.0740  0.3530  1.5858
 8314SOL    HW236402   0.631   2.071  13.722  0.8082 -1.1498  0.7094
 8315SOL     OW36403   1.202   2.271   0.198 -0.0948  0.2631 -0.3772
 8315SOL    HW136404   1.147   2.323   0.257  0.4078 -1.4437  1.6078
 8315SOL    HW236405   1.229   2.194   0.249 -1.9191  1.8927  3.0723
 8316SOL     OW36406   3.149   4.032   4.292 -0.6216  0.7074 -0.2951
 8316SOL    HW136407   3.241   4.051   4.307  0.0199 -2.8812  0.2285
 8316SOL    HW236408   3.140   3.959   4.352  0.9360  0.4821 -0.3299
 8317SOL     OW36409   0.101   1.526   4.965  0.4726 -0.6804  0.6950
 8317SOL    HW136410   0.130   1.615   4.985  0.3303 -0.5402  0.2704
 8317SOL    HW236411   0.172   1.487   4.914  0.7354 -0.1675  0.6674
 8318SOL     OW36412   2.619   0.778   8.260  0.2873  0.3221 -0.1802
 8318SOL    HW136413   2.557   0.704   8.262  0.6618  0.0429  1.5913
 8318SOL    HW236414   2.575   0.847   8.211  0.7064  0.4349 -0.3928
 8319SOL     OW36415   2.256   0.564  15.148  0.1041  0.3502 -0.3635
 8319SOL    HW136416   2.171   0.556  15.105 -0.1389  1.4528 -0.0834
 8319SOL    HW236417   2.320   0.520  15.093 -1.7292 -1.1599 -1.3072
 8320SOL     OW36418   1.879   4.332   1.434  0.2241  0.2394  0.2346
 8320SOL    HW136419   1.803   4.313   1.488 -1.7311  4.8982 -0.9002
 8320SOL    HW236420   1.904   4.422   1.453 -1.8425  1.0482 -0.8186
 8321SOL     OW36421   3.744   2.276   6.781  0.6532 -0.2403  0.3133
 8321SOL    HW136422   3.786   2.354   6.818  0.9448  1.4613 -3.6608
 8321SOL    HW236423   3.769   2.278   6.689 -2.6358  0.2141 -0.5456
 8322SOL     OW36424   0.746   1.821   3.961 -0.6532  0.2695 -0.1467
 8322SOL    HW136425   0.729   1.881   4.033  1.7010  0.3577  0.3452
 8322SOL    HW236426   0.731   1.873   3.883 -1.7453 -0.1229 -0.1894
 8323SOL     OW36427   4.068   0.549   9.260 -0.1519  0.6161  0.5156
 8323SOL    HW136428   4.073   0.453   9.258 -2.8841  0.4640  1.1927
 8323SOL    HW236429   4.146   0.559   9.313 -0.1544 -1.6254  0.9343
 8324SOL     OW36430   1.024   0.741  13.025 -0.1764  0.2900  0.2752
 8324SOL    HW136431   1.042   0.835  13.014 -0.1533  0.2683  0.1290
 8324SOL    HW236432   1.100   0.716  13.077 -0.8884 -0.2708  1.0398
 8325SOL     OW36433   0.513   4.708  13.533  0.4868 -0.3761  0.0538
 8325SOL    HW136434   0.603   0.012  13.556 -0.1804  2.0861 -0.0115
 8325SOL    HW236435   0.516   4.709  13.437 -2.5014 -0.2152 -0.0113
 8326SOL     OW36436   2.181   1.441  15.662 -0.1302 -0.6263  0.4448
 8326SOL    HW136437   2.174   1.367  15.722 -1.1318 -1.7065 -0.9796
 8326SOL    HW236438   2.267   1.482  15.670  0.4642 -1.8722  0.5273
 8327SOL     OW36439   2.576   0.382   7.569  0.9382 -0.5628 -0.0292
 8327SOL    HW136440   2.519   0.403   7.643  0.3079 -1.2179 -0.3213
 8327SOL    HW236441   2.641   0.452   7.580 -0.8829  1.2959 -0.9465
 8328SOL     OW36442   4.647   1.944   4.033  0.7565 -0.4290 -1.0260
 8328SOL    HW136443   4.689   1.906   3.956 -0.2481 -3.7560  0.0876
 8328SOL    HW236444   4.622   1.869   4.086 -1.7542 -0.3069 -2.0004
 8329SOL     OW36445   0.302   2.476   2.452 -0.4276  0.0238 -0.2373
 8329SOL    HW136446   0.266   2.392   2.479  0.2962 -0.2501 -0.1125
 8329SOL    HW236447   0.394   2.453   2.467 -0.3481  0.1142 -0.5680
 8330SOL     OW36448   2.525   1.159   8.287  0.8921 -0.6126 -0.0883
 8330SOL    HW136449   2.528   1.099   8.361  2.7393 -0.8758 -0.3814
 8330SOL    HW236450   2.604   1.212   8.299 -0.6744  2.0907 -1.5771
 8331SOL     OW36451   1.013   4.427  15.183  0.3262  0.5692  0.4232
 8331SOL    HW136452   0.984   4.473  15.262  1.0899  1.6020  0.1093
 8331SOL    HW236453   1.109   4.428  15.189  0.2191 -3.0428  2.8966
 8332SOL     OW36454   4.336   1.151   8.507  0.4307  0.2459 -0.4981
 8332SOL    HW136455   4.412   1.141   8.564 -0.2100  0.0307  0.3180
 8332SOL    HW236456   4.286   1.075   8.536 -1.0463  2.0988  1.8209
 8333SOL     OW36457   2.790   1.108  13.572 -0.0627 -0.4146 -1.1242
 8333SOL    HW136458   2.843   1.067  13.503 -1.0622 -1.8520 -1.0363
 8333SOL    HW236459   2.845   1.175  13.614 -2.2295  0.8880 -0.3119
 8334SOL     OW36460   1.975   2.961  11.754 -0.1277 -0.0148 -0.1709
 8334SOL    HW136461   1.975   2.867  11.770  0.4399  0.2657  1.5433
 8334SOL    HW236462   1.882   2.980  11.772 -0.9400 -1.5155 -2.8164
 8335SOL     OW36463   1.677   1.006   8.653 -0.5676  0.2971 -0.3857
 8335SOL    HW136464   1.689   0.974   8.742 -2.9910 -1.0135 -0.5319
 8335SOL    HW236465   1.765   1.038   8.634 -0.6684  1.0811  0.4807
 8336SOL     OW36466   3.697   2.344  17.293 -0.0215 -0.4949  0.9234
 8336SOL    HW136467   3.788   2.367  17.276 -0.4999  1.4766  1.0262
 8336SOL    HW236468   3.712   2.259  17.333  0.9869 -0.0132  1.5709
 8337SOL     OW36469   0.990   0.253   3.259  0.0983 -1.0243  0.6348
 8337SOL    HW136470   0.986   0.301   3.342 -0.6193 -0.7769  0.4569
 8337SOL    HW236471   0.981   0.166   3.297 -0.1448 -1.6316 -0.7998
 8338SOL     OW36472   2.559   3.403  16.754  0.4477 -0.0619  0.0044
 8338SOL    HW136473   2.562   3.378  16.662  1.3233  2.1014 -0.5468
 8338SOL    HW236474   2.613   3.336  16.796 -1.8118 -1.2898  0.9949
 8339SOL     OW36475   2.691   0.674   9.635  0.3266  0.3624  0.4637
 8339SOL    HW136476   2.707   0.716   9.719  0.2661 -1.1081  1.2055
 8339SOL    HW236477   2.733   0.590   9.655 -1.8175 -0.6118  0.8408
 8340SOL     OW36478   3.412   3.118   8.058  0.3025 -0.3249  0.1402
 8340SOL    HW136479   3.470   3.174   8.006  0.5470 -0.4393  0.2863
 8340SOL    HW236480   3.480   3.076   8.111  2.5048  0.0079 -2.3671
 8341SOL     OW36481   2.296   0.755   5.305  0.2647  0.0059 -0.2378
 8341SOL    HW136482   2.221   0.762   5.364 -0.7781 -2.3209 -1.2817
 8341SOL    HW236483   2.366   0.720   5.361  2.5299  2.3520 -1.6228
 8342SOL     OW36484   3.879   0.572   6.787 -0.1303 -0.0659  0.2419
 8342SOL    HW136485   3.910   0.514   6.857 -0.4889  2.2785  2.3547
 8342SOL    HW236486   3.868   0.656   6.831 -1.9720 -1.5056  2.5412
 8343SOL     OW36487   2.053   2.052  17.669 -0.6961  0.3866  0.0062
 8343SOL    HW136488   2.103   2.039   0.061 -0.6775  1.0995  0.1084
 8343SOL    HW236489   2.032   1.960  17.652  1.0757 -0.8295  4.2721
 8344SOL     OW36490   0.023   2.597  17.293 -0.0278  0.9992 -0.2726
 8344SOL    HW136491   0.072   2.532  17.344 -2.7105 -0.1476  0.8301
 8344SOL    HW236492   0.076   2.604  17.214 -0.0757 -3.4174 -0.7062
 8345SOL     OW36493   1.660   4.383   8.178  0.1829  0.5509 -0.5572
 8345SOL    HW136494   1.583   4.351   8.130 -0.4986  0.3574  0.6777
 8345SOL    HW236495   1.637   4.468   8.216  0.6821  0.6629 -0.5082
 8346SOL     OW36496   1.051   0.058   5.297 -0.3263 -0.2566  0.1411
 8346SOL    HW136497   1.066   0.032   5.388  0.5432  1.0569  0.3732
 8346SOL    HW236498   1.055   0.154   5.299  1.3444 -0.3711  1.6925
 8347SOL     OW36499   3.311   0.636   5.946 -0.1661  0.6654  0.4924
 8347SOL    HW136500   3.228   0.683   5.955 -0.2132  0.8661 -0.9627
 8347SOL    HW236501   3.277   0.547   5.942 -0.5644  0.9713 -3.0560
 8348SOL     OW36502   0.975   4.610  11.330  0.2275 -0.3872  0.0613
 8348SOL    HW136503   0.882   4.599  11.351  0.2180  0.2602  0.3521
 8348SOL    HW236504   0.963   4.612  11.235 -2.0478  2.5469  0.4144
 8349SOL     OW36505   0.002   2.543  11.540 -0.2644  0.1556 -0.2922
 8349SOL    HW136506   0.043   2.459  11.522 -0.6318  0.0597 -0.6970
 8349SOL    HW236507   4.661   2.522  11.610  0.5802 -1.6830 -0.1133
 8350SOL     OW36508   1.573   3.489   3.756 -0.2680 -0.3150 -0.4610
 8350SOL    HW136509   1.537   3.512   3.842  2.3207  0.1679  0.5061
 8350SOL    HW236510   1.534   3.557   3.702  1.9358 -1.2394 -3.1885
 8351SOL     OW36511   3.847   1.631   6.319 -0.1612 -0.5561  0.1266
 8351SOL    HW136512   3.922   1.641   6.378 -0.4148 -1.7935  0.6411
 8351SOL    HW236513   3.887   1.580   6.249  1.1146 -0.6786  0.9485
 8352SOL     OW36514   3.673   3.781  16.426  0.0892  0.1384  1.1675
 8352SOL    HW136515   3.642   3.723  16.356  1.6384 -1.5434  1.8814
 8352SOL    HW236516   3.618   3.748  16.496  0.4010 -3.5066 -0.2957
 8353SOL     OW36517   4.163   1.382   6.893  0.3062 -0.2133  0.0574
 8353SOL    HW136518   4.148   1.451   6.828  0.9145 -0.3672 -0.2474
 8353SOL    HW236519   4.192   1.317   6.828 -0.4155  1.0327 -1.5072
 8354SOL     OW36520   0.830   2.722   7.425  0.1235  0.0957  0.1109
 8354SOL    HW136521   0.754   2.724   7.482 -0.8195  0.0874 -1.1490
 8354SOL    HW236522   0.891   2.772   7.479  1.6915  0.2720 -1.8180
 8355SOL     OW36523   1.213   1.908  14.090  0.9431  0.2074 -0.3673
 8355SOL    HW136524   1.162   1.967  14.145  1.5918  2.0730 -1.8003
 8355SOL    HW236525   1.144   1.871  14.035  0.3394 -0.3152  0.7397
 8356SOL     OW36526   4.012   2.975   5.585  0.1692 -0.0755 -0.4221
 8356SOL    HW136527   4.082   2.985   5.521  0.2829 -1.6663 -0.5603
 8356SOL    HW236528   3.979   3.064   5.579 -1.5612 -0.7068 -0.3526
 8357SOL     OW36529   0.821   0.848   1.002  0.2780  0.0781 -0.0130
 8357SOL    HW136530   0.783   0.780   1.057 -3.2404  2.2855  0.2461
 8357SOL    HW236531   0.820   0.923   1.062  4.7233 -0.6391  0.9565
 8358SOL     OW36532   3.966   4.256   1.902 -0.1658  0.0248  0.2019
 8358SOL    HW136533   3.940   4.334   1.951 -0.4098  0.8781 -1.2867
 8358SOL    HW236534   4.019   4.213   1.969  0.6172  0.7165  0.0219
 8359SOL     OW36535   3.824   3.537   3.994 -0.0933  0.2468  0.0645
 8359SOL    HW136536   3.897   3.596   3.972  1.0728 -0.2465  2.6089
 8359SOL    HW236537   3.759   3.593   4.036  2.4145  2.4858  0.9507
 8360SOL     OW36538   2.607   2.633   8.095 -0.5841 -0.0176 -0.0575
 8360SOL    HW136539   2.655   2.664   8.172 -0.5102 -0.2796  0.0011
 8360SOL    HW236540   2.665   2.657   8.023 -0.6574  2.1374  0.6006
 8361SOL     OW36541   2.506   3.211   1.142  0.2511 -0.1466 -0.3007
 8361SOL    HW136542   2.515   3.188   1.050  1.8829  1.9528 -0.6548
 8361SOL    HW236543   2.594   3.202   1.177  0.1170  1.1960  0.3951
 8362SOL     OW36544   0.977   2.865   8.630 -0.6343  0.1650  0.1107
 8362SOL    HW136545   0.995   2.896   8.719  0.2718 -0.2041  0.0617
 8362SOL    HW236546   0.890   2.829   8.647 -0.5282  0.1891  0.7196
 8363SOL     OW36547   2.062   4.054   5.214 -0.8059  0.0662  0.3239
 8363SOL    HW136548   2.155   4.066   5.232 -1.1142  0.9868  1.3026
 8363SOL    HW236549   2.018   4.065   5.299 -1.5850 -0.0472 -0.0644
 8364SOL     OW36550   1.667   1.787   3.430  0.4193 -0.0527  0.7086
 8364SOL    HW136551   1.587   1.824   3.394 -0.7858 -1.4337  1.9693
 8364SOL    HW236552   1.722   1.836   3.368  0.3379 -1.3447 -0.3901
 8365SOL     OW36553   3.810   4.408  14.257 -0.7192  0.0157  0.4265
 8365SOL    HW136554   3.884   4.358  14.221  0.6932  2.2068  0.2949
 8365SOL    HW236555   3.735   4.377  14.206 -1.8866  1.5318  1.2515
 8366SOL     OW36556   3.119   1.761  16.641 -0.5133 -0.4981  0.5804
 8366SOL    HW136557   3.201   1.722  16.610 -0.0775 -0.4345  1.6582
 8366SOL    HW236558   3.122   1.855  16.622 -0.9343 -0.5899  0.0636
 8367SOL     OW36559   2.636   0.581  14.191 -0.9643 -0.1277  0.3075
 8367SOL    HW136560   2.594   0.655  14.236  1.2881  0.0815  2.0994
 8367SOL    HW236561   2.565   0.546  14.138 -0.2302 -2.3863  0.8342
 8368SOL     OW36562   1.856   4.384   8.695  0.2999 -0.4157 -0.4119
 8368SOL    HW136563   1.791   4.450   8.717  1.5475  0.9263 -0.7667
 8368SOL    HW236564   1.852   4.382   8.599 -2.8865  1.0177 -0.3118
 8369SOL     OW36565   3.089   3.673   7.318  0.2770 -0.5162  0.1248
 8369SOL    HW136566   3.103   3.607   7.251  2.1462 -0.5167  0.5198
 8369SOL    HW236567   3.060   3.618   7.391  0.0654  0.0449  0.4689
 8370SOL     OW36568   0.794   0.148   4.733  0.1670 -0.0510  0.1829
 8370SOL    HW136569   0.876   0.114   4.697 -0.7280 -1.0122 -0.9517
 8370SOL    HW236570   0.783   0.228   4.681 -2.0142  0.0392  0.7922
 8371SOL     OW36571   4.648   2.498   6.548  0.8284  0.6620 -0.3518
 8371SOL    HW136572   4.721   2.446   6.514  0.7487 -0.1667  0.7690
 8371SOL    HW236573   4.692   2.561   6.605  1.4775  0.6494 -0.8333
 8372SOL     OW36574   2.842   0.186   8.757  0.6871  0.1067 -0.5041
 8372SOL    HW136575   2.777   0.141   8.811 -0.3104  3.7678  1.3671
 8372SOL    HW236576   2.817   0.156   8.670 -3.0525 -1.7567  1.1955
 8373SOL     OW36577   2.520   1.338   6.457  0.2066  0.6536 -0.2842
 8373SOL    HW136578   2.489   1.279   6.387  0.5025 -0.2687  0.3678
 8373SOL    HW236579   2.441   1.363   6.504  0.3079 -0.5619  0.5320
 8374SOL     OW36580   4.321   3.005  10.838 -0.2734  0.1109 -0.1025
 8374SOL    HW136581   4.400   2.953  10.826 -0.5523 -0.6855  1.5046
 8374SOL    HW236582   4.268   2.965  10.769 -1.0886  1.1436 -0.0735
 8375SOL     OW36583   1.044   2.891   6.948 -0.3427 -0.0645  0.6339
 8375SOL    HW136584   1.013   2.907   6.859  1.6189 -1.9927 -0.3914
 8375SOL    HW236585   1.138   2.908   6.941 -0.0925 -2.4497 -1.6834
 8376SOL     OW36586   2.908   4.271   5.120  0.3728  0.1499 -0.0453
 8376SOL    HW136587   3.000   4.247   5.115  0.5064  0.7834 -0.5657
 8376SOL    HW236588   2.873   4.207   5.182 -1.9475  1.3373 -0.1199
 8377SOL     OW36589   3.731   0.545   3.028 -0.4490  0.2631  0.2859
 8377SOL    HW136590   3.811   0.597   3.015 -0.4690 -0.4860 -2.9629
 8377SOL    HW236591   3.686   0.598   3.093 -1.8430 -0.2517 -0.2771
 8378SOL     OW36592   1.085   0.036   0.087  0.0243 -0.1380 -0.8498
 8378SOL    HW136593   1.174   0.055   0.056  0.9207 -0.5473  1.5085
 8378SOL    HW236594   1.087   4.662   0.084 -0.4274 -0.2111  1.0600
 8379SOL     OW36595   0.058   0.091   0.200 -0.0258 -0.2945  0.0343
 8379SOL    HW136596   0.142   0.088   0.246  0.0323  0.9189  0.0017
 8379SOL    HW236597   0.085   0.139   0.122  1.3771  0.9303  1.2729
 8380SOL     OW36598   0.431   1.490   8.783  0.3569 -0.0911 -0.1557
 8380SOL    HW136599   0.410   1.571   8.830 -1.4158 -1.2646  1.0460
 8380SOL    HW236600   0.354   1.448   8.745  1.2251 -1.1309 -0.7769
 8381SOL     OW36601   0.717   3.440  11.034  0.2325  0.3662 -0.2733
 8381SOL    HW136602   0.646   3.416  11.094  1.3795 -1.7517  0.2535
 8381SOL    HW236603   0.693   3.532  11.024  1.7866  0.9264  1.0297
 8382SOL     OW36604   4.140   0.684  10.255 -0.3529  0.5002  0.2937
 8382SOL    HW136605   4.085   0.757  10.225  1.2625  2.1537  1.3591
 8382SOL    HW236606   4.214   0.675  10.195  0.1453  1.5863  0.7470
 8383SOL     OW36607   3.185   2.279  16.704 -0.1747 -0.0885  0.1640
 8383SOL    HW136608   3.273   2.256  16.732 -0.7866 -1.7733  0.7017
 8383SOL    HW236609   3.148   2.317  16.784  1.1927  1.4026  0.0909
 8384SOL     OW36610   2.319   3.398   1.172 -0.0375 -0.2732  0.2773
 8384SOL    HW136611   2.401   3.363   1.205 -0.2806 -2.5532 -1.6014
 8384SOL    HW236612   2.332   3.483   1.129  0.6464 -0.2197  0.5976
 8385SOL     OW36613   0.149   2.106  17.175 -0.1857  1.4416  0.3546
 8385SOL    HW136614   0.151   2.057  17.093  0.6885  0.7579  0.7888
 8385SOL    HW236615   0.150   2.025  17.226 -3.9615 -0.4299 -2.5389
 8386SOL     OW36616   3.601   0.828   7.841 -0.0813 -0.3808 -0.6721
 8386SOL    HW136617   3.516   0.791   7.867  0.3746 -0.8499  0.1499
 8386SOL    HW236618   3.645   0.749   7.811  0.3946 -0.2512 -0.3276
 8387SOL     OW36619   2.451   4.045   9.619 -0.1617 -1.0958  0.7740
 8387SOL    HW136620   2.365   4.038   9.659 -1.3413  1.7188 -1.2935
 8387SOL    HW236621   2.506   4.055   9.697  1.4192 -1.7312 -0.2525
 8388SOL     OW36622   1.362   2.879  12.560 -0.0938  0.2767  0.1252
 8388SOL    HW136623   1.404   2.802  12.521 -1.2787 -0.0582 -0.5130
 8388SOL    HW236624   1.269   2.858  12.546  0.7201 -1.1946 -3.1149
 8389SOL     OW36625   3.660   3.194  14.664  0.6159 -0.4394 -0.1901
 8389SOL    HW136626   3.601   3.169  14.593 -0.6574  1.7691  0.0887
 8389SOL    HW236627   3.737   3.207  14.608  0.5302 -0.1619 -0.2428
 8390SOL     OW36628   4.517   1.329   0.922  0.2733 -0.0683  0.4166
 8390SOL    HW136629   4.494   1.256   0.980  1.1374 -0.7757 -0.1309
 8390SOL    HW236630   4.612   1.338   0.925  0.4890 -0.9303 -3.2191
 8391SOL     OW36631   1.953   4.022   2.813  0.0130  0.1871  0.2433
 8391SOL    HW136632   1.889   4.002   2.744  0.3763  2.6028 -0.7928
 8391SOL    HW236633   1.946   3.943   2.867 -2.6207 -0.3964 -0.9513
 8392SOL     OW36634   4.635   4.419  14.768 -0.5670 -0.1281 -0.2568
 8392SOL    HW136635   4.665   4.332  14.795 -0.0819  0.5025  1.2397
 8392SOL    HW236636   4.562   4.425  14.829 -0.6061  3.1205 -0.6414
 8393SOL     OW36637   1.791   0.273   2.245  0.5067  0.3219 -0.0563
 8393SOL    HW136638   1.786   0.206   2.314  0.2129  0.7744  0.3608
 8393SOL    HW236639   1.883   0.262   2.221  0.5405 -0.2935  0.3388
 8394SOL     OW36640   0.750   4.314   7.804  0.4904  0.4724  0.1594
 8394SOL    HW136641   0.677   4.277   7.852  0.1227 -0.5731 -1.1970
 8394SOL    HW236642   0.741   4.260   7.725  1.8153  1.0435 -0.3843
 8395SOL     OW36643   1.605   3.993   2.032 -0.6638 -0.4972 -0.5069
 8395SOL    HW136644   1.591   4.084   2.056  1.1812 -0.3941  0.2141
 8395SOL    HW236645   1.585   3.996   1.939  0.7463 -0.7110 -0.8185
 8396SOL     OW36646   1.105   3.307   8.519  0.5994  0.4082  0.0137
 8396SOL    HW136647   1.166   3.247   8.562 -0.6257 -0.5205  0.4548
 8396SOL    HW236648   1.026   3.253   8.515  1.8140 -1.2893 -0.7504
 8397SOL     OW36649   4.222   0.246   1.244  0.3761 -0.2197  0.0826
 8397SOL    HW136650   4.254   0.218   1.329  0.4198 -3.3000 -0.9424
 8397SOL    HW236651   4.226   0.341   1.243 -2.5076 -0.1139 -1.9763
 8398SOL     OW36652   1.948   4.522  11.421 -0.4617 -0.2217  0.0388
 8398SOL    HW136653   2.016   4.461  11.450  1.0653  1.2908 -0.3907
 8398SOL    HW236654   1.937   4.486  11.333 -0.3473  0.9805 -0.4734
 8399SOL     OW36655   1.239   3.996   6.058 -0.5323 -0.1373  0.7174
 8399SOL    HW136656   1.200   4.033   6.137 -1.6446 -1.4678  0.7913
 8399SOL    HW236657   1.323   3.970   6.096 -0.0082 -0.3061 -0.5863
 8400SOL     OW36658   3.549   1.721   1.939  0.4525 -0.5182  0.3867
 8400SOL    HW136659   3.625   1.717   1.996 -0.4400  2.0818  1.7756
 8400SOL    HW236660   3.553   1.814   1.916 -0.1230 -0.6833 -0.4109
 8401SOL     OW36661   2.937   2.400  11.383 -0.3427  0.4873  0.1784
 8401SOL    HW136662   2.998   2.338  11.422 -0.6826 -0.0421 -0.1294
 8401SOL    HW236663   2.912   2.457  11.456 -1.5713 -1.0520  0.9362
 8402SOL     OW36664   0.021   2.452  13.301 -0.4169 -0.1586 -0.0649
 8402SOL    HW136665   0.015   2.449  13.397  0.4897 -3.0018 -0.1151
 8402SOL    HW236666   0.081   2.524  13.284  0.4983 -1.3747 -2.0386
 8403SOL     OW36667   4.685   1.735   7.785 -0.4905  0.0618 -0.0958
 8403SOL    HW136668   4.599   1.692   7.784 -0.0293 -0.8917  0.6653
 8403SOL    HW236669   4.688   1.789   7.865 -0.4776 -1.6120  1.0348
 8404SOL     OW36670   1.765   3.033   4.500  0.1826  0.1905  0.6790
 8404SOL    HW136671   1.674   3.018   4.476  0.3680 -2.4407  1.6234
 8404SOL    HW236672   1.758   3.125   4.527  1.7669  0.5173 -0.0079
 8405SOL     OW36673   0.372   3.174   1.587 -0.2141 -0.2105 -0.0847
 8405SOL    HW136674   0.308   3.240   1.561 -1.7775 -2.1151 -1.1153
 8405SOL    HW236675   0.398   3.225   1.663  0.0854  0.3487 -0.5618
 8406SOL     OW36676   0.768   1.001   4.584  0.0138  0.7657 -0.4288
 8406SOL    HW136677   0.747   0.956   4.666 -1.2721 -0.6648 -1.5345
 8406SOL    HW236678   0.759   1.091   4.615  1.2032  1.2390 -1.4641
 8407SOL     OW36679   0.724   3.369  16.300 -0.5536  0.1902  0.5790
 8407SOL    HW136680   0.819   3.353  16.294 -0.0792  2.9098  0.4637
 8407SOL    HW236681   0.689   3.281  16.304 -0.3398  0.1134  0.7989
 8408SOL     OW36682   1.002   2.932   5.265 -0.3943  0.0689  0.4635
 8408SOL    HW136683   0.914   2.953   5.233 -0.8027 -1.3943  0.5953
 8408SOL    HW236684   1.045   3.009   5.229  2.1394 -1.0754  1.0417
 8409SOL     OW36685   3.768   3.551   0.119  0.3631 -0.0065 -0.6582
 8409SOL    HW136686   3.718   3.622   0.159  1.4717 -0.8682  2.2412
 8409SOL    HW236687   3.698   3.486   0.124  2.8385 -2.4675  1.8010
 8410SOL     OW36688   4.120   2.925   3.558 -0.3706 -0.5054 -0.5978
 8410SOL    HW136689   4.184   2.960   3.620 -0.4195  3.0593 -2.6040
 8410SOL    HW236690   4.042   2.977   3.578 -0.5562 -0.7459 -0.6839
 8411SOL     OW36691   4.230   1.847   3.421 -0.0688 -0.0162  0.6300
 8411SOL    HW136692   4.196   1.862   3.509 -0.8260  3.0031 -0.1864
 8411SOL    HW236693   4.320   1.875   3.437 -0.8819  3.8960 -1.5849
 8412SOL     OW36694   3.960   2.410   1.629 -0.9310  0.8658 -0.1987
 8412SOL    HW136695   4.042   2.376   1.592 -0.5097  1.3784  0.2480
 8412SOL    HW236696   3.959   2.371   1.716  1.7897  0.7568 -0.2067
 8413SOL     OW36697   1.468   4.092   9.125  0.5071 -0.4392  0.2039
 8413SOL    HW136698   1.457   4.175   9.078  0.0973 -1.0338 -0.7525
 8413SOL    HW236699   1.460   4.125   9.214 -0.8131  0.3937 -0.2180
 8414SOL     OW36700   4.294   4.136  17.645  0.4028 -0.3697 -0.0806
 8414SOL    HW136701   4.235   4.175  17.581 -0.7330 -0.5628  0.8539
 8414SOL    HW236702   4.268   4.044  17.641 -0.9006 -0.0344  0.8517
 8415SOL     OW36703   1.255   0.231   2.395  0.2158 -0.0104 -0.5165
 8415SOL    HW136704   1.338   0.186   2.413  0.1285  0.6363  1.5157
 8415SOL    HW236705   1.215   0.193   2.473  2.5757  1.5521  1.4503
 8416SOL     OW36706   4.515   4.282   3.497 -0.3173  0.2782  0.3804
 8416SOL    HW136707   4.491   4.238   3.578  2.3287  1.6936  1.9569
 8416SOL    HW236708   4.467   4.363   3.518  1.0988  1.3162 -0.3455
 8417SOL     OW36709   0.416   2.622  16.027 -0.0521  0.2401  0.5827
 8417SOL    HW136710   0.443   2.706  16.065  1.6390 -0.6829  1.4403
 8417SOL    HW236711   0.467   2.635  15.947  1.2927  1.6377  1.6688
 8418SOL     OW36712   3.319   2.790   2.317  0.0430 -0.0374  0.4403
 8418SOL    HW136713   3.281   2.703   2.309  0.9705 -0.3156 -1.0982
 8418SOL    HW236714   3.253   2.849   2.355 -0.0861  0.7453 -0.9796
 8419SOL     OW36715   2.005   1.103   5.641  0.2264 -0.2886  0.1403
 8419SOL    HW136716   1.980   1.061   5.723  2.4651 -0.4751  0.7127
 8419SOL    HW236717   1.928   1.092   5.585  2.2924 -1.6502 -2.3922
 8420SOL     OW36718   3.874   4.177   8.432 -0.5940 -0.2998  0.3730
 8420SOL    HW136719   3.952   4.218   8.395  0.3764 -0.8053  1.8502
 8420SOL    HW236720   3.907   4.148   8.517  0.8007  0.5827  0.1396
 8421SOL     OW36721   3.032   2.769  12.073 -0.8908  0.0405  0.0181
 8421SOL    HW136722   2.974   2.801  12.003 -1.0249 -0.0830  0.0722
 8421SOL    HW236723   2.965   2.738  12.134 -0.9846  0.7525  0.2874
 8422SOL     OW36724   1.626   4.600   4.710  1.0052  0.4117 -0.0838
 8422SOL    HW136725   1.553   4.550   4.673 -0.3326  0.9905  1.7582
 8422SOL    HW236726   1.586   4.677   4.750 -1.1271 -1.0469  0.5829
 8423SOL     OW36727   4.086   1.758   9.115 -0.6081 -0.2261 -0.5698
 8423SOL    HW136728   4.171   1.801   9.127 -0.1926 -1.6121  1.3371
 8423SOL    HW236729   4.076   1.717   9.201 -0.4955 -0.4107 -0.6456
 8424SOL     OW36730   4.428   3.424   2.832  0.3519  0.3520 -0.2000
 8424SOL    HW136731   4.378   3.496   2.795  1.6445  1.6078  0.4637
 8424SOL    HW236732   4.514   3.462   2.816 -0.5578  2.4091 -0.1871
 8425SOL     OW36733   2.666   0.860   2.082  0.2435  0.0588 -0.4129
 8425SOL    HW136734   2.574   0.842   2.065  0.5145 -0.6300 -1.1206
 8425SOL    HW236735   2.674   0.940   2.030 -1.8228  0.2694 -0.3959
 8426SOL     OW36736   3.960   1.026   5.416  0.4448  0.2103  0.5915
 8426SOL    HW136737   4.005   1.032   5.501  1.4375 -2.3420  0.2311
 8426SOL    HW236738   4.022   0.973   5.366 -2.1235 -0.2699 -2.0912
 8427SOL     OW36739   2.916   2.746   2.402  0.4185 -0.4490  0.3596
 8427SOL    HW136740   2.825   2.774   2.398  0.9004  1.0690  0.1631
 8427SOL    HW236741   2.956   2.803   2.336 -0.9164  0.1639  0.0858
 8428SOL     OW36742   1.409   0.924  12.190 -0.0807 -0.0734  0.1778
 8428SOL    HW136743   1.436   0.922  12.282  1.4922  0.2651 -0.2648
 8428SOL    HW236744   1.491   0.953  12.150 -0.6693 -2.3587 -2.6906
 8429SOL     OW36745   2.861   3.015  17.056  0.3206  0.0666  0.1914
 8429SOL    HW136746   2.796   2.953  17.024  0.0503  1.5942 -2.2035
 8429SOL    HW236747   2.935   2.989  17.002  0.9638  3.4983 -0.5887
 8430SOL     OW36748   1.868   1.787  17.299 -0.6800  0.2301 -0.6543
 8430SOL    HW136749   1.897   1.720  17.361 -2.2522  0.7129  0.6041
 8430SOL    HW236750   1.943   1.847  17.310 -0.8607  0.5722 -1.3303
 8431SOL     OW36751   4.545   2.586   0.351  0.2703  0.0389  0.6436
 8431SOL    HW136752   4.621   2.537   0.322 -0.0005  1.0086 -1.6536
 8431SOL    HW236753   4.543   2.554   0.442  2.8897  1.1140  1.0875
 8432SOL     OW36754   1.611   3.491  11.297 -0.4314  0.8534 -0.2300
 8432SOL    HW136755   1.651   3.413  11.260  0.7192  0.5273  1.7479
 8432SOL    HW236756   1.531   3.452  11.331  0.4097 -0.1592  0.5629
 8433SOL     OW36757   1.401   0.030   8.275 -0.8262 -0.8331 -0.8794
 8433SOL    HW136758   1.342   4.677   8.286 -0.1696 -1.0499  1.1771
 8433SOL    HW236759   1.376   0.045   8.184 -0.7772 -0.7216 -0.8748
 8434SOL     OW36760   1.580   1.480   7.858 -0.2110 -0.4038  0.2026
 8434SOL    HW136761   1.513   1.443   7.802 -0.4928 -0.3558  0.5095
 8434SOL    HW236762   1.542   1.568   7.871  0.8104 -0.1212  1.3343
 8435SOL     OW36763   2.866   3.367  15.392 -0.7370 -0.2932  0.2175
 8435SOL    HW136764   2.826   3.307  15.329  0.2110 -0.7749  0.0818
 8435SOL    HW236765   2.915   3.428  15.337  3.1074 -1.9141  1.7991
 8436SOL     OW36766   1.223   3.495   2.310  1.0383 -0.1130 -0.0619
 8436SOL    HW136767   1.252   3.546   2.386  0.6365  0.2897 -0.1800
 8436SOL    HW236768   1.138   3.457   2.332  1.0895  0.2190  0.7227
 8437SOL     OW36769   2.786   2.584   3.785  1.0650  0.1831  0.1193
 8437SOL    HW136770   2.834   2.511   3.825 -2.0119 -1.7249  0.3224
 8437SOL    HW236771   2.771   2.552   3.695  1.7831  1.1300 -0.3318
 8438SOL     OW36772   4.536   3.906   6.545 -0.1233 -0.5042 -0.0109
 8438SOL    HW136773   4.567   3.987   6.585  1.7253 -1.5807  0.7247
 8438SOL    HW236774   4.549   3.844   6.616 -3.1438  0.3196  1.2427
 8439SOL     OW36775   1.175   1.812   5.916  0.1777 -0.3183 -0.0299
 8439SOL    HW136776   1.158   1.897   5.875  2.8726 -0.6106 -1.7644
 8439SOL    HW236777   1.270   1.813   5.920  0.1391  1.8244  0.4620
 8440SOL     OW36778   3.553   3.601   4.490  0.3454 -0.3985  0.1770
 8440SOL    HW136779   3.544   3.695   4.507 -2.2875 -0.4861 -0.7120
 8440SOL    HW236780   3.638   3.581   4.531  0.9833  0.4388 -0.7494
 8441SOL     OW36781   0.029   3.818   3.922  0.1236 -0.2667 -0.3073
 8441SOL    HW136782   0.081   3.897   3.939 -0.3029 -0.2781  1.0283
 8441SOL    HW236783   0.010   3.800   4.014  0.1954 -0.5063 -0.3398
 8442SOL     OW36784   3.954   2.819   6.631 -0.3410 -0.0599  0.0412
 8442SOL    HW136785   4.028   2.776   6.588 -1.3908 -1.2934 -0.5346
 8442SOL    HW236786   3.889   2.789   6.568  0.6949 -0.7590 -0.6872
 8443SOL     OW36787   2.856   2.786   1.520 -0.0934 -0.5043 -0.0387
 8443SOL    HW136788   2.920   2.730   1.564 -2.3810 -1.8327  1.5649
 8443SOL    HW236789   2.779   2.731   1.507 -0.1925 -0.7905  1.7866
 8444SOL     OW36790   3.889   0.410   5.189  0.3865  0.0909 -0.2757
 8444SOL    HW136791   3.973   0.407   5.144  0.1754  1.8258 -0.7796
 8444SOL    HW236792   3.908   0.478   5.253  1.1634  0.3167 -0.7460
 8445SOL     OW36793   1.642   2.475   8.450  0.3022  0.3448  0.3186
 8445SOL    HW136794   1.592   2.532   8.508 -3.3727 -0.7059 -1.8060
 8445SOL    HW236795   1.721   2.527   8.437  1.1927 -1.3059 -0.8280
 8446SOL     OW36796   4.317   0.870   5.485  0.1492  0.2300  0.0579
 8446SOL    HW136797   4.268   0.938   5.439 -0.5104 -0.2792  0.0065
 8446SOL    HW236798   4.409   0.897   5.479 -0.5133  1.4543 -4.2717
 8447SOL     OW36799   1.400   2.795   3.352  0.0113 -0.6673 -1.1202
 8447SOL    HW136800   1.421   2.886   3.335  0.6319 -0.6807 -0.4523
 8447SOL    HW236801   1.365   2.771   3.266 -0.8454 -0.3214 -0.8726
 8448SOL     OW36802   1.225   4.659   8.552  0.5255 -0.6098  0.3500
 8448SOL    HW136803   1.241   4.620   8.466 -1.4564 -3.2187  1.1735
 8448SOL    HW236804   1.314   4.688   8.570  0.7679  0.6933 -2.9133
 8449SOL     OW36805   4.036   1.905  12.883  1.0942  0.4070  0.5736
 8449SOL    HW136806   3.996   1.922  12.797  1.1924 -0.6805  0.3156
 8449SOL    HW236807   3.962   1.907  12.944 -0.4055  1.3199 -1.2624
 8450SOL     OW36808   1.929   1.989   9.299 -0.2604  0.1252  0.2606
 8450SOL    HW136809   1.915   1.895   9.310 -1.7166  0.4904  1.4838
 8450SOL    HW236810   1.931   2.021   9.389  0.9079 -1.3541  0.7531
 8451SOL     OW36811   4.439   0.875  13.148  0.1143  0.2747  0.2658
 8451SOL    HW136812   4.502   0.898  13.216 -0.7113 -0.9525  1.4532
 8451SOL    HW236813   4.472   0.795  13.108  1.2381  1.5829 -1.3974
 8452SOL     OW36814   0.980   3.543  13.966  0.1697  0.0818  0.0014
 8452SOL    HW136815   1.055   3.492  13.996 -1.3594 -1.6409  0.8683
 8452SOL    HW236816   0.956   3.581  14.051  1.7375  0.4318  0.2880
 8453SOL     OW36817   1.088   3.546   1.009 -0.2957 -0.0970  0.1270
 8453SOL    HW136818   1.037   3.585   1.079  1.0257  0.2353  0.8980
 8453SOL    HW236819   1.063   3.454   1.014 -3.1400  0.6128 -0.7993
 8454SOL     OW36820   0.385   1.040  17.264  0.4500  0.1498  0.1713
 8454SOL    HW136821   0.317   0.976  17.243 -0.3968  0.5623  1.7151
 8454SOL    HW236822   0.400   1.088  17.182  1.2888 -1.0969 -0.4076
 8455SOL     OW36823   4.428   1.742  17.365 -0.4458 -0.3170 -0.0840
 8455SOL    HW136824   4.415   1.805  17.436 -1.4966 -0.4803 -0.1376
 8455SOL    HW236825   4.513   1.769  17.330  0.4096 -0.8566  1.5784
 8456SOL     OW36826   4.115   2.323  12.003 -0.1528  0.9644 -0.1461
 8456SOL    HW136827   4.176   2.262  11.961 -1.0613 -1.1558  1.5769
 8456SOL    HW236828   4.130   2.296  12.094 -0.2110  0.3999 -0.3018
 8457SOL     OW36829   4.238   4.571   7.903 -0.1873 -0.0631  0.4839
 8457SOL    HW136830   4.247   4.518   7.983  0.1005 -3.9071 -2.0711
 8457SOL    HW236831   4.144   4.565   7.886  0.0049  0.4268 -0.7845
 8458SOL     OW36832   2.291   4.225   0.591 -0.7269  0.2230 -0.4331
 8458SOL    HW136833   2.269   4.284   0.519  3.0490  3.1027  0.7853
 8458SOL    HW236834   2.337   4.293   0.639  0.1347 -0.4203 -0.3532
 8459SOL     OW36835   2.358   2.339   7.169 -0.5467 -0.0922 -0.1267
 8459SOL    HW136836   2.312   2.354   7.252 -0.6635  0.6929 -0.3333
 8459SOL    HW236837   2.448   2.355   7.196 -0.5536  0.6052 -0.5040
 8460SOL     OW36838   2.174   1.208   5.017  0.3939  0.0850 -0.1553
 8460SOL    HW136839   2.255   1.176   5.058 -0.2852  1.1817  2.0590
 8460SOL    HW236840   2.198   1.233   4.928  2.8464  0.5803  0.6460
 8461SOL     OW36841   2.775   2.500   2.334  0.4819 -0.2910  0.0186
 8461SOL    HW136842   2.843   2.567   2.339 -1.3128  1.5521 -0.2701
 8461SOL    HW236843   2.737   2.504   2.422 -0.7228 -1.4180 -0.4626
 8462SOL     OW36844   3.275   3.533   4.871 -0.2142  0.5657 -0.5083
 8462SOL    HW136845   3.219   3.510   4.797  1.1527 -1.4217 -0.9374
 8462SOL    HW236846   3.310   3.447   4.891  0.5600  1.1765  0.7069
 8463SOL     OW36847   0.836   3.570   6.487  0.1978 -0.2960  0.3414
 8463SOL    HW136848   0.752   3.616   6.475  0.2958 -0.6375 -1.6251
 8463SOL    HW236849   0.817   3.483   6.524 -0.7756  0.0250  0.6134
 8464SOL     OW36850   4.322   3.808   3.165 -0.6094 -0.0063 -0.3598
 8464SOL    HW136851   4.270   3.779   3.240 -2.7235 -1.0689 -2.2347
 8464SOL    HW236852   4.314   3.730   3.110  2.4481  0.0542 -0.9223
 8465SOL     OW36853   1.236   4.141   3.518  0.5166 -0.2732  0.0278
 8465SOL    HW136854   1.294   4.177   3.585 -2.3530 -2.1686  3.5327
 8465SOL    HW236855   1.288   4.114   3.442  1.1132  2.1012 -0.4044
 8466SOL     OW36856   3.937   2.817   4.941  0.2273 -0.6602  0.1296
 8466SOL    HW136857   4.002   2.807   4.872  0.6913  0.9417  0.3444
 8466SOL    HW236858   3.982   2.757   5.002  1.1994  1.0652  1.1217
 8467SOL     OW36859   0.221   4.486  14.002 -0.6927  0.3554 -0.2707
 8467SOL    HW136860   0.277   4.436  14.061 -1.6380 -1.1566 -0.6747
 8467SOL    HW236861   0.270   4.506  13.922  0.5049 -0.0213  0.3748
 8468SOL     OW36862   0.590   0.479   8.703 -0.0867  0.1674 -0.5895
 8468SOL    HW136863   0.495   0.483   8.698 -0.2735 -1.5884  1.5873
 8468SOL    HW236864   0.612   0.506   8.614 -1.1072  0.8214 -0.6355
 8469SOL     OW36865   0.666   4.647  10.909  0.6093 -0.3183 -0.1573
 8469SOL    HW136866   0.624   4.593  10.976 -0.9324 -1.3330 -1.9634
 8469SOL    HW236867   0.591   4.706  10.902  0.1343 -1.4850 -4.8202
 8470SOL     OW36868   3.016   2.688   1.725 -0.2610 -0.5371  0.0859
 8470SOL    HW136869   2.946   2.723   1.780 -2.4693 -2.6814 -1.3526
 8470SOL    HW236870   3.101   2.717   1.760  0.3994 -1.2693 -0.9195
 8471SOL     OW36871   2.423   3.848   6.128  0.4746  0.0394 -0.3453
 8471SOL    HW136872   2.394   3.903   6.201 -0.0867  0.1128 -0.6210
 8471SOL    HW236873   2.475   3.782   6.174  0.9378  1.4061  1.1017
 8472SOL     OW36874   0.559   1.389   0.329 -0.7190 -0.4630  0.1826
 8472SOL    HW136875   0.473   1.401   0.370 -1.5662 -1.4098 -1.2868
 8472SOL    HW236876   0.622   1.419   0.393 -0.1081 -0.6662 -0.3186
 8473SOL     OW36877   2.655   1.346  15.879 -0.1497  0.0880 -0.3342
 8473SOL    HW136878   2.628   1.254  15.868 -0.7265  0.0703  1.1842
 8473SOL    HW236879   2.700   1.331  15.962 -1.3117  2.1206  0.6650
 8474SOL     OW36880   3.017   1.663   6.147 -0.4236  0.1293 -0.2287
 8474SOL    HW136881   2.930   1.623   6.146  0.5371 -1.8993 -1.8291
 8474SOL    HW236882   3.000   1.755   6.167  0.1345 -0.2859  2.1846
 8475SOL     OW36883   0.570   3.742   4.280 -0.0467  0.8626  0.4001
 8475SOL    HW136884   0.600   3.657   4.247 -1.6031  0.6872 -0.5540
 8475SOL    HW236885   0.528   3.718   4.363 -0.7996 -1.5476 -0.6927
 8476SOL     OW36886   1.751   2.705   0.959  0.2480  0.3747  0.0336
 8476SOL    HW136887   1.724   2.782   0.909  1.5692  1.6905  1.3303
 8476SOL    HW236888   1.811   2.750   1.018  1.4455 -1.7906  0.4709
 8477SOL     OW36889   2.789   1.494   8.630 -0.3780 -0.0503  0.4773
 8477SOL    HW136890   2.723   1.467   8.567  1.4271  0.8091 -1.8047
 8477SOL    HW236891   2.770   1.448   8.712 -0.3572  0.0499  0.5382
 8478SOL     OW36892   3.614   2.967  11.999  0.2238 -0.1292  0.0721
 8478SOL    HW136893   3.564   3.049  11.995  0.3608 -0.0888 -0.7291
 8478SOL    HW236894   3.545   2.903  11.983  0.6997 -0.3978 -0.8938
 8479SOL     OW36895   0.601   0.711   6.216  0.0538  0.5082  0.3819
 8479SOL    HW136896   0.574   0.781   6.157  1.5056  0.5320 -0.2544
 8479SOL    HW236897   0.662   0.755   6.275 -0.8253  1.8298  0.3054
 8480SOL     OW36898   0.740   3.628  13.508 -0.4461 -0.1030  0.5427
 8480SOL    HW136899   0.677   3.578  13.560 -2.2451  0.7373 -0.8551
 8480SOL    HW236900   0.812   3.626  13.572  0.3321  2.1413 -0.2589
 8481SOL     OW36901   3.768   0.225  13.566  0.1301 -0.4149 -0.1774
 8481SOL    HW136902   3.842   0.206  13.622 -0.9638 -0.4065  1.2721
 8481SOL    HW236903   3.781   0.179  13.483 -1.7798  0.6098 -1.0620
 8482SOL     OW36904   1.360   0.011   0.968 -0.4751  0.9742  0.4966
 8482SOL    HW136905   1.453   0.031   0.978 -0.2026  0.6438 -1.4160
 8482SOL    HW236906   1.339   0.069   0.895 -4.1160  0.6022  1.2526
 8483SOL     OW36907   0.737   1.767   9.023 -0.1679  0.5532 -0.3773
 8483SOL    HW136908   0.809   1.827   9.042  1.1675 -1.9689  2.5635
 8483SOL    HW236909   0.728   1.734   9.113  0.5892 -0.5402 -0.7044
 8484SOL     OW36910   2.915   2.018  10.912 -0.5313 -0.0567 -0.0358
 8484SOL    HW136911   2.850   1.955  10.943  1.1088 -2.8507 -2.2440
 8484SOL    HW236912   2.919   1.996  10.818  2.9601 -1.0686  0.3262
 8485SOL     OW36913   3.232   2.773  11.120  0.1224 -0.2363 -0.6165
 8485SOL    HW136914   3.292   2.704  11.092 -1.0138 -1.9971  1.2477
 8485SOL    HW236915   3.214   2.746  11.210  0.2896 -0.8851 -0.7758
 8486SOL     OW36916   3.786   3.822  11.924  0.3824  0.6579 -0.2418
 8486SOL    HW136917   3.765   3.899  11.977 -0.9160  0.6937 -0.8072
 8486SOL    HW236918   3.713   3.763  11.943  1.4222 -0.3982  0.4923
 8487SOL     OW36919   1.700   1.919   3.026 -0.2249  0.3986  0.0107
 8487SOL    HW136920   1.792   1.906   3.007 -0.2373 -0.9215  0.8465
 8487SOL    HW236921   1.698   2.012   3.007  1.7505 -0.2803 -3.4385
 8488SOL     OW36922   3.836   1.057  16.157  0.3159 -0.1125 -0.2662
 8488SOL    HW136923   3.816   1.069  16.064  0.8335  0.8850 -0.2572
 8488SOL    HW236924   3.765   0.998  16.185 -1.0593  2.3162  1.4812
 8489SOL     OW36925   3.530   2.665   0.273 -0.4076  0.2453 -0.3970
 8489SOL    HW136926   3.610   2.714   0.292 -0.0688 -0.5183  0.1458
 8489SOL    HW236927   3.507   2.620   0.355  1.9051  1.5627  0.9696
 8490SOL     OW36928   3.210   3.264   3.342 -0.3272 -0.0710  0.0304
 8490SOL    HW136929   3.154   3.262   3.420  0.0789 -1.7081  0.2608
 8490SOL    HW236930   3.261   3.344   3.358 -1.5259  0.2003  2.5192
 8491SOL     OW36931   2.459   1.885   6.050  0.3774  0.4582 -0.0876
 8491SOL    HW136932   2.430   1.852   6.135 -0.2591 -0.3582 -0.6180
 8491SOL    HW236933   2.376   1.929   6.031 -1.0675 -1.8526  0.8063
 8492SOL     OW36934   1.921   2.783   5.457 -0.0866  0.0315 -0.7441
 8492SOL    HW136935   1.961   2.834   5.527  0.8072 -1.3558 -0.2377
 8492SOL    HW236936   1.981   2.708   5.454 -0.7313 -0.5725  1.7273
 8493SOL     OW36937   1.286   2.387   3.718  0.6027  0.2009  0.6346
 8493SOL    HW136938   1.292   2.322   3.648  0.3541 -0.9500  1.6787
 8493SOL    HW236939   1.333   2.454   3.669  2.4805 -2.6345 -1.4053
 8494SOL     OW36940   3.696   2.887   7.711 -0.7671 -0.3065 -0.0831
 8494SOL    HW136941   3.714   2.796   7.733 -1.3135 -0.0784  1.3017
 8494SOL    HW236942   3.739   2.894   7.626 -2.4851  2.6840 -0.7145
 8495SOL     OW36943   1.446   3.418   4.850  0.3190 -0.1512  0.3494
 8495SOL    HW136944   1.448   3.501   4.804 -4.2883  1.1339  2.4872
 8495SOL    HW236945   1.459   3.439   4.943  0.4436  0.7393  0.1236
 8496SOL     OW36946   0.011   0.670   6.199 -0.1949 -0.0305 -0.2260
 8496SOL    HW136947   0.046   0.625   6.122 -3.7850  1.6835 -2.8493
 8496SOL    HW236948   0.037   0.759   6.178 -1.2622  0.2252 -0.4791
 8497SOL     OW36949   2.531   1.313   2.311  0.0032  0.1476  0.3900
 8497SOL    HW136950   2.564   1.229   2.342  2.1886  0.8063 -0.1353
 8497SOL    HW236951   2.615   1.356   2.294 -0.3215  0.1526 -1.2200
 8498SOL     OW36952   4.298   3.176   8.413  0.1940  0.3162 -0.4723
 8498SOL    HW136953   4.339   3.125   8.483 -0.3186 -0.7643 -0.9661
 8498SOL    HW236954   4.353   3.156   8.337 -0.3566  0.6776 -0.9639
 8499SOL     OW36955   3.837   2.917   7.470  0.0461  0.2391 -0.0489
 8499SOL    HW136956   3.919   2.967   7.464 -0.2578  0.6914 -0.4167
 8499SOL    HW236957   3.845   2.872   7.386 -0.1385 -1.8396  1.0402
 8500SOL     OW36958   1.841   0.513   4.016 -0.2227  0.2108 -0.2186
 8500SOL    HW136959   1.758   0.466   4.010  0.4038 -0.7590 -1.2349
 8500SOL    HW236960   1.803   0.593   4.053 -2.6813 -0.2918 -1.6556
 8501SOL     OW36961   1.764   1.709  13.565  0.0821 -0.5915  0.2287
 8501SOL    HW136962   1.741   1.649  13.494 -0.5826  1.9851 -1.7067
 8501SOL    HW236963   1.811   1.649  13.623  0.3025 -0.0192  0.6356
 8502SOL     OW36964   3.968   0.557   6.551  0.6848  0.5772 -0.0942
 8502SOL    HW136965   3.917   0.567   6.631 -1.5673 -1.8186 -1.2271
 8502SOL    HW236966   4.056   0.575   6.586  0.9899 -0.3732 -0.3601
 8503SOL     OW36967   2.217   0.053  13.164  0.6207  0.7233 -0.1285
 8503SOL    HW136968   2.301   0.075  13.124 -0.8690  0.8481 -3.1604
 8503SOL    HW236969   2.187   4.698  13.115  0.3642 -1.0847  2.8328
 8504SOL     OW36970   1.469   2.138   9.096  0.4194 -0.3915  0.4715
 8504SOL    HW136971   1.397   2.155   9.157  0.0182 -0.4498  0.0124
 8504SOL    HW236972   1.465   2.046   9.069 -0.4322 -0.1368 -0.2572
 8505SOL     OW36973   0.421   3.696   5.262  0.3366 -0.3279 -0.2055
 8505SOL    HW136974   0.429   3.675   5.169 -0.7970 -1.1272 -0.1162
 8505SOL    HW236975   0.385   3.620   5.307 -1.1707 -0.2985 -1.3741
 8506SOL     OW36976   1.111   2.883  12.506 -0.0503  0.8075  0.5493
 8506SOL    HW136977   1.038   2.872  12.566 -1.1152 -1.7445 -1.2062
 8506SOL    HW236978   1.084   2.955  12.449 -4.8569  0.7871  2.8689
 8507SOL     OW36979   4.265   1.248   3.463 -0.0445 -0.8015 -0.5521
 8507SOL    HW136980   4.264   1.267   3.557 -0.5467 -0.3951 -0.6381
 8507SOL    HW236981   4.358   1.257   3.445 -0.4748  0.7545 -1.9646
 8508SOL     OW36982   1.913   0.389   1.701  0.2876 -0.0330 -0.5189
 8508SOL    HW136983   1.924   0.429   1.615  3.3001  1.1179  0.4018
 8508SOL    HW236984   1.996   0.400   1.748 -1.2242 -0.2205  2.2200
 8509SOL     OW36985   1.225   4.266   7.063 -0.5472 -0.2344  0.7802
 8509SOL    HW136986   1.308   4.276   7.017 -1.3772  0.4931 -0.5660
 8509SOL    HW236987   1.181   4.347   7.039 -0.9474 -0.0933  1.9918
 8510SOL     OW36988   3.483   0.290  12.000 -0.1720  0.4825 -0.1227
 8510SOL    HW136989   3.469   0.205  12.040  0.6432  1.3629  2.0640
 8510SOL    HW236990   3.562   0.277  11.947  0.1895 -1.0383  0.8016
 8511SOL     OW36991   2.726   0.988   3.516  0.3891 -0.5892 -0.0612
 8511SOL    HW136992   2.654   1.046   3.541  1.0509  0.1534  0.1226
 8511SOL    HW236993   2.780   1.004   3.594 -0.1509  1.0518 -0.0051
 8512SOL     OW36994   1.124   1.908   2.058  0.3871  0.3579  0.4497
 8512SOL    HW136995   1.106   1.983   2.001  1.1894  0.4220  0.2834
 8512SOL    HW236996   1.042   1.892   2.105 -0.5638  2.1719 -0.5749
 8513SOL     OW36997   4.536   1.828   8.801  0.1088 -0.3138  0.4023
 8513SOL    HW136998   4.474   1.757   8.785  0.9785 -0.6967 -1.2322
 8513SOL    HW236999   4.621   1.796   8.772  0.1044 -0.1718  0.2339
 8514SOL     OW37000   3.719   4.268   7.239 -0.1441  0.0720 -0.2492
 8514SOL    HW137001   3.674   4.256   7.322 -1.3178  3.1583 -0.4520
 8514SOL    HW237002   3.782   4.339   7.255  0.2744 -0.5167  0.7264
 8515SOL     OW37003   3.705   0.930  11.326 -0.1480 -0.1667  0.2140
 8515SOL    HW137004   3.793   0.967  11.314 -0.1602 -0.6147 -1.3173
 8515SOL    HW237005   3.699   0.886  11.241 -0.6240  0.1187  0.1036
 8516SOL     OW37006   4.163   2.709  12.775  0.2223  0.5432  0.0315
 8516SOL    HW137007   4.134   2.791  12.735 -1.6114  0.7824  1.8142
 8516SOL    HW237008   4.217   2.743  12.846 -1.3193  2.5815  0.2243
 8517SOL     OW37009   4.603   2.535   1.527 -0.0142  0.1222 -0.4897
 8517SOL    HW137010   4.619   2.599   1.596  0.1983 -1.1671  0.6569
 8517SOL    HW237011   4.509   2.525   1.537 -0.1363  0.6802 -1.0964
 8518SOL     OW37012   0.239   0.865   2.479  0.4895 -1.1743  0.2339
 8518SOL    HW137013   0.240   0.917   2.398  1.6862 -2.8652 -0.8440
 8518SOL    HW237014   0.269   0.788   2.430  1.4124 -0.0686 -0.9504
 8519SOL     OW37015   2.904   0.025   0.750  0.4367  0.1504  0.4021
 8519SOL    HW137016   2.995   0.052   0.762  0.2049  0.8646  0.5841
 8519SOL    HW237017   2.911   4.669   0.806 -2.1373  0.2078  0.7898
 8520SOL     OW37018   1.474   3.654   2.961  0.0227 -0.3026 -0.4665
 8520SOL    HW137019   1.410   3.600   3.007 -1.8777  2.1144 -0.2673
 8520SOL    HW237020   1.544   3.658   3.026  0.2749 -0.2520 -0.7401
 8521SOL     OW37021   2.034   0.985   7.875  0.4687  0.6739 -0.3600
 8521SOL    HW137022   2.074   1.058   7.922  0.2071 -0.2242  1.2549
 8521SOL    HW237023   2.031   0.921   7.946  2.5847 -1.3322 -2.0914
 8522SOL     OW37024   4.409   2.374   5.865  0.3251  0.1860 -0.0126
 8522SOL    HW137025   4.445   2.435   5.930 -2.7002  0.2535  1.5712
 8522SOL    HW237026   4.380   2.442   5.804  0.5543  1.6896  1.5348
 8523SOL     OW37027   1.970   4.337   2.629  0.1531  0.0853  0.3228
 8523SOL    HW137028   1.957   4.243   2.644 -0.0903 -0.0529 -0.7897
 8523SOL    HW237029   2.029   4.371   2.696 -1.2210  2.5327  0.2756
 8524SOL     OW37030   3.977   2.671   8.035 -0.3120  0.1230  0.2347
 8524SOL    HW137031   3.920   2.639   8.105  1.4840 -1.7929  0.8547
 8524SOL    HW237032   3.935   2.640   7.955  0.0039 -0.4763  0.2957
 8525SOL     OW37033   2.113   4.017   7.081  0.0390  0.3107 -0.0875
 8525SOL    HW137034   2.164   3.950   7.127  0.4613 -0.7040 -2.0229
 8525SOL    HW237035   2.122   4.089   7.144  0.1593 -0.8418  1.1981
 8526SOL     OW37036   0.279   3.732   2.982  0.7368 -0.2770 -0.0686
 8526SOL    HW137037   0.335   3.759   2.909  0.7600  2.2360  0.8559
 8526SOL    HW237038   0.273   3.813   3.033  0.2106 -1.7734  2.2400
 8527SOL     OW37039   2.977   1.568  17.638 -0.0448  0.4281  0.5597
 8527SOL    HW137040   2.935   1.616  17.568  2.2008 -0.0498 -1.1079
 8527SOL    HW237041   2.903   1.561   0.011  0.5067  0.9043  1.2813
 8528SOL     OW37042   1.856   0.942   6.782 -0.1583 -0.0017 -0.0337
 8528SOL    HW137043   1.808   1.022   6.804  0.3827  0.6575 -1.2774
 8528SOL    HW237044   1.830   0.881   6.852  0.2417  2.5892  2.3749
 8529SOL     OW37045   2.451   3.815  10.157 -0.0000 -0.3430  0.0299
 8529SOL    HW137046   2.502   3.875  10.212 -0.6218  0.8915 -0.7569
 8529SOL    HW237047   2.395   3.888  10.130  1.9385  1.0276 -0.3217
 8530SOL     OW37048   4.237   0.521   4.888 -0.4561  0.0167 -0.0693
 8530SOL    HW137049   4.267   0.476   4.968  0.8326  0.8653 -0.0839
 8530SOL    HW237050   4.195   0.601   4.918  1.5888  0.5358  1.4337
 8531SOL     OW37051   1.586   3.193  17.388  0.0874 -0.2982  0.0585
 8531SOL    HW137052   1.494   3.175  17.406 -0.0967 -0.3790 -0.9518
 8531SOL    HW237053   1.571   3.233  17.302 -1.5956 -1.1178 -0.0322
 8532SOL     OW37054   0.481   3.392  15.584 -0.0073  0.4959 -0.5284
 8532SOL    HW137055   0.423   3.398  15.507 -0.2295  0.9152 -0.3284
 8532SOL    HW237056   0.513   3.482  15.584  1.3580  0.0059 -2.2651
 8533SOL     OW37057   1.009   3.032  10.106  0.5226 -0.6295  0.8044
 8533SOL    HW137058   0.927   3.002  10.068 -0.8021  2.5149  1.2279
 8533SOL    HW237059   1.056   2.955  10.139 -0.0332 -0.9687  0.7916
 8534SOL     OW37060   2.521   3.613   7.968 -0.2136  0.1440 -0.3303
 8534SOL    HW137061   2.450   3.668   7.934 -0.9662 -0.5278  0.1439
 8534SOL    HW237062   2.472   3.532   7.975  1.0559 -0.7141 -1.3766
 8535SOL     OW37063   4.418   4.343   5.267  0.1716  0.1091 -0.6776
 8535SOL    HW137064   4.467   4.274   5.312  2.8693  0.4199 -3.1184
 8535SOL    HW237065   4.497   4.394   5.248 -0.3572  1.5228  0.9642
 8536SOL     OW37066   4.047   1.848   0.116 -0.7198  0.1623 -0.0495
 8536SOL    HW137067   4.037   1.775   0.178 -0.5503  0.4200  0.2793
 8536SOL    HW237068   4.094   1.798   0.049 -2.1896 -0.2174 -0.8041
 8537SOL     OW37069   4.570   4.639   6.112  0.0589 -0.1217 -0.4315
 8537SOL    HW137070   4.590   4.588   6.191 -0.5944 -0.5951 -0.5736
 8537SOL    HW237071   4.476   4.627   6.103 -0.0677  0.6525 -0.1355
 8538SOL     OW37072   1.637   2.002   8.728 -0.4156  0.6239  0.5933
 8538SOL    HW137073   1.617   1.912   8.755 -4.4726  2.5500  3.8780
 8538SOL    HW237074   1.657   1.985   8.636  2.7164  0.4849  1.3097
 8539SOL     OW37075   1.989   0.909   3.114  0.1371  0.2535 -0.4672
 8539SOL    HW137076   1.938   0.829   3.106  0.0239  0.3264 -0.4715
 8539SOL    HW237077   2.073   0.862   3.110 -1.0154 -1.8349 -0.1026
 8540SOL     OW37078   2.364   0.296  12.141 -0.1061  0.4669  0.7072
 8540SOL    HW137079   2.339   0.317  12.231 -3.0855 -0.9888  0.2190
 8540SOL    HW237080   2.458   0.314  12.150 -0.0767  0.7247 -0.0964
 8541SOL     OW37081   4.141   2.317  10.588  0.7940 -0.1098  0.6682
 8541SOL    HW137082   4.181   2.331  10.502  1.8476  0.5419  1.2640
 8541SOL    HW237083   4.196   2.256  10.637  1.3403 -0.3829 -0.2892
 8542SOL     OW37084   3.272   0.424   2.424 -0.3625 -0.2151 -0.6666
 8542SOL    HW137085   3.219   0.425   2.345 -3.0007 -1.2474  1.1010
 8542SOL    HW237086   3.264   0.515   2.452  0.5369 -0.3649  0.0864
 8543SOL     OW37087   0.580   1.175   2.708  0.1717 -0.1297 -0.0351
 8543SOL    HW137088   0.563   1.218   2.791  2.4348 -4.0467  2.4337
 8543SOL    HW237089   0.489   1.184   2.680 -0.8141 -0.5915  3.0623
 8544SOL     OW37090   2.085   2.335   3.243  0.3846  0.3083 -0.4478
 8544SOL    HW137091   2.154   2.331   3.309  0.7668  3.0536 -0.6935
 8544SOL    HW237092   2.051   2.423   3.255  0.0946 -0.0396  1.3027
 8545SOL     OW37093   3.756   0.574   8.032  0.3639 -0.4091  0.3383
 8545SOL    HW137094   3.735   0.585   7.939  0.3118 -0.7748  0.3086
 8545SOL    HW237095   3.674   0.610   8.064  1.1136  0.4466  1.3046
 8546SOL     OW37096   1.936   0.807  16.319 -0.5219 -0.2553  0.1855
 8546SOL    HW137097   1.911   0.727  16.271 -1.6060  0.4201 -0.3840
 8546SOL    HW237098   1.844   0.824  16.337 -0.8352  1.3335 -2.9830
 8547SOL     OW37099   3.824   2.812   5.669 -0.1524 -0.1358  0.7860
 8547SOL    HW137100   3.811   2.777   5.581 -1.6993 -2.7444  2.0543
 8547SOL    HW237101   3.903   2.864   5.654 -0.7152 -0.1447 -2.2733
 8548SOL     OW37102   1.389   2.175   6.159  0.0157 -0.1222 -0.2727
 8548SOL    HW137103   1.480   2.178   6.188  1.0493  0.7850 -3.5985
 8548SOL    HW237104   1.355   2.108   6.217 -1.4651  0.3339 -0.6085
 8549SOL     OW37105   3.574   0.077   5.619 -0.2562  0.0594 -0.0018
 8549SOL    HW137106   3.534   0.025   5.549  1.9906 -0.1568 -1.1354
 8549SOL    HW237107   3.582   0.167   5.588 -0.9483 -0.3928 -1.5375
 8550SOL     OW37108   2.210   1.385   3.619  0.3749  0.2632 -0.4641
 8550SOL    HW137109   2.274   1.434   3.671 -2.0810 -2.3867  5.1140
 8550SOL    HW237110   2.146   1.348   3.680  0.6336 -0.9999 -0.9509
 8551SOL     OW37111   0.567   0.224   3.138 -0.2272  0.1718  0.0376
 8551SOL    HW137112   0.578   0.294   3.074  1.4807  0.1284  0.2774
 8551SOL    HW237113   0.511   0.278   3.194 -0.4662  2.3256 -2.2735
 8552SOL     OW37114   3.055   3.456   4.744  0.7690  0.6305  0.5261
 8552SOL    HW137115   3.009   3.453   4.827  1.6829  0.6489  1.0297
 8552SOL    HW237116   3.003   3.519   4.694  1.6146  0.8306 -0.1099
 8553SOL     OW37117   4.046   3.549   4.200 -0.7589  0.1598 -0.3531
 8553SOL    HW137118   4.094   3.578   4.123  0.1383  1.8936  0.8559
 8553SOL    HW237119   4.074   3.624   4.253 -2.0472  0.9642 -0.7863
 8554SOL     OW37120   3.823   0.290  11.477  0.1704 -0.0999 -1.0422
 8554SOL    HW137121   3.807   0.318  11.387  3.1819  0.1377 -1.5262
 8554SOL    HW237122   3.816   0.195  11.463  2.2400 -0.7381  2.1598
 8555SOL     OW37123   0.238   2.973   8.976  0.1113 -0.3385  0.3309
 8555SOL    HW137124   0.159   2.920   8.962  0.6925 -1.0352 -0.3134
 8555SOL    HW237125   0.262   2.952   9.066  0.1939 -3.0168 -0.2959
 8556SOL     OW37126   4.369   0.794   3.815  0.1049 -0.2185  0.0465
 8556SOL    HW137127   4.285   0.774   3.774  0.7702 -0.2406 -1.3166
 8556SOL    HW237128   4.358   0.736   3.890  0.1134  1.9170  1.6718
 8557SOL     OW37129   2.353   2.650   7.544 -0.4398  0.1614  0.4618
 8557SOL    HW137130   2.359   2.681   7.453  0.2480  3.1244  1.5083
 8557SOL    HW237131   2.398   2.726   7.582  0.0540  0.5598 -0.9093
 8558SOL     OW37132   1.736   4.633   1.998 -0.0801 -0.2787  0.3175
 8558SOL    HW137133   1.653   4.677   2.020 -0.4372 -0.6717 -0.2379
 8558SOL    HW237134   1.803   4.700   1.984  0.3979 -0.7552  0.3365
 8559SOL     OW37135   2.627   0.860  15.113 -0.2157  0.1636 -0.3439
 8559SOL    HW137136   2.722   0.866  15.099 -0.2875 -1.2212 -1.4754
 8559SOL    HW237137   2.623   0.799  15.186  0.2628  1.0719  0.4483
 8560SOL     OW37138   0.340   4.354  16.661  0.0187  0.5634  0.0098
 8560SOL    HW137139   0.315   4.270  16.699  1.9846 -0.7895 -1.7332
 8560SOL    HW237140   0.295   4.351  16.577 -0.4781  0.0907  0.2865
 8561SOL     OW37141   2.315   4.169   7.873  0.5078 -0.1980  0.2521
 8561SOL    HW137142   2.347   4.258   7.882 -0.1554  0.2684 -2.0802
 8561SOL    HW237143   2.288   4.141   7.960 -0.6469 -0.2206 -0.1226
 8562SOL     OW37144   2.118   2.839  15.305  0.3663  0.1965 -0.0015
 8562SOL    HW137145   2.176   2.878  15.370  2.1499 -1.6998 -0.4558
 8562SOL    HW237146   2.123   2.744  15.315 -1.0911  0.2957  1.6188
 8563SOL     OW37147   2.116   1.677   2.928  0.2817  0.0898  0.2037
 8563SOL    HW137148   2.099   1.597   2.977  2.1100  1.2703  2.7294
 8563SOL    HW237149   2.195   1.650   2.880  0.2343 -0.5414  0.4771
 8564SOL     OW37150   3.480   2.468  10.211  0.4810 -0.0785  0.6567
 8564SOL    HW137151   3.523   2.531  10.269 -1.3951  0.9216  0.9632
 8564SOL    HW237152   3.547   2.401  10.197  0.7278  0.2015  0.4811
 8565SOL     OW37153   0.647   1.629   4.753  0.0754 -0.4183  0.4499
 8565SOL    HW137154   0.658   1.577   4.832 -0.6623 -0.4409  0.5430
 8565SOL    HW237155   0.610   1.564   4.694 -2.1433  0.0019  1.3505
 8566SOL     OW37156   2.824   0.436   5.936  0.8933  0.5879 -0.3178
 8566SOL    HW137157   2.812   0.530   5.927 -1.7521  0.3685  0.9557
 8566SOL    HW237158   2.754   0.403   5.879 -1.2221  2.5581  1.1713
 8567SOL     OW37159   2.854   2.821   7.633 -0.1670  0.1530  0.4036
 8567SOL    HW137160   2.901   2.878   7.571  0.8936 -0.4686  0.6353
 8567SOL    HW237161   2.923   2.782   7.687  0.2380  1.9258  1.1388
 8568SOL     OW37162   4.531   3.947  16.998  0.8498  0.0198 -0.1050
 8568SOL    HW137163   4.604   4.000  17.030  1.4716 -1.3137  0.6859
 8568SOL    HW237164   4.457   4.007  16.990  0.1652 -0.7570  0.3953
 8569SOL     OW37165   1.648   1.319   9.922  0.0003 -0.5063  0.3722
 8569SOL    HW137166   1.649   1.388   9.855 -0.1093 -0.9972 -0.1386
 8569SOL    HW237167   1.728   1.328   9.974 -0.4272 -2.5382  1.4080
 8570SOL     OW37168   1.433   0.345   5.854 -0.3589  0.0225 -0.2967
 8570SOL    HW137169   1.457   0.399   5.779 -1.0431 -0.9924 -1.2656
 8570SOL    HW237170   1.510   0.288   5.851  0.0927  0.6713 -0.8950
 8571SOL     OW37171   1.997   3.411   1.963  0.1021 -0.1719  0.2154
 8571SOL    HW137172   1.918   3.422   1.911  0.6660 -1.9556 -1.0291
 8571SOL    HW237173   2.059   3.386   1.894 -0.9092  0.0285 -0.7660
 8572SOL     OW37174   0.517   0.926   6.437  0.3068 -0.5997 -0.0290
 8572SOL    HW137175   0.490   0.989   6.504  3.1934 -0.4448  1.0111
 8572SOL    HW237176   0.440   0.874   6.414 -1.1663  0.7465  1.8641
 8573SOL     OW37177   3.650   1.560   5.810  0.1982  0.7558  0.2939
 8573SOL    HW137178   3.707   1.621   5.764  0.4597 -0.3594 -0.8321
 8573SOL    HW237179   3.581   1.623   5.830  0.5820  1.2996 -0.0868
 8574SOL     OW37180   1.885   3.517   5.967 -0.3424  0.8221  0.6350
 8574SOL    HW137181   1.978   3.496   5.980 -0.1009  0.7333 -1.2016
 8574SOL    HW237182   1.846   3.522   6.054 -0.6102  2.6654  0.3938
 8575SOL     OW37183   3.718   3.223  14.315  0.6507 -0.4913  0.0801
 8575SOL    HW137184   3.643   3.206  14.372 -0.6080  1.3213 -1.0275
 8575SOL    HW237185   3.783   3.229  14.385  0.0514  2.5716  0.3428
 8576SOL     OW37186   4.456   0.191   8.227 -0.6893  0.3654 -0.6142
 8576SOL    HW137187   4.383   0.140   8.192 -1.5711  1.7092 -0.7258
 8576SOL    HW237188   4.528   0.161   8.172 -0.7268  0.4747 -0.7243
 8577SOL     OW37189   0.974   0.058   1.324  0.1781 -0.4798  0.0807
 8577SOL    HW137190   1.036   4.709   1.305  0.8724 -0.6372  2.9608
 8577SOL    HW237191   1.033   0.130   1.347 -2.5731  1.5249  0.8999
 8578SOL     OW37192   2.014   0.285   2.571  0.2866 -0.2301  0.3886
 8578SOL    HW137193   2.023   0.298   2.477 -2.6030 -2.4143 -0.1694
 8578SOL    HW237194   1.929   0.326   2.585  0.2162 -0.5352  0.8533
 8579SOL     OW37195   3.181   4.172   8.663  0.1426  0.2168  0.0089
 8579SOL    HW137196   3.240   4.240   8.695  1.6289 -2.1961  2.3933
 8579SOL    HW237197   3.234   4.118   8.604 -0.0617 -0.5284  0.5169
 8580SOL     OW37198   0.779   1.015  11.688  0.6759 -0.0395  0.2011
 8580SOL    HW137199   0.696   1.016  11.737 -1.3030 -0.7735 -3.1473
 8580SOL    HW237200   0.825   0.940  11.727  1.6910  1.0431  1.0700
 8581SOL     OW37201   0.331   1.568   2.705  0.6506 -0.3414 -0.1015
 8581SOL    HW137202   0.287   1.597   2.784 -0.2250  0.0572 -0.7364
 8581SOL    HW237203   0.262   1.555   2.641  0.4267 -1.7904  0.4462
 8582SOL     OW37204   2.717   1.720   2.828 -0.2287  0.2162  0.4369
 8582SOL    HW137205   2.735   1.790   2.766  1.3545 -0.0603  0.5817
 8582SOL    HW237206   2.802   1.683   2.855  0.3603  0.9645 -0.4060
 8583SOL     OW37207   0.099   1.551  16.410 -0.0144  0.5370  0.3633
 8583SOL    HW137208   0.097   1.568  16.316  1.1589 -1.0639  0.0464
 8583SOL    HW237209   0.022   1.602  16.435  1.3177  2.1693  1.0885
 8584SOL     OW37210   3.596   3.252   3.999  0.3416 -0.3142  0.0333
 8584SOL    HW137211   3.667   3.289   3.946  1.4001  0.6039  2.0942
 8584SOL    HW237212   3.635   3.170   4.028  1.1346 -0.3071 -0.9832
 8585SOL     OW37213   1.281   3.115   0.663 -0.2657  0.0898  0.3782
 8585SOL    HW137214   1.304   3.070   0.744  0.9763 -2.2732 -1.2619
 8585SOL    HW237215   1.324   3.059   0.598 -0.0573 -0.6638  1.1641
 8586SOL     OW37216   3.114   3.283  17.308 -0.0073  0.6910 -0.6660
 8586SOL    HW137217   3.143   3.283  17.217 -3.2148 -2.7589 -1.6720
 8586SOL    HW237218   3.024   3.252  17.297 -0.6360  2.0927  0.3758
 8587SOL     OW37219   2.080   2.103   7.609  0.1284 -0.0595  0.4071
 8587SOL    HW137220   2.119   2.017   7.628  3.3554  1.2948 -0.0447
 8587SOL    HW237221   2.082   2.078   7.516 -1.9595 -0.7806  0.5537
 8588SOL     OW37222   3.490   2.917  13.252  0.0167 -0.0968 -0.1241
 8588SOL    HW137223   3.438   2.866  13.190 -0.1861 -0.6375  0.4836
 8588SOL    HW237224   3.492   3.005  13.215 -1.1160  0.5996  1.4637
 8589SOL     OW37225   1.866   0.270  10.487  0.0619  0.4474 -0.9587
 8589SOL    HW137226   1.790   0.277  10.544 -0.1287 -0.7868 -1.0695
 8589SOL    HW237227   1.849   0.330  10.414  0.5521  0.0066 -1.4364
 8590SOL     OW37228   2.121   3.211  10.757  0.4138 -0.0343 -0.5732
 8590SOL    HW137229   2.162   3.126  10.776  0.2174  0.2185  1.0228
 8590SOL    HW237230   2.082   3.232  10.842  0.3689  1.5791 -1.0012
 8591SOL     OW37231   2.412   2.622   1.373 -0.4041  0.2831  0.1885
 8591SOL    HW137232   2.503   2.594   1.385 -1.2306 -2.5538 -0.0490
 8591SOL    HW237233   2.373   2.562   1.436 -2.4169  1.1685 -0.1844
 8592SOL     OW37234   2.583   2.665   0.159 -0.4443 -0.0028 -0.0987
 8592SOL    HW137235   2.639   2.725   0.111 -1.7522  1.6016  0.3784
 8592SOL    HW237236   2.643   2.597   0.191 -0.9496 -0.1382  0.5610
 8593SOL     OW37237   2.228   4.411   4.436  0.3438 -0.1563  0.2347
 8593SOL    HW137238   2.307   4.462   4.454  1.8375 -1.8418 -1.4620
 8593SOL    HW237239   2.262   4.337   4.385 -0.4157 -0.4540  0.1557
 8594SOL     OW37240   2.396   0.005   4.873  0.0673  0.2139  0.1419
 8594SOL    HW137241   2.315   4.676   4.877  1.5810 -2.2934 -0.9252
 8594SOL    HW237242   2.424   4.686   4.791 -1.0032 -1.1880  0.4589
 8595SOL     OW37243   0.358   2.787   3.949 -0.4167  0.0831 -0.4232
 8595SOL    HW137244   0.427   2.767   4.012 -0.6799  0.7511  0.0729
 8595SOL    HW237245   0.399   2.760   3.866  1.6702  1.2852  0.2233
 8596SOL     OW37246   1.494   4.090   7.494  0.3284 -0.1842  0.2346
 8596SOL    HW137247   1.421   4.112   7.552 -0.2709 -0.7942 -0.2995
 8596SOL    HW237248   1.559   4.141   7.542  1.6254 -0.8628 -0.7910
 8597SOL     OW37249   2.158   3.233   4.715  0.6500 -0.2821 -0.3919
 8597SOL    HW137250   2.227   3.282   4.670 -0.7998  0.4386 -1.8178
 8597SOL    HW237251   2.158   3.289   4.792  1.3347  0.6884 -1.0852
 8598SOL     OW37252   4.424   3.090   8.198 -0.2326 -0.1209 -0.2854
 8598SOL    HW137253   4.386   3.015   8.153  0.2659 -0.2936 -0.4238
 8598SOL    HW237254   4.455   3.143   8.124  0.8754 -0.7310 -0.2659
 8599SOL     OW37255   2.039   0.471  17.605 -0.1998  0.2423 -0.0283
 8599SOL    HW137256   1.981   0.539  17.639 -1.4849 -1.9550  2.1659
 8599SOL    HW237257   2.126   0.500  17.633 -0.5782  0.3469  1.0249
 8600SOL     OW37258   1.480   2.659   0.560 -0.0243  0.6915  0.3616
 8600SOL    HW137259   1.397   2.692   0.524 -0.4117  0.5582  1.1392
 8600SOL    HW237260   1.454   2.667   0.652  2.3349  2.8119  0.8527
 8601SOL     OW37261   1.618   0.862   5.554 -0.4755 -0.4797 -0.0863
 8601SOL    HW137262   1.608   0.815   5.471  0.8207  1.5911 -1.4140
 8601SOL    HW237263   1.633   0.950   5.519 -0.7025  0.5741  2.4763
 8602SOL     OW37264   2.211   1.129   7.669  0.7130 -0.8957  0.2989
 8602SOL    HW137265   2.185   1.213   7.705 -0.1456 -1.0348  0.0140
 8602SOL    HW237266   2.263   1.105   7.746 -0.6876 -1.3873  1.0954
 8603SOL     OW37267   2.250   2.894   0.019  0.3559 -0.5701 -0.5785
 8603SOL    HW137268   2.227   2.801   0.020 -1.0611 -0.2091  1.8465
 8603SOL    HW237269   2.190   2.928  17.641 -0.4230 -1.0080 -0.1140
 8604SOL     OW37270   1.925   3.821   6.688 -0.2870 -0.0888  0.3213
 8604SOL    HW137271   1.994   3.833   6.753 -0.5609  0.7877  0.4452
 8604SOL    HW237272   1.960   3.738   6.656  2.7408  1.3775 -0.2033
 8605SOL     OW37273   0.449   4.636  11.072  0.1329  0.3685  0.6041
 8605SOL    HW137274   0.373   4.604  11.121  0.2888  0.3647  0.8475
 8605SOL    HW237275   0.409   4.715  11.035  1.1587 -0.3320 -1.9607
 8606SOL     OW37276   4.382   1.146   2.687  0.0911 -0.2628 -0.4547
 8606SOL    HW137277   4.410   1.059   2.713 -0.5400 -0.2991  0.1065
 8606SOL    HW237278   4.346   1.116   2.604  1.8638 -0.9749 -0.9668
 8607SOL     OW37279   3.003   4.615   0.327 -0.1767  0.2229  0.2757
 8607SOL    HW137280   2.942   4.681   0.293 -0.4389 -0.2691 -0.2146
 8607SOL    HW237281   2.942   4.544   0.347 -1.3794  0.6646 -1.8174
 8608SOL     OW37282   0.112   0.244  12.052 -0.2766 -0.1086  0.0017
 8608SOL    HW137283   0.094   0.152  12.033  0.4331 -0.3730  0.6400
 8608SOL    HW237284   0.020   0.271  12.053 -0.9926 -2.5132 -1.4582
 8609SOL     OW37285   4.117   2.879   8.199  0.2143 -0.3035  0.2492
 8609SOL    HW137286   4.073   2.815   8.142  0.5934 -0.9997  0.7405
 8609SOL    HW237287   4.074   2.864   8.283  0.0260 -1.9729 -0.1432
 8610SOL     OW37288   2.568   0.331   0.702 -0.2838 -0.1098  0.3336
 8610SOL    HW137289   2.578   0.238   0.723  1.0004 -0.0960 -0.2192
 8610SOL    HW237290   2.589   0.379   0.782  0.8784  1.3883 -0.8820
 8611SOL     OW37291   1.870   4.184  10.968 -0.4825 -0.4923  0.1129
 8611SOL    HW137292   1.914   4.099  10.955  1.0393  0.2622  0.3356
 8611SOL    HW237293   1.800   4.161  11.028 -2.4262 -0.2534 -2.0639
 8612SOL     OW37294   4.620   2.376   8.103  0.0547  0.6385  0.6444
 8612SOL    HW137295   4.637   2.293   8.059 -0.8839  1.2446 -0.8582
 8612SOL    HW237296   4.701   2.424   8.085 -1.5792  2.6431 -1.2489
 8613SOL     OW37297   2.558   3.088   2.269  0.3625 -0.3470  0.2344
 8613SOL    HW137298   2.622   3.158   2.278  0.7960 -0.6308 -0.6455
 8613SOL    HW237299   2.488   3.116   2.329  0.4784 -0.3315  0.3619
 8614SOL     OW37300   3.219   0.289   0.985 -0.0578  0.5298 -0.0422
 8614SOL    HW137301   3.143   0.301   0.928 -0.0215  1.0357  0.0132
 8614SOL    HW237302   3.179   0.268   1.069 -0.3260 -0.7717 -0.4945
 8615SOL     OW37303   2.802   3.844   0.117  0.7796 -0.3804 -0.7021
 8615SOL    HW137304   2.840   3.757   0.131  0.1280 -0.2396  1.9998
 8615SOL    HW237305   2.746   3.818   0.044 -2.4575  3.2599  0.4853
 8616SOL     OW37306   0.616   3.359  15.982 -0.7497 -0.4590  0.3279
 8616SOL    HW137307   0.537   3.394  15.942 -1.5811 -0.2866  2.1073
 8616SOL    HW237308   0.645   3.432  16.037  0.5370 -0.3635 -0.4889
 8617SOL     OW37309   2.614   2.431   6.595  0.3162  0.6318  0.0346
 8617SOL    HW137310   2.561   2.407   6.671  0.1187  0.9473 -0.0049
 8617SOL    HW237311   2.598   2.525   6.589 -1.1991  0.3225 -0.8936
 8618SOL     OW37312   0.269   4.167   5.954 -0.4322  0.2514 -0.3754
 8618SOL    HW137313   0.339   4.220   5.992  0.2817 -0.0512 -1.2672
 8618SOL    HW237314   0.301   4.131   5.871 -3.4834 -0.3938 -1.2681
 8619SOL     OW37315   2.606   1.108   6.965  0.3552  0.5892  0.6609
 8619SOL    HW137316   2.623   1.147   6.879 -1.0487  0.8396  0.4978
 8619SOL    HW237317   2.519   1.144   6.981  0.4225 -0.1591  2.6082
 8620SOL     OW37318   2.609   2.553   8.373  0.0452 -0.6420 -0.6373
 8620SOL    HW137319   2.519   2.578   8.392 -0.3800 -0.1199 -3.3494
 8620SOL    HW237320   2.622   2.461   8.397  3.4383 -0.7159 -2.6375
 8621SOL     OW37321   3.841   0.413   2.004  0.3409  0.5879  0.5153
 8621SOL    HW137322   3.765   0.464   2.031 -0.1365 -0.1736  0.6155
 8621SOL    HW237323   3.844   0.442   1.913 -0.9117 -1.1305 -0.0663
 8622SOL     OW37324   4.649   3.154   4.480  0.5744 -0.3089  0.5087
 8622SOL    HW137325   4.559   3.184   4.467  0.8193 -0.2658 -1.0763
 8622SOL    HW237326   4.681   3.224   4.537  1.2545 -0.6488  0.5449
 8623SOL     OW37327   0.421   1.990   3.432  0.0109  0.1110  0.3842
 8623SOL    HW137328   0.492   2.008   3.369 -1.0666  0.3070 -0.7734
 8623SOL    HW237329   0.454   2.013   3.519  0.2095 -1.3722  0.7026
 8624SOL     OW37330   3.071   2.026   5.653  0.1197 -0.2229 -0.0998
 8624SOL    HW137331   3.038   1.973   5.580  0.0201  2.9795 -2.4232
 8624SOL    HW237332   3.075   2.111   5.609  1.1856 -0.1041  0.2173
 8625SOL     OW37333   2.739   1.858   6.565 -0.2161  0.2517 -0.0756
 8625SOL    HW137334   2.714   1.930   6.507 -0.4207  1.7755  1.9047
 8625SOL    HW237335   2.662   1.851   6.621  0.2311 -0.0046  0.5095
 8626SOL     OW37336   0.681   0.346  17.596  0.2477 -0.1686 -0.4409
 8626SOL    HW137337   0.688   0.251  17.608  1.2964  0.3001  2.6144
 8626SOL    HW237338   0.769   0.372  17.625 -0.8505  1.3202  1.4903
 8627SOL     OW37339   1.574   1.798  15.141  0.1649  0.1467 -0.2522
 8627SOL    HW137340   1.593   1.854  15.217 -0.4834 -1.7455  1.3040
 8627SOL    HW237341   1.486   1.774  15.170 -0.3606  3.3475  0.7770
 8628SOL     OW37342   1.545   1.057   4.078  0.3594  0.0629 -0.5321
 8628SOL    HW137343   1.514   1.033   4.165 -1.4409  0.2088 -1.1391
 8628SOL    HW237344   1.468   1.040   4.023 -0.7671  0.5667  0.8951
 8629SOL     OW37345   0.649   2.565   3.006  0.0420  0.6032 -0.0689
 8629SOL    HW137346   0.728   2.527   2.969  1.3366  1.7656  1.5113
 8629SOL    HW237347   0.651   2.543   3.100  3.7883 -0.0982 -0.3537
 8630SOL     OW37348   1.945   4.690   6.101  0.4147 -0.0172 -0.6168
 8630SOL    HW137349   1.968   4.665   6.191  2.3225 -1.9190 -1.6228
 8630SOL    HW237350   1.896   4.611   6.079  3.4356 -2.0628 -0.0049
 8631SOL     OW37351   3.120   3.552   3.294 -0.2403 -0.1244 -0.1374
 8631SOL    HW137352   3.187   3.600   3.246 -0.3045  1.0489  0.9332
 8631SOL    HW237353   3.172   3.522   3.369 -1.6464  0.9540  1.2727
 8632SOL     OW37354   4.165   3.201   4.624 -0.3135  0.9548  0.2441
 8632SOL    HW137355   4.180   3.140   4.695  1.9499 -0.1833 -1.2070
 8632SOL    HW237356   4.073   3.178   4.609  0.1421 -0.1831 -0.8052
 8633SOL     OW37357   1.045   1.046   8.727 -0.7456  0.2321 -0.7513
 8633SOL    HW137358   1.014   1.136   8.739 -2.0203 -0.3522  0.3474
 8633SOL    HW237359   1.064   1.035   8.634 -1.7389 -0.3040 -0.8839
 8634SOL     OW37360   1.153   0.703   2.003  0.3400  0.9992  0.8402
 8634SOL    HW137361   1.215   0.740   1.940 -3.2197  1.3632 -2.5172
 8634SOL    HW237362   1.090   0.773   1.984 -0.6980 -0.2845 -0.4757
 8635SOL     OW37363   4.184   3.315  16.056 -0.2068  0.6036 -0.5712
 8635SOL    HW137364   4.279   3.327  16.052 -0.1097  0.3255  0.7941
 8635SOL    HW237365   4.173   3.242  15.996  0.4602 -0.9693  1.2148
 8636SOL     OW37366   1.807   3.546  16.370 -0.2272 -1.0044  0.2061
 8636SOL    HW137367   1.892   3.512  16.342 -0.3503 -0.7489 -0.4879
 8636SOL    HW237368   1.775   3.559  16.281 -1.1641 -0.4848  0.6186
 8637SOL     OW37369   4.278   3.866  10.405  0.1115 -0.2882 -0.1974
 8637SOL    HW137370   4.270   3.771  10.397 -0.7490 -0.1881 -0.5125
 8637SOL    HW237371   4.188   3.879  10.434 -0.5845 -1.2781 -1.9187
 8638SOL     OW37372   1.351   2.037   3.819 -0.4410 -0.1891  0.0949
 8638SOL    HW137373   1.344   2.049   3.724  0.1009 -0.7287 -0.0070
 8638SOL    HW237374   1.264   2.005   3.841  0.6309 -1.4318  2.4816
 8639SOL     OW37375   0.755   2.455   8.714  0.0408  0.8118  0.3331
 8639SOL    HW137376   0.797   2.372   8.693  0.8281  1.6659 -1.4888
 8639SOL    HW237377   0.670   2.427   8.746 -1.2734  1.9318 -2.1807
 8640SOL     OW37378   1.974   0.809   2.760 -0.3010 -0.2061  0.7607
 8640SOL    HW137379   1.890   0.793   2.804 -2.2504  1.1339 -2.4836
 8640SOL    HW237380   1.964   0.902   2.741  0.1142 -0.2713  0.2419
 8641SOL     OW37381   2.562   4.210   2.606  0.3057  0.6147 -0.2801
 8641SOL    HW137382   2.498   4.168   2.548  1.1923 -1.3123  0.1408
 8641SOL    HW237383   2.540   4.303   2.600 -1.3310  0.2096 -0.6898
 8642SOL     OW37384   1.438   3.840   6.182  0.2745 -0.7339  0.4951
 8642SOL    HW137385   1.439   3.746   6.165 -0.5053 -0.3550 -1.6285
 8642SOL    HW237386   1.523   3.863   6.146 -0.2434  0.1727 -0.1505
 8643SOL     OW37387   1.585   1.897  13.473 -0.2847 -0.0086  0.5890
 8643SOL    HW137388   1.653   1.831  13.488 -0.0369 -0.1159 -1.0043
 8643SOL    HW237389   1.561   1.908  13.565 -3.3908 -0.7032 -0.1573
 8644SOL     OW37390   1.535   4.010   8.093 -0.6490 -0.1945 -0.1970
 8644SOL    HW137391   1.532   4.085   8.034  1.1211  1.1371  1.3734
 8644SOL    HW237392   1.444   3.996   8.118 -0.5398  0.3411  0.5215
 8645SOL     OW37393   2.989   4.134   2.598  0.2849  0.6765 -0.8478
 8645SOL    HW137394   2.902   4.096   2.583 -0.1421  1.1115  0.4949
 8645SOL    HW237395   2.965   4.225   2.617  2.5649  0.7938  1.4731
 8646SOL     OW37396   3.237   2.345   4.083 -0.4191 -0.0712 -0.4521
 8646SOL    HW137397   3.320   2.310   4.114 -0.8558 -0.9169 -0.2209
 8646SOL    HW237398   3.210   2.277   4.021  0.7908 -1.4867  0.5559
 8647SOL     OW37399   3.592   2.342   4.800  0.5602  0.0162 -0.3630
 8647SOL    HW137400   3.633   2.399   4.865 -1.8110  0.4384  0.7788
 8647SOL    HW237401   3.509   2.318   4.841  0.5572 -0.7212 -0.8101
 8648SOL     OW37402   1.742   2.394   9.935 -0.5611 -0.2165  0.8985
 8648SOL    HW137403   1.657   2.438   9.944  0.8561  2.0405  2.9688
 8648SOL    HW237404   1.792   2.473   9.920 -1.8810  0.2675 -0.9309
 8649SOL     OW37405   1.334   4.303   3.148 -0.4627 -0.2206  0.1727
 8649SOL    HW137406   1.372   4.227   3.104  1.2018  1.0619 -0.5954
 8649SOL    HW237407   1.244   4.285   3.122 -1.2860  2.9861  0.7664
 8650SOL     OW37408   1.973   2.340   6.151  0.0175 -0.1574 -0.1062
 8650SOL    HW137409   1.938   2.252   6.159 -0.5784  0.1580  0.7072
 8650SOL    HW237410   1.988   2.344   6.057 -0.0899  1.5989 -0.0485
 8651SOL     OW37411   3.361   4.005  12.573  0.3492  0.0752 -0.5573
 8651SOL    HW137412   3.301   3.931  12.565 -0.2170  0.2001  2.4582
 8651SOL    HW237413   3.435   3.960  12.613  0.6117  0.8624 -0.1432
 8652SOL     OW37414   1.110   0.413   3.517  0.5245 -0.4253  0.1485
 8652SOL    HW137415   1.156   0.497   3.505  0.8618 -0.5897  0.2878
 8652SOL    HW237416   1.072   0.428   3.603 -1.4991 -2.8897 -0.3268
 8653SOL     OW37417   2.770   2.369   5.373 -0.5972 -0.9278 -0.4773
 8653SOL    HW137418   2.702   2.420   5.329 -0.2568 -0.9510 -1.0219
 8653SOL    HW237419   2.713   2.337   5.443  0.8437 -4.6149 -0.9817
 8654SOL     OW37420   2.691   2.502   1.321 -0.4786 -0.2119 -0.0325
 8654SOL    HW137421   2.643   2.422   1.302  0.3840 -0.7694  0.1689
 8654SOL    HW237422   2.690   2.505   1.417 -2.9125 -0.0503 -0.0782
 8655SOL     OW37423   3.687   0.063  16.254  0.6786 -0.4357 -0.0582
 8655SOL    HW137424   3.674   0.139  16.197  2.0470 -1.0715 -1.2256
 8655SOL    HW237425   3.608   0.069  16.306  1.2961  0.6645  0.7428
 8656SOL     OW37426   0.626   3.026   0.073 -0.1351 -0.2187 -0.0291
 8656SOL    HW137427   0.606   2.983  17.678  1.6219 -1.8228  0.3561
 8656SOL    HW237428   0.622   3.121   0.067 -0.5472 -0.1792  0.8183
 8657SOL     OW37429   2.951   1.590   9.007  0.0568  0.6606 -0.7077
 8657SOL    HW137430   2.954   1.531   9.083 -0.4971 -1.2196 -2.1772
 8657SOL    HW237431   2.999   1.669   9.033  3.3356 -1.2480 -0.9790
 8658SOL     OW37432   3.392   1.066   7.846  0.3327  0.0149  0.1985
 8658SOL    HW137433   3.416   1.014   7.769  0.8936  1.1753 -0.4303
 8658SOL    HW237434   3.468   1.110   7.885  1.5629 -0.9960 -1.0433
 8659SOL     OW37435   1.334   1.600  12.868  0.5544  0.3634  0.0193
 8659SOL    HW137436   1.262   1.645  12.823  0.6747  2.4597  1.9160
 8659SOL    HW237437   1.405   1.642  12.820  2.2338 -0.1316  2.0576
 8660SOL     OW37438   3.541   0.612   4.033 -0.1188  0.2787  0.0939
 8660SOL    HW137439   3.590   0.670   4.092  3.2311 -3.2661  0.7980
 8660SOL    HW237440   3.608   0.609   3.965 -1.5420 -1.3873 -1.2357
 8661SOL     OW37441   3.212   2.237  14.876 -0.4307 -0.1913  0.3282
 8661SOL    HW137442   3.276   2.249  14.806 -0.1051 -1.7646  0.3631
 8661SOL    HW237443   3.126   2.206  14.846 -0.5282  0.1833  0.2249
 8662SOL     OW37444   3.464   3.182  13.173 -0.4641  0.1223 -0.6153
 8662SOL    HW137445   3.487   3.273  13.156 -0.7387 -0.1621 -2.4852
 8662SOL    HW237446   3.371   3.192  13.195 -0.3227 -0.1591  0.1058
 8663SOL     OW37447   4.117   1.845  16.397 -0.2458 -0.3177 -0.0694
 8663SOL    HW137448   4.136   1.771  16.453  0.8084 -1.6681 -2.2046
 8663SOL    HW237449   4.199   1.847  16.348  0.5805 -0.0435  1.3407
 8664SOL     OW37450   4.370   2.715  11.885 -0.0119 -0.3260 -0.3009
 8664SOL    HW137451   4.420   2.713  11.804  2.3646 -0.2746  1.1538
 8664SOL    HW237452   4.308   2.643  11.871 -2.1837  1.3383  0.7982
 8665SOL     OW37453   1.241   4.543   8.301  0.3039  0.0493  0.3295
 8665SOL    HW137454   1.149   4.545   8.275  0.8866 -0.0473 -1.7788
 8665SOL    HW237455   1.278   4.458   8.278 -4.9041 -1.9624 -0.5720
 8666SOL     OW37456   1.863   3.315   4.200  0.7245 -0.5973  0.2661
 8666SOL    HW137457   1.864   3.221   4.181 -0.8623 -0.2901 -1.3630
 8666SOL    HW237458   1.874   3.347   4.111  1.1083 -0.8560  0.2229
 8667SOL     OW37459   3.392   0.351  14.394 -0.0360  0.1369 -0.2601
 8667SOL    HW137460   3.458   0.324  14.330  1.6863  2.4696  0.5372
 8667SOL    HW237461   3.450   0.411  14.441 -1.0379  0.0859  1.0538
 8668SOL     OW37462   2.221   2.031   9.505 -0.3074 -0.4055  0.4816
 8668SOL    HW137463   2.284   1.970   9.543  0.3688  1.1463  1.8308
 8668SOL    HW237464   2.243   2.033   9.412  2.6604 -3.0503  1.1165
 8669SOL     OW37465   2.785   3.232   0.977  0.1276  0.4391 -0.4164
 8669SOL    HW137466   2.827   3.175   0.913  2.9101  0.9826  0.9221
 8669SOL    HW237467   2.708   3.269   0.934 -0.1306  0.4558  0.0614
 8670SOL     OW37468   0.005   2.108   1.815  0.1556  0.0438 -0.0333
 8670SOL    HW137469   0.013   2.017   1.842 -0.1651  0.1934  0.5655
 8670SOL    HW237470   4.695   2.145   1.898 -0.3022 -0.0958 -0.1453
 8671SOL     OW37471   2.222   2.957   0.290  0.0938 -0.1371 -0.0477
 8671SOL    HW137472   2.233   2.962   0.195 -0.0686  0.0895 -0.0529
 8671SOL    HW237473   2.272   3.035   0.314  0.1605  0.6379 -2.7227
 8672SOL     OW37474   1.147   3.350   5.244 -0.4185  0.3851 -0.0827
 8672SOL    HW137475   1.121   3.263   5.213 -1.4867  0.0141  1.8961
 8672SOL    HW237476   1.057   3.381   5.258 -1.2624 -1.9164 -0.2998
 8673SOL     OW37477   1.416   0.809   2.310  0.1693 -0.4145  0.5024
 8673SOL    HW137478   1.321   0.797   2.305 -0.1259  2.1099  0.0177
 8673SOL    HW237479   1.450   0.742   2.250  0.6697 -1.0669  1.5223
 8674SOL     OW37480   2.662   2.744   5.901  0.3494  0.4838 -0.2479
 8674SOL    HW137481   2.656   2.651   5.924 -2.0005 -0.0276 -2.8762
 8674SOL    HW237482   2.572   2.772   5.918 -0.0831 -1.2119  0.2888
 8675SOL     OW37483   2.563   0.323   2.107 -0.4774  0.3617 -0.1063
 8675SOL    HW137484   2.500   0.395   2.112  0.2958  0.9561  1.0483
 8675SOL    HW237485   2.612   0.334   2.025  1.4397 -0.1208  0.9843
 8676SOL     OW37486   0.398   4.189   8.182 -0.0412  0.2030  0.2143
 8676SOL    HW137487   0.450   4.254   8.229  0.4494 -0.7495  0.9940
 8676SOL    HW237488   0.406   4.224   8.094  2.1513 -0.7107  0.0557
 8677SOL     OW37489   0.125   4.342  16.904  0.2102 -0.1047  0.2629
 8677SOL    HW137490   0.054   4.349  16.841  1.9073  2.3107 -1.3619
 8677SOL    HW237491   0.160   4.253  16.897  1.7463  0.6249 -1.3002
 8678SOL     OW37492   3.458   4.162   6.816  0.2708 -0.5203 -0.0119
 8678SOL    HW137493   3.428   4.179   6.905  1.1865  2.2138 -0.2234
 8678SOL    HW237494   3.484   4.070   6.827 -0.1528 -0.5146  1.0718
 8679SOL     OW37495   2.840   3.061   3.957 -0.5013 -0.4173  0.2588
 8679SOL    HW137496   2.924   3.059   3.911 -1.4682  0.2117 -1.5276
 8679SOL    HW237497   2.827   2.975   3.996 -1.6898  0.1307  1.0589
 8680SOL     OW37498   4.170   4.416   5.413  0.7076  0.3321  0.0658
 8680SOL    HW137499   4.239   4.392   5.351  0.9688 -2.5148  1.4342
 8680SOL    HW237500   4.236   4.439   5.479 -0.2795  0.0501  1.1442
 8681SOL     OW37501   1.187   1.644  15.825  0.1754  0.3513  0.0541
 8681SOL    HW137502   1.177   1.700  15.748  3.0084 -1.1448 -1.3743
 8681SOL    HW237503   1.237   1.571  15.788  0.1793 -0.0583  0.8738
 8682SOL     OW37504   3.241   1.676   9.645  0.0488 -0.5279 -0.3046
 8682SOL    HW137505   3.237   1.696   9.552 -1.0365  2.0102  0.2855
 8682SOL    HW237506   3.183   1.600   9.645  1.3336 -1.5105 -0.3221
 8683SOL     OW37507   1.327   0.535  10.902  0.0120 -0.2604  0.4241
 8683SOL    HW137508   1.358   0.483  10.976 -2.3708 -0.8719  0.9927
 8683SOL    HW237509   1.342   0.627  10.923  0.8599 -0.8363  2.3259
 8684SOL     OW37510   1.634   0.780   2.609  0.0736  0.3105  0.3676
 8684SOL    HW137511   1.648   0.826   2.692  2.0607  0.3862 -0.0044
 8684SOL    HW237512   1.643   0.844   2.538 -0.5330 -1.4427 -1.2910
 8685SOL     OW37513   0.109   4.689   5.313  0.2321  0.2024 -0.0594
 8685SOL    HW137514   0.074   0.004   5.232 -1.2975  1.3143  1.0834
 8685SOL    HW237515   0.192   4.652   5.283 -0.3931 -1.6287  0.4726
 8686SOL     OW37516   1.723   4.379   9.605 -0.0261  0.3100  0.1206
 8686SOL    HW137517   1.652   4.441   9.623  0.0788 -0.1816  2.2112
 8686SOL    HW237518   1.752   4.409   9.519  0.5780 -1.1750 -0.1788
 8687SOL     OW37519   0.852   0.482   4.739 -0.3231 -0.1766 -0.3058
 8687SOL    HW137520   0.866   0.443   4.653  2.2284  1.5001 -0.6621
 8687SOL    HW237521   0.762   0.454   4.753 -0.2031  0.4218  1.6586
 8688SOL     OW37522   0.672   0.325   8.414 -0.2301 -0.9546 -0.3686
 8688SOL    HW137523   0.741   0.289   8.358 -0.1109  1.0514 -1.5253
 8688SOL    HW237524   0.634   0.250   8.460  0.2370 -0.4029  0.9339
 8689SOL     OW37525   0.614   2.044  10.955 -0.2852  0.0292 -0.2297
 8689SOL    HW137526   0.539   2.020  10.901 -1.1514  1.3887  0.3513
 8689SOL    HW237527   0.662   2.104  10.898  1.1762  0.3118  1.2974
 8690SOL     OW37528   2.761   3.274   2.308 -0.4018 -0.1102 -0.3914
 8690SOL    HW137529   2.778   3.367   2.297 -3.3134 -0.0350 -4.3718
 8690SOL    HW237530   2.839   3.224   2.283 -0.1374 -0.4941  1.2114
 8691SOL     OW37531   2.402   3.052   7.587 -0.0193  0.2732  0.2730
 8691SOL    HW137532   2.487   3.067   7.629  0.2775 -0.3220 -0.1106
 8691SOL    HW237533   2.383   2.965   7.622  0.1517 -0.0136 -0.3569
 8692SOL     OW37534   3.396   4.608   1.744  0.4979 -0.2459 -0.4251
 8692SOL    HW137535   3.462   4.624   1.676  0.6579  0.2487 -0.1575
 8692SOL    HW237536   3.363   4.526   1.709 -0.0713  0.0306 -0.5454
 8693SOL     OW37537   0.384   0.351   5.540 -0.5900 -0.1100 -0.3666
 8693SOL    HW137538   0.382   0.271   5.592 -0.3979  0.7336  0.9371
 8693SOL    HW237539   0.479   0.359   5.529 -0.9355  1.6759 -1.9919
 8694SOL     OW37540   0.580   3.526   3.933  0.1550 -0.1014  0.2269
 8694SOL    HW137541   0.621   3.514   4.019 -0.9441 -0.8878  0.6422
 8694SOL    HW237542   0.652   3.556   3.877 -1.5094  1.6341 -0.9462
 8695SOL     OW37543   0.120   3.489   2.943 -0.0133 -0.0424  0.1289
 8695SOL    HW137544   0.112   3.584   2.954  0.7548  0.1349 -0.9704
 8695SOL    HW237545   0.046   3.461   2.997  0.9598 -0.2453  1.3588
 8696SOL     OW37546   4.331   0.008   6.520  0.2367  0.3909 -0.2311
 8696SOL    HW137547   4.392   4.660   6.495 -0.5149  0.0305 -1.0823
 8696SOL    HW237548   4.390   0.075   6.555 -0.9202  1.4672 -0.3566
 8697SOL     OW37549   1.872   2.685   4.100  0.4444 -0.0712  0.3770
 8697SOL    HW137550   1.811   2.752   4.069 -0.1616 -0.9051 -0.2479
 8697SOL    HW237551   1.956   2.723   4.075  1.2526  0.4656  3.9009
 8698SOL     OW37552   0.451   3.607   7.849  0.0924 -0.5633 -0.3691
 8698SOL    HW137553   0.484   3.593   7.938 -0.3818  0.6016 -0.0190
 8698SOL    HW237554   0.427   3.516   7.832  0.4317 -0.1009 -3.3116
 8699SOL     OW37555   3.484   4.659   4.977 -0.4473 -0.5592 -0.0600
 8699SOL    HW137556   3.479   4.579   5.030 -1.8235  0.0692  0.7450
 8699SOL    HW237557   3.399   4.661   4.934 -0.7583 -2.0760  0.4565
 8700SOL     OW37558   1.403   4.375  12.546 -0.2513  0.3562  0.3740
 8700SOL    HW137559   1.471   4.312  12.521 -0.5062  0.3928 -0.4185
 8700SOL    HW237560   1.395   4.364  12.640  0.1666  0.6828  0.4484
 8701SOL     OW37561   2.646   3.468   4.811  0.5982 -0.0699  0.1309
 8701SOL    HW137562   2.722   3.410   4.806  1.5481  0.9799  2.3194
 8701SOL    HW237563   2.684   3.547   4.847  0.7140  0.0032 -0.1562
 8702SOL     OW37564   3.875   2.694   6.885 -0.1494  0.2698  0.5604
 8702SOL    HW137565   3.970   2.693   6.894 -0.0299  1.1435 -0.6303
 8702SOL    HW237566   3.868   2.661   6.795  0.5529  1.0620  0.2125
 8703SOL     OW37567   1.799   1.262   6.299  0.2256 -0.2391  0.0579
 8703SOL    HW137568   1.774   1.257   6.391  2.4812  1.7415  0.7583
 8703SOL    HW237569   1.713   1.253   6.257 -0.1195  1.4889  0.4251
 8704SOL     OW37570   0.044   2.971   5.154  0.3509 -0.2392  0.1172
 8704SOL    HW137571   0.079   2.961   5.066  2.0638 -3.5299  1.1827
 8704SOL    HW237572   0.026   2.880   5.174  0.6222 -0.0199  1.3925
 8705SOL     OW37573   0.667   2.143   2.101  0.6965  0.0458 -0.4664
 8705SOL    HW137574   0.605   2.071   2.087 -0.7401  0.4281  3.9179
 8705SOL    HW237575   0.609   2.219   2.107  0.1659 -0.4838  1.2681
 8706SOL     OW37576   2.983   2.604   0.002 -0.3890 -0.2067  0.1430
 8706SOL    HW137577   3.036   2.672  17.647 -4.1589  2.2981 -0.5152
 8706SOL    HW237578   2.988   2.636   0.092 -1.7902 -1.2598  0.5876
 8707SOL     OW37579   2.767   0.277   5.493  0.1012  0.3846  0.0173
 8707SOL    HW137580   2.822   0.219   5.441  0.6198  0.3622  0.6017
 8707SOL    HW237581   2.747   0.224   5.570 -3.6184  0.5376 -0.8030
 8708SOL     OW37582   2.575   0.495   3.465 -0.5528 -0.2127 -0.5349
 8708SOL    HW137583   2.578   0.573   3.410  2.9608  1.1864  1.6205
 8708SOL    HW237584   2.667   0.491   3.491 -0.2210  0.3220 -1.6063
 8709SOL     OW37585   4.283   4.459   8.186 -0.0611  0.3684  0.0787
 8709SOL    HW137586   4.192   4.430   8.191  0.2356 -0.3499  1.3126
 8709SOL    HW237587   4.333   4.398   8.240  0.6516  0.6214 -0.2930
 8710SOL     OW37588   2.864   3.737   3.988 -0.2908  0.4213  0.2061
 8710SOL    HW137589   2.841   3.829   3.982 -1.7526  0.0225 -0.2122
 8710SOL    HW237590   2.948   3.746   4.033  0.2392 -1.6904 -0.3675
 8711SOL     OW37591   3.206   0.334  10.355  0.1694  0.1974  0.1301
 8711SOL    HW137592   3.261   0.337  10.434  0.4282 -1.3981  0.0139
 8711SOL    HW237593   3.160   0.253  10.374 -0.0415 -0.1298 -1.7901
 8712SOL     OW37594   0.098   0.607  10.670  0.6491 -0.2726 -0.9017
 8712SOL    HW137595   0.079   0.688  10.717  1.4832 -1.8295  2.0831
 8712SOL    HW237596   0.079   0.622  10.577  2.1724 -0.4934 -1.2493
 8713SOL     OW37597   1.948   1.985   3.595 -0.5288  0.2955  0.3137
 8713SOL    HW137598   1.868   2.017   3.635 -0.7236  1.3783 -0.9326
 8713SOL    HW237599   2.010   2.024   3.657 -0.4151  0.5476  0.0436
 8714SOL     OW37600   4.052   4.663   8.654 -0.2012  0.3545 -0.8788
 8714SOL    HW137601   3.995   4.599   8.697  0.8522  0.6494  0.9528
 8714SOL    HW237602   4.117   4.687   8.721 -1.5038  0.0314  0.5014
 8715SOL     OW37603   3.006   2.651   4.156 -0.0886 -0.3683  0.0985
 8715SOL    HW137604   2.987   2.560   4.131  0.4482 -0.2616 -0.6779
 8715SOL    HW237605   3.041   2.638   4.244 -1.2879 -1.6762  0.3774
 8716SOL     OW37606   0.008   2.935   8.735  0.5168 -0.6563  0.1426
 8716SOL    HW137607   4.639   2.907   8.754  0.7266  0.0973  2.2071
 8716SOL    HW237608   0.000   3.010   8.677  0.0889  0.6167  1.8392
 8717SOL     OW37609   3.843   0.351   2.659 -0.1806 -0.4144 -0.7627
 8717SOL    HW137610   3.815   0.354   2.568 -0.3187  0.7426 -0.6800
 8717SOL    HW237611   3.802   0.272   2.695 -0.6233 -0.3677 -1.1793
 8718SOL     OW37612   0.157   3.421  15.893  0.0892 -0.2837  0.3672
 8718SOL    HW137613   0.102   3.442  15.967  2.3817  0.4207  1.8653
 8718SOL    HW237614   0.092   3.410  15.823  1.6510  1.1637 -1.3245
 8719SOL     OW37615   2.016   2.829   0.418  0.8243  0.4751  0.4425
 8719SOL    HW137616   2.095   2.870   0.385 -0.7652  2.5253 -0.8462
 8719SOL    HW237617   2.042   2.737   0.416 -1.5756 -0.1842 -0.3396
 8720SOL     OW37618   3.747   2.631   0.866  0.2656  0.1324  0.1815
 8720SOL    HW137619   3.706   2.625   0.780 -0.1812  2.8138  0.2016
 8720SOL    HW237620   3.691   2.702   0.898 -0.3921 -1.9376  3.6355
 8721SOL     OW37621   0.799   2.609  11.470 -0.5521  0.3751  0.3075
 8721SOL    HW137622   0.834   2.665  11.401  1.9904 -1.6954 -0.0850
 8721SOL    HW237623   0.811   2.520  11.437  0.9135  1.6517 -2.5750
 8722SOL     OW37624   4.011   3.969   5.876 -0.6528 -0.0931 -0.0137
 8722SOL    HW137625   4.022   3.994   5.968  0.1030  0.2353 -0.1905
 8722SOL    HW237626   3.999   4.057   5.840  1.2709  1.0541  2.1570
 8723SOL     OW37627   3.091   1.534   2.109  0.3047  0.1164 -0.2133
 8723SOL    HW137628   3.101   1.458   2.167 -0.8239  0.6949  0.7498
 8723SOL    HW237629   3.153   1.596   2.148 -1.0581 -0.5153  2.9560
 8724SOL     OW37630   4.177   4.316   8.797  0.3716 -0.4514  0.5238
 8724SOL    HW137631   4.244   4.376   8.764  0.7945 -1.9614 -1.3705
 8724SOL    HW237632   4.096   4.366   8.799  0.4874 -0.3204  1.7206
 8725SOL     OW37633   1.788   2.151   9.133  0.1451  0.1086  0.5018
 8725SOL    HW137634   1.842   2.095   9.188 -1.4872 -0.4500  1.5401
 8725SOL    HW237635   1.760   2.084   9.070 -0.8773  0.1227  0.9352
 8726SOL     OW37636   3.992   3.362  12.847  0.6092 -0.2865 -0.3524
 8726SOL    HW137637   4.081   3.397  12.849  0.5126  0.0507 -1.6442
 8726SOL    HW237638   4.010   3.282  12.897 -1.0851 -0.7390 -0.4380
 8727SOL     OW37639   3.236   4.108   4.836  0.4227  0.1247  0.1277
 8727SOL    HW137640   3.276   4.120   4.923  3.8506 -1.2496 -1.2729
 8727SOL    HW237641   3.201   4.195   4.818 -2.2202 -1.1293 -0.6576
 8728SOL     OW37642   2.250   0.619   0.668  0.7287  0.4671 -0.4577
 8728SOL    HW137643   2.333   0.663   0.684  0.1142  1.5932 -0.3824
 8728SOL    HW237644   2.281   0.553   0.606  1.8010  0.9254 -0.4054
 8729SOL     OW37645   3.215   2.441  12.411  0.1788  0.2113  0.1864
 8729SOL    HW137646   3.128   2.475  12.393  0.4402  1.6187  1.4574
 8729SOL    HW237647   3.205   2.352  12.380  2.0597 -0.8431  2.5390
 8730SOL     OW37648   4.570   2.293   4.769 -0.0952  0.0645 -0.4028
 8730SOL    HW137649   4.560   2.208   4.812 -0.9794  0.4901  0.2224
 8730SOL    HW237650   4.653   2.278   4.723  1.1142  0.6188  1.6253
 8731SOL     OW37651   4.634   2.737   6.783 -0.6721 -0.5233 -0.3188
 8731SOL    HW137652   4.609   2.731   6.875 -1.8710 -1.9159 -0.7295
 8731SOL    HW237653   4.678   2.652   6.782  2.4763  1.0701  4.5395
 8732SOL     OW37654   1.536   3.963   5.675 -0.0119  0.2136 -0.5912
 8732SOL    HW137655   1.567   3.874   5.658 -4.4826 -1.3386 -0.6042
 8732SOL    HW237656   1.559   4.007   5.593  1.2453 -0.8072 -0.8039
 8733SOL     OW37657   2.434   3.313   7.972 -0.3645  0.4026 -0.2227
 8733SOL    HW137658   2.426   3.249   8.044  2.1525 -1.5726 -1.6950
 8733SOL    HW237659   2.521   3.295   7.938 -0.5186  0.5045 -0.6668
 8734SOL     OW37660   2.943   2.685   2.098  0.7382 -0.0175  0.0051
 8734SOL    HW137661   2.942   2.781   2.107 -0.4193 -0.1137  1.0007
 8734SOL    HW237662   2.892   2.681   2.017  0.3851 -0.9401  0.2717
 8735SOL     OW37663   3.059   2.287   5.953  0.2985 -0.0145 -0.4265
 8735SOL    HW137664   3.042   2.346   5.880  0.4366  1.1207  0.4569
 8735SOL    HW237665   3.031   2.341   6.027 -2.0835 -0.1350 -1.2469
 8736SOL     OW37666   0.687   0.223   2.270  0.0112  0.2616  0.7466
 8736SOL    HW137667   0.682   0.159   2.341 -1.8495 -0.5389 -0.1071
 8736SOL    HW237668   0.769   0.271   2.278 -1.1701  2.5210 -0.6504
 8737SOL     OW37669   1.462   2.840  13.027  0.6054  0.0919  0.2375
 8737SOL    HW137670   1.503   2.755  13.013  0.6992  0.0154  0.9670
 8737SOL    HW237671   1.527   2.898  12.987  1.7297  0.3870  2.4838
 8738SOL     OW37672   1.035   2.433   8.870  0.2609 -0.2115 -0.2525
 8738SOL    HW137673   0.947   2.421   8.904  0.2833  2.3851  0.7495
 8738SOL    HW237674   1.072   2.389   8.946  2.1163 -0.5127 -1.3291
 8739SOL     OW37675   1.610   1.944   0.291 -0.2408 -0.0636 -0.4566
 8739SOL    HW137676   1.625   2.039   0.292  2.5313 -0.5069  1.8624
 8739SOL    HW237677   1.608   1.910   0.381  0.3589 -0.0149 -0.4188
 8740SOL     OW37678   4.276   0.887   4.662  0.0631  0.5427 -0.2058
 8740SOL    HW137679   4.336   0.824   4.702  0.2562  1.6522  1.2359
 8740SOL    HW237680   4.217   0.907   4.735  0.2763 -0.8861  0.3696
 8741SOL     OW37681   3.759   4.634   7.635  0.1501 -0.3984 -0.3392
 8741SOL    HW137682   3.685   4.576   7.653  0.8692 -1.1275  0.2605
 8741SOL    HW237683   3.717   4.704   7.684  2.8673  0.7629  0.3205
 8742SOL     OW37684   0.166   1.645   2.898 -0.0980 -0.0522  0.0054
 8742SOL    HW137685   0.125   1.717   2.851  1.0857 -0.9435 -2.3764
 8742SOL    HW237686   0.086   1.602   2.926 -0.0174 -0.2636 -0.0927
 8743SOL     OW37687   4.201   3.619   1.296 -0.5294 -0.3726 -0.2273
 8743SOL    HW137688   4.152   3.637   1.377  2.3593  0.4687  1.3222
 8743SOL    HW237689   4.287   3.656   1.313 -0.1394 -1.6351  0.5772
 8744SOL     OW37690   2.062   2.734  17.534  0.6205  0.1864  0.3508
 8744SOL    HW137691   2.041   2.661  17.592 -0.1651  2.4939  3.0036
 8744SOL    HW237692   2.005   2.804  17.566  1.3714  1.2720 -0.7135
 8745SOL     OW37693   0.431   1.716   1.645  0.0184 -0.6262 -0.4365
 8745SOL    HW137694   0.432   1.658   1.570 -0.0385 -1.6037  0.3196
 8745SOL    HW237695   0.406   1.800   1.606  1.1633  0.2799  0.7876
 8746SOL     OW37696   3.871   1.110  15.870 -0.1345 -0.1497  0.5903
 8746SOL    HW137697   3.902   1.087  15.782  0.5576 -1.0309  1.0664
 8746SOL    HW237698   3.814   1.183  15.846  1.4727  1.1181  0.5932
 8747SOL     OW37699   0.034   4.580  12.750  0.3114  0.6177 -0.4830
 8747SOL    HW137700   0.027   4.505  12.691  3.3558  1.3434 -1.7783
 8747SOL    HW237701   0.127   4.564  12.765 -0.4801 -3.1308  0.5250
 8748SOL     OW37702   2.866   4.637   2.573  0.1971 -0.2573 -0.2238
 8748SOL    HW137703   2.929   4.586   2.522  1.6625  1.6757 -0.3249
 8748SOL    HW237704   2.844   4.699   2.503 -1.5735 -0.5446  0.0818
 8749SOL     OW37705   2.429   1.534   7.066 -0.0271  0.1651  0.6614
 8749SOL    HW137706   2.453   1.603   7.005  2.3446 -1.4471 -0.2113
 8749SOL    HW237707   2.426   1.570   7.155 -1.3767  0.1295  0.6279
 8750SOL     OW37708   0.016   1.452   5.262  0.7316 -0.2357  0.5008
 8750SOL    HW137709   0.095   1.408   5.232  1.7352  3.1908 -1.8166
 8750SOL    HW237710   4.681   1.452   5.185  1.1299 -0.9223  0.2110
 8751SOL     OW37711   4.380   3.234   5.540  0.5669  0.1339  0.4256
 8751SOL    HW137712   4.466   3.218   5.503  0.5576 -0.8830  0.8324
 8751SOL    HW237713   4.358   3.320   5.506  0.7749  0.2894  0.6860
 8752SOL     OW37714   4.513   4.289   2.804 -0.2122  0.3713  0.3949
 8752SOL    HW137715   4.518   4.208   2.754  1.7171  0.6248  0.1787
 8752SOL    HW237716   4.445   4.273   2.869  0.0691  0.6082  0.7485
 8753SOL     OW37717   3.766   2.422   1.204  0.5164 -0.3085  0.0271
 8753SOL    HW137718   3.700   2.426   1.135  3.0006 -0.4325 -2.3243
 8753SOL    HW237719   3.844   2.425   1.149  1.3938 -0.6787  1.2410
 8754SOL     OW37720   4.160   2.370  12.994  0.3975  0.3924  0.9396
 8754SOL    HW137721   4.176   2.290  12.943  0.1176  0.8158  0.1888
 8754SOL    HW237722   4.087   2.342  13.049  0.7132  0.6876  1.5115
 8755SOL     OW37723   0.102   2.154   7.814 -0.1244 -0.2626  0.3359
 8755SOL    HW137724   0.165   2.195   7.872 -1.1956  0.7371  0.7999
 8755SOL    HW237725   0.070   2.080   7.866 -1.6787  0.0830 -0.1254
 8756SOL     OW37726   1.074   3.117   9.148  0.1850  0.3282 -0.3502
 8756SOL    HW137727   1.049   3.188   9.206 -1.3964  0.8819 -1.7165
 8756SOL    HW237728   1.008   3.123   9.079  0.4524 -2.8354 -0.9159
 8757SOL     OW37729   4.039   3.390  10.410  0.9269 -0.2503 -0.0553
 8757SOL    HW137730   3.978   3.449  10.454  0.9495  0.2197 -0.6486
 8757SOL    HW237731   4.093   3.369  10.486  2.1196  2.1806 -0.2363
 8758SOL     OW37732   0.405   1.154   9.246 -0.2726 -0.2978 -0.3489
 8758SOL    HW137733   0.485   1.135   9.295  0.6257 -1.0918 -2.1456
 8758SOL    HW237734   0.348   1.084   9.277  0.6581 -0.1868  1.6893
 8759SOL     OW37735   1.163   4.013   4.368  0.4224  0.3063  0.7791
 8759SOL    HW137736   1.093   3.965   4.325  0.1119 -0.0717  1.7115
 8759SOL    HW237737   1.237   3.997   4.309  0.4042 -0.4800  0.9801
 8760SOL     OW37738   0.740   4.123  11.803  0.1194 -0.0357 -0.1524
 8760SOL    HW137739   0.733   4.109  11.709  0.6986 -0.0276 -0.2001
 8760SOL    HW237740   0.821   4.073  11.815 -0.6130 -1.0374  0.6563
 8761SOL     OW37741   3.908   2.624   5.384 -0.3360  0.1470  0.0270
 8761SOL    HW137742   3.828   2.627   5.331  0.4646 -3.5921 -1.4210
 8761SOL    HW237743   3.971   2.678   5.336 -0.6675 -1.1322 -1.8535
 8762SOL     OW37744   2.126   2.403  16.751 -0.6185  0.1369 -0.0989
 8762SOL    HW137745   2.083   2.459  16.687 -0.9582 -1.3525 -1.1796
 8762SOL    HW237746   2.210   2.450  16.758  0.0125 -1.0969  0.5949
 8763SOL     OW37747   0.803   0.461   3.399 -0.2092  0.3570 -0.4916
 8763SOL    HW137748   0.893   0.463   3.433 -0.2467  0.0094 -0.3750
 8763SOL    HW237749   0.770   0.389   3.453 -0.1856  1.1005  0.5058
 8764SOL     OW37750   4.100   3.656  10.194  0.3147 -0.2099  0.5237
 8764SOL    HW137751   4.011   3.675  10.225 -0.0217  0.3030 -0.7730
 8764SOL    HW237752   4.121   3.597  10.266  1.0530 -0.4132  0.1316
 8765SOL     OW37753   1.438   1.691   6.004 -0.2858 -0.0157  0.4172
 8765SOL    HW137754   1.443   1.784   6.027  1.0050  0.1139 -0.4401
 8765SOL    HW237755   1.406   1.649   6.084 -1.7358  0.1102 -0.0974
 8766SOL     OW37756   0.323   3.195   2.028  0.3486  0.2167 -0.4847
 8766SOL    HW137757   0.329   3.103   2.052 -2.4462 -0.0413 -0.7269
 8766SOL    HW237758   0.351   3.236   2.109  0.5421 -0.9536  0.0388
 8767SOL     OW37759   2.766   0.865   7.803 -0.0583  0.1278  0.0123
 8767SOL    HW137760   2.824   0.828   7.736 -0.4651  0.8581 -0.7340
 8767SOL    HW237761   2.680   0.862   7.760 -0.2729 -1.5401  0.5412
 8768SOL     OW37762   4.339   0.587   0.981  0.1532 -0.4547  0.1680
 8768SOL    HW137763   4.392   0.665   0.997 -0.7047  0.3510 -0.9058
 8768SOL    HW237764   4.369   0.553   0.897  0.6406 -2.0677  0.9952
 8769SOL     OW37765   3.437   1.643   7.012  0.3967 -0.1193  0.2455
 8769SOL    HW137766   3.488   1.711   6.966  1.0038  0.1361  1.2822
 8769SOL    HW237767   3.356   1.656   6.964  1.3424 -1.1496 -1.6591
 8770SOL     OW37768   2.078   0.980   3.713 -0.0131  0.0683  0.4194
 8770SOL    HW137769   2.169   1.000   3.734  0.3291  0.2779 -1.2205
 8770SOL    HW237770   2.088   0.892   3.678  0.9899 -0.6321  2.4835
 8771SOL     OW37771   4.139   3.212   3.710 -0.1759 -0.1356  0.7795
 8771SOL    HW137772   4.192   3.138   3.740  0.6321  0.4946  0.9061
 8771SOL    HW237773   4.060   3.191   3.760 -0.0143  1.8186  1.8592
 8772SOL     OW37774   4.008   2.883  10.281 -0.4190  0.5211 -0.2497
 8772SOL    HW137775   4.065   2.954  10.311  0.1099 -0.0847  0.1769
 8772SOL    HW237776   3.945   2.938  10.236 -0.9132 -0.6134 -0.9511
 8773SOL     OW37777   0.624   4.615   8.317 -0.0475  0.8682  0.1394
 8773SOL    HW137778   0.663   4.654   8.395 -1.9111 -0.0598  1.5603
 8773SOL    HW237779   0.568   4.690   8.297 -1.5327 -0.2153  0.2292
 8774SOL     OW37780   3.133   0.987  11.054 -0.4234 -0.2388 -0.7766
 8774SOL    HW137781   3.117   0.913  11.113 -0.0540 -0.0782 -0.4746
 8774SOL    HW237782   3.229   0.986  11.049 -0.3967  0.0244 -0.3354
 8775SOL     OW37783   1.599   4.223   7.916 -0.0970 -0.5613  0.0869
 8775SOL    HW137784   1.547   4.278   7.857  1.4917  1.3495  0.4770
 8775SOL    HW237785   1.621   4.149   7.860 -0.7721 -0.6245 -0.0958
 8776SOL     OW37786   0.410   1.743  17.111  0.0052  0.3848  0.6038
 8776SOL    HW137787   0.474   1.768  17.177 -0.8130  1.6279  0.9113
 8776SOL    HW237788   0.479   1.725  17.046 -0.9427 -1.1497  0.0236
 8777SOL     OW37789   4.088   1.654  15.079  0.6189 -0.2611  0.6084
 8777SOL    HW137790   4.177   1.671  15.110  1.0012 -0.6002 -0.3195
 8777SOL    HW237791   4.064   1.746  15.069 -1.6236 -0.8118  0.9839
 8778SOL     OW37792   1.235   1.158   4.709 -0.4997 -0.3572  0.2146
 8778SOL    HW137793   1.231   1.140   4.803 -0.0318 -1.4502  0.0278
 8778SOL    HW237794   1.264   1.249   4.712  1.1080 -0.8563 -0.1884
 8779SOL     OW37795   4.532   2.263   8.354  0.0640 -0.4887  0.5678
 8779SOL    HW137796   4.615   2.243   8.397  3.1485  1.8035 -4.2094
 8779SOL    HW237797   4.561   2.312   8.277  0.8542 -0.6728  0.7507
 8780SOL     OW37798   0.902   0.662  14.530  0.6186 -0.0268  0.1936
 8780SOL    HW137799   0.826   0.605  14.545 -0.4919  1.3290 -0.2630
 8780SOL    HW237800   0.876   0.694  14.444  0.9789 -0.6537 -0.1540
 8781SOL     OW37801   1.184   4.577  14.774  0.1170 -0.0003 -0.4442
 8781SOL    HW137802   1.202   4.585  14.681 -3.0369 -1.3658 -1.1441
 8781SOL    HW237803   1.210   4.667  14.795  2.2488 -0.7359  0.0372
 8782SOL     OW37804   0.914   0.016   6.629 -0.6721  0.0362  0.2945
 8782SOL    HW137805   0.876   4.684   6.559  0.1853 -1.5116  1.0247
 8782SOL    HW237806   0.863   0.097   6.627 -0.4080  0.1725 -1.0102
 8783SOL     OW37807   0.393   0.083   2.169 -0.1179 -0.1971 -0.1078
 8783SOL    HW137808   0.437   0.158   2.130  0.0220  0.2448  0.8979
 8783SOL    HW237809   0.374   0.035   2.089  1.9669  1.1643 -1.4160
 8784SOL     OW37810   2.315   3.851   7.193 -0.2588 -0.1268  0.0752
 8784SOL    HW137811   2.398   3.819   7.230 -0.9675  0.4156  2.1173
 8784SOL    HW237812   2.260   3.826   7.267  1.8329  0.3257  1.7500
 8785SOL     OW37813   0.155   3.822   2.715  1.0210  0.1680  0.3405
 8785SOL    HW137814   0.206   3.753   2.674 -1.8732 -2.3024  0.8605
 8785SOL    HW237815   0.220   3.888   2.740 -0.7845  2.7885 -1.8704
 8786SOL     OW37816   0.084   1.923  17.403 -0.3150 -0.4100  0.0608
 8786SOL    HW137817   0.170   1.941  17.440 -1.6808  3.2035  1.5294
 8786SOL    HW237818   0.035   1.963  17.475 -2.3012 -1.8666 -0.4827
 8787SOL     OW37819   1.091   0.486  13.842 -0.2925  0.3845  0.0520
 8787SOL    HW137820   1.054   0.513  13.758  0.7297  1.4783 -0.0513
 8787SOL    HW237821   1.183   0.473  13.821 -1.4341 -1.7226 -3.5941
 8788SOL     OW37822   4.331   1.442   2.532  0.3485 -0.3545 -0.1644
 8788SOL    HW137823   4.236   1.435   2.538  0.4042 -1.4298 -0.5926
 8788SOL    HW237824   4.346   1.403   2.446  0.0911 -0.4361 -0.1732
 8789SOL     OW37825   0.622   1.423   3.285 -0.4948 -0.1431 -0.6768
 8789SOL    HW137826   0.717   1.424   3.295 -0.4940 -0.3454 -0.6538
 8789SOL    HW237827   0.616   1.518   3.281 -0.5322 -0.1002  0.3999
 8790SOL     OW37828   2.126   4.375   2.333  0.4647 -0.2692 -0.5883
 8790SOL    HW137829   2.067   4.360   2.407  1.7177  0.1537  0.4957
 8790SOL    HW237830   2.058   4.372   2.265 -0.9249  1.9837  0.7187
 8791SOL     OW37831   2.885   3.626   3.644 -0.1430 -0.6190 -0.2615
 8791SOL    HW137832   2.956   3.687   3.624 -1.9687  2.2457  1.8977
 8791SOL    HW237833   2.834   3.693   3.690 -0.0193  0.1557 -1.2292
 8792SOL     OW37834   1.093   0.017   7.800 -0.2985  0.1309  0.1017
 8792SOL    HW137835   1.042   0.089   7.762 -1.9551 -0.2557  1.5707
 8792SOL    HW237836   1.028   4.669   7.799  0.0156 -0.1649  0.2201
 8793SOL     OW37837   2.178   2.139  11.771  0.3115 -0.5707  0.3840
 8793SOL    HW137838   2.249   2.084  11.806  1.1755  0.9511  1.0637
 8793SOL    HW237839   2.102   2.088  11.799 -0.2329 -0.6804 -1.3295
 8794SOL     OW37840   0.979   2.397   5.447 -0.2479  0.1191 -0.3267
 8794SOL    HW137841   1.067   2.429   5.425  0.5172  0.5520  3.4341
 8794SOL    HW237842   0.989   2.307   5.413  0.8597  1.1634 -2.8040
 8795SOL     OW37843   0.565   3.844   6.981  0.7645  0.0282  0.0319
 8795SOL    HW137844   0.596   3.798   7.060 -0.8062  0.7991  1.1041
 8795SOL    HW237845   0.608   3.795   6.911  1.8619  0.1665  0.6173
 8796SOL     OW37846   3.459   1.507   2.128 -0.0611 -0.3774  0.4131
 8796SOL    HW137847   3.407   1.564   2.184 -0.3230 -0.2121 -0.0015
 8796SOL    HW237848   3.500   1.577   2.077 -3.6078  0.0550 -1.8961
 8797SOL     OW37849   3.778   0.098   6.397  0.3150  0.0432  0.0730
 8797SOL    HW137850   3.807   0.035   6.463 -0.1561  1.2524  1.4386
 8797SOL    HW237851   3.838   0.168   6.423 -0.2947  0.5393  0.1465
 8798SOL     OW37852   4.019   2.814   9.481  0.3979  0.2381 -0.3237
 8798SOL    HW137853   4.103   2.843   9.446  0.6678  1.1163  1.0568
 8798SOL    HW237854   4.052   2.767   9.558 -0.6423 -1.5145 -0.9316
 8799SOL     OW37855   4.221   1.167   4.026  0.3173 -0.1472 -0.5188
 8799SOL    HW137856   4.216   1.157   3.930 -0.9215 -0.9708 -0.3755
 8799SOL    HW237857   4.233   1.261   4.030  2.5463 -0.3003 -3.6840
 8800SOL     OW37858   0.886   1.324   4.336 -0.4081  0.0070 -0.7692
 8800SOL    HW137859   0.869   1.231   4.350 -1.0315  0.1609 -0.5017
 8800SOL    HW237860   0.813   1.330   4.275 -0.6922 -0.5425 -0.4843
 8801SOL     OW37861   1.035   0.650   9.552 -0.3172  0.5108  0.6163
 8801SOL    HW137862   1.058   0.560   9.529  0.5654  0.9090 -0.0675
 8801SOL    HW237863   0.962   0.631   9.611 -0.5083  0.9622  0.5305
 8802SOL     OW37864   2.855   1.709  15.688 -0.1116  0.7079 -0.1162
 8802SOL    HW137865   2.915   1.781  15.706 -1.0193  1.4840 -0.1920
 8802SOL    HW237866   2.795   1.726  15.760  3.0608  1.4259  2.3461
 8803SOL     OW37867   2.838   0.174   4.219  0.2046  0.0620  0.0150
 8803SOL    HW137868   2.922   0.212   4.246  0.9302  0.6599 -3.0520
 8803SOL    HW237869   2.806   0.258   4.185 -3.6671 -0.9796  1.1412
 8804SOL     OW37870   3.022   3.957  12.719  0.0288  0.3120  0.7587
 8804SOL    HW137871   3.096   3.898  12.708  0.0838  0.7558 -1.2718
 8804SOL    HW237872   2.976   3.923  12.642 -0.9605 -0.4212  1.6679
 8805SOL     OW37873   0.805   2.321   3.289 -0.5182 -0.2002  0.2026
 8805SOL    HW137874   0.828   2.404   3.247 -0.5746  0.3892  1.3587
 8805SOL    HW237875   0.837   2.258   3.225 -1.9664  0.6163 -1.3439
 8806SOL     OW37876   4.479   3.228   7.345 -0.2567  0.2130 -0.1019
 8806SOL    HW137877   4.439   3.276   7.272  0.4165  0.7950 -0.0941
 8806SOL    HW237878   4.477   3.145   7.297  2.0744 -0.6177  1.2199
 8807SOL     OW37879   0.185   0.813   0.902  0.1578  0.2621  0.1503
 8807SOL    HW137880   0.199   0.816   0.997 -2.8743  2.1979  0.5272
 8807SOL    HW237881   0.193   0.717   0.895 -0.6218  0.3027 -1.2063
 8808SOL     OW37882   1.225   4.466   8.774 -0.2950  0.6756  0.5912
 8808SOL    HW137883   1.230   4.537   8.710 -1.5246  0.4721  0.2750
 8808SOL    HW237884   1.225   4.517   8.855 -3.2832  2.5427 -0.5840
 8809SOL     OW37885   1.018   0.687   3.032  0.4770 -0.0126  0.1627
 8809SOL    HW137886   0.979   0.600   3.030  1.9485 -0.6385 -0.9113
 8809SOL    HW237887   1.023   0.700   3.126  0.2128  0.6899  0.0849
 8810SOL     OW37888   3.554   2.999  13.504  0.3469 -0.0773  1.0389
 8810SOL    HW137889   3.550   2.947  13.423  0.4088  1.9837 -0.2720
 8810SOL    HW237890   3.492   3.068  13.481 -0.0339 -0.6520  0.3011
 8811SOL     OW37891   2.909   4.550   1.970 -0.0869  0.0311  0.1116
 8811SOL    HW137892   2.911   4.456   1.954 -0.2693  0.2185 -1.0224
 8811SOL    HW237893   3.001   4.577   1.964 -0.6028  1.8118 -0.0409
 8812SOL     OW37894   0.625   2.992   7.399  0.2638 -0.1456  0.2684
 8812SOL    HW137895   0.578   3.051   7.340 -1.6548 -1.4642  0.4588
 8812SOL    HW237896   0.716   3.006   7.375  0.0446 -0.5319 -0.7839
 8813SOL     OW37897   2.500   0.270   4.857 -0.9822 -0.0555  0.1610
 8813SOL    HW137898   2.482   0.177   4.852  0.8856 -0.4531  0.7316
 8813SOL    HW237899   2.505   0.288   4.951 -1.9476 -0.3336  0.2588
 8814SOL     OW37900   0.292   2.386   7.487 -0.1136  0.3788 -0.1595
 8814SOL    HW137901   0.380   2.421   7.470  1.2715 -2.8070  0.3589
 8814SOL    HW237902   0.308   2.292   7.474  1.2171  0.7777 -1.4011
 8815SOL     OW37903   2.097   2.605   5.532 -0.6777 -1.0263  0.8618
 8815SOL    HW137904   2.169   2.656   5.495 -2.7871 -1.1998 -3.4601
 8815SOL    HW237905   2.130   2.515   5.524 -1.2709 -1.2522  0.9539
 8816SOL     OW37906   3.410   2.127   8.333  0.5437 -0.0299  0.4835
 8816SOL    HW137907   3.468   2.051   8.338  0.3413 -0.3431 -1.7348
 8816SOL    HW237908   3.336   2.094   8.385  1.6564 -0.6816  1.6550
 8817SOL     OW37909   4.417   0.923   7.555  0.3705 -0.0989 -0.5344
 8817SOL    HW137910   4.360   0.955   7.625  1.3900 -0.3865  0.4177
 8817SOL    HW237911   4.465   1.005   7.544 -1.5382  0.8919 -1.5480
 8818SOL     OW37912   2.397   0.862   1.940  0.2287 -0.0409 -0.1663
 8818SOL    HW137913   2.384   0.917   1.862  0.9971  1.1435  0.5350
 8818SOL    HW237914   2.369   0.927   2.005 -1.0474 -0.3041 -0.4494
 8819SOL     OW37915   3.586   4.496  12.386  0.0313 -0.3202  0.5666
 8819SOL    HW137916   3.648   4.497  12.458 -0.9902  1.6789  1.4340
 8819SOL    HW237917   3.581   4.586  12.352 -0.1635  0.0498  1.5662
 8820SOL     OW37918   3.177   3.060   2.390  0.2779 -0.0021 -0.0863
 8820SOL    HW137919   3.113   3.037   2.458 -1.8084  0.0139 -2.0495
 8820SOL    HW237920   3.136   3.134   2.347 -0.3108 -1.2707 -1.7220
 8821SOL     OW37921   2.362   1.169   5.822  0.2537  0.2607  0.9353
 8821SOL    HW137922   2.317   1.249   5.848 -0.4478 -0.1210  0.9110
 8821SOL    HW237923   2.291   1.105   5.827 -0.8554  1.4686  0.6049
 8822SOL     OW37924   3.836   3.819   3.159 -0.1398  0.0953  0.2764
 8822SOL    HW137925   3.887   3.739   3.169 -1.3921 -0.5547  1.4952
 8822SOL    HW237926   3.821   3.828   3.253 -0.3644 -1.2642  0.3650
 8823SOL     OW37927   4.296   4.103   4.376 -0.3554 -0.0677  0.4145
 8823SOL    HW137928   4.259   4.044   4.442  2.2416 -0.7018  1.3124
 8823SOL    HW237929   4.363   4.044   4.341  0.3749  0.1466  1.4348
 8824SOL     OW37930   0.441   3.899   7.845 -0.2594 -0.2340  0.1151
 8824SOL    HW137931   0.353   3.916   7.811 -0.2600 -1.3184 -0.4060
 8824SOL    HW237932   0.459   3.817   7.798 -2.6864  0.2254 -1.6117
 8825SOL     OW37933   4.496   2.034  13.044  0.2305 -0.2340  0.1632
 8825SOL    HW137934   4.485   2.012  13.137  0.7675  1.8669  0.7273
 8825SOL    HW237935   4.455   1.950  13.021 -0.5027  0.4576 -1.0489
 8826SOL     OW37936   2.150   1.208   6.601  0.1886  0.1644  0.1502
 8826SOL    HW137937   2.095   1.134   6.579  0.5207  0.0307 -0.2319
 8826SOL    HW237938   2.094   1.284   6.583  2.2417  1.0716 -2.4532
 8827SOL     OW37939   4.291   0.559   3.961  0.1116 -0.5112 -0.3154
 8827SOL    HW137940   4.338   0.477   3.947 -1.0758 -0.7010 -3.2241
 8827SOL    HW237941   4.288   0.570   4.056 -2.5830  1.0993 -0.5763
 8828SOL     OW37942   4.608   2.917   4.631  0.3248 -0.1742 -0.7760
 8828SOL    HW137943   4.609   2.970   4.551  0.9935  0.4861 -0.3159
 8828SOL    HW237944   4.664   2.959   4.696 -0.4419  1.4424 -1.1533
 8829SOL     OW37945   2.260   4.220   4.687  0.5268 -0.3749  0.2747
 8829SOL    HW137946   2.174   4.211   4.730  1.2623 -3.6422  1.0731
 8829SOL    HW237947   2.267   4.316   4.688 -1.6622 -0.1996 -0.6278
 8830SOL     OW37948   3.319   4.588   4.736  0.0363 -0.2201  0.7023
 8830SOL    HW137949   3.266   4.665   4.717 -0.8627 -1.0997 -0.3385
 8830SOL    HW237950   3.399   4.592   4.685 -0.3965 -1.3888 -0.0591
 8831SOL     OW37951   3.141   4.000  13.552 -0.0028  0.2852  0.4100
 8831SOL    HW137952   3.161   4.092  13.538  0.7149  0.0663 -0.0077
 8831SOL    HW237953   3.062   4.011  13.606 -0.6167 -1.6172 -0.0787
 8832SOL     OW37954   2.400   3.840   4.901 -0.1561  0.0166 -0.5668
 8832SOL    HW137955   2.448   3.903   4.954  0.5456 -0.5429 -0.5404
 8832SOL    HW237956   2.481   3.812   4.859 -0.6274  0.1353 -1.5436
 8833SOL     OW37957   4.635   0.657  15.481 -0.7707  0.3825  0.5575
 8833SOL    HW137958   4.542   0.679  15.476 -0.7447  0.8264  2.0598
 8833SOL    HW237959   4.641   0.564  15.505 -1.9129  0.3306  0.6078
 8834SOL     OW37960   3.742   2.998  14.848  0.3340  0.0048 -0.3002
 8834SOL    HW137961   3.723   3.064  14.781  1.6090  0.5136 -0.1712
 8834SOL    HW237962   3.767   2.929  14.786  2.0485 -1.2332  1.7657
 8835SOL     OW37963   2.190   3.003  15.817  0.1597  0.0414  0.3244
 8835SOL    HW137964   2.188   3.048  15.901 -1.4648 -0.2292  0.4374
 8835SOL    HW237965   2.255   2.933  15.828  1.9524  1.7623  0.6589
 8836SOL     OW37966   3.587   2.122   6.982 -0.4042 -0.0309 -0.8874
 8836SOL    HW137967   3.580   2.199   7.038  0.8827  0.2034 -1.0438
 8836SOL    HW237968   3.652   2.155   6.920  1.6602 -0.1953  1.1762
 8837SOL     OW37969   1.092   1.007  12.976 -0.3634 -0.0110  0.2924
 8837SOL    HW137970   1.176   1.051  12.989 -0.4415 -0.0982  1.1190
 8837SOL    HW237971   1.043   1.085  12.953  0.0706 -0.2917 -1.5637
 8838SOL     OW37972   1.617   1.706   4.886  0.0209 -0.0814 -0.2703
 8838SOL    HW137973   1.684   1.768   4.916  0.2228 -0.2783 -0.3131
 8838SOL    HW237974   1.624   1.709   4.790 -1.0631 -3.9216 -0.4399
 8839SOL     OW37975   2.867   3.566   0.074 -0.5106 -0.2529 -0.8405
 8839SOL    HW137976   2.873   3.578  17.668 -0.9148 -0.1033 -0.8488
 8839SOL    HW237977   2.921   3.491   0.098 -1.2385 -0.7734 -0.8490
 8840SOL     OW37978   1.642   1.951   4.709  0.1658  0.0331  0.6710
 8840SOL    HW137979   1.719   1.902   4.683 -0.4572 -0.1452 -0.8372
 8840SOL    HW237980   1.679   2.024   4.760  1.4881 -1.3389  1.6657
 8841SOL     OW37981   0.970   3.361   1.863 -0.4992  0.0052 -0.9442
 8841SOL    HW137982   0.886   3.323   1.836 -1.6343  0.7253  1.4946
 8841SOL    HW237983   0.943   3.450   1.887 -1.3328 -0.2442 -0.9653
 8842SOL     OW37984   2.085   2.468  16.486 -0.1463 -0.5190 -0.1937
 8842SOL    HW137985   2.036   2.453  16.405  0.5754 -0.0227 -0.7195
 8842SOL    HW237986   2.162   2.414  16.468 -0.2894 -1.1528  1.0966
 8843SOL     OW37987   3.638   3.646   2.327  0.2514 -0.3185 -1.0843
 8843SOL    HW137988   3.614   3.737   2.349 -1.4280 -0.8401 -0.7508
 8843SOL    HW237989   3.708   3.668   2.266 -0.0886  2.5168 -0.4916
 8844SOL     OW37990   3.228   2.939  12.100 -0.3320 -0.3238  0.2627
 8844SOL    HW137991   3.150   2.887  12.118 -0.8643  0.8761  1.4565
 8844SOL    HW237992   3.249   2.900  12.016  1.6151 -2.7150  1.8680
 8845SOL     OW37993   0.071   2.571   3.807 -0.3416 -0.3486  0.5385
 8845SOL    HW137994   4.706   2.595   3.774 -0.2678 -0.5628  0.1879
 8845SOL    HW237995   0.087   2.629   3.881 -0.6698  0.0337  0.3053
 8846SOL     OW37996   2.068   1.722  15.938  0.4334 -0.1996 -0.7859
 8846SOL    HW137997   1.988   1.743  15.986  0.9683 -0.4002  0.1952
 8846SOL    HW237998   2.044   1.689  15.851  2.2154  1.1195 -1.7658
 8847SOL     OW37999   3.050   3.622  16.455  0.3110 -0.5538  0.2675
 8847SOL    HW138000   3.097   3.539  16.454  0.3458 -0.4985 -2.6031
 8847SOL    HW238001   3.108   3.679  16.507 -2.5514  0.6357  2.1716
 8848SOL     OW38002   3.318   0.217   2.934 -0.6621  0.1669  0.4485
 8848SOL    HW138003   3.295   0.293   2.986 -0.6306 -0.1233  0.8849
 8848SOL    HW238004   3.357   0.265   2.861  0.2429 -1.2583 -0.0114
 8849SOL     OW38005   1.536   1.974   5.488 -1.0781 -0.1228 -0.0058
 8849SOL    HW138006   1.464   2.035   5.479 -0.9185  0.0102 -0.3917
 8849SOL    HW238007   1.579   1.972   5.402  0.4218 -1.3059  0.7634
 8850SOL     OW38008   2.460   2.855   0.862  0.0175  0.5149  0.1950
 8850SOL    HW138009   2.533   2.808   0.903  1.8351  2.1636 -1.1647
 8850SOL    HW238010   2.376   2.835   0.902 -0.8168  1.7595 -0.9411
 8851SOL     OW38011   0.252   3.002   2.693 -0.0868  0.1281  0.2771
 8851SOL    HW138012   0.296   2.979   2.611 -1.3330  1.7936 -0.8637
 8851SOL    HW238013   0.254   3.097   2.681  1.4997  0.0370 -0.1618
 8852SOL     OW38014   1.825   4.477   5.977  0.1873 -0.1316 -0.3287
 8852SOL    HW138015   1.771   4.410   6.019 -0.7546  0.8498  0.0215
 8852SOL    HW238016   1.899   4.434   5.935  0.6323 -0.1565  0.4844
 8853SOL     OW38017   1.995   3.207   8.746 -0.5908  0.3143 -0.2339
 8853SOL    HW138018   2.026   3.297   8.751 -1.9257  0.7825 -0.5970
 8853SOL    HW238019   1.904   3.215   8.719 -0.6049 -1.0648 -0.6277
 8854SOL     OW38020   0.364   3.907   0.594  0.6970  0.1148  0.0739
 8854SOL    HW138021   0.444   3.941   0.636 -0.1933 -0.3580  2.1666
 8854SOL    HW238022   0.397   3.847   0.528  0.3626 -1.6787  1.5195
 8855SOL     OW38023   2.334   2.870   6.593 -0.0179  0.1731  0.6367
 8855SOL    HW138024   2.351   2.777   6.584  0.8268  0.4210 -0.3780
 8855SOL    HW238025   2.299   2.870   6.682  0.7109 -0.8670  0.9204
 8856SOL     OW38026   4.029   1.350   7.271  0.2664  0.1590 -0.0521
 8856SOL    HW138027   4.004   1.315   7.357  2.3352  2.0828  1.3275
 8856SOL    HW238028   4.038   1.269   7.221  2.0124 -0.9051  2.0020
 8857SOL     OW38029   0.586   2.081  14.589 -0.3448 -0.0296 -0.2849
 8857SOL    HW138030   0.501   2.097  14.547 -1.2433 -1.4273  0.9508
 8857SOL    HW238031   0.548   2.048  14.671 -0.8337  1.3879  0.0588
 8858SOL     OW38032   2.380   0.521   2.066 -0.0899 -0.5695  0.3582
 8858SOL    HW138033   2.297   0.558   2.097 -1.5964 -1.9109 -1.9794
 8858SOL    HW238034   2.372   0.532   1.971 -1.1078  0.3070  0.5411
 8859SOL     OW38035   3.249   4.649  13.689  0.3745  0.4571  0.5414
 8859SOL    HW138036   3.239   0.014  13.651 -0.7636  0.9817  2.0451
 8859SOL    HW238037   3.330   4.619  13.647 -0.2242 -1.5706  0.8242
 8860SOL     OW38038   2.027   0.354   6.554  0.8134 -0.1011  0.3989
 8860SOL    HW138039   2.046   0.445   6.578  1.4672  0.0403 -0.6658
 8860SOL    HW238040   2.049   0.312   6.638 -1.4092 -1.5646  0.2171
 8861SOL     OW38041   4.159   1.569  10.464 -0.0951  0.2190  0.4074
 8861SOL    HW138042   4.105   1.567  10.385 -0.3710  0.9522  0.5793
 8861SOL    HW238043   4.227   1.626  10.428 -1.7320  0.9749 -1.4836
 8862SOL     OW38044   2.043   4.391   7.157  0.2000  0.5019  0.6358
 8862SOL    HW138045   2.013   4.465   7.210  2.8692  2.0311  0.0566
 8862SOL    HW238046   1.990   4.417   7.081  0.9204  3.8378  1.2681
 8863SOL     OW38047   4.177   4.566   4.900 -0.3862 -0.8362  0.1155
 8863SOL    HW138048   4.219   4.495   4.949  3.8864  1.0871 -0.7904
 8863SOL    HW238049   4.193   4.649   4.945  1.7229 -1.3964  0.4055
 8864SOL     OW38050   2.802   4.678   3.226  1.1927  0.4587  0.3303
 8864SOL    HW138051   2.792   4.583   3.218  0.2120  0.4787  1.3411
 8864SOL    HW238052   2.821   4.692   3.319  1.6246  0.5070  0.2330
 8865SOL     OW38053   4.537   2.937   8.950 -0.5464 -0.4290  0.3870
 8865SOL    HW138054   4.600   2.901   9.012 -2.0820 -3.3896  0.2487
 8865SOL    HW238055   4.456   2.919   8.998 -0.5148  0.4128  0.7523
 8866SOL     OW38056   3.704   0.990   5.515  0.2273 -0.1895  0.4341
 8866SOL    HW138057   3.670   1.007   5.427  2.2825 -0.3203 -0.3889
 8866SOL    HW238058   3.791   0.959   5.489 -0.1096  0.0687 -0.9809
 8867SOL     OW38059   4.253   0.875  15.552 -0.4946  0.0673  0.1532
 8867SOL    HW138060   4.281   0.805  15.492 -2.5837 -0.6732  0.0180
 8867SOL    HW238061   4.327   0.935  15.547  1.5592 -2.5600 -0.7317
 8868SOL     OW38062   3.083   0.612   3.334 -0.3028  0.3274  0.1590
 8868SOL    HW138063   3.000   0.600   3.287 -0.4369  0.8507  0.2520
 8868SOL    HW238064   3.112   0.679   3.273  2.3578  0.2499  1.3244
 8869SOL     OW38065   3.789   2.934   0.244  0.2205 -0.3834  0.1192
 8869SOL    HW138066   3.837   2.995   0.299 -0.6159  1.9115 -1.7064
 8869SOL    HW238067   3.772   2.860   0.304 -0.0954 -1.5699 -1.4237
 8870SOL     OW38068   2.953   4.325  11.804  0.0477  0.4317  0.1698
 8870SOL    HW138069   3.030   4.359  11.759  1.3479 -2.4681  0.2396
 8870SOL    HW238070   2.909   4.410  11.797 -1.4250 -0.2810  0.9050
 8871SOL     OW38071   2.829   1.909  10.671  0.0172  0.4257  0.3031
 8871SOL    HW138072   2.736   1.893  10.655 -0.0109 -0.1262  1.0264
 8871SOL    HW238073   2.865   1.855  10.601  2.4617 -0.4433  2.2384
 8872SOL     OW38074   1.079   1.215   9.718  0.2472 -0.1675 -0.1587
 8872SOL    HW138075   1.027   1.135   9.721  0.6072 -0.4256 -1.0036
 8872SOL    HW238076   1.166   1.174   9.715 -0.1323 -0.9920  0.0797
 8873SOL     OW38077   2.910   1.061   5.959  0.0900  0.2796  0.0493
 8873SOL    HW138078   2.848   0.989   5.972  0.5263 -0.0436  0.3446
 8873SOL    HW238079   2.937   1.043   5.869 -1.2888 -0.8884 -0.1177
 8874SOL     OW38080   1.351   2.836   4.045  0.2889  0.1949 -0.2655
 8874SOL    HW138081   1.326   2.757   3.998  1.0863  0.7340 -1.5959
 8874SOL    HW238082   1.405   2.880   3.978  1.3724 -1.5927 -0.5630
 8875SOL     OW38083   2.589   0.291   8.531 -0.0454 -0.4827 -0.6860
 8875SOL    HW138084   2.509   0.291   8.478  0.2310 -0.8639 -1.1131
 8875SOL    HW238085   2.641   0.236   8.472 -1.2264 -1.2056 -1.0626
 8876SOL     OW38086   4.085   4.449   4.550  0.6269  0.3133  0.0255
 8876SOL    HW138087   4.048   4.468   4.636  1.2401  0.4434  0.2599
 8876SOL    HW238088   4.082   4.353   4.550 -1.5273  0.3972 -2.9535
 8877SOL     OW38089   2.875   2.933   4.383 -0.8047 -0.1305 -0.1202
 8877SOL    HW138090   2.948   2.989   4.358 -1.2682 -0.2757 -1.7976
 8877SOL    HW238091   2.925   2.866   4.429  1.3182  2.2141  0.9987
 8878SOL     OW38092   4.298   3.461   4.662 -0.9191  0.1176  0.3334
 8878SOL    HW138093   4.253   3.408   4.596  1.3337  0.6484 -1.6607
 8878SOL    HW238094   4.307   3.394   4.729 -0.6875  1.0469  1.2199
 8879SOL     OW38095   3.727   0.932   8.780  0.1008  0.1664 -0.1183
 8879SOL    HW138096   3.687   0.938   8.867 -1.5786 -0.4095 -0.8541
 8879SOL    HW238097   3.708   0.840   8.763  1.5720 -0.0168 -0.6871
 8880SOL     OW38098   0.077   0.041   3.302 -0.7895  0.0899 -0.9249
 8880SOL    HW138099   0.067   4.705   3.378  1.0543  1.7297  0.5462
 8880SOL    HW238100   0.138   4.708   3.253 -0.3483  0.1962 -0.4949
 8881SOL     OW38101   1.968   3.071   9.499 -0.4872 -1.0672  0.3994
 8881SOL    HW138102   2.033   3.112   9.556  0.1736  0.1069 -1.1927
 8881SOL    HW238103   2.013   2.989   9.482  2.2734  0.1823  1.6619
 8882SOL     OW38104   0.320   3.222   3.618  0.0196  0.3092 -0.0917
 8882SOL    HW138105   0.257   3.267   3.674 -0.7939  0.0876 -0.8462
 8882SOL    HW238106   0.256   3.205   3.549 -1.8377  1.6613  1.2959
 8883SOL     OW38107   0.346   4.570  16.810  0.0651 -0.3438  0.1015
 8883SOL    HW138108   0.375   4.539  16.896  1.3964  1.1170  0.1771
 8883SOL    HW238109   0.335   4.490  16.760 -0.0128 -0.4913  0.3560
 8884SOL     OW38110   1.501   1.243   6.733 -0.0059 -0.0002  0.0477
 8884SOL    HW138111   1.480   1.330   6.768 -0.7328 -0.0791 -0.1953
 8884SOL    HW238112   1.414   1.208   6.712 -0.3306  0.9218 -0.1376
 8885SOL     OW38113   2.436   3.157  11.173  0.2261  0.5047  0.4247
 8885SOL    HW138114   2.453   3.124  11.085 -0.1031  0.7299  0.2778
 8885SOL    HW238115   2.407   3.072  11.207  1.1212 -0.5032 -1.3455
 8886SOL     OW38116   3.037   4.032   7.503 -0.1638  0.1344  0.8212
 8886SOL    HW138117   2.998   3.976   7.570 -0.1496  0.9050  1.4713
 8886SOL    HW238118   3.001   4.116   7.532  0.9915 -0.0518  2.8063
 8887SOL     OW38119   0.606   0.020   2.453 -0.1551  0.3459 -0.0150
 8887SOL    HW138120   0.511   0.017   2.442  0.0511 -1.4716 -1.2839
 8887SOL    HW238121   0.608   0.065   2.537 -0.6823 -0.8723  0.6456
 8888SOL     OW38122   1.072   1.329   5.847 -0.0430 -0.1471  0.1448
 8888SOL    HW138123   1.094   1.421   5.831 -2.9160  0.5001 -0.1829
 8888SOL    HW238124   1.090   1.295   5.759  0.4388 -2.5955  1.2040
 8889SOL     OW38125   4.129   0.822   0.533 -0.0445 -0.0821  0.0608
 8889SOL    HW138126   4.187   0.837   0.458  0.2331  4.4920  1.2064
 8889SOL    HW238127   4.176   0.752   0.578 -3.9015 -1.8131  1.4183
 8890SOL     OW38128   2.500   2.417  16.717  0.0046 -0.2843  0.3433
 8890SOL    HW138129   2.426   2.474  16.739  0.6690 -0.1231  2.1001
 8890SOL    HW238130   2.477   2.333  16.756 -1.8851 -1.8398 -4.1295
 8891SOL     OW38131   4.235   2.064   5.300  0.5096 -0.0370 -0.0391
 8891SOL    HW138132   4.162   2.121   5.325  1.9570  0.2782  3.4512
 8891SOL    HW238133   4.197   1.977   5.313  1.0970 -0.4307 -0.9768
 8892SOL     OW38134   0.226   1.856   2.253 -0.3900 -0.1042 -0.2108
 8892SOL    HW138135   0.178   1.841   2.334  1.1834  0.6842  0.8732
 8892SOL    HW238136   0.181   1.802   2.189 -0.7753 -0.2223  0.1625
 8893SOL     OW38137   3.238   1.446   4.116 -0.3124 -0.3140 -0.6845
 8893SOL    HW138138   3.244   1.367   4.169  0.1510  0.5609  0.5652
 8893SOL    HW238139   3.226   1.517   4.179  1.9859 -1.7937  1.3922
 8894SOL     OW38140   0.014   4.591  14.116 -0.1946 -0.3157  0.0793
 8894SOL    HW138141   0.032   4.666  14.060 -0.2820 -0.7256 -0.4989
 8894SOL    HW238142   0.087   4.538  14.083  0.5324  1.3735 -1.0348
 8895SOL     OW38143   0.250   3.405   1.723  0.0943 -0.0992  0.0602
 8895SOL    HW138144   0.331   3.376   1.764 -0.7787 -1.7824  0.5716
 8895SOL    HW238145   0.198   3.450   1.789 -0.4011  0.3717 -0.6406
 8896SOL     OW38146   2.786   0.587   2.805 -0.2949 -0.4136  0.3385
 8896SOL    HW138147   2.777   0.674   2.843  1.4587  0.1809 -0.6007
 8896SOL    HW238148   2.819   0.536   2.879  0.0628  0.8725  1.0663
 8897SOL     OW38149   3.624   1.354   3.746  0.1140  0.0411  0.0203
 8897SOL    HW138150   3.654   1.271   3.782 -0.4022 -0.4420 -0.6569
 8897SOL    HW238151   3.533   1.325   3.741  0.3379 -0.7145  0.4928
 8898SOL     OW38152   4.331   2.034   6.180 -0.5259 -0.1110 -0.2597
 8898SOL    HW138153   4.389   2.083   6.239  0.2904  0.4475 -1.5484
 8898SOL    HW238154   4.331   2.103   6.114  2.3020 -0.9971 -1.1867
 8899SOL     OW38155   1.249   0.238   5.486 -0.0332 -0.2316 -0.9532
 8899SOL    HW138156   1.215   0.325   5.508 -2.6504 -1.0595 -1.7454
 8899SOL    HW238157   1.272   0.252   5.394  0.2877  1.4009 -0.6137
 8900SOL     OW38158   0.782   1.286   4.618  0.0458  0.2048  0.1040
 8900SOL    HW138159   0.689   1.302   4.607 -0.2281 -2.8099 -1.6514
 8900SOL    HW238160   0.819   1.339   4.547 -0.1157  0.0868 -0.0636
 8901SOL     OW38161   2.485   0.700   4.755 -0.7405 -0.2287  0.0519
 8901SOL    HW138162   2.522   0.629   4.702  1.7954  0.8180  0.4155
 8901SOL    HW238163   2.418   0.651   4.803  0.3146 -2.1777 -0.4292
 8902SOL     OW38164   1.429   1.335   7.122  0.0096 -0.0094 -0.4758
 8902SOL    HW138165   1.486   1.260   7.105  1.0962  0.5886  0.5635
 8902SOL    HW238166   1.356   1.294   7.168 -2.0397  0.7757 -3.0282
 8903SOL     OW38167   4.280   2.161   5.063 -0.0585 -0.5629 -1.1117
 8903SOL    HW138168   4.355   2.104   5.044  0.2968  0.0070 -1.3882
 8903SOL    HW238169   4.276   2.141   5.157 -0.4491  0.7231 -0.8590
 8904SOL     OW38170   1.344   3.733  14.607  0.3814  0.2658  0.4907
 8904SOL    HW138171   1.416   3.783  14.647  0.5970  1.7884 -1.7922
 8904SOL    HW238172   1.343   3.661  14.670 -0.5297  0.0033  0.1717
 8905SOL     OW38173   1.817   2.746   9.554  0.3114 -0.3708 -0.7358
 8905SOL    HW138174   1.909   2.755   9.578  0.5432 -0.0909 -1.7401
 8905SOL    HW238175   1.827   2.729   9.460 -1.7436 -1.7389 -0.7224
 8906SOL     OW38176   3.748   1.522   7.205  0.2361 -0.4490  0.2901
 8906SOL    HW138177   3.674   1.470   7.173 -0.3789  1.0851 -0.8054
 8906SOL    HW238178   3.819   1.466   7.176  0.0719 -0.7408  0.4523
 8907SOL     OW38179   0.893   4.471   4.087 -0.1673 -0.5524 -0.8414
 8907SOL    HW138180   0.944   4.391   4.096 -0.4220 -0.6329 -0.0768
 8907SOL    HW238181   0.968   4.529   4.073 -0.2521 -0.5307 -1.2052
 8908SOL     OW38182   2.843   3.540   2.282 -0.5272 -0.1812  0.4194
 8908SOL    HW138183   2.842   3.612   2.345  2.8907  0.1447  0.1299
 8908SOL    HW238184   2.934   3.542   2.253 -0.7828  1.4535 -0.2366
 8909SOL     OW38185   3.037   0.707  13.142 -0.7588 -0.3555 -0.2394
 8909SOL    HW138186   2.970   0.775  13.137  0.0105  0.4596  0.3930
 8909SOL    HW238187   3.085   0.722  13.060  2.9769 -0.3351  1.9472
 8910SOL     OW38188   2.487   4.125   0.008 -0.0276  0.6349 -0.3028
 8910SOL    HW138189   2.498   4.139  17.602 -0.0039 -2.5728 -0.8006
 8910SOL    HW238190   2.453   4.036   0.016 -1.6173  1.3282  0.7094
 8911SOL     OW38191   2.286   4.352   7.016 -0.8427 -0.6282 -0.3761
 8911SOL    HW138192   2.352   4.407   7.059  0.1613 -1.8172 -0.4107
 8911SOL    HW238193   2.215   4.355   7.081 -0.5951 -3.5672  0.0359
 8912SOL     OW38194   2.609   2.312  10.158  0.1289 -0.1504  0.3949
 8912SOL    HW138195   2.529   2.314  10.211 -0.9374  0.6446 -1.2111
 8912SOL    HW238196   2.670   2.362  10.211 -1.6587 -0.3724  2.6282
 8913SOL     OW38197   1.107   2.295   9.077  0.0976 -0.2445 -0.1538
 8913SOL    HW138198   1.035   2.325   9.133  1.0423  2.0543 -0.1775
 8913SOL    HW238199   1.102   2.200   9.081  0.1578 -0.2254  0.3784
 8914SOL     OW38200   0.325   1.846  10.673 -0.1574 -0.5433 -0.8238
 8914SOL    HW138201   0.388   1.918  10.676  0.6519 -1.2964  0.1597
 8914SOL    HW238202   0.385   1.774  10.692  0.0015 -0.5658 -1.3913
 8915SOL     OW38203   3.868   2.367   9.491 -0.1317 -0.7819  0.1477
 8915SOL    HW138204   3.877   2.439   9.553  2.4296  0.9973 -2.3048
 8915SOL    HW238205   3.847   2.303   9.559  2.4643 -1.0771  0.6841
 8916SOL     OW38206   2.710   4.414   1.197  0.1756 -0.1058 -0.6392
 8916SOL    HW138207   2.765   4.357   1.251 -2.4099 -2.0922 -0.0825
 8916SOL    HW238208   2.678   4.486   1.252 -0.8804 -0.2619 -1.0403
 8917SOL     OW38209   3.362   3.067   7.414 -0.7539  0.4083  0.0344
 8917SOL    HW138210   3.427   3.035   7.352 -1.5892  2.6671 -2.0142
 8917SOL    HW238211   3.405   3.054   7.499  2.2061 -0.2950 -1.6072
 8918SOL     OW38212   3.042   4.297   6.522 -0.1087 -0.4722  0.1536
 8918SOL    HW138213   3.000   4.223   6.566  0.1006 -1.0348 -0.6042
 8918SOL    HW238214   3.121   4.294   6.575 -0.5151  2.4251  0.9562
 8919SOL     OW38215   2.037   3.177  12.528 -0.1633  0.0096 -0.5112
 8919SOL    HW138216   2.065   3.120  12.457  2.7466  0.6066  0.1327
 8919SOL    HW238217   2.088   3.257  12.515 -1.1714  0.7579  0.1977
 8920SOL     OW38218   2.863   2.339   1.710  0.0816  0.5994 -0.2151
 8920SOL    HW138219   2.959   2.335   1.708  0.0787  0.7554 -0.5727
 8920SOL    HW238220   2.851   2.355   1.804 -0.8547  0.7617 -0.3689
 8921SOL     OW38221   2.319   1.217  13.739 -0.1946 -0.1501  0.1200
 8921SOL    HW138222   2.383   1.266  13.688 -0.1842 -0.9290 -0.6208
 8921SOL    HW238223   2.346   1.129  13.712 -2.1350 -0.4022 -0.9964
 8922SOL     OW38224   0.107   2.217  12.610  0.2246 -0.4772 -0.1795
 8922SOL    HW138225   0.068   2.263  12.535  2.9218 -0.3935 -1.5426
 8922SOL    HW238226   0.191   2.263  12.613  0.2689 -0.6017  0.4993
 8923SOL     OW38227   0.853   1.403  11.506  0.7138 -0.6737  0.3369
 8923SOL    HW138228   0.831   1.451  11.426 -0.1816 -1.0220  0.3842
 8923SOL    HW238229   0.939   1.445  11.516  0.6960  0.0826 -2.8058
 8924SOL     OW38230   2.645   2.272   1.913  0.0943 -0.3506  0.2368
 8924SOL    HW138231   2.711   2.332   1.947 -0.7326  0.3270  0.6535
 8924SOL    HW238232   2.607   2.225   1.988 -1.5706 -2.3107 -1.8319
 8925SOL     OW38233   2.209   0.145   4.290 -0.5773 -0.2102  0.1577
 8925SOL    HW138234   2.169   0.073   4.240 -3.0822  0.8793  0.5834
 8925SOL    HW238235   2.202   0.111   4.379 -1.1496  1.8898  0.9029
 8926SOL     OW38236   4.403   2.412   0.129  0.3353 -0.0960  0.6295
 8926SOL    HW138237   4.434   2.475   0.194  1.7664  0.3902 -0.5290
 8926SOL    HW238238   4.365   2.461   0.056 -1.0489 -0.6255  0.9842
 8927SOL     OW38239   0.999   4.392  14.855 -0.3421 -0.6470  0.1308
 8927SOL    HW138240   1.051   4.336  14.797 -2.5690 -0.0350 -2.4593
 8927SOL    HW238241   1.039   4.473  14.824 -0.9642 -1.4668 -2.8530
 8928SOL     OW38242   2.958   4.634   4.301 -0.7385 -0.1169  0.1637
 8928SOL    HW138243   2.901   4.704   4.267 -0.1547  0.6253  0.7274
 8928SOL    HW238244   2.942   4.644   4.395 -1.2842  0.5301  0.0063
 8929SOL     OW38245   1.076   3.490  11.069 -0.3246 -0.5724 -0.0569
 8929SOL    HW138246   1.073   3.586  11.062 -0.7863 -0.5928 -0.1484
 8929SOL    HW238247   1.039   3.465  10.984 -2.4929 -2.7243  1.5273
 8930SOL     OW38248   3.520   4.298   5.716 -0.6960  0.2328  0.1634
 8930SOL    HW138249   3.534   4.203   5.711  0.3656  0.3725  0.5748
 8930SOL    HW238250   3.424   4.297   5.715 -0.6908  2.7444 -1.7475
 8931SOL     OW38251   3.891   1.371   7.798  0.2679 -0.4371 -0.2221
 8931SOL    HW138252   3.928   1.356   7.885  0.3966 -0.4346 -0.2761
 8931SOL    HW238253   3.895   1.467   7.794 -2.2070 -0.3181  0.6578
 8932SOL     OW38254   1.381   0.518   8.424  0.2260  0.1551 -0.5457
 8932SOL    HW138255   1.396   0.563   8.507 -0.4851 -1.9460  0.7168
 8932SOL    HW238256   1.443   0.445   8.423  0.2430  0.1750 -0.9740
 8933SOL     OW38257   0.811   4.176  10.006  0.5203 -0.1453 -0.2134
 8933SOL    HW138258   0.808   4.227  10.087  1.0851 -2.6769  1.3837
 8933SOL    HW238259   0.827   4.087  10.035  1.5666  0.7378  1.9095
 8934SOL     OW38260   3.652   4.296   8.317 -0.2922 -0.0405 -0.1306
 8934SOL    HW138261   3.605   4.360   8.370 -0.0003  0.3171 -0.3052
 8934SOL    HW238262   3.713   4.244   8.371  0.5172 -0.0233 -1.0347
 8935SOL     OW38263   4.074   3.673   3.930 -0.4849  0.3786  0.6131
 8935SOL    HW138264   4.160   3.654   3.968 -0.2944  0.8418  0.4145
 8935SOL    HW238265   4.080   3.614   3.856  1.5856  1.2428  0.1010
 8936SOL     OW38266   1.803   4.592   6.376 -0.8176  0.1691 -0.1456
 8936SOL    HW138267   1.811   4.682   6.405 -0.3266  0.3623 -0.8917
 8936SOL    HW238268   1.886   4.549   6.393 -0.5170  0.4454 -0.9343
 8937SOL     OW38269   2.052   1.316   8.046 -0.2255  0.0049 -0.9145
 8937SOL    HW138270   1.990   1.247   8.070 -0.6956  1.5038  2.1012
 8937SOL    HW238271   2.006   1.393   8.079 -2.6641 -2.1182  0.6159
 8938SOL     OW38272   0.325   0.700   7.079 -0.5446 -0.2499  0.5848
 8938SOL    HW138273   0.394   0.635   7.093  1.3238  1.2524 -1.5210
 8938SOL    HW238274   0.256   0.640   7.051  0.8289 -1.1847 -0.8140
 8939SOL     OW38275   0.762   3.229   1.731 -0.0475 -0.4382  0.0109
 8939SOL    HW138276   0.737   3.222   1.639  0.5893 -0.6888 -0.1403
 8939SOL    HW238277   0.672   3.236   1.763 -0.2678 -1.6654 -0.3676
 8940SOL     OW38278   2.899   1.435  13.373  0.6625 -0.2263 -0.1012
 8940SOL    HW138279   2.958   1.364  13.349  0.6256 -0.8562  1.6544
 8940SOL    HW238280   2.950   1.504  13.416  0.8348  1.9434 -3.7773
 8941SOL     OW38281   1.485   4.320  16.481  0.1520  0.4805 -0.1789
 8941SOL    HW138282   1.505   4.261  16.409  1.9450 -0.1522  0.8333
 8941SOL    HW238283   1.393   4.344  16.469  0.2768  0.3936 -1.3008
 8942SOL     OW38284   4.674   3.346   6.169  0.3013 -0.5290 -0.9665
 8942SOL    HW138285   0.001   3.272   6.133  2.3111  1.4996 -2.3954
 8942SOL    HW238286   4.683   3.333   6.264 -0.4605 -0.6431 -0.9088
 8943SOL     OW38287   3.325   3.087  11.767 -0.1022 -0.4001 -0.1861
 8943SOL    HW138288   3.383   3.119  11.836  2.3030 -1.9710 -1.4762
 8943SOL    HW238289   3.321   3.167  11.714  0.4614  0.2323  0.7363
 8944SOL     OW38290   1.223   1.945   8.880 -0.0761 -0.0644  0.9110
 8944SOL    HW138291   1.168   2.001   8.935 -0.2099 -0.4862  1.1986
 8944SOL    HW238292   1.295   1.908   8.932 -0.8111 -4.2793 -1.0648
 8945SOL     OW38293   0.546   3.942   4.581 -0.0104  0.3360 -0.1717
 8945SOL    HW138294   0.631   3.900   4.595  0.1394  0.0336 -1.9870
 8945SOL    HW238295   0.488   3.869   4.605  0.0277 -0.1077 -1.4053
 8946SOL     OW38296   0.066   1.078   7.065 -0.4112  0.1106 -0.3502
 8946SOL    HW138297   0.088   1.149   7.125  1.3653  0.8012 -1.8065
 8946SOL    HW238298   0.088   1.006   7.124 -0.2621  1.8183  1.6883
 8947SOL     OW38299   2.778   0.898   8.861  0.0044  0.5121 -0.6041
 8947SOL    HW138300   2.751   0.990   8.871 -2.6413 -0.3765  0.4487
 8947SOL    HW238301   2.714   0.871   8.796  1.0790  0.0610 -1.4677
 8948SOL     OW38302   4.286   3.904   2.805 -0.3409  0.4740  0.2507
 8948SOL    HW138303   4.220   3.948   2.859  0.1295 -0.1133  1.3057
 8948SOL    HW238304   4.299   3.970   2.736  1.3418 -1.1238 -0.9577
 8949SOL     OW38305   4.483   2.614  13.601  0.0270 -1.0571  0.0065
 8949SOL    HW138306   4.404   2.631  13.653 -0.4792  0.4344 -1.2324
 8949SOL    HW238307   4.541   2.580  13.669  0.1219  0.0194  0.4675
 8950SOL     OW38308   1.063   1.052   2.001  0.0319  0.3095 -0.3710
 8950SOL    HW138309   1.063   1.145   2.024  1.3832  0.7638 -2.2568
 8950SOL    HW238310   0.989   1.048   1.941  0.1841  1.6353 -0.6482
 8951SOL     OW38311   3.025   2.872   3.307  0.5326  0.5594 -0.3054
 8951SOL    HW138312   2.952   2.930   3.329  1.1959  0.8168  1.2259
 8951SOL    HW238313   2.992   2.790   3.270 -1.1037  0.2114  1.9790
 8952SOL     OW38314   4.206   1.029  17.320 -0.0330  0.2656 -0.4039
 8952SOL    HW138315   4.295   1.058  17.302  0.3447 -0.1141  0.8346
 8952SOL    HW238316   4.206   0.947  17.271 -0.9469  1.3575 -2.2228
 8953SOL     OW38317   3.213   3.768  16.934 -0.7841  0.5998 -0.0250
 8953SOL    HW138318   3.257   3.812  17.006 -0.8154  2.0329 -0.8808
 8953SOL    HW238319   3.262   3.687  16.926  1.4839  1.7181  2.5261
 8954SOL     OW38320   4.152   4.367   0.205  0.1801  0.5138  0.0532
 8954SOL    HW138321   4.163   4.450   0.253  0.4398  0.1371  0.6430
 8954SOL    HW238322   4.063   4.360   0.238  0.1605  2.8481  0.5461
 8955SOL     OW38323   2.327   1.738  16.586 -0.3910  0.4566  0.1241
 8955SOL    HW138324   2.331   1.759  16.493  0.2094  1.5601  0.3995
 8955SOL    HW238325   2.401   1.789  16.616  0.9385 -1.6992  0.5193
 8956SOL     OW38326   4.289   4.120   3.315  0.3797 -0.4919  0.0624
 8956SOL    HW138327   4.351   4.100   3.386 -0.8265  0.2885  1.3442
 8956SOL    HW238328   4.225   4.174   3.362  1.1778  0.6857 -0.1921
 8957SOL     OW38329   3.296   2.734   0.822  0.6202  0.1961 -0.2892
 8957SOL    HW138330   3.323   2.652   0.781  1.9539  0.5083 -0.0457
 8957SOL    HW238331   3.366   2.788   0.784  1.3619  0.1487  0.9821
 8958SOL     OW38332   3.138   0.797  11.280  0.1428  0.3470  0.4925
 8958SOL    HW138333   3.163   0.778  11.371  2.5743  1.3427  0.0243
 8958SOL    HW238334   3.062   0.850  11.304 -1.6641 -1.3774 -1.4430
 8959SOL     OW38335   2.412   3.525  11.685 -0.1480  0.5064 -0.3317
 8959SOL    HW138336   2.447   3.604  11.726  1.0382  0.3491 -1.0206
 8959SOL    HW238337   2.384   3.552  11.598 -1.2537 -4.9087 -1.6424
 8960SOL     OW38338   4.174   3.769   0.247  0.2527 -0.0816  0.0687
 8960SOL    HW138339   4.259   3.772   0.290  0.4286  2.1532 -0.4695
 8960SOL    HW238340   4.159   3.863   0.255  0.2448 -0.0784  0.0130
 8961SOL     OW38341   1.857   1.190   9.574  0.3758 -0.7487  0.0620
 8961SOL    HW138342   1.770   1.229   9.585  1.7546  2.1495  0.7746
 8961SOL    HW238343   1.840   1.124   9.507  0.0270 -0.8306  0.2265
 8962SOL     OW38344   3.702   1.278  12.784 -0.0177 -0.1447  0.0894
 8962SOL    HW138345   3.695   1.368  12.817  3.6975  0.5869 -1.1099
 8962SOL    HW238346   3.645   1.234  12.847 -0.2291 -0.2999 -0.2112
 8963SOL     OW38347   2.556   1.374   7.411 -0.1328 -0.5464 -0.0637
 8963SOL    HW138348   2.616   1.349   7.341  0.5550 -1.5863  0.9082
 8963SOL    HW238349   2.599   1.458   7.427 -1.5994  0.3227 -0.6999
 8964SOL     OW38350   1.806   0.220  11.882 -0.1888 -0.1178 -0.4696
 8964SOL    HW138351   1.777   0.262  11.962 -0.1321  0.8618 -0.9626
 8964SOL    HW238352   1.719   0.211  11.842 -0.5418  0.0568  0.2728
 8965SOL     OW38353   2.234   2.096  11.501 -0.2283  0.0017  0.0126
 8965SOL    HW138354   2.304   2.161  11.507 -1.5293  1.1760  2.4115
 8965SOL    HW238355   2.190   2.123  11.581  0.0318  0.5240 -0.0186
 8966SOL     OW38356   0.100   3.132  13.544  0.3377 -0.1784 -0.6449
 8966SOL    HW138357   0.007   3.156  13.544  0.0943 -1.2028  1.7988
 8966SOL    HW238358   0.086   3.045  13.506 -1.8663  0.1623 -0.6267
 8967SOL     OW38359   3.495   4.198   3.013 -0.0041 -0.0938 -0.0619
 8967SOL    HW138360   3.589   4.181   3.001 -0.1231 -0.0196 -1.1322
 8967SOL    HW238361   3.486   4.294   3.015 -1.4235 -0.1748 -2.1836
 8968SOL     OW38362   3.489   0.554  11.800 -0.6249 -0.1010  0.5759
 8968SOL    HW138363   3.504   0.604  11.881  1.5023  0.0442  0.0989
 8968SOL    HW238364   3.576   0.527  11.772 -0.9602  0.6626 -1.2249
 8969SOL     OW38365   4.434   0.497   2.641 -0.0310 -0.2935  0.6848
 8969SOL    HW138366   4.416   0.576   2.590 -2.2347 -0.8208  0.6588
 8969SOL    HW238367   4.528   0.493   2.625 -0.5166 -0.9384 -1.8834
 8970SOL     OW38368   4.381   3.998   5.764 -0.3250 -0.4011 -0.3223
 8970SOL    HW138369   4.429   4.034   5.839  0.2193 -2.1472  0.1735
 8970SOL    HW238370   4.346   3.922   5.810 -1.0674 -0.2272 -0.6106
 8971SOL     OW38371   2.660   0.539  17.641 -0.1630 -0.6798  0.0602
 8971SOL    HW138372   2.628   0.578   0.034 -1.0381  0.3799 -0.7849
 8971SOL    HW238373   2.635   0.612  17.585 -1.3592 -0.9116  0.2894
 8972SOL     OW38374   3.923   2.744   3.620  0.1666 -0.4565 -0.0298
 8972SOL    HW138375   3.999   2.800   3.606  0.5866 -0.7855  0.9124
 8972SOL    HW238376   3.899   2.718   3.531 -0.3981  3.0402 -0.9064
 8973SOL     OW38377   0.635   3.710   1.345  0.1616 -0.2374  0.1060
 8973SOL    HW138378   0.628   3.700   1.250 -0.4339 -0.5189  0.1821
 8973SOL    HW238379   0.729   3.729   1.351 -0.2636  0.3144  5.0701
 8974SOL     OW38380   3.332   1.091   2.007  0.1197 -0.3775  0.4029
 8974SOL    HW138381   3.424   1.069   1.999  0.6350  0.8956  2.8452
 8974SOL    HW238382   3.335   1.184   2.032  1.0579 -0.1451 -0.5743
 8975SOL     OW38383   2.552   4.170  11.935 -0.9808 -0.1606  0.0445
 8975SOL    HW138384   2.581   4.198  12.022 -3.1401  2.1744  0.0289
 8975SOL    HW238385   2.635   4.135  11.904 -0.5286 -0.8187  2.0231
 8976SOL     OW38386   4.512   3.991   0.064  0.6824  0.5479  0.0775
 8976SOL    HW138387   4.496   4.075   0.108 -0.3474  0.7524 -0.6868
 8976SOL    HW238388   4.421   3.971   0.042  1.4299 -0.3792 -2.1448
 8977SOL     OW38389   3.850   0.017  16.019 -0.1701  0.0302 -0.1848
 8977SOL    HW138390   3.928   0.056  15.980  0.1063 -0.3289  0.0120
 8977SOL    HW238391   3.840   0.065  16.101  0.7202  0.7264 -0.4770
 8978SOL     OW38392   2.913   0.408   2.955 -0.2659  0.6385 -0.8934
 8978SOL    HW138393   2.855   0.333   2.948  1.5489 -0.9736  1.2515
 8978SOL    HW238394   2.979   0.369   2.897  1.7127  0.8500  1.2136
 8979SOL     OW38395   0.831   3.158   2.368 -0.4435 -0.1025 -0.0916
 8979SOL    HW138396   0.821   3.132   2.277  2.4388  0.4302 -0.5812
 8979SOL    HW238397   0.746   3.138   2.407 -0.1751  0.3811  0.7488
 8980SOL     OW38398   3.595   3.578  16.829 -0.1171 -0.1901 -0.0883
 8980SOL    HW138399   3.542   3.620  16.761 -1.6648 -1.5187  0.2837
 8980SOL    HW238400   3.524   3.561  16.891  0.1003  0.9390  0.4541
 8981SOL     OW38401   1.810   2.100  11.102  0.9450  0.0520  0.4752
 8981SOL    HW138402   1.802   2.008  11.076 -0.6605 -0.1812  1.8005
 8981SOL    HW238403   1.765   2.138  11.026 -0.0483 -1.4753  0.3082
 8982SOL     OW38404   1.601   3.849   8.818  0.3551  0.2463 -0.4440
 8982SOL    HW138405   1.675   3.795   8.792  1.3652  1.5321 -0.2407
 8982SOL    HW238406   1.594   3.901   8.738 -3.3461 -1.2515 -1.1209
 8983SOL     OW38407   0.905   2.114   9.397  0.1927  0.1628 -0.3141
 8983SOL    HW138408   0.925   2.203   9.366  0.8922 -0.4140 -1.4984
 8983SOL    HW238409   0.932   2.121   9.489 -1.9228  0.3204  0.3138
 8984SOL     OW38410   3.294   0.899  10.137 -0.0941  0.8697  1.0183
 8984SOL    HW138411   3.385   0.891  10.107 -0.5144  0.8653 -0.2337
 8984SOL    HW238412   3.279   0.993  10.130 -0.3908  0.9392  2.5002
 8985SOL     OW38413   0.717   2.117   9.678  0.0713  0.5661 -0.3060
 8985SOL    HW138414   0.792   2.059   9.663  0.7698  1.4048 -0.1006
 8985SOL    HW238415   0.753   2.202   9.705 -0.5448  0.8793 -0.4625
 8986SOL     OW38416   0.772   3.951   4.363 -0.3130  1.2550 -0.3153
 8986SOL    HW138417   0.695   3.989   4.320  0.6489  1.5702 -1.7904
 8986SOL    HW238418   0.823   3.915   4.290 -2.7123 -1.3465 -0.6757
 8987SOL     OW38419   0.260   0.163   4.703  0.4604  0.4276 -0.1615
 8987SOL    HW138420   0.287   0.243   4.658 -0.7579  0.5524 -0.6566
 8987SOL    HW238421   0.228   0.210   4.780 -0.1136  0.9152 -0.7024
 8988SOL     OW38422   3.870   2.193   9.710  0.2761  0.0763 -0.2240
 8988SOL    HW138423   3.945   2.147   9.747  1.5419  3.5071  1.4353
 8988SOL    HW238424   3.805   2.123   9.716  0.1983  0.1719  0.0375
 8989SOL     OW38425   3.277   2.866   6.191 -0.6346  0.4973 -0.3139
 8989SOL    HW138426   3.236   2.794   6.143 -1.0811  1.1607 -0.9227
 8989SOL    HW238427   3.365   2.853   6.155 -0.5533 -0.3317  0.2018
 8990SOL     OW38428   1.286   3.240  17.380 -0.0502  0.2328  0.2793
 8990SOL    HW138429   1.266   3.163  17.327  1.8375 -1.4669  2.0536
 8990SOL    HW238430   1.343   3.280  17.314 -0.6326  0.4112 -0.1218
 8991SOL     OW38431   3.988   3.550   8.859  0.3200 -0.8077 -0.2546
 8991SOL    HW138432   4.015   3.606   8.786  0.0377 -0.0949  0.1904
 8991SOL    HW238433   4.012   3.463   8.828 -1.5955 -0.8383 -1.6481
 8992SOL     OW38434   2.352   0.109   1.981  0.1124  0.2726 -0.1154
 8992SOL    HW138435   2.316   0.176   2.040 -1.6913 -1.0836  0.3108
 8992SOL    HW238436   2.444   0.133   1.971  0.1237 -0.2253 -1.1963
 8993SOL     OW38437   2.482   3.596   5.183 -0.3505 -0.5324 -0.4843
 8993SOL    HW138438   2.526   3.678   5.206  0.4144 -1.1247  0.1567
 8993SOL    HW238439   2.519   3.540   5.251 -0.4104 -0.8360 -0.7035
 8994SOL     OW38440   1.109   3.239   6.691 -0.1311 -0.0858 -0.8538
 8994SOL    HW138441   1.114   3.148   6.722 -1.7180  1.2944  3.5733
 8994SOL    HW238442   1.195   3.263   6.724 -0.3964 -2.5806  1.7846
 8995SOL     OW38443   1.313   0.798   8.218  0.7477  0.4942 -0.0426
 8995SOL    HW138444   1.269   0.839   8.143 -0.2951 -1.6091 -0.5890
 8995SOL    HW238445   1.348   0.712   8.194 -0.1924 -0.5442  2.4028
 8996SOL     OW38446   2.910   0.941  13.103  0.3521 -0.0704 -0.0807
 8996SOL    HW138447   2.828   0.969  13.145 -0.3302 -0.1044 -1.3776
 8996SOL    HW238448   2.928   1.020  13.053 -1.2647 -0.0491 -0.6276
 8997SOL     OW38449   4.655   1.110   6.502  0.3940 -0.0538 -0.4571
 8997SOL    HW138450   4.677   1.163   6.578 -0.3961 -0.2143 -0.1154
 8997SOL    HW238451   4.562   1.101   6.524  0.1484  1.1695 -0.9978
 8998SOL     OW38452   0.599   0.609  14.710 -0.1058  0.2410  0.1794
 8998SOL    HW138453   0.510   0.634  14.688  0.9402  1.3626 -2.7326
 8998SOL    HW238454   0.590   0.516  14.688 -1.4140  0.2082  0.8435
 8999SOL     OW38455   3.159   1.293  15.031 -0.2185  0.1447  0.3507
 8999SOL    HW138456   3.068   1.289  15.003  0.2138  0.6430 -1.1234
 8999SOL    HW238457   3.173   1.388  15.039 -2.5741  0.5915 -0.9076
 9000SOL     OW38458   2.766   1.706   4.879  0.2292  0.3353 -0.1606
 9000SOL    HW138459   2.807   1.620   4.889 -1.1622 -0.3306 -0.1346
 9000SOL    HW238460   2.765   1.736   4.970  0.7850 -1.3321  0.3954
 9001SOL     OW38461   2.283   2.099  12.397  0.0200  0.1343 -0.4285
 9001SOL    HW138462   2.201   2.077  12.354  0.5511 -1.5559 -0.5748
 9001SOL    HW238463   2.251   2.137  12.479  0.8787 -0.3419  0.1336
 9002SOL     OW38464   2.620   2.720   6.608 -0.3632 -0.0403  0.7396
 9002SOL    HW138465   2.571   2.731   6.689 -0.8842 -0.3888  0.4762
 9002SOL    HW238466   2.710   2.725   6.641  0.2304 -1.3262 -0.6463
 9003SOL     OW38467   0.413   2.457   4.166  0.3831  0.2985 -0.1429
 9003SOL    HW138468   0.422   2.447   4.071 -1.6336  0.2515 -0.3212
 9003SOL    HW238469   0.317   2.459   4.166  0.3761  0.4663 -2.5722
 9004SOL     OW38470   2.341   1.856  15.474 -0.0917  0.5136 -0.4913
 9004SOL    HW138471   2.361   1.785  15.535  0.9504 -0.7419 -2.3047
 9004SOL    HW238472   2.393   1.927  15.511 -1.7945  0.9258  1.0881
 9005SOL     OW38473   4.147   2.618   6.867  0.2775 -0.3475 -0.6975
 9005SOL    HW138474   4.143   2.618   6.772  0.7605  0.1852 -0.7185
 9005SOL    HW238475   4.192   2.537   6.891 -1.0116 -0.4325  1.4255
 9006SOL     OW38476   2.594   2.299   5.569  0.0011 -0.4773 -0.2031
 9006SOL    HW138477   2.546   2.248   5.504 -0.2328 -0.3088 -0.1633
 9006SOL    HW238478   2.579   2.237   5.640 -0.8855 -2.2466 -1.9301
 9007SOL     OW38479   2.963   0.078  15.080  0.1026 -0.1899  0.6874
 9007SOL    HW138480   2.944   0.145  15.146  0.5032 -1.5857  2.2459
 9007SOL    HW238481   3.017   0.121  15.014  0.8915 -4.1839 -1.2736
 9008SOL     OW38482   2.158   2.375   2.712  0.2308 -0.5928 -0.7125
 9008SOL    HW138483   2.093   2.371   2.642 -0.1412  1.4701 -0.4764
 9008SOL    HW238484   2.223   2.312   2.681  0.5670  0.0604 -1.3458
 9009SOL     OW38485   0.149   3.387   5.046 -0.3715  0.1242  0.1920
 9009SOL    HW138486   0.119   3.456   5.104 -1.2885 -0.7428  0.7535
 9009SOL    HW238487   0.232   3.365   5.089 -0.2022 -0.3449 -0.3756
 9010SOL     OW38488   0.843   1.516  14.749 -0.1700 -0.1109  0.3028
 9010SOL    HW138489   0.907   1.550  14.811 -0.5558 -0.6426  0.9997
 9010SOL    HW238490   0.763   1.518  14.802 -0.4572  1.6103 -0.2071
 9011SOL     OW38491   0.066   3.343  13.337  0.1374  0.0821 -0.0875
 9011SOL    HW138492   0.081   3.279  13.406 -1.6966  1.1324  1.2735
 9011SOL    HW238493   0.075   3.427  13.383 -0.1500 -0.7499  1.4628
 9012SOL     OW38494   4.356   4.359  16.805 -0.1774 -0.7455 -0.3096
 9012SOL    HW138495   4.369   4.293  16.737 -0.7167  0.1440 -1.2846
 9012SOL    HW238496   4.270   4.331  16.838 -0.6348 -1.6455 -2.1969
 9013SOL     OW38497   2.097   1.768   3.510  0.4832 -0.4720 -0.0289
 9013SOL    HW138498   2.052   1.842   3.550  2.6680  0.2079  1.1789
 9013SOL    HW238499   2.134   1.739   3.593 -2.4792 -1.3682  0.9771
 9014SOL     OW38500   4.455   0.102   5.367 -0.1205  0.4041  0.6246
 9014SOL    HW138501   4.377   0.102   5.423 -0.4155 -0.8796  0.2028
 9014SOL    HW238502   4.501   0.174   5.410  0.6052  1.5593 -2.0925
 9015SOL     OW38503   3.467   1.108   5.871 -0.8046  0.5908  0.1139
 9015SOL    HW138504   3.486   1.055   5.795 -0.4803 -0.8320  1.1908
 9015SOL    HW238505   3.556   1.122   5.904  0.0812 -0.4881 -1.8625
 9016SOL     OW38506   3.637   4.490   6.283 -0.6273  0.4698  0.0288
 9016SOL    HW138507   3.697   4.437   6.336 -0.0283  0.1885 -0.9288
 9016SOL    HW238508   3.644   4.461   6.192 -0.0648  2.6228 -0.6155
 9017SOL     OW38509   1.626   3.889  14.510 -0.0101 -0.1045  0.7007
 9017SOL    HW138510   1.610   3.859  14.599  0.2778  2.1247  1.4974
 9017SOL    HW238511   1.711   3.934  14.516 -0.1300  0.3250 -0.7606
 9018SOL     OW38512   1.418   1.445  10.608 -0.0106 -0.2792 -0.4545
 9018SOL    HW138513   1.356   1.465  10.678  1.5623  1.0816  0.5393
 9018SOL    HW238514   1.501   1.474  10.646 -0.5768 -1.4285  1.6184
 9019SOL     OW38515   2.168   3.582   7.161  0.2514  0.2883 -0.7703
 9019SOL    HW138516   2.219   3.634   7.099 -0.4467  2.0566  0.1257
 9019SOL    HW238517   2.185   3.630   7.242 -2.8440 -0.0378  0.0518
 9020SOL     OW38518   0.485   0.168  11.236  0.6382  0.0628  0.1860
 9020SOL    HW138519   0.491   0.254  11.278 -1.9161  0.7602 -0.8673
 9020SOL    HW238520   0.534   0.182  11.155 -1.6871  0.7120 -1.1106
 9021SOL     OW38521   0.034   4.295   0.769  0.2660 -0.0580  0.2162
 9021SOL    HW138522   4.685   4.262   0.715 -0.8748 -0.6523  2.0516
 9021SOL    HW238523   0.108   4.252   0.727 -1.1342 -1.5591 -0.7149
 9022SOL     OW38524   0.790   1.244  17.283  0.1831  0.0164 -0.5457
 9022SOL    HW138525   0.757   1.184  17.215 -0.1395  0.4733 -0.7945
 9022SOL    HW238526   0.797   1.325  17.232 -1.4066  0.5052 -0.0060
 9023SOL     OW38527   3.156   1.728   8.096 -0.4497  0.7468  0.3417
 9023SOL    HW138528   3.154   1.683   8.011 -1.3024 -0.1857  0.8563
 9023SOL    HW238529   3.099   1.803   8.077 -0.6508  0.6004  0.3720
 9024SOL     OW38530   4.065   1.149   6.404 -0.3894  0.2635 -0.1751
 9024SOL    HW138531   3.971   1.165   6.408 -0.2000  1.1928  0.4051
 9024SOL    HW238532   4.076   1.062   6.364 -1.4810  0.6716 -1.3617
 9025SOL     OW38533   0.406   1.432   3.868 -0.8483  0.3806 -0.2459
 9025SOL    HW138534   0.351   1.356   3.885 -2.8865  1.5784 -1.3805
 9025SOL    HW238535   0.407   1.437   3.773 -0.0851 -0.9021 -0.2986
 9026SOL     OW38536   3.295   2.691   3.130 -0.1805  0.0794 -0.6757
 9026SOL    HW138537   3.315   2.597   3.128 -0.3852 -0.0203  1.4313
 9026SOL    HW238538   3.241   2.702   3.053 -1.3517  1.1219  0.2945
 9027SOL     OW38539   4.129   3.374   6.387 -0.4804  0.0464  0.0815
 9027SOL    HW138540   4.103   3.453   6.434 -2.3057 -0.4578 -0.0957
 9027SOL    HW238541   4.065   3.374   6.316  0.6186  0.3972 -0.9178
 9028SOL     OW38542   0.105   3.111   9.251 -0.3547 -0.4604  0.4597
 9028SOL    HW138543   0.167   3.043   9.225 -0.7569 -0.0054 -1.7237
 9028SOL    HW238544   0.132   3.135   9.339  0.0145  0.5663  0.0666
 9029SOL     OW38545   1.565   0.612   3.024 -0.1369 -0.1560  0.4626
 9029SOL    HW138546   1.477   0.621   2.989  0.6301  2.1105 -0.8735
 9029SOL    HW238547   1.553   0.618   3.118  0.9911  0.4724  0.5628
 9030SOL     OW38548   3.402   1.878  10.927 -0.0481  0.0966 -0.1814
 9030SOL    HW138549   3.364   1.955  10.886 -0.3567 -0.8045 -1.5952
 9030SOL    HW238550   3.322   1.828  10.947 -0.3897  0.1276 -1.4901
 9031SOL     OW38551   4.335   1.709   4.569 -0.3047  0.7092 -0.9265
 9031SOL    HW138552   4.396   1.765   4.521  1.6621  0.0865  0.8329
 9031SOL    HW238553   4.268   1.770   4.600 -4.0069 -3.3683 -1.0630
 9032SOL     OW38554   0.655   3.622  13.029 -0.5928  0.2014  0.4376
 9032SOL    HW138555   0.649   3.677  13.107 -1.6216  1.0600 -0.2339
 9032SOL    HW238556   0.698   3.676  12.963  0.8435  0.7065  1.7893
 9033SOL     OW38557   4.639   4.148   9.614 -0.3743  0.4412  0.0895
 9033SOL    HW138558   4.646   4.235   9.575 -0.1449  0.7143  0.7357
 9033SOL    HW238559   0.012   4.129   9.613 -0.2556  1.1501 -1.9858
 9034SOL     OW38560   4.364   4.108   1.298  0.4501  0.1263  0.2114
 9034SOL    HW138561   4.442   4.127   1.351  0.5949 -0.2651  0.1385
 9034SOL    HW238562   4.410   4.095   1.215 -1.7943 -1.5441 -0.7370
 9035SOL     OW38563   0.144   0.373  10.821 -0.3002  0.1505 -0.4809
 9035SOL    HW138564   0.222   0.396  10.871  0.5918 -1.4723 -1.1345
 9035SOL    HW238565   0.143   0.447  10.760  0.3264 -0.5258 -1.3205
 9036SOL     OW38566   0.573   0.952  12.264 -0.1100  0.2071  0.4254
 9036SOL    HW138567   0.590   0.959  12.170 -1.5747 -0.8074  0.0974
 9036SOL    HW238568   0.622   1.032  12.281  0.2266 -0.2861  1.7356
 9037SOL     OW38569   4.520   3.869   8.350  0.0531 -0.2619 -0.0210
 9037SOL    HW138570   4.526   3.774   8.341  0.4474 -0.3327  0.9805
 9037SOL    HW238571   4.608   3.897   8.376  0.8113 -1.2184 -1.5024
 9038SOL     OW38572   0.310   1.247   2.364  0.4774 -0.1720 -0.1251
 9038SOL    HW138573   0.400   1.277   2.355  0.8719 -2.0129 -2.5807
 9038SOL    HW238574   0.320   1.196   2.445 -0.6931  0.5587  0.4651
 9039SOL     OW38575   1.950   1.937   8.413  0.4465  0.1726  0.6589
 9039SOL    HW138576   2.005   1.880   8.466  1.4403  1.8078  1.3793
 9039SOL    HW238577   2.014   1.970   8.351  1.0090  2.6418  2.5187
 9040SOL     OW38578   3.755   4.217   3.493  0.6088 -0.0739  0.1671
 9040SOL    HW138579   3.724   4.201   3.583  1.2098  0.8400  0.5340
 9040SOL    HW238580   3.749   4.312   3.491  3.4635  0.0786 -1.1201
 9041SOL     OW38581   4.618   0.729   3.679 -0.1075 -0.1672 -0.5250
 9041SOL    HW138582   4.540   0.735   3.733 -0.1033  1.6302 -0.7404
 9041SOL    HW238583   4.660   0.813   3.697  2.3417 -1.4511 -0.1358
 9042SOL     OW38584   3.154   2.675   7.484 -0.0019 -0.2748  0.2720
 9042SOL    HW138585   3.153   2.582   7.462  1.4274 -0.2849  0.2462
 9042SOL    HW238586   3.109   2.683   7.568 -0.0052 -0.2746  0.2702
 9043SOL     OW38587   1.371   1.708   4.138  0.1681  0.0791 -0.1893
 9043SOL    HW138588   1.466   1.702   4.150 -0.0009 -0.7499  0.7573
 9043SOL    HW238589   1.361   1.796   4.103  0.3231  0.1445 -0.0708
 9044SOL     OW38590   3.862   3.129   1.928 -0.7619  0.6950  0.6992
 9044SOL    HW138591   3.798   3.092   1.988 -0.7138 -1.3048 -0.4757
 9044SOL    HW238592   3.876   3.054   1.870  2.6093  1.4434  0.5180
 9045SOL     OW38593   1.893   2.590   8.477  0.1292  0.1852 -0.0731
 9045SOL    HW138594   1.962   2.551   8.530 -0.8108  0.1959  1.1676
 9045SOL    HW238595   1.905   2.681   8.506 -0.4156  1.3195 -3.3922
 9046SOL     OW38596   0.568   0.188   4.044  0.2449  0.2757  0.3950
 9046SOL    HW138597   0.534   0.251   4.107 -0.6281  0.5975 -0.3981
 9046SOL    HW238598   0.518   0.108   4.059 -2.6053  2.1912  1.0708
 9047SOL     OW38599   4.099   0.467  10.469  0.0349 -0.1691 -0.3270
 9047SOL    HW138600   4.180   0.429  10.502 -0.1355  1.8601  2.4711
 9047SOL    HW238601   4.131   0.554  10.446  0.3140 -0.3253 -0.5269
 9048SOL     OW38602   2.996   1.454   5.385  0.2122  0.4797  0.0657
 9048SOL    HW138603   2.988   1.471   5.479 -0.5569 -0.9851  0.2689
 9048SOL    HW238604   2.981   1.360   5.372 -0.1485  0.5128  0.2585
 9049SOL     OW38605   1.296   0.497  10.651 -0.6421 -0.0018 -0.5501
 9049SOL    HW138606   1.202   0.511  10.666 -0.5510 -1.3604  1.2181
 9049SOL    HW238607   1.330   0.512  10.739  1.2437 -3.4316 -0.6899
 9050SOL     OW38608   4.099   3.284   6.900  0.2401  0.4561 -0.4743
 9050SOL    HW138609   4.075   3.377   6.898 -0.1302  0.3882  0.5899
 9050SOL    HW238610   4.017   3.238   6.886 -0.5602  1.3653  1.1708
 9051SOL     OW38611   0.342   0.057  10.830 -0.3025  0.4662  0.2552
 9051SOL    HW138612   0.316   0.112  10.903  0.5451 -0.2116  1.0603
 9051SOL    HW238613   0.303   0.099  10.753 -0.3497  0.8449  0.4902
 9052SOL     OW38614   1.394   2.644   1.341 -0.0043  0.3366  0.0855
 9052SOL    HW138615   1.398   2.703   1.266 -0.6586 -1.7405 -1.5528
 9052SOL    HW238616   1.338   2.568   1.327 -0.4464  1.1023 -2.3090
 9053SOL     OW38617   0.654   0.468   9.524  0.3943 -0.0439  0.3080
 9053SOL    HW138618   0.615   0.386   9.495  0.5281  0.4310 -1.2323
 9053SOL    HW238619   0.606   0.481   9.605  0.6829 -1.1160  0.6513
 9054SOL     OW38620   4.281   0.113   5.545  0.2386 -0.3200 -0.0056
 9054SOL    HW138621   4.212   0.047   5.541  1.7581 -1.7881 -1.9626
 9054SOL    HW238622   4.281   0.132   5.639 -1.3331  1.6898 -0.4247
 9055SOL     OW38623   1.527   0.394   7.624 -0.3924  0.4029 -0.6426
 9055SOL    HW138624   1.440   0.425   7.651 -2.0808 -2.5615 -2.6363
 9055SOL    HW238625   1.555   0.371   7.712  0.0344  3.9732  0.1228
 9056SOL     OW38626   3.537   4.123   8.645  0.3884 -0.0596  0.1931
 9056SOL    HW138627   3.633   4.116   8.644  0.5199  1.3586  2.5990
 9056SOL    HW238628   3.503   4.034   8.646  1.7927 -0.5934  1.0431
 9057SOL     OW38629   4.129   3.962  12.496  0.1267  0.0215 -0.7530
 9057SOL    HW138630   4.218   3.943  12.525 -1.3983 -1.9169  2.6280
 9057SOL    HW238631   4.151   3.988  12.406 -0.2412  0.9857 -0.5657
 9058SOL     OW38632   2.304   4.421   0.401 -0.3197  0.1043  0.6778
 9058SOL    HW138633   2.257   4.504   0.410  0.2352  0.3111  1.6727
 9058SOL    HW238634   2.387   4.442   0.443 -0.3573  0.1370  0.7362
 9059SOL     OW38635   1.670   1.154   6.545 -0.4202  0.1755 -0.1979
 9059SOL    HW138636   1.607   1.200   6.599 -2.0379 -2.3491  0.0715
 9059SOL    HW238637   1.637   1.064   6.546 -0.3725  0.1325 -1.8990
 9060SOL     OW38638   4.701   0.906   6.068  0.0665  0.1376  0.4865
 9060SOL    HW138639   4.649   0.899   5.988  0.4647  0.4111  0.2040
 9060SOL    HW238640   4.651   0.973   6.114 -0.1474  0.1916  0.1764
 9061SOL     OW38641   3.837   3.483   5.824 -0.5190 -0.4376  0.2780
 9061SOL    HW138642   3.912   3.468   5.767 -0.7066  0.5352 -0.2380
 9061SOL    HW238643   3.835   3.578   5.836 -3.7617 -0.4452 -0.1203
 9062SOL     OW38644   1.746   4.086   4.950  0.3034 -0.2385  0.1334
 9062SOL    HW138645   1.828   4.067   4.904  0.2643  1.4223 -0.6136
 9062SOL    HW238646   1.707   4.000   4.966 -0.4028 -0.1732 -1.3181
 9063SOL     OW38647   2.049   4.368  10.365  0.1756  0.1965 -0.1836
 9063SOL    HW138648   2.031   4.292  10.310 -1.5894 -1.1667  2.2515
 9063SOL    HW238649   1.961   4.383  10.400  0.5144 -0.6627  1.0287
 9064SOL     OW38650   1.330   1.216   9.186 -1.5732 -0.2990 -0.2697
 9064SOL    HW138651   1.331   1.162   9.107 -0.0180 -1.5778  0.6551
 9064SOL    HW238652   1.313   1.150   9.252 -0.5029  0.4766  0.7786
 9065SOL     OW38653   1.112   1.621   2.953 -0.4564  0.1623 -0.2161
 9065SOL    HW138654   1.110   1.528   2.932 -2.1677  0.5448 -1.8068
 9065SOL    HW238655   1.035   1.645   2.900 -0.6188 -0.4308 -0.2391
 9066SOL     OW38656   0.976   1.166  10.790 -0.1383  0.4918  0.0628
 9066SOL    HW138657   0.899   1.125  10.828 -0.3002  0.5738 -0.1748
 9066SOL    HW238658   0.942   1.255  10.796  0.3868  0.7052 -0.0638
 9067SOL     OW38659   0.436   3.153  15.146  0.0871 -0.4957  0.0674
 9067SOL    HW138660   0.439   3.080  15.084  2.3630 -1.2950  1.1207
 9067SOL    HW238661   0.429   3.224  15.082 -1.5175  1.2340  2.1816
 9068SOL     OW38662   2.002   3.734   0.774 -0.2657  0.6576 -0.6313
 9068SOL    HW138663   2.010   3.696   0.687  0.3546  0.8062 -0.6327
 9068SOL    HW238664   2.026   3.826   0.764 -3.1110  1.4531 -0.2504
 9069SOL     OW38665   3.595   1.299   4.599  0.1325  0.6002 -0.4111
 9069SOL    HW138666   3.500   1.315   4.596 -0.1040 -0.8100 -0.3069
 9069SOL    HW238667   3.618   1.273   4.510 -0.3580 -1.8759  0.1913
 9070SOL     OW38668   4.490   0.135   8.969 -0.4005  0.1276 -0.0088
 9070SOL    HW138669   4.567   0.103   9.018  0.3421  1.2359 -0.4545
 9070SOL    HW238670   4.467   0.202   9.034 -1.5903 -0.0595 -0.2388
 9071SOL     OW38671   2.239   1.782   7.037 -0.1718 -0.2767 -0.0262
 9071SOL    HW138672   2.171   1.779   6.969 -0.9563 -0.7510  0.7738
 9071SOL    HW238673   2.230   1.872   7.068  0.8303 -0.1028 -0.2677
 9072SOL     OW38674   3.318   0.156   1.840 -0.1577  0.1721  0.6710
 9072SOL    HW138675   3.373   0.172   1.916 -0.9266 -0.8028  1.4275
 9072SOL    HW238676   3.360   0.088   1.787 -1.4138  0.7571 -1.0596
 9073SOL     OW38677   3.651   1.731   4.576 -0.3236 -0.6453  0.0807
 9073SOL    HW138678   3.585   1.774   4.522  2.5900  0.8232 -2.3019
 9073SOL    HW238679   3.672   1.660   4.515 -0.7083 -0.7291  0.0451
 9074SOL     OW38680   3.412   2.278  16.833  0.1773 -0.0234  0.0138
 9074SOL    HW138681   3.376   2.301  16.919 -0.7981 -2.6394  0.3000
 9074SOL    HW238682   3.503   2.304  16.846  0.4585 -1.3456  0.6835
 9075SOL     OW38683   1.392   2.517  12.583 -0.7873  0.3710  0.2270
 9075SOL    HW138684   1.386   2.540  12.676 -2.9744  0.0249  0.1719
 9075SOL    HW238685   1.300   2.509  12.561 -0.3210 -1.8246 -0.8968
 9076SOL     OW38686   2.145   3.302   1.754  0.5555 -0.7364 -0.2893
 9076SOL    HW138687   2.124   3.219   1.711 -0.8080 -1.0447  1.0038
 9076SOL    HW238688   2.165   3.354   1.676  0.9138 -1.9369 -0.9969
 9077SOL     OW38689   2.376   2.785   1.155 -0.1432  0.0591  0.4507
 9077SOL    HW138690   2.381   2.723   1.227 -1.9477 -0.8791 -0.2262
 9077SOL    HW238691   2.467   2.790   1.128  0.1895 -0.6719  1.4549
 9078SOL     OW38692   1.677   3.779   9.410  0.3141  0.2862  0.1288
 9078SOL    HW138693   1.711   3.854   9.363  1.1970  0.4896  1.0856
 9078SOL    HW238694   1.671   3.714   9.340 -1.1651  1.0460 -0.4477
 9079SOL     OW38695   2.001   0.287  17.043 -0.2564 -0.2364  0.6076
 9079SOL    HW138696   1.918   0.310  17.002  0.6015 -0.3530 -1.1664
 9079SOL    HW238697   2.029   0.214  16.988  0.6680  0.5654  0.0287
 9080SOL     OW38698   3.438   0.425  16.213 -0.5126  0.4559  0.7729
 9080SOL    HW138699   3.500   0.478  16.164  0.1614  0.5450  1.7082
 9080SOL    HW238700   3.453   0.338  16.178  0.8078  0.0780  2.2538
 9081SOL     OW38701   4.249   1.002   7.756 -0.1060 -0.0386 -1.0816
 9081SOL    HW138702   4.167   0.955   7.740  0.3157 -0.2807 -2.5606
 9081SOL    HW238703   4.210   1.060   7.821  0.6384 -0.2679 -0.4327
 9082SOL     OW38704   2.385   1.954   8.469  0.5997  0.5875 -0.4088
 9082SOL    HW138705   2.382   2.033   8.523  2.5621  0.1106  0.3700
 9082SOL    HW238706   2.434   1.902   8.533 -0.2477 -2.8800 -2.5562
 9083SOL     OW38707   1.509   3.819  14.039  0.8654 -0.4579  0.9170
 9083SOL    HW138708   1.556   3.902  14.049  0.7111 -0.0178 -1.9964
 9083SOL    HW238709   1.569   3.752  14.072  1.4188  0.2467  1.3372
 9084SOL     OW38710   4.360   3.559   6.242 -0.6937 -0.0673 -0.2068
 9084SOL    HW138711   4.281   3.605   6.269  2.2102  3.4284  2.4791
 9084SOL    HW238712   4.434   3.616   6.267 -0.2348 -0.1739 -1.3396
 9085SOL     OW38713   1.922   1.097   2.474  0.3557 -0.4353 -0.4087
 9085SOL    HW138714   1.895   1.177   2.428  0.9844  0.0829  0.1248
 9085SOL    HW238715   1.897   1.036   2.405 -1.6592  0.6995 -0.7034
 9086SOL     OW38716   0.662   1.066   6.240 -0.1493 -0.1983  0.0795
 9086SOL    HW138717   0.634   1.001   6.304 -1.1704  0.2657  0.1004
 9086SOL    HW238718   0.742   1.020   6.215 -0.0300 -0.0205  0.1329
 9087SOL     OW38719   3.500   0.008   1.529 -0.1726  0.6590  0.1158
 9087SOL    HW138720   3.461   0.065   1.463  1.6759 -1.5354 -2.8974
 9087SOL    HW238721   3.565   0.063   1.573  0.8970 -0.9526  0.5625
 9088SOL     OW38722   4.558   4.429  11.465  0.0171 -0.0521  0.6398
 9088SOL    HW138723   4.545   4.465  11.378 -1.2925 -0.3080  0.7382
 9088SOL    HW238724   4.541   4.336  11.456 -0.1295 -0.0103  0.4863
 9089SOL     OW38725   2.887   2.494  11.865 -0.0929  0.5264  0.2439
 9089SOL    HW138726   2.961   2.495  11.926 -0.7667 -0.7256  1.0798
 9089SOL    HW238727   2.846   2.571  11.903  2.0522  1.7850  0.0437
 9090SOL     OW38728   1.578   2.212  11.238  0.6285 -0.0195 -0.2098
 9090SOL    HW138729   1.656   2.178  11.194 -0.8588 -3.4367 -0.1500
 9090SOL    HW238730   1.607   2.296  11.275 -1.9013 -0.5996  3.0858
 9091SOL     OW38731   0.242   3.455   0.095 -0.0352  0.2634 -0.4226
 9091SOL    HW138732   0.208   3.491   0.177  2.4799  0.3424  0.5885
 9091SOL    HW238733   0.315   3.516   0.087  0.2937 -0.0183  0.5254
 9092SOL     OW38734   3.775   4.192  11.900  0.5162 -0.0841 -0.0056
 9092SOL    HW138735   3.747   4.108  11.936 -1.7545  0.4845 -0.4811
 9092SOL    HW238736   3.818   4.231  11.976  0.2412 -1.7589  1.0041
 9093SOL     OW38737   1.281   3.481   6.621 -0.3195  0.0043  0.4491
 9093SOL    HW138738   1.372   3.486   6.653 -0.5651  0.7423  1.0537
 9093SOL    HW238739   1.236   3.533   6.688  0.4586 -0.2241  1.1467
 9094SOL     OW38740   3.582   1.888   5.627 -0.4333  0.1940  0.5084
 9094SOL    HW138741   3.488   1.882   5.612 -0.8551  2.0632  2.4490
 9094SOL    HW238742   3.594   1.959   5.690  1.9464  0.9317 -0.7582
 9095SOL     OW38743   2.306   0.673   4.257 -0.1831  1.4030 -0.1569
 9095SOL    HW138744   2.395   0.670   4.221  0.0020 -0.6545  0.4370
 9095SOL    HW238745   2.254   0.642   4.183 -0.5677  1.7933 -0.0434
 9096SOL     OW38746   1.272   2.587   4.715  0.1308 -0.3589 -0.1332
 9096SOL    HW138747   1.268   2.659   4.652  3.1300 -2.6596 -2.9410
 9096SOL    HW238748   1.359   2.552   4.694  0.0886 -0.0558 -0.8088
 9097SOL     OW38749   0.700   1.934   6.319 -0.6023  1.0362 -0.4192
 9097SOL    HW138750   0.629   1.995   6.298  0.2863  1.5063 -2.0181
 9097SOL    HW238751   0.767   1.997   6.294 -0.4815  1.2884  0.5407
 9098SOL     OW38752   2.010   1.200  13.691  0.2914  0.4536 -0.1338
 9098SOL    HW138753   2.035   1.160  13.607 -1.6822 -0.8843 -0.0730
 9098SOL    HW238754   2.096   1.205  13.732 -0.0631 -1.2750  0.7756
 9099SOL     OW38755   2.274   2.352   4.916  0.3872 -0.1406  0.1435
 9099SOL    HW138756   2.364   2.385   4.912  0.4854 -0.6683 -2.0215
 9099SOL    HW238757   2.248   2.361   4.825  0.2189  0.0796  0.2126
 9100SOL     OW38758   2.942   4.617  10.164 -0.1721 -0.4779 -0.1366
 9100SOL    HW138759   2.989   4.695  10.134 -0.4375  0.5731  2.1790
 9100SOL    HW238760   2.875   4.606  10.096  2.0387 -1.7341 -2.1143
 9101SOL     OW38761   3.634   3.692   8.738  0.0250 -0.6116 -0.3715
 9101SOL    HW138762   3.641   3.641   8.819  3.5589 -0.7650 -0.8030
 9101SOL    HW238763   3.582   3.631   8.686 -0.2462  0.0875 -0.9318
 9102SOL     OW38764   1.781   1.425  15.355  0.3665  0.3651 -0.1554
 9102SOL    HW138765   1.780   1.517  15.328  2.1120  0.3531 -0.2452
 9102SOL    HW238766   1.824   1.429  15.440  3.0869 -2.4948 -1.3982
 9103SOL     OW38767   2.160   1.845   7.680  0.3813 -0.2786 -0.1893
 9103SOL    HW138768   2.180   1.799   7.762 -2.0806  0.4053  0.7776
 9103SOL    HW238769   2.147   1.775   7.617  0.3793  3.1879 -4.1005
 9104SOL     OW38770   2.126   1.443   9.013 -0.0125  0.1863  0.3013
 9104SOL    HW138771   2.166   1.457   9.099  0.5329  1.1761 -0.1103
 9104SOL    HW238772   2.112   1.532   8.981 -0.7676  0.1621  0.5597
 9105SOL     OW38773   1.183   0.928   8.020  0.0555  0.2345  0.4413
 9105SOL    HW138774   1.230   0.980   7.955  0.2559  0.6669  0.9358
 9105SOL    HW238775   1.116   0.996   8.029 -0.7893 -0.6385  0.6613
 9106SOL     OW38776   3.906   1.152  15.590  0.1834 -0.8605  0.1427
 9106SOL    HW138777   3.968   1.168  15.519  0.7279  0.4033  0.9253
 9106SOL    HW238778   3.841   1.112  15.531  0.8374 -0.0850 -1.1033
 9107SOL     OW38779   4.355   4.104   2.146  0.0622 -0.5040 -0.7409
 9107SOL    HW138780   4.390   4.190   2.166 -1.3728  0.3052 -1.7406
 9107SOL    HW238781   4.392   4.050   2.216 -1.4837 -2.6731 -1.5710
 9108SOL     OW38782   1.090   1.931   2.675 -0.5299  0.0872  0.6821
 9108SOL    HW138783   1.183   1.909   2.669 -0.0344  2.0459  0.9149
 9108SOL    HW238784   1.078   1.926   2.580 -1.6573 -0.3268  0.8460
 9109SOL     OW38785   1.246   3.154   2.695  0.3428  0.4757  0.4870
 9109SOL    HW138786   1.184   3.184   2.761 -1.6560 -2.1810 -0.2222
 9109SOL    HW238787   1.187   3.143   2.620  1.4182 -1.8559 -0.0050
 9110SOL     OW38788   0.889   4.582   5.501  0.3792 -0.3822  0.1511
 9110SOL    HW138789   0.959   4.639   5.532  2.2789 -2.0019 -1.1513
 9110SOL    HW238790   0.816   4.644   5.495 -0.8304 -1.9824 -1.8621
 9111SOL     OW38791   4.369   0.142   7.521  0.2041 -0.1313  0.5297
 9111SOL    HW138792   4.295   0.115   7.576 -0.1266  0.9321  0.6116
 9111SOL    HW238793   4.379   0.233   7.550  1.4421 -0.3362  0.7357
 9112SOL     OW38794   3.881   0.821   5.682  0.3076 -0.0185  0.3288
 9112SOL    HW138795   3.803   0.783   5.642  0.5329 -0.4485  0.2954
 9112SOL    HW238796   3.946   0.756   5.655 -0.5631 -1.3727  1.4959
 9113SOL     OW38797   0.260   2.998   5.348 -0.2955  0.2274 -0.5763
 9113SOL    HW138798   0.271   2.905   5.365 -2.4592  0.4376  1.8941
 9113SOL    HW238799   0.197   2.990   5.277  0.0577  2.1258 -1.0992
 9114SOL     OW38800   2.289   4.112   8.963 -0.1138  0.4882 -0.2629
 9114SOL    HW138801   2.345   4.034   8.973 -1.8138 -0.7501 -0.3536
 9114SOL    HW238802   2.241   4.095   8.882 -1.2492  0.9460  0.3199
 9115SOL     OW38803   0.418   4.176  13.838 -0.0788  0.0584 -0.4019
 9115SOL    HW138804   0.400   4.232  13.762  0.0599  1.5681  0.6774
 9115SOL    HW238805   0.498   4.214  13.875 -0.2350  0.9518 -0.9819
 9116SOL     OW38806   3.477   0.535  13.288  0.4777 -0.3729  0.1658
 9116SOL    HW138807   3.490   0.537  13.193  0.0065 -1.6414  0.0786
 9116SOL    HW238808   3.383   0.546  13.299  0.2957 -1.3599 -0.4106
 9117SOL     OW38809   0.269   3.493  17.266  0.2800  0.2435  0.0539
 9117SOL    HW138810   0.282   3.473  17.359  0.4630  0.6144  0.1056
 9117SOL    HW238811   0.323   3.429  17.219 -0.4535  0.0666 -0.5498
 9118SOL     OW38812   1.837   1.854   4.579  0.2969  0.1355  0.3657
 9118SOL    HW138813   1.911   1.793   4.575 -0.2547 -0.4333 -1.1440
 9118SOL    HW238814   1.794   1.825   4.498 -1.4014  2.0795  0.5641
 9119SOL     OW38815   4.665   0.209  10.596  0.0894  0.0738  0.6748
 9119SOL    HW138816   4.572   0.193  10.609 -0.4873  2.0708 -0.9173
 9119SOL    HW238817   4.695   0.178  10.681  1.3546  1.3435  0.6993
 9120SOL     OW38818   2.031   2.250   9.338 -0.1517 -0.2362 -0.1632
 9120SOL    HW138819   1.973   2.201   9.279  2.0246 -2.9311 -0.0910
 9120SOL    HW238820   2.041   2.186   9.409 -0.5935  0.3281  0.4059
 9121SOL     OW38821   2.024   2.010   8.718  0.1920 -0.0528 -0.1816
 9121SOL    HW138822   2.017   2.102   8.692 -1.2791  0.7093  2.9100
 9121SOL    HW238823   2.016   1.969   8.632 -4.6439  2.0316 -0.7550
 9122SOL     OW38824   4.581   2.904   2.939  0.0646 -0.5622 -0.1541
 9122SOL    HW138825   4.630   2.932   3.016  1.0056  0.1544 -1.0098
 9122SOL    HW238826   4.650   2.862   2.887 -0.5117 -0.9498 -0.6103
 9123SOL     OW38827   0.677   0.945   1.354 -0.2254  0.7242  0.5801
 9123SOL    HW138828   0.649   1.037   1.351 -1.2660  0.4098  0.4189
 9123SOL    HW238829   0.769   0.958   1.332 -1.0224  1.4527 -2.3847
 9124SOL     OW38830   4.075   0.743   4.936  0.1333 -0.1412 -0.4001
 9124SOL    HW138831   3.983   0.717   4.931  1.1004 -3.8563  0.6100
 9124SOL    HW238832   4.070   0.821   4.881 -0.8679 -1.5988 -2.3662
 9125SOL     OW38833   2.248   2.149  16.596  0.0707  0.4454  0.1125
 9125SOL    HW138834   2.235   2.056  16.578 -0.6648  0.8467 -1.4458
 9125SOL    HW238835   2.250   2.164  16.690 -0.3818 -2.1722  0.5410
 9126SOL     OW38836   0.648   2.994   7.905 -0.3246  0.5254 -0.0947
 9126SOL    HW138837   0.706   2.919   7.914 -0.4869  0.4522  0.3929
 9126SOL    HW238838   0.564   2.970   7.945  0.2361 -3.2233 -1.1797
 9127SOL     OW38839   3.698   2.902   5.909  0.1282 -0.4107  0.7738
 9127SOL    HW138840   3.785   2.936   5.930  0.2975 -0.5392  0.2818
 9127SOL    HW238841   3.720   2.837   5.842  0.4100 -0.2929  0.7516
 9128SOL     OW38842   0.720   0.557  15.867  0.2077  0.1524  0.2304
 9128SOL    HW138843   0.753   0.609  15.793  0.9979 -0.8101 -0.0846
 9128SOL    HW238844   0.674   0.488  15.820  1.5624  1.0932 -2.4885
 9129SOL     OW38845   3.722   3.668  13.007  0.0125 -0.0382  0.3215
 9129SOL    HW138846   3.651   3.707  13.058 -1.2510 -2.7125  0.5719
 9129SOL    HW238847   3.708   3.577  13.031  0.0732 -0.7847 -2.4554
 9130SOL     OW38848   0.926   0.571   4.143  0.3572  0.0342 -0.3801
 9130SOL    HW138849   0.880   0.654   4.128 -0.9246 -0.7186 -0.5425
 9130SOL    HW238850   0.865   0.509   4.103  1.0644 -1.8108  1.4243
 9131SOL     OW38851   2.613   1.794   4.262 -0.2859  0.0425  0.5344
 9131SOL    HW138852   2.522   1.782   4.289  0.1302 -3.6433  0.1907
 9131SOL    HW238853   2.608   1.875   4.211 -0.1614  0.1273  0.6581
 9132SOL     OW38854   2.427   1.093  14.667 -0.7774 -0.3655  0.1082
 9132SOL    HW138855   2.452   1.071  14.757  0.1310 -1.2651 -0.3541
 9132SOL    HW238856   2.352   1.041  14.640  1.8404 -3.1284 -1.8471
 9133SOL     OW38857   1.934   3.832   0.013 -0.1405 -0.3570  0.1303
 9133SOL    HW138858   1.851   3.832   0.060  0.6583 -1.0955  1.5371
 9133SOL    HW238859   1.910   3.811  17.611 -1.1936  1.9277 -0.1133
 9134SOL     OW38860   2.783   1.303   1.594  0.6292 -0.0800  0.2933
 9134SOL    HW138861   2.812   1.226   1.643  0.0959  0.6087  1.6942
 9134SOL    HW238862   2.806   1.380   1.646 -0.4510  2.2558 -2.6545
 9135SOL     OW38863   2.676   4.375   7.416 -0.8206 -0.1909 -0.1034
 9135SOL    HW138864   2.690   4.435   7.489 -1.1920  1.3644 -1.3269
 9135SOL    HW238865   2.623   4.316   7.469  2.2250 -2.2634  0.6255
 9136SOL     OW38866   0.521   4.021   5.403  0.3525 -0.1680 -0.8690
 9136SOL    HW138867   0.614   4.001   5.389  0.1319  0.1353 -2.8280
 9136SOL    HW238868   0.493   3.955   5.466  1.8498  1.8082  1.8785
 9137SOL     OW38869   0.395   4.384   3.284  0.2933  0.7120  0.3915
 9137SOL    HW138870   0.362   4.466   3.321 -2.4843  0.1019 -0.7687
 9137SOL    HW238871   0.476   4.409   3.237 -0.1549 -0.8524 -1.2074
 9138SOL     OW38872   3.498   2.637  14.534 -0.2870 -0.2825 -0.0999
 9138SOL    HW138873   3.568   2.688  14.491 -0.6450  1.1791  1.0510
 9138SOL    HW238874   3.537   2.596  14.611 -0.2975 -0.6696 -0.2968
 9139SOL     OW38875   0.709   2.987  10.251  0.1932 -0.2681 -0.5597
 9139SOL    HW138876   0.725   2.967  10.159  0.1824  1.3070 -0.9092
 9139SOL    HW238877   0.677   3.077  10.240  0.1626 -0.3476 -1.1273
 9140SOL     OW38878   2.702   1.100   1.917 -0.0695  0.3982  0.4081
 9140SOL    HW138879   2.786   1.125   1.957 -0.1455  1.4271 -0.0667
 9140SOL    HW238880   2.656   1.183   1.903 -1.6385 -0.1183  2.6464
 9141SOL     OW38881   1.368   4.492   6.581 -0.1220  0.4520  0.2225
 9141SOL    HW138882   1.406   4.405   6.592  1.2006  0.9282 -0.6235
 9141SOL    HW238883   1.308   4.474   6.509  1.0506 -1.1304 -0.3416
 9142SOL     OW38884   2.224   1.359  12.547  0.5469  0.3636  0.0849
 9142SOL    HW138885   2.180   1.295  12.492  2.3429 -0.0412 -0.8823
 9142SOL    HW238886   2.140   1.397  12.573  1.7333  3.0784 -0.1067
 9143SOL     OW38887   0.872   2.106  13.478 -0.6241  0.3935 -0.4950
 9143SOL    HW138888   0.796   2.052  13.455 -0.1932 -0.2235 -0.4558
 9143SOL    HW238889   0.942   2.068  13.426 -0.5905  0.2969 -0.3782
 9144SOL     OW38890   1.939   2.190  10.425  0.2939 -0.2906 -0.1565
 9144SOL    HW138891   1.951   2.277  10.463 -0.0228  0.5927 -2.0765
 9144SOL    HW238892   1.878   2.153  10.490 -0.0791 -1.1062 -0.9593
 9145SOL     OW38893   4.015   0.305   5.724  0.2880 -0.0454 -0.0385
 9145SOL    HW138894   3.987   0.213   5.728 -0.3977  0.1652  0.1429
 9145SOL    HW238895   4.093   0.298   5.779  0.7558  1.4683 -0.4972
 9146SOL     OW38896   4.122   4.157   5.260 -0.4937 -0.0217  0.3345
 9146SOL    HW138897   4.190   4.194   5.204 -0.4654 -2.2392 -1.0957
 9146SOL    HW238898   4.121   4.220   5.333  1.3870  1.0264 -0.5415
 9147SOL     OW38899   2.580   3.869   7.823  0.2094  0.3376 -0.3625
 9147SOL    HW138900   2.520   3.889   7.895 -0.0659 -1.0712 -0.2002
 9147SOL    HW238901   2.614   3.785   7.854  0.4488  0.3972 -0.4612
 9148SOL     OW38902   1.421   3.953   3.451 -0.3931 -0.3167 -0.2550
 9148SOL    HW138903   1.391   3.912   3.532 -0.8899 -2.5948 -1.5755
 9148SOL    HW238904   1.387   3.896   3.382  0.0176  1.1712 -1.7077
 9149SOL     OW38905   3.653   3.572   4.864  0.9284  0.4398 -0.0595
 9149SOL    HW138906   3.731   3.573   4.808  0.3028  0.1202 -0.9360
 9149SOL    HW238907   3.683   3.632   4.932  0.5857  1.7965 -1.1097
 9150SOL     OW38908   2.638   4.014   3.168 -0.3431 -0.2701  0.3918
 9150SOL    HW138909   2.651   3.920   3.181  0.8878 -0.4860 -2.3653
 9150SOL    HW238910   2.726   4.040   3.198 -0.3328 -0.5990  0.6490
 9151SOL     OW38911   2.985   2.302   3.708 -0.1171 -0.1939  0.0726
 9151SOL    HW138912   3.026   2.225   3.749 -1.4283 -1.5951 -1.2071
 9151SOL    HW238913   2.966   2.358   3.783  2.3179 -0.6884  1.0537
 9152SOL     OW38914   2.257   2.585   7.972 -0.4106 -0.2539  0.4966
 9152SOL    HW138915   2.318   2.571   7.900  0.5085 -2.1432  1.6356
 9152SOL    HW238916   2.272   2.678   7.992  0.7846 -0.4352  0.4324
 9153SOL     OW38917   3.917   0.226   4.758 -0.1709 -0.6590  0.5788
 9153SOL    HW138918   3.991   0.285   4.743 -1.0668 -0.0133 -1.2646
 9153SOL    HW238919   3.897   0.211   4.666 -1.3100 -1.6411  0.9770
 9154SOL     OW38920   1.464   3.364  17.207 -0.0632 -0.3021  0.4654
 9154SOL    HW138921   1.411   3.430  17.163  0.4597  1.5463  2.5578
 9154SOL    HW238922   1.537   3.355  17.146  0.0307 -2.1039  0.8267
 9155SOL     OW38923   1.448   2.697  12.216 -0.2210  0.5525 -0.1850
 9155SOL    HW138924   1.429   2.791  12.217  0.5874  0.7061  0.5258
 9155SOL    HW238925   1.364   2.671  12.253  0.0551 -1.3060 -0.8512
 9156SOL     OW38926   0.813   4.295   8.217  0.0331 -0.3072  0.5966
 9156SOL    HW138927   0.789   4.317   8.307 -1.0402  1.2579 -0.0767
 9156SOL    HW238928   0.735   4.325   8.170  2.4116  3.0718 -1.1396
 9157SOL     OW38929   3.427   2.971  16.014 -0.0819  0.4468  0.4997
 9157SOL    HW138930   3.358   2.907  15.996 -1.6485  2.0771  0.6893
 9157SOL    HW238931   3.494   2.916  15.975 -2.2772 -1.7160 -0.2232
 9158SOL     OW38932   2.279   1.620  10.270 -0.2911 -0.1283 -0.3120
 9158SOL    HW138933   2.357   1.639  10.321  1.0062 -2.3437 -1.5007
 9158SOL    HW238934   2.276   1.692  10.207 -0.8935  0.8913  0.8804
 9159SOL     OW38935   4.236   2.652  13.443 -0.4345 -0.4943 -0.4731
 9159SOL    HW138936   4.189   2.588  13.389  0.2522  0.3219 -2.0443
 9159SOL    HW238937   4.162   2.706  13.469  0.2361  0.5249 -0.6713
 9160SOL     OW38938   1.699   1.802   9.967 -0.1037  0.8000  0.0638
 9160SOL    HW138939   1.720   1.825  10.058  1.0577 -0.2717  0.0700
 9160SOL    HW238940   1.681   1.891   9.937  1.0462  1.1688  0.4880
 9161SOL     OW38941   2.347   1.046  17.394 -0.1455  0.1214 -0.2959
 9161SOL    HW138942   2.354   0.993  17.314  0.1713 -0.4522  0.1186
 9161SOL    HW238943   2.435   1.024  17.426  0.2798  0.2843 -1.3339
 9162SOL     OW38944   1.729   2.812  16.813  0.5845 -0.2942 -0.0171
 9162SOL    HW138945   1.796   2.768  16.760 -0.1433  1.1374 -2.1263
 9162SOL    HW238946   1.653   2.785  16.762  1.4579  0.4289 -1.7008
 9163SOL     OW38947   2.599   3.427  12.841 -0.3865 -0.3326 -0.6407
 9163SOL    HW138948   2.591   3.334  12.859 -1.5044  0.3882  2.5018
 9163SOL    HW238949   2.509   3.445  12.813  0.6472  1.0560 -3.0759
 9164SOL     OW38950   0.741   4.154  14.885  0.1253 -1.2424  0.6752
 9164SOL    HW138951   0.788   4.073  14.867 -2.3685 -2.2536 -1.1452
 9164SOL    HW238952   0.655   4.120  14.861  2.3998 -5.4073 -1.5102
 9165SOL     OW38953   0.521   2.849  15.329 -0.0323 -0.0026 -0.1263
 9165SOL    HW138954   0.537   2.894  15.412  0.6800 -0.2085 -0.1582
 9165SOL    HW238955   0.608   2.813  15.315 -0.6931 -1.9772  0.7978
 9166SOL     OW38956   2.629   0.159   1.846  0.2432  0.0255 -0.1120
 9166SOL    HW138957   2.670   0.086   1.799  1.5657  1.6101 -1.4191
 9166SOL    HW238958   2.700   0.211   1.885  0.5481 -1.6785  1.6364
 9167SOL     OW38959   1.712   3.734   5.306  0.0968  0.3952  0.2468
 9167SOL    HW138960   1.710   3.662   5.242  1.8050 -0.8183  1.5715
 9167SOL    HW238961   1.785   3.785   5.271  1.1479 -1.9978 -1.0538
 9168SOL     OW38962   3.384   0.227   8.819 -0.2626  0.2142  0.2853
 9168SOL    HW138963   3.374   0.141   8.778  3.2644  0.2641 -0.6158
 9168SOL    HW238964   3.322   0.215   8.891 -0.1451 -2.2282 -0.0119
 9169SOL     OW38965   3.519   3.817   3.236 -0.3159 -0.5877  0.0273
 9169SOL    HW138966   3.549   3.825   3.146 -0.3945 -0.3697  0.0202
 9169SOL    HW238967   3.555   3.730   3.257 -2.5093 -1.6470 -0.5592
 9170SOL     OW38968   0.126   1.217   7.477 -0.4925  0.2538  0.0987
 9170SOL    HW138969   0.054   1.168   7.437 -0.3088 -0.3110  0.4604
 9170SOL    HW238970   0.112   1.214   7.571 -0.5187  1.4136  0.1316
 9171SOL     OW38971   2.888   4.689   7.356  0.0355  0.3783  0.0346
 9171SOL    HW138972   2.859   4.629   7.426 -4.3845  0.5856 -1.6042
 9171SOL    HW238973   2.956   4.632   7.320  1.1338  1.4271  0.4867
 9172SOL     OW38974   3.919   2.490   6.408  0.3494  0.3125 -0.6808
 9172SOL    HW138975   3.864   2.549   6.356 -0.4309  0.2408  0.0768
 9172SOL    HW238976   3.964   2.445   6.336  1.6458 -0.1894  0.4437
 9173SOL     OW38977   3.365   0.841   9.125  0.4085 -0.1768 -0.0008
 9173SOL    HW138978   3.300   0.892   9.174 -0.2979  0.5631 -1.7137
 9173SOL    HW238979   3.319   0.824   9.043 -0.2246 -1.6322  0.6442
 9174SOL     OW38980   2.714   4.608   2.150 -0.4033  0.5005 -0.1360
 9174SOL    HW138981   2.767   4.637   2.076 -0.1619 -0.9707 -0.5475
 9174SOL    HW238982   2.783   4.596   2.215 -2.4384 -0.7158  1.8213
 9175SOL     OW38983   2.800   2.609  11.235  0.1009 -0.1473 -0.1264
 9175SOL    HW138984   2.849   2.542  11.283  0.4336  0.6827  0.6813
 9175SOL    HW238985   2.717   2.564  11.220 -0.1879  0.3383  0.0195
 9176SOL     OW38986   1.443   1.083   0.775  0.2519  0.0349 -0.2591
 9176SOL    HW138987   1.423   1.169   0.738 -0.1012  0.3821  0.7229
 9176SOL    HW238988   1.499   1.096   0.851  0.7906 -1.7828 -0.3436
 9177SOL     OW38989   2.908   4.065   6.229  0.2431 -0.1348  0.3496
 9177SOL    HW138990   2.937   3.975   6.220 -1.6408 -0.7587  0.4264
 9177SOL    HW238991   2.854   4.059   6.308  1.6338  2.4724  1.5044
 9178SOL     OW38992   0.883   1.469   9.364 -0.0995 -0.0838  0.3293
 9178SOL    HW138993   0.908   1.377   9.354  2.3996  0.5982  0.1074
 9178SOL    HW238994   0.902   1.485   9.456 -0.9071 -1.8936  0.8116
 9179SOL     OW38995   4.014   4.498   3.076  0.0882 -0.2481 -0.1717
 9179SOL    HW138996   4.001   4.404   3.073 -1.1257 -0.0864  0.0230
 9179SOL    HW238997   3.929   4.529   3.043 -0.3156 -0.8004  0.3476
 9180SOL     OW38998   0.567   0.493   2.390 -0.4578 -0.2564  0.6687
 9180SOL    HW138999   0.521   0.558   2.444  0.9024  0.2788  1.1996
 9180SOL    HW239000   0.501   0.476   2.324 -0.0682  0.0934  0.1845
 9181SOL     OW39001   2.072   2.122   2.565  0.7624  0.8044 -0.4316
 9181SOL    HW139002   2.109   2.181   2.500  0.4391  1.6442  0.1431
 9181SOL    HW239003   2.003   2.092   2.506  0.3487  3.1705 -1.1433
 9182SOL     OW39004   1.927   4.127   7.521  0.7327 -0.6069  0.3439
 9182SOL    HW139005   1.980   4.118   7.600  2.8452 -0.2450 -1.0370
 9182SOL    HW239006   1.992   4.137   7.452 -1.5811  0.1789 -1.6998
 9183SOL     OW39007   1.696   4.041   3.449 -0.0685 -0.1996  0.1594
 9183SOL    HW139008   1.605   4.018   3.427 -0.6014  0.1927  2.0264
 9183SOL    HW239009   1.688   4.078   3.536  0.6270  0.9119 -0.2525
 9184SOL     OW39010   0.899   1.102   2.945 -0.2814  0.7257 -0.0969
 9184SOL    HW139011   0.901   1.019   2.994  0.9492 -0.8548 -2.8621
 9184SOL    HW239012   0.808   1.132   2.953 -0.6704 -0.0972 -1.4340
 9185SOL     OW39013   4.190   0.214   6.334  0.2639  0.2638  0.5731
 9185SOL    HW139014   4.231   0.148   6.390  0.3720  0.3424  0.5886
 9185SOL    HW239015   4.118   0.251   6.385  1.0816  0.3047  1.7190
 9186SOL     OW39016   2.739   0.468  10.491  0.3122  0.1365  0.1303
 9186SOL    HW139017   2.669   0.505  10.437 -0.6207 -0.8459  0.6670
 9186SOL    HW239018   2.808   0.534  10.484 -2.8406  3.1665 -2.7149
 9187SOL     OW39019   3.016   1.214   8.535 -0.0008  0.0236  0.7654
 9187SOL    HW139020   3.026   1.148   8.466 -3.4172  0.3191 -0.0084
 9187SOL    HW239021   2.932   1.190   8.573 -1.7329  1.0151 -2.4815
 9188SOL     OW39022   4.466   1.752   6.577 -0.5279 -0.1542 -0.1299
 9188SOL    HW139023   4.437   1.753   6.486 -0.9656 -1.4184  0.0023
 9188SOL    HW239024   4.388   1.788   6.620  0.3063  1.3019  0.1976
 9189SOL     OW39025   1.358   0.191  15.630 -0.0485 -0.2960 -0.4768
 9189SOL    HW139026   1.301   0.130  15.677 -1.2183  1.5002  0.4360
 9189SOL    HW239027   1.404   0.217  15.709  0.1642 -3.2314  0.3728
 9190SOL     OW39028   2.135   0.894   6.730 -0.0048  0.3453 -0.1360
 9190SOL    HW139029   2.077   0.914   6.803 -0.2634 -1.8481  0.2617
 9190SOL    HW239030   2.221   0.933   6.747  0.2549 -0.8276  1.2825
 9191SOL     OW39031   0.455   4.381  14.993  0.1697 -0.0444 -0.0069
 9191SOL    HW139032   0.382   4.378  14.931  1.3877 -2.5131 -1.3534
 9191SOL    HW239033   0.532   4.387  14.937 -0.4570  0.2898 -0.8225
 9192SOL     OW39034   3.692   0.786   4.185 -0.3561 -0.6044 -0.5336
 9192SOL    HW139035   3.630   0.820   4.249 -0.1244 -1.7749  0.2978
 9192SOL    HW239036   3.769   0.793   4.242 -1.0155 -0.3774  0.3135
 9193SOL     OW39037   1.069   3.843  14.366 -0.2683  0.2528 -0.3815
 9193SOL    HW139038   1.087   3.877  14.453 -0.1673 -0.4935 -0.1041
 9193SOL    HW239039   1.028   3.924  14.337  1.2193  1.0838 -0.1296
 9194SOL     OW39040   1.682   1.202   5.997  0.1155 -0.5137 -0.1147
 9194SOL    HW139041   1.608   1.236   5.947  1.6022  0.6836 -1.5171
 9194SOL    HW239042   1.634   1.148   6.059  0.6334 -0.5652  0.2433
 9195SOL     OW39043   0.240   2.399   3.034  0.0879 -0.3091 -0.7768
 9195SOL    HW139044   0.283   2.412   2.949  0.4628  0.0779 -0.5305
 9195SOL    HW239045   0.176   2.334   3.003  3.6809 -1.7551 -5.2097
 9196SOL     OW39046   3.037   3.818  11.385  0.1877 -0.0773 -0.2514
 9196SOL    HW139047   2.992   3.733  11.389 -0.1510  0.1421  0.5361
 9196SOL    HW239048   2.967   3.875  11.414 -0.2056 -1.0680  0.7182
 9197SOL     OW39049   3.677   4.512   2.262  0.3386  0.3520  0.5378
 9197SOL    HW139050   3.691   4.579   2.329 -3.2023  0.4434  1.1701
 9197SOL    HW239051   3.634   4.441   2.310 -0.0314  1.3455  1.6726
 9198SOL     OW39052   0.934   0.767   7.852 -0.3214 -0.2446  0.2524
 9198SOL    HW139053   0.850   0.794   7.814 -1.3894 -1.6448  1.6311
 9198SOL    HW239054   0.917   0.777   7.945 -2.7804 -2.0834  0.0102
 9199SOL     OW39055   0.855   1.734   6.247  0.1605  0.2269 -0.1187
 9199SOL    HW139056   0.836   1.803   6.183 -0.1598  1.0198  0.8320
 9199SOL    HW239057   0.800   1.767   6.318  0.3930 -0.3161  0.3092
 9200SOL     OW39058   4.372   1.163   3.082  0.0206 -0.1883  0.3493
 9200SOL    HW139059   4.284   1.131   3.107  1.2879 -1.8532  2.7596
 9200SOL    HW239060   4.387   1.220   3.157 -1.4273  1.5662 -0.6884
 9201SOL     OW39061   0.726   3.578  16.136 -0.0655 -0.1432  0.1078
 9201SOL    HW139062   0.741   3.502  16.192 -0.3402 -0.5167 -0.3225
 9201SOL    HW239063   0.664   3.630  16.187 -0.5935 -0.0059 -0.6707
 9202SOL     OW39064   0.131   2.079   5.422 -0.1434  0.4797  0.2204
 9202SOL    HW139065   0.176   2.039   5.348 -0.5982 -0.5873  0.5209
 9202SOL    HW239066   0.117   2.170   5.396 -1.8075 -0.6601 -2.8363
 9203SOL     OW39067   1.828   1.176   3.602  0.8466  0.2422  0.1925
 9203SOL    HW139068   1.747   1.210   3.641  1.5857  2.6370 -0.3589
 9203SOL    HW239069   1.880   1.256   3.606  2.4040 -0.7004 -1.3641
 9204SOL     OW39070   3.915   4.090   4.788 -0.6457 -0.9419  0.1331
 9204SOL    HW139071   3.920   4.144   4.867  1.2109 -0.1838 -0.5023
 9204SOL    HW239072   3.966   4.017   4.823  1.4223  0.7794  0.7323
 9205SOL     OW39073   2.770   1.602   6.491  0.1646  0.6048 -0.4772
 9205SOL    HW139074   2.739   1.684   6.529 -1.2704  0.0251 -0.3718
 9205SOL    HW239075   2.858   1.598   6.527 -0.3186  0.3906  0.6834
 9206SOL     OW39076   1.346   1.428   6.439 -0.1328 -0.2541 -0.0907
 9206SOL    HW139077   1.284   1.400   6.506 -0.5385  0.8300 -0.0199
 9206SOL    HW239078   1.408   1.481   6.490 -0.5149  0.1327 -0.0310
 9207SOL     OW39079   1.277   1.761   7.364  0.3342 -0.0018  0.1395
 9207SOL    HW139080   1.271   1.827   7.295  0.4344  1.0155  1.1011
 9207SOL    HW239081   1.217   1.692   7.337 -0.0570  0.7149 -0.8159
 9208SOL     OW39082   1.572   2.170   5.819  0.3942 -0.1593 -0.0060
 9208SOL    HW139083   1.517   2.195   5.745 -1.2519 -1.2506  0.8390
 9208SOL    HW239084   1.599   2.254   5.856  2.9404 -0.9242 -0.1092
 9209SOL     OW39085   0.371   2.351  12.356  0.7184  0.2010 -0.2565
 9209SOL    HW139086   0.289   2.389  12.324  0.8460 -0.0806 -0.9133
 9209SOL    HW239087   0.431   2.343  12.282  2.6279 -2.0283  1.5345
 9210SOL     OW39088   3.891   4.440   9.335 -0.8678 -0.4336 -0.0434
 9210SOL    HW139089   3.941   4.501   9.389 -0.3924 -0.6613 -0.2228
 9210SOL    HW239090   3.890   4.356   9.381  0.2822  0.3004  1.3134
 9211SOL     OW39091   3.405   0.271   6.945 -0.3773 -0.1442 -0.1759
 9211SOL    HW139092   3.478   0.319   6.984 -0.7475  0.5446 -0.3167
 9211SOL    HW239093   3.365   0.341   6.894 -0.1724  0.0200 -0.1115
 9212SOL     OW39094   1.771   2.241   5.355 -0.1915 -0.0307 -0.6670
 9212SOL    HW139095   1.853   2.288   5.340 -0.4713  0.7541  0.2000
 9212SOL    HW239096   1.732   2.297   5.422 -0.3731  0.5975 -1.2988
 9213SOL     OW39097   3.404   0.103   4.116  0.2644 -0.1485 -0.1073
 9213SOL    HW139098   3.360   0.043   4.057  0.1093 -1.6212  1.5102
 9213SOL    HW239099   3.497   0.084   4.104  0.3490  1.3943 -1.9632
 9214SOL     OW39100   1.544   4.066   1.789 -0.4419 -0.6807  0.2094
 9214SOL    HW139101   1.595   4.126   1.735  0.2661 -1.1651  0.3429
 9214SOL    HW239102   1.483   4.030   1.724 -1.8803  1.3707  0.4274
 9215SOL     OW39103   1.255   4.660   7.246 -0.2426  0.7166 -0.3157
 9215SOL    HW139104   1.244   0.033   7.252 -2.5262  0.4800 -0.8183
 9215SOL    HW239105   1.207   4.631   7.324  1.3907  0.1044  0.4655
 9216SOL     OW39106   3.047   3.157   2.675 -0.8742 -0.1243 -0.6096
 9216SOL    HW139107   2.975   3.120   2.625 -0.5883 -0.8976 -0.4674
 9216SOL    HW239108   3.010   3.236   2.714  0.2731 -0.5836  1.4262
 9217SOL     OW39109   3.283   1.734   5.173  0.1341  0.4994 -0.3074
 9217SOL    HW139110   3.372   1.710   5.147  0.4019  0.2516  0.8587
 9217SOL    HW239111   3.292   1.762   5.264 -0.7482 -0.4944  0.0850
 9218SOL     OW39112   3.512   3.995   7.503  0.2675  0.3395  0.5112
 9218SOL    HW139113   3.426   3.977   7.466  0.2157  0.1568  0.7209
 9218SOL    HW239114   3.535   3.903   7.520 -1.1383  0.1058  1.1209
 9219SOL     OW39115   3.348   1.950   6.448  0.2934  0.0915 -0.2011
 9219SOL    HW139116   3.292   1.894   6.502  2.9122  0.1220  2.5647
 9219SOL    HW239117   3.323   2.036   6.483 -0.4322 -0.3527  0.3810
 9220SOL     OW39118   0.423   3.868   6.648  0.2256  0.2312  0.2006
 9220SOL    HW139119   0.417   3.813   6.570  0.1206 -1.2213  1.2437
 9220SOL    HW239120   0.432   3.807   6.721  1.7417  1.2325  0.8558
 9221SOL     OW39121   2.393   4.678   7.022 -0.3137 -0.4573 -0.2436
 9221SOL    HW139122   2.431   4.614   7.082 -0.3602  1.2278  1.5880
 9221SOL    HW239123   2.402   0.043   7.063  0.4184 -0.2432 -0.8524
 9222SOL     OW39124   3.526   3.712   7.583  0.2460  0.0243  0.2602
 9222SOL    HW139125   3.463   3.729   7.653 -0.3988 -0.7587 -0.1295
 9222SOL    HW239126   3.495   3.627   7.550 -1.2368  0.0863  1.4752
 9223SOL     OW39127   2.279   2.830   1.539 -0.1159 -0.0868 -0.2336
 9223SOL    HW139128   2.333   2.760   1.501 -1.0852  0.2973 -2.2760
 9223SOL    HW239129   2.316   2.897   1.482 -0.5868 -0.3603 -0.8586
 9224SOL     OW39130   1.156   2.070  15.265 -0.4234  0.1514  0.7719
 9224SOL    HW139131   1.068   2.105  15.283 -0.1154  0.3238  1.9746
 9224SOL    HW239132   1.213   2.138  15.301  0.7717 -0.5018  0.0830
 9225SOL     OW39133   1.082   2.034   9.097 -0.1652  0.2153 -0.1850
 9225SOL    HW139134   0.992   2.045   9.066 -0.0446  4.0070  0.8988
 9225SOL    HW239135   1.091   1.951   9.144  1.7199  0.5760  0.0704
 9226SOL     OW39136   2.918   4.028   6.997  0.0199 -0.6539 -0.7910
 9226SOL    HW139137   2.832   4.068   7.005 -1.3413 -3.8156  0.2076
 9226SOL    HW239138   2.915   3.941   7.037  2.6667 -1.0742 -1.4860
 9227SOL     OW39139   0.909   0.131   7.026 -0.0073 -0.0075  0.0348
 9227SOL    HW139140   0.989   0.102   6.981  0.9917  0.0596  1.7463
 9227SOL    HW239141   0.844   0.069   6.992  0.1683 -0.0579 -0.2076
 9228SOL     OW39142   1.933   2.181  11.314 -0.1385 -0.1251 -0.0224
 9228SOL    HW139143   1.878   2.170  11.237 -1.1828  0.8041  0.5925
 9228SOL    HW239144   2.021   2.189  11.277 -0.1343  1.9078  0.4800
 9229SOL     OW39145   4.069   4.691   5.459  0.4044 -0.8263 -0.0296
 9229SOL    HW139146   3.976   4.685   5.438  0.2336  0.3358  0.3964
 9229SOL    HW239147   4.088   4.599   5.440 -0.7151 -1.4892  2.1213
 9230SOL     OW39148   0.777   1.875  17.533 -0.0420  0.5172  0.4445
 9230SOL    HW139149   0.871   1.881  17.551 -0.5933  1.5654  3.0148
 9230SOL    HW239150   0.736   1.933  17.598 -2.1704  0.1787 -0.5903
 9231SOL     OW39151   4.593   2.293   5.445  0.5363 -0.0537  0.1744
 9231SOL    HW139152   4.674   2.321   5.404 -0.0841 -2.0733 -2.4299
 9231SOL    HW239153   4.578   2.202   5.419  1.9445 -0.6329  1.3549
 9232SOL     OW39154   0.072   0.535   3.707 -0.2843 -0.0378 -0.4299
 9232SOL    HW139155   0.051   0.487   3.787 -1.5916 -0.8477 -1.2612
 9232SOL    HW239156   0.005   0.603   3.714 -0.0413  0.3159 -1.4894
 9233SOL     OW39157   4.399   3.071   6.511  0.2454  0.0603 -0.0379
 9233SOL    HW139158   4.404   3.167   6.513  2.7118 -0.1409  2.4158
 9233SOL    HW239159   4.305   3.061   6.526  0.0718  2.7140  0.7543
 9234SOL     OW39160   3.783   4.319   8.098  0.0371 -0.2527  0.1096
 9234SOL    HW139161   3.740   4.297   8.181 -1.4768 -1.5443 -1.0116
 9234SOL    HW239162   3.750   4.406   8.077  0.2814 -0.7372 -2.3256
 9235SOL     OW39163   3.313   3.946   8.568 -0.3468 -0.6654  0.1119
 9235SOL    HW139164   3.300   3.893   8.647  0.3154 -0.4351  0.3800
 9235SOL    HW239165   3.320   3.874   8.505  0.1899 -1.4346  1.0475
 9236SOL     OW39166   3.079   1.390   7.615  0.1050  0.2677  0.0700
 9236SOL    HW139167   3.030   1.449   7.672  1.5221 -0.1353  1.6670
 9236SOL    HW239168   3.146   1.349   7.669 -1.4241 -1.9661  0.2901
 9237SOL     OW39169   0.101   3.247   7.267 -0.2273  0.3060  0.3959
 9237SOL    HW139170   0.145   3.234   7.351 -0.8466 -0.6959  0.5727
 9237SOL    HW239171   0.040   3.173   7.272  0.0008  0.1637  1.0259
 9238SOL     OW39172   0.047   2.200   3.732 -0.0667  0.2606 -0.5753
 9238SOL    HW139173   4.712   2.179   3.658 -0.9602  0.8826 -0.0742
 9238SOL    HW239174   0.107   2.255   3.682  0.7168 -0.9341 -0.9290
 9239SOL     OW39175   4.336   0.085   4.670  0.0877  0.0307  0.3941
 9239SOL    HW139176   4.275   0.073   4.743 -0.4744 -1.0238 -0.2587
 9239SOL    HW239177   4.383   0.003   4.682 -1.2883 -0.9281 -0.8030
 9240SOL     OW39178   4.655   3.426   6.595 -0.4727 -0.3782 -0.7207
 9240SOL    HW139179   4.643   3.425   6.690 -0.6399  0.2569 -0.7349
 9240SOL    HW239180   4.563   3.435   6.570 -1.2198  0.0427  2.1244
 9241SOL     OW39181   1.994   3.816   8.393 -0.3515 -0.0520 -0.2321
 9241SOL    HW139182   1.958   3.775   8.314 -0.9299 -0.3771  0.2060
 9241SOL    HW239183   2.066   3.754   8.403 -1.5371 -1.3631  0.1947
 9242SOL     OW39184   4.643   2.225   3.332 -0.3569  0.0542 -0.3546
 9242SOL    HW139185   4.645   2.229   3.237 -1.1411  0.6135 -0.3481
 9242SOL    HW239186   0.014   2.216   3.354  0.2022 -0.1215 -2.7917
 9243SOL     OW39187   4.294   4.111   7.767 -0.1974 -0.3344 -0.2167
 9243SOL    HW139188   4.217   4.163   7.790  0.9876  1.3679 -0.0008
 9243SOL    HW239189   4.357   4.172   7.806  0.2681 -1.3078  0.5400
 9244SOL     OW39190   3.804   2.534   6.665 -0.2582 -0.1919  0.3146
 9244SOL    HW139191   3.841   2.490   6.588 -1.9289 -0.9085 -0.0677
 9244SOL    HW239192   3.743   2.599   6.628 -0.7080 -1.6521 -1.4805
 9245SOL     OW39193   0.601   2.497   3.489 -0.3744  0.8589  0.2374
 9245SOL    HW139194   0.638   2.433   3.429 -2.1401 -1.4895  1.6124
 9245SOL    HW239195   0.600   2.568   3.426 -1.2922 -1.1337 -2.0018
 9246SOL     OW39196   4.586   2.183  16.327  0.4606 -0.1309  0.2646
 9246SOL    HW139197   4.650   2.245  16.292 -0.2092  0.6416  0.4357
 9246SOL    HW239198   4.534   2.246  16.377 -1.1747 -1.9498  0.8533
 9247SOL     OW39199   0.980   2.595   6.360  0.6544 -0.1250 -0.0380
 9247SOL    HW139200   0.971   2.505   6.390  2.6095 -0.2024  0.3442
 9247SOL    HW239201   0.905   2.645   6.392  2.2728  1.0521  1.8678
 9248SOL     OW39202   0.986   4.146   4.696 -0.4087  0.2984  0.5215
 9248SOL    HW139203   1.077   4.116   4.707 -0.6176 -0.0718  1.2383
 9248SOL    HW239204   0.994   4.188   4.610 -2.4478 -2.1817 -0.8812
 9249SOL     OW39205   4.353   0.357  13.283 -0.1542  0.3200  0.1954
 9249SOL    HW139206   4.283   0.328  13.342 -1.5396  1.6650 -0.7878
 9249SOL    HW239207   4.360   0.286  13.219 -1.5731 -0.7974  1.2769
 9250SOL     OW39208   0.514   1.516   7.259  0.4037 -0.2055  0.1318
 9250SOL    HW139209   0.453   1.511   7.333 -2.5128  1.3406 -2.1655
 9250SOL    HW239210   0.582   1.577   7.287  0.8257 -1.0548  0.9066
 9251SOL     OW39211   2.639   4.103   7.051 -0.5283 -0.0256  0.2114
 9251SOL    HW139212   2.617   4.165   6.982  0.5405  0.1131 -0.0047
 9251SOL    HW239213   2.609   4.142   7.134 -0.6665 -0.7927  0.5255
 9252SOL     OW39214   1.492   3.981   6.433 -0.1991  0.2308 -0.2506
 9252SOL    HW139215   1.476   3.931   6.353  1.7388 -0.6781 -0.0658
 9252SOL    HW239216   1.555   3.921   6.474  0.3323  1.2799  0.4745
 9253SOL     OW39217   3.729   3.975  10.882 -0.8403 -0.4775  0.3820
 9253SOL    HW139218   3.652   3.952  10.934  0.2287 -3.1032  0.8071
 9253SOL    HW239219   3.788   3.958  10.956 -1.1882 -0.0347  0.7565
 9254SOL     OW39220   3.428   0.794   2.208  0.0763  0.2633  0.2061
 9254SOL    HW139221   3.428   0.707   2.167 -0.6100  0.4295 -0.1466
 9254SOL    HW239222   3.467   0.854   2.143  0.2689  0.5565  0.5944
 9255SOL     OW39223   0.684   3.427   5.652  0.6543 -0.2427 -0.2982
 9255SOL    HW139224   0.660   3.348   5.605 -0.1328  0.2550 -0.7350
 9255SOL    HW239225   0.608   3.473   5.616  1.7036  2.0822  0.4664
 9256SOL     OW39226   2.271   2.587   2.602  0.2577 -0.5150  0.1480
 9256SOL    HW139227   2.189   2.590   2.554  0.3251 -0.1420  0.0635
 9256SOL    HW239228   2.257   2.511   2.659 -0.4597 -1.7335 -1.6391
 9257SOL     OW39229   3.508   2.055  12.984 -0.0999  0.1683 -0.3998
 9257SOL    HW139230   3.509   1.981  13.045 -0.3683  0.7643  0.3319
 9257SOL    HW239231   3.539   2.128  13.037  2.5967  0.0565 -1.8165
 9258SOL     OW39232   4.498   4.659   7.490 -0.2148 -0.7347  0.1238
 9258SOL    HW139233   4.565   4.662   7.558 -0.4578 -0.2804  0.3437
 9258SOL    HW239234   4.453   0.020   7.507  0.1660 -0.5748  0.3594
 9259SOL     OW39235   3.374   3.302   2.544 -0.4709 -0.0925 -0.2711
 9259SOL    HW139236   3.283   3.331   2.539 -0.2221  0.6242 -0.6776
 9259SOL    HW239237   3.377   3.244   2.620 -0.6680  1.3209  0.8173
 9260SOL     OW39238   3.910   1.012   2.093  0.7198  0.0126 -0.2767
 9260SOL    HW139239   3.937   0.934   2.140  2.6053 -0.3198 -1.9219
 9260SOL    HW239240   3.865   0.972   2.018  0.0881  0.3922 -0.1033
 9261SOL     OW39241   3.235   1.442   2.862  0.2372  0.5534 -0.4663
 9261SOL    HW139242   3.302   1.510   2.865 -0.9628  1.7156  0.4468
 9261SOL    HW239243   3.279   1.376   2.808  1.1981  0.2794  0.6790
 9262SOL     OW39244   3.586   1.099   4.840  0.0668 -0.1601  0.4375
 9262SOL    HW139245   3.541   1.150   4.773  1.4917  0.4873 -0.0271
 9262SOL    HW239246   3.566   1.144   4.921  3.0013  5.3880 -1.9451
 9263SOL     OW39247   3.139   1.095   4.063  0.4084  0.1956  0.1480
 9263SOL    HW139248   3.140   1.123   4.154 -0.4015  0.7040 -0.0041
 9263SOL    HW239249   3.227   1.057   4.056 -0.2260 -1.2350 -0.1009
 9264SOL     OW39250   1.133   2.190   4.866  0.9366  0.4156  0.5534
 9264SOL    HW139251   1.132   2.243   4.945  0.7367 -2.1902  2.2830
 9264SOL    HW239252   1.227   2.173   4.866  0.4150 -2.6094 -2.0330
 9265SOL     OW39253   2.982   1.943   6.256  0.6481  0.0868  0.2001
 9265SOL    HW139254   2.901   1.940   6.204  0.4855 -2.6094  0.5925
 9265SOL    HW239255   3.033   1.984   6.187  1.5531  0.9143  1.3689
 9266SOL     OW39256   2.870   0.233   0.571 -0.3770  0.5779 -0.1013
 9266SOL    HW139257   2.944   0.293   0.577 -0.4532  0.8950 -2.2501
 9266SOL    HW239258   2.884   0.167   0.638  0.3447  2.0163  1.1638
 9267SOL     OW39259   3.256   1.305  15.560 -0.3611 -0.4521  0.0589
 9267SOL    HW139260   3.298   1.256  15.631  2.2684  1.2427 -0.3012
 9267SOL    HW239261   3.235   1.388  15.602 -0.6149 -0.3573 -0.2636
 9268SOL     OW39262   4.180   0.083   7.721 -0.1810  0.1164  0.4722
 9268SOL    HW139263   4.099   0.131   7.735  0.2052  1.1473 -0.8111
 9268SOL    HW239264   4.166   4.720   7.764  0.4721 -0.5670 -0.6323
 9269SOL     OW39265   2.741   3.687   4.988 -0.0223 -0.6665  0.3194
 9269SOL    HW139266   2.831   3.693   4.956 -0.2812 -0.4852 -0.3693
 9269SOL    HW239267   2.756   3.717   5.078  1.9586  1.7128 -0.8057
 9270SOL     OW39268   4.144   1.963   2.397  0.2314  0.3412 -0.2053
 9270SOL    HW139269   4.165   1.941   2.488  0.8433  2.4088  0.1455
 9270SOL    HW239270   4.197   1.895   2.356 -2.5492 -1.9466  0.0393
 9271SOL     OW39271   2.273   0.004   3.584 -0.0873  0.3260 -0.4184
 9271SOL    HW139272   2.187   4.687   3.567  1.4990 -3.0648 -0.7849
 9271SOL    HW239273   2.326   4.675   3.522 -0.2459 -0.9378  0.4728
 9272SOL     OW39274   2.868   2.199  10.583 -0.2430 -0.0107  0.4503
 9272SOL    HW139275   2.840   2.110  10.602 -0.5497  0.3879  1.8581
 9272SOL    HW239276   2.918   2.188  10.502 -1.1457  0.8644 -0.2354
 9273SOL     OW39277   1.210   3.763   0.657 -0.5118  0.4411  0.0367
 9273SOL    HW139278   1.210   3.810   0.574 -0.3916  1.3781  0.5680
 9273SOL    HW239279   1.267   3.688   0.639 -2.6075 -0.9010 -0.9446
 9274SOL     OW39280   3.267   1.102  14.434 -0.0675  0.4604 -0.3568
 9274SOL    HW139281   3.356   1.114  14.469 -0.4876  0.7436  0.6018
 9274SOL    HW239282   3.289   1.047  14.358  0.4677 -1.0475  0.8926
 9275SOL     OW39283   0.243   1.608  10.323  0.5184  0.0826 -0.1920
 9275SOL    HW139284   0.155   1.594  10.290  0.7853 -0.0846 -0.8364
 9275SOL    HW239285   0.284   1.552  10.257 -2.8896 -1.0194 -1.3524
 9276SOL     OW39286   1.472   1.430  13.527  0.0496  0.4024 -0.0750
 9276SOL    HW139287   1.527   1.355  13.549  2.6452  2.3246 -0.0269
 9276SOL    HW239288   1.403   1.419  13.591  0.7957 -0.5749  0.5572
 9277SOL     OW39289   4.678   4.334   6.827 -0.0067 -0.0814 -0.3751
 9277SOL    HW139290   4.717   4.326   6.914  1.0671 -2.2872 -1.0531
 9277SOL    HW239291   4.635   4.419   6.831  1.8361  0.8455 -0.7214
 9278SOL     OW39292   2.480   0.269   4.326  0.2290  0.0645  0.5582
 9278SOL    HW139293   2.511   0.234   4.409 -0.0732  1.3152  1.1989
 9278SOL    HW239294   2.393   0.230   4.322  0.6750 -1.0487  1.6762
 9279SOL     OW39295   2.313   3.521   2.879 -0.3318  0.2108  0.2086
 9279SOL    HW139296   2.268   3.598   2.844 -0.2713 -0.2714 -0.9536
 9279SOL    HW239297   2.382   3.555   2.936 -0.2433 -2.5733  1.7749
 9280SOL     OW39298   1.006   2.302   3.769 -0.3383  0.0823 -0.2072
 9280SOL    HW139299   0.978   2.249   3.694 -1.8025 -0.1031  0.4605
 9280SOL    HW239300   1.098   2.324   3.757 -0.3815  0.5717  0.3990
 9281SOL     OW39301   1.140   1.150   2.451 -0.0881 -0.0948 -0.2895
 9281SOL    HW139302   1.100   1.075   2.496 -2.1431  0.2785 -1.4611
 9281SOL    HW239303   1.181   1.106   2.377 -2.2667 -0.2209 -1.4429
 9282SOL     OW39304   2.368   2.676   4.413  0.3934 -0.7206  0.0593
 9282SOL    HW139305   2.321   2.593   4.410 -0.3188 -0.2592 -1.1539
 9282SOL    HW239306   2.378   2.699   4.321  2.8261 -1.5819  0.1150
 9283SOL     OW39307   3.226   2.885   5.840  0.1843 -0.2728 -0.1257
 9283SOL    HW139308   3.237   2.794   5.813  1.3930  0.1542 -1.0791
 9283SOL    HW239309   3.185   2.866   5.925  1.3848 -2.0674  0.0545
 9284SOL     OW39310   2.266   4.591   3.017 -0.5202 -0.7698  0.2823
 9284SOL    HW139311   2.315   4.633   3.087 -1.3584  0.7042 -0.0111
 9284SOL    HW239312   2.187   4.566   3.067 -1.2819  0.7355 -0.1717
 9285SOL     OW39313   3.965   3.609   0.359  0.6159 -0.1525  0.0128
 9285SOL    HW139314   3.910   3.575   0.289  1.5281 -0.6608 -0.4584
 9285SOL    HW239315   4.019   3.673   0.312  2.6563 -2.9954 -1.5064
 9286SOL     OW39316   0.339   4.692   1.945 -0.0894  0.0884 -0.1082
 9286SOL    HW139317   0.314   4.632   1.875  1.2917 -0.0968 -0.4455
 9286SOL    HW239318   0.395   0.028   1.893  0.9793 -0.7854  0.0707
 9287SOL     OW39319   4.685   2.264   9.853  0.3574 -0.0788 -0.2397
 9287SOL    HW139320   4.635   2.199   9.902 -0.3012  1.2027  0.7968
 9287SOL    HW239321   0.053   2.245   9.881  0.3620  2.5352  1.6221
 9288SOL     OW39322   0.623   3.189   1.483  0.0205 -0.0863  0.1371
 9288SOL    HW139323   0.535   3.205   1.517  0.2046  0.8756  0.1632
 9288SOL    HW239324   0.648   3.275   1.450  0.3664  0.3698  1.5655
 9289SOL     OW39325   1.812   4.117   0.085  0.6934  0.1184  0.0369
 9289SOL    HW139326   1.834   4.206   0.110  1.7813  0.3181 -1.6134
 9289SOL    HW239327   1.901   4.081   0.078  1.4630  1.7638  1.3895
 9290SOL     OW39328   0.185   3.507   0.596  0.3893  0.3593  0.0841
 9290SOL    HW139329   0.257   3.520   0.658  0.1609 -0.8671  0.6212
 9290SOL    HW239330   0.167   3.414   0.611 -0.5350  0.5115 -0.1177
 9291SOL     OW39331   2.489   0.580   1.397 -0.0350  0.0954 -0.1237
 9291SOL    HW139332   2.441   0.514   1.348 -1.3775 -0.5847  2.1293
 9291SOL    HW239333   2.422   0.642   1.426 -0.8252 -0.2838 -1.1266
 9292SOL     OW39334   1.327   2.818   5.086 -0.8214  0.5114 -0.0480
 9292SOL    HW139335   1.398   2.836   5.024  0.3703  0.4475  1.2922
 9292SOL    HW239336   1.354   2.889   5.144 -1.3573  3.0901 -2.9675
 9293SOL     OW39337   0.376   4.145  17.126 -0.3771  0.1103  0.4358
 9293SOL    HW139338   0.361   4.214  17.061  0.6991  0.0683  0.1490
 9293SOL    HW239339   0.298   4.092  17.112 -1.1080  0.4123  3.2860
 9294SOL     OW39340   0.946   4.564   8.291  0.0852 -0.2687  0.3990
 9294SOL    HW139341   0.891   4.497   8.250 -0.1202 -0.3853  0.8625
 9294SOL    HW239342   0.910   4.587   8.377  0.5096 -0.0401  0.5113
 9295SOL     OW39343   2.828   1.617   0.382 -0.3689 -0.6040  0.9279
 9295SOL    HW139344   2.921   1.637   0.373 -0.2479 -2.5097 -2.2418
 9295SOL    HW239345   2.800   1.660   0.301 -2.4660 -0.3599  1.7759
 9296SOL     OW39346   1.434   2.404   6.537  0.5040  0.0432  0.2510
 9296SOL    HW139347   1.359   2.371   6.488  1.3936 -0.6621 -0.6526
 9296SOL    HW239348   1.411   2.471   6.600 -0.1771  0.2834 -0.2561
 9297SOL     OW39349   3.130   1.573  15.335  0.9213  0.2493  0.0398
 9297SOL    HW139350   3.126   1.486  15.294 -3.6728  0.0484  0.9140
 9297SOL    HW239351   3.073   1.568  15.411  0.9686  4.8454  0.3529
 9298SOL     OW39352   3.343   2.822  11.872 -0.1726 -0.0116 -0.7073
 9298SOL    HW139353   3.330   2.909  11.834  0.8446  1.4075  2.1766
 9298SOL    HW239354   3.365   2.770  11.796 -1.6895  0.7455 -1.6656
 9299SOL     OW39355   2.646   3.614   2.094 -0.5079  0.4214  0.8444
 9299SOL    HW139356   2.688   3.566   2.023 -1.6909  0.1261  0.3468
 9299SOL    HW239357   2.704   3.596   2.168 -0.2953  0.9954  0.8228
 9300SOL     OW39358   1.918   1.697   9.623  0.0009 -0.1335  0.1214
 9300SOL    HW139359   1.926   1.605   9.596  1.7121 -0.5194  1.9432
 9300SOL    HW239360   2.010   1.722   9.615  0.3534 -1.5794 -0.3035
 9301SOL     OW39361   2.476   2.030  15.633  0.4180  0.2906  0.3236
 9301SOL    HW139362   2.518   2.089  15.571  0.0994  1.9431  1.6884
 9301SOL    HW239363   2.511   2.059  15.717 -0.2699 -0.6832  0.9518
 9302SOL     OW39364   2.132   2.923   5.058 -0.0830  0.9221 -0.3819
 9302SOL    HW139365   2.084   2.853   5.014  1.2322  0.8837 -1.7771
 9302SOL    HW239366   2.121   3.000   5.001  1.3779  0.3644 -1.4153
 9303SOL     OW39367   4.559   3.834   4.566  0.1845 -0.2234 -0.0610
 9303SOL    HW139368   4.513   3.752   4.546  1.9453 -2.0432  3.4738
 9303SOL    HW239369   4.559   3.871   4.478  0.3438 -1.4913 -0.5910
 9304SOL     OW39370   3.638   3.678   6.538 -0.0358 -0.1029 -0.8057
 9304SOL    HW139371   3.557   3.718   6.569  0.7870  2.9123 -2.6190
 9304SOL    HW239372   3.689   3.759   6.541  0.3542 -0.4460  1.6978
 9305SOL     OW39373   2.395   3.852  12.379  0.0058  0.1212 -0.0271
 9305SOL    HW139374   2.334   3.926  12.375  0.3816  0.3873 -0.9093
 9305SOL    HW239375   2.362   3.811  12.458  2.8889  0.6918  1.4834
 9306SOL     OW39376   0.501   3.979   3.419  0.1256  0.2285  0.0972
 9306SOL    HW139377   0.498   4.047   3.353  2.2386 -0.9323 -1.1888
 9306SOL    HW239378   0.572   4.005   3.478  0.6062 -0.1444 -0.3201
 9307SOL     OW39379   0.418   0.434  10.862  0.1264  0.5664  0.0091
 9307SOL    HW139380   0.483   0.383  10.813  0.5056  1.3291 -0.2924
 9307SOL    HW239381   0.429   0.384  10.942  0.0696 -0.7770 -0.8291
 9308SOL     OW39382   1.800   1.807   0.134 -0.2930  0.3931 -0.4622
 9308SOL    HW139383   1.752   1.799   0.052 -0.4795  1.7238 -0.4845
 9308SOL    HW239384   1.731   1.856   0.178  0.9969 -1.2594  3.3662
 9309SOL     OW39385   2.018   0.138   4.698  0.2808  0.1386 -0.3204
 9309SOL    HW139386   1.975   0.052   4.695 -1.2137  0.8685  0.2512
 9309SOL    HW239387   1.955   0.192   4.651 -0.8620 -0.8306  0.0743
 9310SOL     OW39388   3.342   1.557   7.607  0.3298 -0.2157  0.0519
 9310SOL    HW139389   3.335   1.474   7.655 -0.3254  0.3651  0.9582
 9310SOL    HW239390   3.324   1.622   7.675  0.5459  0.5913 -0.6615
 9311SOL     OW39391   1.390   4.497   4.637  0.3798  0.5650  0.3129
 9311SOL    HW139392   1.369   4.468   4.548 -1.5121 -1.1983  1.3457
 9311SOL    HW239393   1.314   4.538   4.678 -0.7770  0.4306 -1.7092
 9312SOL     OW39394   2.817   3.804   9.144 -0.0707  0.7444  0.4200
 9312SOL    HW139395   2.883   3.754   9.192  0.7270  1.8512  0.4608
 9312SOL    HW239396   2.852   3.800   9.055 -3.5213 -0.7088 -0.9061
 9313SOL     OW39397   2.383   0.205  10.726  0.2311 -0.6508 -0.3888
 9313SOL    HW139398   2.292   0.218  10.753 -0.7555 -1.8505 -3.0926
 9313SOL    HW239399   2.404   0.292  10.760 -0.7075 -0.7686  0.4904
 9314SOL     OW39400   0.953   0.373   9.749 -0.2625 -0.3086 -0.7600
 9314SOL    HW139401   0.973   0.430   9.823  0.1735  0.8644 -1.7695
 9314SOL    HW239402   1.028   0.396   9.694 -0.7437 -0.1032 -1.3334
 9315SOL     OW39403   0.830   4.576   7.181  0.6201 -0.0540  0.0108
 9315SOL    HW139404   0.786   4.518   7.244  0.5801  1.0039  0.9675
 9315SOL    HW239405   0.919   4.544   7.167 -0.2970 -2.6454 -0.0279
 9316SOL     OW39406   1.617   1.568  10.127  0.4017  0.1620  0.3401
 9316SOL    HW139407   1.642   1.630  10.058  1.5600  1.1736  1.6710
 9316SOL    HW239408   1.560   1.621  10.182 -0.6850  0.6330 -1.2214
 9317SOL     OW39409   4.412   2.634   3.144 -0.2182  0.3405 -0.6494
 9317SOL    HW139410   4.467   2.710   3.160 -2.3956  1.8156 -0.2319
 9317SOL    HW239411   4.467   2.573   3.095 -0.2029  0.1380 -0.3810
 9318SOL     OW39412   2.519   0.471  13.254 -0.0884 -0.1752  0.1740
 9318SOL    HW139413   2.474   0.453  13.171  2.2436  0.6432 -1.2811
 9318SOL    HW239414   2.603   0.425  13.254 -1.6688 -3.1212  3.0177
 9319SOL     OW39415   1.910   3.564   7.053 -0.8040 -0.1328  0.0591
 9319SOL    HW139416   1.895   3.658   7.061 -2.8320 -0.4666  0.2371
 9319SOL    HW239417   1.986   3.548   7.109 -0.6675  1.1767  0.2371
 9320SOL     OW39418   3.721   0.709   6.992  0.7218  0.3715  0.1065
 9320SOL    HW139419   3.744   0.705   7.085 -1.5895  0.7460  0.6833
 9320SOL    HW239420   3.773   0.781   6.956  0.5805  0.2901 -0.2574
 9321SOL     OW39421   0.886   0.332   4.507 -0.0683  0.0446  0.4848
 9321SOL    HW139422   0.919   0.395   4.443  0.8177 -0.8862  0.0391
 9321SOL    HW239423   0.848   0.265   4.450  0.0659  0.5127 -0.1654
 9322SOL     OW39424   1.518   2.390   0.547  0.5785  0.2102 -0.3485
 9322SOL    HW139425   1.490   2.480   0.528 -0.1799 -0.1142 -0.7977
 9322SOL    HW239426   1.518   2.392   0.643  0.4017  1.8229 -0.3723
 9323SOL     OW39427   3.652   1.382   8.935 -0.2200 -0.7595 -0.4555
 9323SOL    HW139428   3.581   1.411   8.877 -1.9724 -0.9571  1.5552
 9323SOL    HW239429   3.643   1.452   9.000 -2.4558  1.3847 -3.0811
 9324SOL     OW39430   0.099   0.436   8.285  0.5139  0.0697  0.0063
 9324SOL    HW139431   0.193   0.434   8.302  1.0307  2.5168 -2.6001
 9324SOL    HW239432   0.098   0.366   8.220  1.0145  0.2748 -0.2287
 9325SOL     OW39433   1.237   1.082   3.399 -0.3801 -0.4927  0.0843
 9325SOL    HW139434   1.332   1.087   3.409 -0.5157  0.2947  0.9910
 9325SOL    HW239435   1.226   1.128   3.315 -1.6775  1.0760  1.1081
 9326SOL     OW39436   2.356   3.059   7.013  0.0635  0.3573 -0.5045
 9326SOL    HW139437   2.303   3.069   7.092  1.8769  1.1734  0.6213
 9326SOL    HW239438   2.398   3.145   7.009  1.6277 -0.4431 -1.1807
 9327SOL     OW39439   3.296   4.706   2.177 -0.3107 -0.2123 -0.2411
 9327SOL    HW139440   3.293   4.682   2.085 -1.4706 -0.0249 -0.2440
 9327SOL    HW239441   3.350   0.062   2.166  2.8774 -2.4001 -0.0119
 9328SOL     OW39442   0.328   2.440  12.619  0.5123 -0.2303 -0.4208
 9328SOL    HW139443   0.407   2.482  12.652  0.9981 -3.5753  2.6827
 9328SOL    HW239444   0.363   2.418  12.533 -0.3978 -0.2151 -0.7965
 9329SOL     OW39445   3.130   4.456  11.652  0.1454 -0.1780  0.0393
 9329SOL    HW139446   3.093   4.537  11.616  2.6306  1.3386  0.9822
 9329SOL    HW239447   3.220   4.482  11.634  0.0265 -1.5722 -2.6860
 9330SOL     OW39448   0.633   3.132   2.711  0.3940  0.7322  0.2389
 9330SOL    HW139449   0.642   3.074   2.635  1.1963  1.4715 -0.2301
 9330SOL    HW239450   0.539   3.140   2.692  0.4697  2.6956  0.7962
 9331SOL     OW39451   3.692   3.582  15.098  0.0195 -0.2510 -0.7310
 9331SOL    HW139452   3.752   3.657  15.100 -1.2224  0.7741 -1.5156
 9331SOL    HW239453   3.674   3.565  15.005  0.3464  0.2079 -0.8837
 9332SOL     OW39454   4.060   2.735  11.426 -0.1775 -0.4096 -0.4009
 9332SOL    HW139455   4.072   2.641  11.443 -0.3506  0.0175  2.0483
 9332SOL    HW239456   4.133   2.749  11.366  0.0771 -1.0755 -0.2453
 9333SOL     OW39457   2.634   0.863   6.615 -0.6531  0.3097 -0.0010
 9333SOL    HW139458   2.585   0.793   6.572 -1.0006  0.0543  0.8270
 9333SOL    HW239459   2.610   0.832   6.702  1.5419 -1.6836 -0.1246
 9334SOL     OW39460   2.077   4.179   0.998 -0.1430 -0.1052 -0.5022
 9334SOL    HW139461   2.121   4.177   1.083  0.3273 -0.2705 -0.7459
 9334SOL    HW239462   1.999   4.234   1.005  0.2556  0.5034 -0.7934
 9335SOL     OW39463   1.051   0.201   1.733 -0.2418 -0.0863 -0.4022
 9335SOL    HW139464   1.003   0.281   1.710  0.6512  0.6660  0.3615
 9335SOL    HW239465   0.978   0.141   1.719 -1.2849  1.1403 -0.3214
 9336SOL     OW39466   0.044   3.997   5.688 -0.1845 -0.1159  0.0290
 9336SOL    HW139467   4.703   3.936   5.648 -1.1449  1.3850 -0.7475
 9336SOL    HW239468   0.027   3.973   5.779  0.4002  0.0381  0.1776
 9337SOL     OW39469   1.536   1.097   3.308  0.2233  0.3439 -0.2071
 9337SOL    HW139470   1.546   1.113   3.214  0.2648 -1.2334 -0.4768
 9337SOL    HW239471   1.627   1.073   3.327 -0.3798 -0.5289  1.6318
 9338SOL     OW39472   0.411   2.016   8.733 -0.4861 -0.1998  0.0108
 9338SOL    HW139473   0.432   2.021   8.826  2.8356 -2.1223 -0.6359
 9338SOL    HW239474   0.493   2.049   8.696  0.1871 -0.8871  0.8862
 9339SOL     OW39475   3.318   2.423   6.143 -0.1989  0.0774 -0.5438
 9339SOL    HW139476   3.300   2.441   6.235 -3.4195 -0.8116 -0.9728
 9339SOL    HW239477   3.412   2.439   6.142  0.0084 -1.1664 -0.1473
 9340SOL     OW39478   1.794   1.602   2.892  0.0815 -0.2154 -0.1607
 9340SOL    HW139479   1.831   1.689   2.905 -0.2583 -0.1576  0.4520
 9340SOL    HW239480   1.711   1.609   2.939  0.6065  0.2259  0.7043
 9341SOL     OW39481   1.036   4.256   4.164  0.2549  0.2667 -0.1764
 9341SOL    HW139482   1.060   4.226   4.251 -0.2913 -2.2941 -0.9190
 9341SOL    HW239483   1.120   4.236   4.122  0.4838  0.7648  0.0342
 9342SOL     OW39484   0.820   0.926   2.440 -0.3977 -0.1976 -0.3891
 9342SOL    HW139485   0.792   0.928   2.532 -0.8575 -0.0030 -0.5353
 9342SOL    HW239486   0.827   1.020   2.425 -0.5613  0.1675  1.8808
 9343SOL     OW39487   1.374   1.993   2.094  0.5570 -0.1835 -0.2224
 9343SOL    HW139488   1.286   1.955   2.098  0.0399  1.1683  0.9727
 9343SOL    HW239489   1.421   1.911   2.107 -0.2058 -0.8148 -1.4015
 9344SOL     OW39490   2.960   0.119   5.381 -0.0019 -0.6287  0.6392
 9344SOL    HW139491   2.935   0.033   5.349 -2.0216 -0.3694  1.4685
 9344SOL    HW239492   3.003   0.157   5.305 -2.2367 -0.5427 -0.5929
 9345SOL     OW39493   2.077   2.092   3.070 -1.2070 -0.2116  0.7196
 9345SOL    HW139494   2.095   2.123   2.981  0.5441 -1.0510  0.7720
 9345SOL    HW239495   2.081   2.175   3.119 -0.4062 -0.0899  0.4509
 9346SOL     OW39496   0.603   2.233  10.742 -0.3858 -0.0601  0.5572
 9346SOL    HW139497   0.655   2.293  10.795  1.7938  0.2122 -1.8686
 9346SOL    HW239498   0.539   2.293  10.704 -0.5549 -2.4410 -2.9070
 9347SOL     OW39499   0.849   1.035  12.032 -0.3713 -0.0691 -0.2463
 9347SOL    HW139500   0.849   0.940  12.032  0.8165 -0.0730  0.7107
 9347SOL    HW239501   0.765   1.047  11.988 -1.3446  0.4400  1.7831
 9348SOL     OW39502   1.686   2.499   1.295 -0.3121 -0.2402  0.0937
 9348SOL    HW139503   1.754   2.498   1.362 -0.1076 -1.2834 -0.1318
 9348SOL    HW239504   1.637   2.572   1.333 -0.9763 -0.6966  0.1177
 9349SOL     OW39505   4.649   2.423  14.046 -0.0759 -0.2333  0.7511
 9349SOL    HW139506   4.616   2.366  13.977 -0.0295  0.5912  0.0456
 9349SOL    HW239507   4.611   2.503  14.010  2.2947 -0.4554 -2.1992
 9350SOL     OW39508   4.006   2.959   6.359 -0.0671  0.4205  0.3063
 9350SOL    HW139509   3.937   3.022   6.337  0.5007  1.3744  1.2447
 9350SOL    HW239510   4.042   3.001   6.436 -1.9145 -0.6648  1.7648
 9351SOL     OW39511   3.426   3.763   7.225  0.4442  0.0643 -0.1844
 9351SOL    HW139512   3.472   3.840   7.193  0.2436  0.3546  0.2319
 9351SOL    HW239513   3.385   3.807   7.299 -0.5192 -1.1354  0.0084
 9352SOL     OW39514   1.779   0.489   9.731  0.2788 -0.3604  0.4815
 9352SOL    HW139515   1.712   0.472   9.797 -0.9057 -1.1543 -0.9049
 9352SOL    HW239516   1.763   0.582   9.718 -1.0327 -1.0539 -3.0424
 9353SOL     OW39517   4.086   1.991   4.473 -0.1617  0.3678 -0.5946
 9353SOL    HW139518   4.052   1.960   4.557  0.2826 -1.3918 -1.0595
 9353SOL    HW239519   4.137   2.070   4.492  1.4345 -0.6535 -0.6638
 9354SOL     OW39520   2.109   0.777  17.439 -0.0968  0.1807  0.1302
 9354SOL    HW139521   2.051   0.798  17.365 -1.5061 -1.9019  0.6115
 9354SOL    HW239522   2.044   0.776  17.509 -0.5243  1.9529 -0.2529
 9355SOL     OW39523   2.337   3.903   0.109  0.2804  0.4001  0.0553
 9355SOL    HW139524   2.384   3.826   0.078  1.1187  0.9263  0.0515
 9355SOL    HW239525   2.331   3.884   0.203  0.6681 -2.0200 -0.3943
 9356SOL     OW39526   4.605   2.225   6.630  0.4321 -0.4370  0.2501
 9356SOL    HW139527   4.664   2.301   6.636 -0.6869  0.3781  0.8346
 9356SOL    HW239528   4.669   2.154   6.618  1.4168  0.5589 -0.4421
 9357SOL     OW39529   4.084   4.395   4.211 -0.3430 -0.6392  0.4343
 9357SOL    HW139530   4.030   4.322   4.240 -0.0402 -0.7166  0.7892
 9357SOL    HW239531   4.149   4.393   4.281 -0.6167  0.5574  0.7243
 9358SOL     OW39532   2.333   2.560   3.206 -0.3127 -0.0845 -0.0769
 9358SOL    HW139533   2.425   2.569   3.179 -0.6070  3.3831  0.0810
 9358SOL    HW239534   2.297   2.528   3.124  1.7173 -0.6790 -0.7415
 9359SOL     OW39535   4.631   0.130   3.605 -0.3125 -0.3076  0.1810
 9359SOL    HW139536   4.653   0.054   3.550  0.0238  0.1083 -0.2514
 9359SOL    HW239537   4.673   0.203   3.560  0.2246 -0.2643  0.7459
 9360SOL     OW39538   4.466   1.164   5.017 -0.1702  0.4299  0.0274
 9360SOL    HW139539   4.484   1.211   4.936  1.1495 -1.5328 -0.8269
 9360SOL    HW239540   4.556   1.140   5.041  0.3854 -0.1668 -2.7049
 9361SOL     OW39541   0.075   0.391  15.426 -0.2229 -0.2506 -0.4242
 9361SOL    HW139542   0.045   0.340  15.502  1.5584  0.9201  1.0728
 9361SOL    HW239543   0.163   0.356  15.414 -0.8121 -2.0326  0.5009
 9362SOL     OW39544   2.023   1.997  16.657 -0.2143 -0.4450 -0.0086
 9362SOL    HW139545   1.952   1.935  16.636 -0.8340 -0.3683  1.8708
 9362SOL    HW239546   2.051   1.970  16.744  0.8662  1.2136  0.1495
 9363SOL     OW39547   1.622   2.126   6.291 -0.4245  0.8658  0.1844
 9363SOL    HW139548   1.629   2.107   6.384 -0.1860 -0.4289 -0.1031
 9363SOL    HW239549   1.669   2.052   6.252 -0.9688  0.3624  0.4923
 9364SOL     OW39550   0.096   3.682  12.208  0.0407  0.4619 -0.0953
 9364SOL    HW139551   0.017   3.734  12.216 -0.4239 -0.4309  1.1554
 9364SOL    HW239552   0.128   3.708  12.122  1.6156  2.3967  1.0782
 9365SOL     OW39553   1.271   1.388  12.211 -0.4138  0.2147  0.4190
 9365SOL    HW139554   1.212   1.313  12.198  1.3255 -1.0769  0.0615
 9365SOL    HW239555   1.352   1.347  12.180  0.5707  3.3842 -1.2133
 9366SOL     OW39556   3.434   1.936   9.860  0.1266 -0.1964  0.1102
 9366SOL    HW139557   3.416   1.973   9.946 -1.6781  2.1421 -1.2833
 9366SOL    HW239558   3.357   1.966   9.810  1.0086 -0.2771 -1.3019
 9367SOL     OW39559   2.628   3.580   4.071  0.1104  0.4604  0.3805
 9367SOL    HW139560   2.631   3.503   4.013 -1.0665  0.7635 -0.0871
 9367SOL    HW239561   2.711   3.616   4.039  1.5214 -2.8073  0.3923
 9368SOL     OW39562   2.602   0.134   3.566 -0.2083 -0.0283  0.1065
 9368SOL    HW139563   2.588   0.136   3.471  2.2560  0.4553 -0.2361
 9368SOL    HW239564   2.672   0.071   3.578  1.8898  2.1225 -0.8871
 9369SOL     OW39565   1.522   4.175  17.398 -0.5906 -0.2584 -0.6388
 9369SOL    HW139566   1.541   4.233  17.472  1.3964  0.8625 -2.0193
 9369SOL    HW239567   1.606   4.128  17.404  1.2880  2.8487 -2.3550
 9370SOL     OW39568   2.212   0.456   5.210 -0.1778 -0.8054  0.4570
 9370SOL    HW139569   2.126   0.483   5.242  0.1030 -0.0342  0.5664
 9370SOL    HW239570   2.248   0.544   5.222 -3.4366  0.7267 -1.0040
 9371SOL     OW39571   2.033   2.885   7.949 -0.1872  0.3836  0.1127
 9371SOL    HW139572   2.058   2.829   8.022 -1.0764 -2.8507 -2.0777
 9371SOL    HW239573   1.953   2.913   7.995 -1.2503  1.2249 -2.2250
 9372SOL     OW39574   2.113   0.931  13.832 -0.5982 -0.4696 -0.0791
 9372SOL    HW139575   2.117   0.978  13.916 -2.0278  0.9396 -0.7882
 9372SOL    HW239576   2.035   0.962  13.787 -1.2692 -2.1179 -0.0333
 9373SOL     OW39577   2.686   1.593   9.271  0.1559 -0.2162 -0.4809
 9373SOL    HW139578   2.683   1.656   9.199  2.3930 -1.6913 -1.8474
 9373SOL    HW239579   2.776   1.561   9.269 -0.0495 -0.5198 -3.6080
 9374SOL     OW39580   2.837   3.717  16.323  0.3000 -1.1202 -0.5637
 9374SOL    HW139581   2.908   3.684  16.378 -1.8285 -1.4216  2.0065
 9374SOL    HW239582   2.817   3.791  16.380  1.5691  0.2234 -1.8593
 9375SOL     OW39583   2.474   3.767   8.387  0.6028 -1.0430 -0.4766
 9375SOL    HW139584   2.453   3.861   8.387  0.8424 -0.9910 -1.7321
 9375SOL    HW239585   2.523   3.752   8.306 -0.3001 -1.7354 -0.8929
 9376SOL     OW39586   1.214   2.041   4.125 -0.3338  0.1235 -0.0357
 9376SOL    HW139587   1.147   1.978   4.151  0.4406 -1.0065 -0.8060
 9376SOL    HW239588   1.169   2.091   4.057 -0.8381  0.8990  0.8582
 9377SOL     OW39589   4.048   0.691   7.336 -0.2212  0.3218  0.3073
 9377SOL    HW139590   4.009   0.665   7.252  0.1713  0.5250  0.0645
 9377SOL    HW239591   4.024   0.784   7.343 -1.6093  0.0587 -0.9097
 9378SOL     OW39592   1.669   2.435   6.329 -0.3041 -0.0287 -0.3045
 9378SOL    HW139593   1.608   2.405   6.397 -0.3156 -1.4137 -0.9248
 9378SOL    HW239594   1.698   2.354   6.287 -0.8716  0.1455 -1.0323
 9379SOL     OW39595   2.962   3.996   9.269 -0.6124  0.2315 -0.6149
 9379SOL    HW139596   2.933   4.052   9.340 -2.6143  0.0823 -1.3339
 9379SOL    HW239597   2.885   3.944   9.246 -1.1473 -0.4163  2.7635
 9380SOL     OW39598   3.900   4.671   2.767 -0.8065  0.2834  0.6049
 9380SOL    HW139599   3.885   4.646   2.676  4.6141  0.6524 -0.3574
 9380SOL    HW239600   3.987   4.708   2.777  0.4108 -2.1680 -0.9464
 9381SOL     OW39601   3.795   1.065   8.554 -0.1639 -0.5707  0.0338
 9381SOL    HW139602   3.790   1.038   8.645  0.6346 -3.3323 -0.7451
 9381SOL    HW239603   3.712   1.111   8.545  0.3907  0.3776 -0.2466
 9382SOL     OW39604   2.210   0.267  11.560 -0.3337  0.3733 -0.3934
 9382SOL    HW139605   2.179   0.180  11.537  1.2246 -0.8163  2.0145
 9382SOL    HW239606   2.138   0.301  11.614 -1.4802 -0.0840 -1.6254
 9383SOL     OW39607   1.625   3.568   9.696  0.3550 -0.2802 -0.0284
 9383SOL    HW139608   1.690   3.637   9.697  1.0528 -0.9373  0.6521
 9383SOL    HW239609   1.599   3.560   9.788 -0.4289  1.6018 -0.0813
 9384SOL     OW39610   1.242   3.932   4.663 -0.3533  0.4647 -0.0221
 9384SOL    HW139611   1.323   3.981   4.644  0.4955 -0.8892  0.1540
 9384SOL    HW239612   1.224   3.891   4.578 -0.0874 -2.4068  1.3324
 9385SOL     OW39613   2.812   0.830   1.486 -0.8087 -0.0870 -0.3481
 9385SOL    HW139614   2.764   0.846   1.567  1.3267 -1.1378  1.1423
 9385SOL    HW239615   2.770   0.899   1.435 -2.1164 -0.0861  0.7513
 9386SOL     OW39616   0.363   0.632   5.850  0.1892  0.0106 -0.0756
 9386SOL    HW139617   0.281   0.595   5.817  0.0258  0.7174 -0.4773
 9386SOL    HW239618   0.403   0.559   5.897  0.0634 -0.7857 -1.1904
 9387SOL     OW39619   1.811   3.742  14.299 -0.5098  0.4253  0.2564
 9387SOL    HW139620   1.829   3.820  14.350 -2.0010  0.8144  0.1780
 9387SOL    HW239621   1.744   3.692  14.345 -1.4789  1.1677 -0.3356
 9388SOL     OW39622   4.340   2.769   8.450  0.1853  0.0221  0.4474
 9388SOL    HW139623   4.247   2.768   8.426  0.4899 -2.2231 -0.6712
 9388SOL    HW239624   4.339   2.681   8.489 -0.3383 -0.3727 -0.4472
 9389SOL     OW39625   2.643   0.832   6.901  0.0787  0.5500  0.2422
 9389SOL    HW139626   2.737   0.820   6.918  0.4204  2.6048 -0.2689
 9389SOL    HW239627   2.637   0.924   6.926 -2.3298  0.3832  0.2379
 9390SOL     OW39628   4.033   3.609   5.309 -0.5349 -0.1781 -0.1213
 9390SOL    HW139629   4.050   3.638   5.398  0.5629  3.2583 -1.4510
 9390SOL    HW239630   3.940   3.590   5.317 -0.5542 -0.5047 -1.0559
 9391SOL     OW39631   3.302   3.142   2.759 -0.3627 -0.9640 -0.4544
 9391SOL    HW139632   3.331   3.051   2.747 -0.6461 -0.9877 -0.9791
 9391SOL    HW239633   3.208   3.133   2.746 -0.8240  1.3628  1.4120
 9392SOL     OW39634   1.117   4.376   3.388 -0.0603  0.0002 -0.2650
 9392SOL    HW139635   1.143   4.295   3.432 -0.3042 -0.3675 -0.7894
 9392SOL    HW239636   1.194   4.398   3.336  0.3881 -1.5972 -0.2891
 9393SOL     OW39637   0.563   2.996   7.065  0.6507  0.0353  0.3780
 9393SOL    HW139638   0.627   2.926   7.073  0.4892 -0.1308  0.2117
 9393SOL    HW239639   0.493   2.963   7.121  2.3990 -0.3970  2.2846
 9394SOL     OW39640   4.368   0.320   3.119 -0.0853 -0.5013 -0.1481
 9394SOL    HW139641   4.329   0.283   3.198  0.4899 -0.0073  0.3594
 9394SOL    HW239642   4.310   0.293   3.047 -1.1952  0.8749  0.2287
 9395SOL     OW39643   3.537   0.388   7.611 -0.2323  0.3032  0.2844
 9395SOL    HW139644   3.485   0.386   7.530 -0.6449 -0.1925  0.5590
 9395SOL    HW239645   3.464   0.394   7.673  0.5292 -0.6379  1.2802
 9396SOL     OW39646   4.429   0.001   5.125 -0.4717 -0.4792 -0.0391
 9396SOL    HW139647   4.461   0.077   5.076 -0.6757  1.0107  2.1097
 9396SOL    HW239648   4.442   0.020   5.218  1.1948 -0.2738 -0.3276
 9397SOL     OW39649   3.268   2.045  12.738 -0.1484  0.3652 -0.0967
 9397SOL    HW139650   3.250   2.062  12.646  2.4259 -1.4571 -0.9510
 9397SOL    HW239651   3.182   2.019  12.771 -1.3657  2.7297 -1.4158
 9398SOL     OW39652   0.415   3.214   7.082  0.1472 -0.4859 -0.4403
 9398SOL    HW139653   0.335   3.168   7.108 -0.1916  0.7181  0.6441
 9398SOL    HW239654   0.463   3.133   7.065  1.2106  0.1453 -0.3962
 9399SOL     OW39655   1.622   1.605   4.148  0.0183  0.0065 -0.0611
 9399SOL    HW139656   1.584   1.517   4.142 -1.7101  0.6749  1.0902
 9399SOL    HW239657   1.686   1.614   4.078  2.3342  3.0390  2.4493
 9400SOL     OW39658   0.878   0.903   6.179  0.2517  0.3036 -0.2875
 9400SOL    HW139659   0.887   0.808   6.178  2.0450  0.4736 -1.8934
 9400SOL    HW239660   0.963   0.932   6.144  1.7154 -1.0345  2.1296
 9401SOL     OW39661   1.623   3.695   1.025  0.2733  0.1991  0.2857
 9401SOL    HW139662   1.637   3.634   0.953 -1.3999  0.3355 -0.1538
 9401SOL    HW239663   1.536   3.723   0.997 -0.5211 -3.0681 -0.5020
 9402SOL     OW39664   2.701   3.942   5.576  0.1342 -0.3725  0.4477
 9402SOL    HW139665   2.700   3.967   5.668  0.1791 -2.1167  0.9150
 9402SOL    HW239666   2.790   3.908   5.566  0.6579  0.6598  1.5965
 9403SOL     OW39667   1.448   4.687   5.316  0.7933 -0.4093 -0.2839
 9403SOL    HW139668   1.489   0.052   5.312 -0.9594  0.2494 -3.9111
 9403SOL    HW239669   1.493   4.639   5.246  0.1671 -2.7253  0.9204
 9404SOL     OW39670   0.198   2.022   5.142  0.0062  0.3110 -0.7180
 9404SOL    HW139671   0.218   2.091   5.080  1.2162 -0.8909 -1.6481
 9404SOL    HW239672   0.276   1.967   5.136  0.7119  1.3132 -0.5378
 9405SOL     OW39673   1.042   3.556   8.619 -0.8025  0.2350 -0.0433
 9405SOL    HW139674   0.946   3.563   8.617 -0.6486  1.9080 -1.4571
 9405SOL    HW239675   1.059   3.465   8.597 -2.3266  0.1959 -1.0465
 9406SOL     OW39676   2.468   2.479  10.010 -0.4627 -0.2404 -0.3393
 9406SOL    HW139677   2.527   2.407  10.034  1.2790  0.9308 -1.1012
 9406SOL    HW239678   2.533   2.541   9.977 -0.6846 -0.7735 -1.7552
 9407SOL     OW39679   2.890   3.341   4.138 -0.4233 -0.5919 -0.0697
 9407SOL    HW139680   2.797   3.349   4.115 -1.0247 -2.0985  1.8350
 9407SOL    HW239681   2.935   3.314   4.058 -2.6393 -3.3672 -0.3994
 9408SOL     OW39682   1.124   2.609   4.158 -0.5385  0.2936 -0.5440
 9408SOL    HW139683   1.188   2.580   4.223  0.4324  2.7049 -0.4057
 9408SOL    HW239684   1.171   2.610   4.074 -0.0208 -0.8673 -0.2667
 9409SOL     OW39685   1.594   2.445   5.876 -0.2961  0.2706 -0.2764
 9409SOL    HW139686   1.508   2.418   5.908  1.1615 -0.3743  3.0851
 9409SOL    HW239687   1.618   2.505   5.946 -3.0694 -1.5514  2.2140
 9410SOL     OW39688   4.502   1.250   5.612 -0.0227  0.4756 -0.6760
 9410SOL    HW139689   4.412   1.277   5.631 -0.2803  0.1601 -1.4463
 9410SOL    HW239690   4.546   1.272   5.694 -3.0657  0.5246  0.9491
 9411SOL     OW39691   1.943   0.843   7.163 -0.0319  0.2328  0.4765
 9411SOL    HW139692   2.025   0.794   7.162 -0.4365 -0.4412  0.4179
 9411SOL    HW239693   1.973   0.923   7.207  3.4331 -1.1814  0.6368
 9412SOL     OW39694   4.693   2.967   8.209 -0.2035 -0.2279  0.0205
 9412SOL    HW139695   4.688   2.949   8.303  1.3632 -0.5739  0.0408
 9412SOL    HW239696   4.608   3.010   8.197 -1.1081 -2.4340 -1.4888
 9413SOL     OW39697   3.023   4.663   6.953  0.3431 -1.0670 -0.3503
 9413SOL    HW139698   3.072   0.012   6.997 -1.9791 -1.7866  3.4128
 9413SOL    HW239699   3.050   4.671   6.862 -0.2716 -0.9538 -0.5289
 9414SOL     OW39700   2.331   1.793  16.309  0.8331 -0.2360  0.1346
 9414SOL    HW139701   2.417   1.764  16.276  1.2086  1.2644 -0.2397
 9414SOL    HW239702   2.276   1.724  16.272  0.6505 -0.5484  1.0106
 9415SOL     OW39703   3.115   4.033   4.621 -0.1230  0.2436  0.3082
 9415SOL    HW139704   3.076   4.117   4.596  1.6289  0.5663 -1.3775
 9415SOL    HW239705   3.147   4.047   4.710 -1.8556  0.5715  0.8901
 9416SOL     OW39706   2.808   0.052   6.623 -0.5870  0.6189  0.3663
 9416SOL    HW139707   2.808   0.102   6.541 -0.3795 -1.0330 -0.6512
 9416SOL    HW239708   2.841   4.687   6.596 -0.9636  0.4409  0.4822
 9417SOL     OW39709   0.495   3.207   8.324  0.1007  0.1722 -0.0470
 9417SOL    HW139710   0.496   3.205   8.420 -0.5300  0.7150 -0.0241
 9417SOL    HW239711   0.588   3.211   8.301  0.6195 -1.5642  1.7073
 9418SOL     OW39712   3.798   1.670   2.627 -0.0257  0.8726 -0.1362
 9418SOL    HW139713   3.796   1.645   2.534  1.0702 -0.7071  0.2726
 9418SOL    HW239714   3.774   1.762   2.618  0.8281  1.1171  0.1367
 9419SOL     OW39715   0.781   3.827   8.390 -0.0980 -0.3870 -0.3720
 9419SOL    HW139716   0.727   3.749   8.403 -0.8493  0.2929  0.5992
 9419SOL    HW239717   0.862   3.797   8.429  1.3220  0.9611 -2.2925
 9420SOL     OW39718   2.513   1.271   4.630 -0.6080 -0.0339 -0.0190
 9420SOL    HW139719   2.496   1.198   4.571 -0.2761 -1.2781  1.4367
 9420SOL    HW239720   2.451   1.335   4.594  0.0626  0.7446  0.2031
 9421SOL     OW39721   1.667   2.383   8.974  0.1085 -0.6307  0.3610
 9421SOL    HW139722   1.590   2.400   8.919  0.3423  1.6067  0.7386
 9421SOL    HW239723   1.718   2.319   8.925 -0.6173 -0.3525 -0.7602
 9422SOL     OW39724   0.403   2.390   7.842  0.0157 -0.0059  0.1918
 9422SOL    HW139725   0.374   2.322   7.902 -0.5661 -0.1705 -0.2671
 9422SOL    HW239726   0.322   2.408   7.795 -0.7744 -3.7248  0.1418
 9423SOL     OW39727   0.338   0.352   7.345  0.6415 -0.0057  0.1422
 9423SOL    HW139728   0.336   0.332   7.251  0.2223 -1.7305  0.5205
 9423SOL    HW239729   0.325   0.447   7.354  0.5971  0.0663 -0.6372
 9424SOL     OW39730   1.909   0.136   6.460  0.2418 -0.3599 -0.1596
 9424SOL    HW139731   1.919   0.228   6.484 -0.3099  0.1226 -1.7998
 9424SOL    HW239732   1.978   0.093   6.510 -0.7760  1.0003  2.4103
 9425SOL     OW39733   4.317   2.085  11.858  0.1176 -0.0738  0.4368
 9425SOL    HW139734   4.383   2.023  11.886  2.5658  1.9258 -0.9326
 9425SOL    HW239735   4.248   2.023  11.834 -1.2921  0.9539  1.7892
 9426SOL     OW39736   3.433   2.719   7.603  0.4522  1.1730  0.4130
 9426SOL    HW139737   3.355   2.726   7.548  0.8153 -2.1910 -0.5684
 9426SOL    HW239738   3.490   2.655   7.560  2.5697  2.9714  0.5380
 9427SOL     OW39739   3.218   0.589  13.291  0.1295 -0.5024 -0.2764
 9427SOL    HW139740   3.164   0.618  13.218  2.9836  3.3868 -0.8013
 9427SOL    HW239741   3.164   0.547  13.358 -0.0626 -0.5947 -0.4904
 9428SOL     OW39742   4.704   1.212   0.512  0.5176 -0.0244  0.0028
 9428SOL    HW139743   4.710   1.141   0.575 -1.9302 -0.7537 -0.5852
 9428SOL    HW239744   0.033   1.190   0.433 -0.1245  0.4327 -0.5379
 9429SOL     OW39745   2.054   2.366   1.551  0.1587  0.4444 -0.0037
 9429SOL    HW139746   2.126   2.428   1.554 -0.3411  0.9641  0.9895
 9429SOL    HW239747   2.029   2.371   1.458  1.5593  0.9867 -0.3461
 9430SOL     OW39748   4.689   1.353   4.155  0.0043  0.2382  0.0393
 9430SOL    HW139749   4.667   1.285   4.092 -1.8872  0.9606 -0.0723
 9430SOL    HW239750   4.614   1.356   4.216 -1.2805  1.1782 -1.5900
 9431SOL     OW39751   3.041   1.612  13.486 -0.5705  0.1415 -0.1185
 9431SOL    HW139752   3.120   1.576  13.525  0.1765  1.3439 -0.5207
 9431SOL    HW239753   3.048   1.698  13.527  1.1616 -0.5744  1.0537
 9432SOL     OW39754   2.009   3.441   8.364  0.7732 -0.2194 -0.3570
 9432SOL    HW139755   2.087   3.465   8.413 -1.4659  1.2523  2.4671
 9432SOL    HW239756   1.985   3.520   8.315  2.1429  0.9599  0.8676
 9433SOL     OW39757   2.845   3.350   6.508  0.1423  0.3996 -0.3304
 9433SOL    HW139758   2.778   3.410   6.477  2.3664  2.7563 -0.5745
 9433SOL    HW239759   2.815   3.326   6.596  0.8076  0.3087 -0.1264
 9434SOL     OW39760   2.432   3.916   8.048  0.2085  0.3745 -0.0504
 9434SOL    HW139761   2.428   3.917   8.144  0.3715 -2.8587  0.0020
 9434SOL    HW239762   2.343   3.894   8.021  0.4278  0.8228 -1.1482
 9435SOL     OW39763   2.549   1.750   3.581 -0.0935 -0.3888 -0.4593
 9435SOL    HW139764   2.635   1.764   3.621  0.1381 -2.6694 -0.1520
 9435SOL    HW239765   2.560   1.800   3.500 -2.8043 -1.1935 -1.3283
 9436SOL     OW39766   2.234   2.012   5.996  0.1872  0.4651  0.6276
 9436SOL    HW139767   2.148   1.982   6.023  1.0411 -1.4938  1.1442
 9436SOL    HW239768   2.230   2.013   5.900  1.9025 -0.5930  0.5490
 9437SOL     OW39769   4.590   2.076   8.047 -0.2544 -0.0264 -0.1200
 9437SOL    HW139770   4.520   2.118   8.097  1.1466  2.0418  0.0713
 9437SOL    HW239771   4.549   1.991   8.030  0.1241 -0.1032 -0.6755
 9438SOL     OW39772   0.144   3.701   6.249  0.6894 -0.2369  0.2042
 9438SOL    HW139773   0.166   3.783   6.204  1.1395 -1.2861 -1.5053
 9438SOL    HW239774   0.050   3.710   6.262  0.6152 -0.9488  0.1525
 9439SOL     OW39775   3.177   2.870  15.916 -0.6429 -0.8724  0.1142
 9439SOL    HW139776   3.232   2.804  15.874  1.5883  0.7846  0.4416
 9439SOL    HW239777   3.155   2.924  15.840  1.4576  1.1899  0.9583
 9440SOL     OW39778   1.981   2.432   4.170  0.3472 -0.1506  0.6438
 9440SOL    HW139779   2.017   2.480   4.095  0.9917 -0.5913  0.6727
 9440SOL    HW239780   1.908   2.490   4.190 -1.5416 -2.4217  0.3202
 9441SOL     OW39781   0.581   2.411   7.388 -0.6430  0.3089  0.0763
 9441SOL    HW139782   0.611   2.323   7.411  2.1316  0.7420 -1.9166
 9441SOL    HW239783   0.647   2.461   7.436 -1.9172 -0.3782  2.5916
 9442SOL     OW39784   3.083   4.369   2.196  0.3451  0.0355  0.7262
 9442SOL    HW139785   3.146   4.397   2.129  0.7612 -0.7156  0.8130
 9442SOL    HW239786   3.103   4.279   2.221 -0.1283  0.3250  2.1017
 9443SOL     OW39787   1.061   3.481  14.604 -0.0061  0.8167 -0.2515
 9443SOL    HW139788   1.147   3.449  14.631 -0.5161 -0.4006 -0.0642
 9443SOL    HW239789   1.007   3.402  14.614  2.3344 -0.2093  4.0341
 9444SOL     OW39790   2.901   3.114   5.440 -0.2686  0.0154 -0.4556
 9444SOL    HW139791   2.809   3.126   5.463  0.4283  1.2252  1.7890
 9444SOL    HW239792   2.935   3.118   5.530  0.4778  0.9580 -0.7715
 9445SOL     OW39793   4.331   1.248  13.798 -0.4275  0.3014  0.4560
 9445SOL    HW139794   4.320   1.316  13.865 -1.5262  2.9490 -2.4318
 9445SOL    HW239795   4.345   1.300  13.719 -1.3930 -1.5240 -0.8978
 9446SOL     OW39796   2.012   3.149   0.541 -0.1675  0.3591  0.1787
 9446SOL    HW139797   2.090   3.199   0.565 -1.8331  3.6389 -1.1806
 9446SOL    HW239798   2.052   3.065   0.564  2.5838  1.6860  0.2185
 9447SOL     OW39799   3.302   3.006   3.268 -0.0025 -0.4252 -0.0412
 9447SOL    HW139800   3.360   3.036   3.199 -0.2201  0.1090  0.0140
 9447SOL    HW239801   3.259   3.087   3.295 -0.5946 -0.6205 -0.3980
 9448SOL     OW39802   2.979   1.263   7.358  0.2501 -0.0816 -0.4468
 9448SOL    HW139803   3.033   1.322   7.410 -0.3319 -0.6951  0.8466
 9448SOL    HW239804   2.983   1.188   7.417  2.3481  0.0292 -0.4619
 9449SOL     OW39805   3.262   4.381   6.642 -0.2132  0.5409  0.6138
 9449SOL    HW139806   3.231   4.470   6.659 -0.2417  0.5441  0.5476
 9449SOL    HW239807   3.303   4.358   6.725  2.6711 -2.7936 -1.7268
 9450SOL     OW39808   1.360   4.160   7.734 -0.1498  0.6181  0.6358
 9450SOL    HW139809   1.328   4.075   7.767  3.6102 -1.3998 -0.9203
 9450SOL    HW239810   1.278   4.173   7.687  0.1395  1.3653  0.3505
 9451SOL     OW39811   3.891   3.885  11.665 -0.2209 -0.2678 -0.0548
 9451SOL    HW139812   3.876   3.865  11.757 -0.6257  0.9876  0.1430
 9451SOL    HW239813   3.804   3.915  11.638 -0.1202 -0.4535 -0.5813
 9452SOL     OW39814   3.472   4.471   2.669 -0.1811 -0.4497 -0.3544
 9452SOL    HW139815   3.395   4.432   2.712  0.8779 -1.4365  0.6803
 9452SOL    HW239816   3.421   4.526   2.610 -1.2607 -0.8376  0.2104
 9453SOL     OW39817   2.991   0.960  12.744  0.1623 -1.0957 -0.2060
 9453SOL    HW139818   2.981   1.036  12.801 -0.9575 -0.3902 -1.3461
 9453SOL    HW239819   2.921   0.979  12.681 -0.1979 -0.0890  0.5102
 9454SOL     OW39820   4.465   0.587   1.616 -0.3018 -0.4570 -0.3535
 9454SOL    HW139821   4.400   0.516   1.617 -1.2894  0.4583  3.0565
 9454SOL    HW239822   4.470   0.618   1.526  1.6198  2.3091  0.7193
 9455SOL     OW39823   0.910   4.142  16.608 -0.4805  0.3883 -0.3636
 9455SOL    HW139824   0.920   4.167  16.516  0.6681  0.2926 -0.2760
 9455SOL    HW239825   0.847   4.073  16.592 -0.3509  0.1153  0.3220
 9456SOL     OW39826   1.529   4.256  10.814 -0.4419  0.0212 -0.2801
 9456SOL    HW139827   1.453   4.234  10.868  0.2985 -0.8301  0.4047
 9456SOL    HW239828   1.500   4.344  10.790 -1.4510 -0.4388 -0.7747
 9457SOL     OW39829   1.006   1.268   5.587 -0.0749  0.2009  0.4921
 9457SOL    HW139830   0.913   1.285   5.575  0.0248 -0.7219 -1.4459
 9457SOL    HW239831   1.029   1.206   5.518 -0.2959  1.6056 -0.8346
 9458SOL     OW39832   0.042   4.300   5.985  0.1390 -0.3490 -0.7507
 9458SOL    HW139833   0.004   4.293   5.897 -1.9928  0.6005  0.1046
 9458SOL    HW239834   0.120   4.245   5.990 -0.2465 -0.8612 -0.3802
 9459SOL     OW39835   4.529   3.340  16.961  0.0014 -0.0841  0.0359
 9459SOL    HW139836   4.512   3.352  16.867 -0.0610  0.9523  0.1822
 9459SOL    HW239837   4.490   3.254  16.974  0.0307 -0.1293 -0.1748
 9460SOL     OW39838   2.109   2.337   6.398  0.0801  0.5883 -0.2762
 9460SOL    HW139839   2.087   2.429   6.413 -2.0444 -0.0198  0.3327
 9460SOL    HW239840   2.056   2.320   6.320  1.0457 -0.2844 -0.7405
 9461SOL     OW39841   0.287   3.498  14.543  0.3617  0.0016 -0.4850
 9461SOL    HW139842   0.354   3.508  14.611  0.1804  2.4027 -0.6412
 9461SOL    HW239843   0.323   3.552  14.472 -2.6113  0.7875 -1.3858
 9462SOL     OW39844   4.005   2.665  13.801 -0.0173  0.5710  0.0148
 9462SOL    HW139845   4.027   2.694  13.890 -0.1790 -0.5450  0.4276
 9462SOL    HW239846   3.947   2.739  13.783  0.9902  0.7786 -2.3564
 9463SOL     OW39847   3.341   3.058   5.204 -0.2269 -0.5417 -0.3151
 9463SOL    HW139848   3.393   3.043   5.125  0.4428  1.2189 -0.2105
 9463SOL    HW239849   3.253   3.028   5.180  0.9802 -1.5149 -3.5501
 9464SOL     OW39850   2.750   0.743   0.733 -0.5741 -0.1304  0.2537
 9464SOL    HW139851   2.729   0.703   0.817 -0.9314 -0.3723  0.0511
 9464SOL    HW239852   2.845   0.735   0.732 -0.4789  1.0764  0.1115
 9465SOL     OW39853   0.056   2.680  14.805 -0.5674  0.3272  0.2886
 9465SOL    HW139854   0.072   2.708  14.895  1.6050 -0.1970  0.0565
 9465SOL    HW239855   0.084   2.760  14.761  2.5714 -0.9428  0.0190
 9466SOL     OW39856   0.736   1.633   5.455 -0.2132 -0.1009  0.2822
 9466SOL    HW139857   0.802   1.567   5.435  1.0041  0.8058  1.3468
 9466SOL    HW239858   0.697   1.590   5.531 -3.4473 -0.4851 -1.6058
 9467SOL     OW39859   3.517   2.737  12.539 -0.0154  0.3656  0.5691
 9467SOL    HW139860   3.563   2.797  12.598  1.6653  0.6243 -0.9938
 9467SOL    HW239861   3.562   2.753  12.455 -0.8072  0.2216  0.1176
 9468SOL     OW39862   4.266   1.983  14.752  0.1595  0.0212  0.1128
 9468SOL    HW139863   4.312   1.918  14.805 -0.4486  1.7577  2.7540
 9468SOL    HW239864   4.208   1.921  14.707 -1.8863  0.7262  1.8309
 9469SOL     OW39865   2.046   0.417   7.686 -0.3566 -0.0938 -0.2382
 9469SOL    HW139866   2.101   0.367   7.625 -0.2253  0.9785 -0.9934
 9469SOL    HW239867   1.961   0.392   7.649 -0.3158  2.5086 -2.0458
 9470SOL     OW39868   0.610   1.196   8.110 -0.4084 -0.9355  0.4829
 9470SOL    HW139869   0.597   1.137   8.036  1.1938  1.8627 -2.0147
 9470SOL    HW239870   0.631   1.129   8.175  1.3593 -1.0451 -0.2083
 9471SOL     OW39871   1.209   0.795  14.668 -0.9280  0.0222 -0.0794
 9471SOL    HW139872   1.136   0.844  14.705 -2.2856 -0.0272 -2.7395
 9471SOL    HW239873   1.242   0.860  14.606  0.1031 -0.4015  0.0151
 9472SOL     OW39874   1.894   0.815  16.010  0.6868  0.0528  0.7615
 9472SOL    HW139875   1.897   0.728  15.970  2.9086 -0.2197  1.5063
 9472SOL    HW239876   1.808   0.810  16.051  0.9480 -0.2801  1.2688
 9473SOL     OW39877   0.084   4.587   3.716  0.7390 -0.2534  0.1548
 9473SOL    HW139878   0.084   4.519   3.783  0.8728 -0.9799 -0.5888
 9473SOL    HW239879   0.092   4.666   3.770 -1.3913 -0.6805  1.0894
 9474SOL     OW39880   0.451   3.839   3.728 -0.4148  0.0365 -0.2212
 9474SOL    HW139881   0.412   3.906   3.671 -0.1646 -0.7551 -1.3453
 9474SOL    HW239882   0.526   3.886   3.762 -1.4653  1.8960 -0.4749
 9475SOL     OW39883   1.952   3.279   2.896  0.1174 -0.1850  0.2350
 9475SOL    HW139884   2.025   3.268   2.835 -1.0149 -1.3931 -0.9072
 9475SOL    HW239885   1.927   3.187   2.904 -0.1948 -0.0371  0.9339
 9476SOL     OW39886   0.876   2.222   8.213 -0.4264  0.1715 -0.0513
 9476SOL    HW139887   0.956   2.238   8.163  1.9669 -3.8145  2.4955
 9476SOL    HW239888   0.824   2.299   8.191 -1.7138 -1.0817 -1.3892
 9477SOL     OW39889   3.584   0.546   2.022 -0.1638  0.1966 -0.2602
 9477SOL    HW139890   3.495   0.512   2.033 -0.3836  0.9912  0.3704
 9477SOL    HW239891   3.578   0.531   1.928  2.1442 -0.0851 -0.3430
 9478SOL     OW39892   0.261   1.327   5.191  0.1688 -0.8266  0.3706
 9478SOL    HW139893   0.256   1.258   5.125  3.0335  0.0475 -0.7716
 9478SOL    HW239894   0.353   1.325   5.219  0.2309 -2.2719  0.0492
 9479SOL     OW39895   3.267   4.719   7.621 -0.3605  0.7677 -0.4824
 9479SOL    HW139896   3.326   4.717   7.697 -0.3860 -0.9268 -0.5142
 9479SOL    HW239897   3.179   0.013   7.654 -0.4878 -2.0444  0.4958
 9480SOL     OW39898   3.881   2.729   4.478 -0.2799  0.2466  0.1713
 9480SOL    HW139899   3.795   2.769   4.489 -0.5374  0.2305 -1.7889
 9480SOL    HW239900   3.886   2.668   4.552 -1.6221 -0.1297 -0.0525
 9481SOL     OW39901   0.647   3.750   6.482  0.1050 -0.2568  0.1513
 9481SOL    HW139902   0.683   3.816   6.423 -1.5245  0.6315  0.1379
 9481SOL    HW239903   0.554   3.749   6.458 -0.1656 -1.8288  1.2484
 9482SOL     OW39904   0.282   4.574   1.710  0.8501 -0.6971 -0.5270
 9482SOL    HW139905   0.215   4.506   1.719  0.3765  0.0406  1.4502
 9482SOL    HW239906   0.362   4.524   1.727  0.5171 -1.2385 -0.5222
 9483SOL     OW39907   3.726   3.705  15.411 -0.2981 -0.3015  0.0709
 9483SOL    HW139908   3.688   3.766  15.474  3.2487 -0.2410  2.1770
 9483SOL    HW239909   3.821   3.719  15.418 -0.1759 -0.7512 -0.6633
 9484SOL     OW39910   0.651   1.998   7.191 -0.1155 -0.0874  0.0128
 9484SOL    HW139911   0.640   1.974   7.283  2.6386  2.0215  0.8836
 9484SOL    HW239912   0.566   2.024   7.154  0.1426  4.7456  2.8012
 9485SOL     OW39913   0.338   3.094   3.261  0.0520  0.1458  0.4695
 9485SOL    HW139914   0.344   3.137   3.175 -1.7731 -1.1378 -0.3011
 9485SOL    HW239915   0.258   3.132   3.296 -0.9187  0.7157 -2.3157
 9486SOL     OW39916   0.236   0.736   3.439 -0.5742 -0.0603 -0.4407
 9486SOL    HW139917   0.260   0.675   3.509 -0.0854  1.2585  0.5476
 9486SOL    HW239918   0.276   0.702   3.360  0.4087  2.2762 -0.9586
 9487SOL     OW39919   0.658   1.511  14.940 -0.0990  0.4775  0.7792
 9487SOL    HW139920   0.641   1.419  14.959  1.1222 -0.2967 -2.0151
 9487SOL    HW239921   0.626   1.537  15.027 -1.2909  1.5976  0.0122
 9488SOL     OW39922   4.578   1.664   4.774  0.2147 -0.5426  0.1973
 9488SOL    HW139923   4.492   1.698   4.800 -1.0933 -0.8006 -3.8757
 9488SOL    HW239924   4.612   1.642   4.861  2.4507  5.1089  0.7686
 9489SOL     OW39925   2.293   2.660  17.353 -0.2052  0.0279  0.3117
 9489SOL    HW139926   2.201   2.684  17.364  0.1148  0.1200  2.8282
 9489SOL    HW239927   2.319   2.676  17.443 -1.3333 -0.1364  0.6631
 9490SOL     OW39928   4.615   0.433   2.367 -0.7804 -0.1345  0.5133
 9490SOL    HW139929   4.548   0.466   2.307 -1.5615 -0.2551  1.3246
 9490SOL    HW239930   4.600   0.340   2.351 -2.3972  0.0591  0.8923
 9491SOL     OW39931   1.813   2.977   8.089 -0.1099 -0.3117 -0.0377
 9491SOL    HW139932   1.729   2.980   8.043  0.0925  1.5162 -0.2977
 9491SOL    HW239933   1.793   2.908   8.153 -3.0655 -0.7588 -1.4021
 9492SOL     OW39934   1.465   2.288   1.983 -0.4477 -0.2328 -0.4102
 9492SOL    HW139935   1.404   2.275   1.910  0.2709  2.0704 -1.4215
 9492SOL    HW239936   1.399   2.332   2.038 -1.8861 -0.4750 -1.9428
 9493SOL     OW39937   4.135   1.740   8.078 -0.2823  0.4922 -0.2980
 9493SOL    HW139938   4.088   1.816   8.115 -0.0931  1.0914 -1.2905
 9493SOL    HW239939   4.127   1.669   8.142  0.7572  0.6352 -0.0060
 9494SOL     OW39940   0.798   0.686   4.445 -1.0960  0.3863  0.4512
 9494SOL    HW139941   0.873   0.637   4.478 -1.1186 -1.2671 -1.9318
 9494SOL    HW239942   0.809   0.718   4.356 -0.4397  0.9074  0.7190
 9495SOL     OW39943   4.231   1.234   4.434 -0.1904  0.0005  0.3289
 9495SOL    HW139944   4.140   1.205   4.428 -0.2857  0.1968  0.7876
 9495SOL    HW239945   4.227   1.271   4.522  1.8680 -2.8429  1.6340
 9496SOL     OW39946   4.054   3.690   2.945 -0.0183 -0.2313 -0.3608
 9496SOL    HW139947   4.019   3.744   2.874  1.4341  0.4199 -0.5762
 9496SOL    HW239948   3.990   3.620   2.950  0.0051 -0.1599  0.9093
 9497SOL     OW39949   2.562   2.991   3.242  0.0338  0.3368  0.1042
 9497SOL    HW139950   2.583   3.000   3.149 -0.3453  1.5050  0.1273
 9497SOL    HW239951   2.641   3.019   3.288  0.8145 -2.7344  0.5942
 9498SOL     OW39952   1.552   0.189   1.663 -0.1138  0.6825  0.1735
 9498SOL    HW139953   1.569   0.272   1.709 -1.8787  0.1829  1.7082
 9498SOL    HW239954   1.469   0.203   1.619  0.4791  2.9456 -0.2376
 9499SOL     OW39955   0.300   0.779   6.408 -0.5109 -0.6341  0.4082
 9499SOL    HW139956   0.205   0.790   6.419 -0.4574  0.1568  0.0154
 9499SOL    HW239957   0.299   0.691   6.368 -1.3103 -0.0091 -0.9775
 9500SOL     OW39958   0.047   3.243   6.439  0.5765  0.2046  0.3379
 9500SOL    HW139959   4.715   3.287   6.506  0.6129 -1.6251  1.5441
 9500SOL    HW239960   0.065   3.163   6.487  0.0714 -0.3372 -0.3730
 9501SOL     OW39961   0.814   2.276   4.799  0.4746  0.3161 -0.1518
 9501SOL    HW139962   0.830   2.355   4.748 -0.9439  1.3615  1.0355
 9501SOL    HW239963   0.790   2.223   4.723 -2.2374 -1.1795  1.7175
 9502SOL     OW39964   4.426   4.299  12.439  0.5508  0.8451  0.1165
 9502SOL    HW139965   4.444   4.208  12.465  0.0515  0.5123 -0.6995
 9502SOL    HW239966   4.356   4.325  12.499  0.4421  0.8117  0.0055
 9503SOL     OW39967   2.751   1.191   8.605  0.1315 -0.0051 -0.4565
 9503SOL    HW139968   2.694   1.262   8.574 -0.7427 -0.0077  1.1209
 9503SOL    HW239969   2.699   1.115   8.581 -2.7813  1.9249 -0.3089
 9504SOL     OW39970   2.570   2.645  10.193 -0.0220 -0.3081 -0.5760
 9504SOL    HW139971   2.639   2.617  10.133 -0.1633 -0.6011 -0.6020
 9504SOL    HW239972   2.612   2.727  10.221  0.7025 -0.2327 -1.8757
 9505SOL     OW39973   2.967   1.071   3.181 -0.6147  0.2821  0.1464
 9505SOL    HW139974   2.964   1.164   3.203 -1.4437 -0.1614  2.0051
 9505SOL    HW239975   3.015   1.082   3.099 -1.0275 -2.0116 -0.4086
 9506SOL     OW39976   2.916   1.985   8.104 -0.2054 -0.0022 -0.2558
 9506SOL    HW139977   2.924   2.056   8.040  1.5415  0.7158  0.7520
 9506SOL    HW239978   2.842   1.939   8.065  0.4883 -0.5891 -0.8675
 9507SOL     OW39979   4.229   1.138  16.845  0.6806 -0.5278  0.2218
 9507SOL    HW139980   4.205   1.074  16.779 -0.6192 -0.1212  0.2854
 9507SOL    HW239981   4.254   1.079  16.916  0.4836  3.0662  3.3174
 9508SOL     OW39982   4.641   2.759   3.219  0.2042 -0.2245 -0.0126
 9508SOL    HW139983   0.010   2.783   3.200 -0.2141  1.3358 -0.0320
 9508SOL    HW239984   4.649   2.672   3.258 -2.3461 -1.6055 -2.5522
 9509SOL     OW39985   4.020   1.268   4.631 -0.0878 -0.9484  0.2344
 9509SOL    HW139986   3.995   1.326   4.559  0.1479 -1.2533 -0.0901
 9509SOL    HW239987   4.053   1.333   4.693 -1.7272  1.0532 -1.0333
 9510SOL     OW39988   2.588   3.543  12.082 -0.1145  0.3921  0.5724
 9510SOL    HW139989   2.538   3.563  12.162 -0.7373  2.7992 -0.4151
 9510SOL    HW239990   2.536   3.473  12.042  0.4227 -1.0202  2.3624
 9511SOL     OW39991   3.466   1.626   9.793  0.0731 -0.0497 -0.0658
 9511SOL    HW139992   3.392   1.616   9.734  0.0671  1.0056 -0.2361
 9511SOL    HW239993   3.427   1.697   9.844 -2.6075 -1.0858 -0.7016
 9512SOL     OW39994   2.516   1.577   3.094  0.4236  0.3286  0.2054
 9512SOL    HW139995   2.489   1.504   3.039  1.0045  1.8662 -2.1337
 9512SOL    HW239996   2.501   1.642   3.025 -0.5381 -0.6104 -0.4492
 9513SOL     OW39997   2.357   4.258   5.150  0.0247 -0.1056  0.0996
 9513SOL    HW139998   2.352   4.178   5.201 -1.0708 -0.8355 -1.1692
 9513SOL    HW239999   2.383   4.315   5.222  1.5604  0.4600 -0.8807
 9514SOL     OW40000   3.188   1.383  17.585 -0.2594  0.1041  0.3307
 9514SOL    HW140001   3.123   1.453  17.586 -0.9275 -0.5234  1.3221
 9514SOL    HW240002   3.205   1.388  17.680 -0.3922  1.4606  0.2819
 9515SOL     OW40003   1.525   3.067   2.047  0.4513  0.2076  0.6572
 9515SOL    HW140004   1.595   3.069   2.111  1.0562 -1.0136  0.0274
 9515SOL    HW240005   1.583   3.073   1.971  0.9087 -1.4182  0.8915
 9516SOL     OW40006   4.459   1.707   0.056  0.5133 -0.4767 -0.4798
 9516SOL    HW140007   4.523   1.651   0.012  2.6011  1.3802  0.1855
 9516SOL    HW240008   4.422   1.643   0.116  0.4861 -0.1822 -0.1797
 9517SOL     OW40009   3.833   3.159   6.298  0.7421  0.2970  0.1033
 9517SOL    HW140010   3.885   3.196   6.226  0.8336  1.3299  0.6992
 9517SOL    HW240011   3.760   3.220   6.293 -1.7561 -2.7804 -1.0640
 9518SOL     OW40012   2.896   4.041   3.240  0.1904  0.0347  0.4264
 9518SOL    HW140013   2.975   4.043   3.186  0.3609 -2.5529  0.6049
 9518SOL    HW240014   2.917   4.102   3.312  0.1742  0.4233  0.1024
 9519SOL     OW40015   2.920   2.666   4.594  0.4957 -0.6607  0.0525
 9519SOL    HW140016   2.925   2.577   4.559 -0.2882 -0.0778 -1.5579
 9519SOL    HW240017   2.974   2.656   4.672 -0.6389  3.2910  1.3450
 9520SOL     OW40018   0.871   4.477   3.603  0.2096 -0.3224 -0.1437
 9520SOL    HW140019   0.959   4.503   3.630 -1.2645  1.3656  3.0187
 9520SOL    HW240020   0.843   4.425   3.678  0.6562 -0.9319 -0.3929
 9521SOL     OW40021   2.990   4.024  16.875 -0.1766 -0.0296  0.2795
 9521SOL    HW140022   2.989   3.973  16.794  0.2353 -0.6106  0.6325
 9521SOL    HW240023   3.049   3.967  16.924  0.4340  0.1458 -0.2559
 9522SOL     OW40024   1.100   4.514   7.053  0.5284  0.2225 -0.4766
 9522SOL    HW140025   1.069   4.582   6.993  1.0107 -0.1031 -1.1048
 9522SOL    HW240026   1.169   4.565   7.094  0.2052  0.4354 -0.1971
 9523SOL     OW40027   0.673   1.869   2.679 -0.4527  0.1625  0.0582
 9523SOL    HW140028   0.581   1.868   2.706 -0.7890  1.8891 -1.0316
 9523SOL    HW240029   0.668   1.863   2.584 -2.3939  2.3283  0.0260
 9524SOL     OW40030   2.691   3.238   5.228 -0.0636 -0.1349  0.5066
 9524SOL    HW140031   2.769   3.289   5.207 -0.1662 -0.6278 -1.0345
 9524SOL    HW240032   2.664   3.217   5.138  1.1453 -0.4816  0.2295
 9525SOL     OW40033   0.662   3.558  13.872 -0.5343  0.0499  0.1098
 9525SOL    HW140034   0.626   3.491  13.813 -0.0052  1.8228 -2.2122
 9525SOL    HW240035   0.632   3.527  13.958 -0.9785 -1.0078 -0.4162
 9526SOL     OW40036   2.357   4.200   6.533 -0.3129 -0.0733  0.8181
 9526SOL    HW140037   2.399   4.182   6.449 -1.8196  0.2168  0.0036
 9526SOL    HW240038   2.433   4.186   6.588  1.3330  0.2101 -1.3669
 9527SOL     OW40039   1.131   4.617   9.450 -0.2091  0.0795 -1.0390
 9527SOL    HW140040   1.225   4.605   9.436  0.1134  0.6264  0.6988
 9527SOL    HW240041   1.143   4.650   9.539 -0.7924 -1.3951 -0.4139
 9528SOL     OW40042   2.534   3.195  12.974 -0.0904 -0.3525  0.0063
 9528SOL    HW140043   2.590   3.120  12.953 -1.8260 -1.0947 -2.0149
 9528SOL    HW240044   2.534   3.178  13.068 -0.5259  1.6068  0.3799
 9529SOL     OW40045   3.264   0.437  15.369  0.1322 -0.1206 -0.2018
 9529SOL    HW140046   3.323   0.508  15.395  0.3749 -0.7631  0.9851
 9529SOL    HW240047   3.308   0.367  15.417  0.1512  1.0453  1.4979
 9530SOL     OW40048   1.641   4.434   4.359  0.0270 -0.2128  0.1313
 9530SOL    HW140049   1.690   4.374   4.303  0.5474 -0.3396  0.7192
 9530SOL    HW240050   1.651   4.389   4.443  1.5046  0.5578  0.3602
 9531SOL     OW40051   2.278   1.110   5.551 -0.1432 -0.4840  0.0035
 9531SOL    HW140052   2.333   1.134   5.625  0.7186  0.9671 -1.1080
 9531SOL    HW240053   2.190   1.092   5.585 -0.0158  1.8062  1.5231
 9532SOL     OW40054   0.420   3.505  15.874  0.2090 -0.1349 -0.1035
 9532SOL    HW140055   0.396   3.564  15.946  2.5284  2.2130 -1.2845
 9532SOL    HW240056   0.337   3.459  15.856 -1.2869  1.6282  2.3049
 9533SOL     OW40057   3.466   3.127  13.756 -0.2088  0.1413 -0.2228
 9533SOL    HW140058   3.520   3.050  13.737 -0.4427 -0.3075  0.9536
 9533SOL    HW240059   3.414   3.127  13.675 -2.0514 -0.2437  0.9740
 9534SOL     OW40060   4.006   0.275   3.407 -0.4225  0.0184 -1.2593
 9534SOL    HW140061   4.034   0.298   3.496  0.1900  2.3725 -2.0741
 9534SOL    HW240062   4.085   0.234   3.371  0.7180  0.9241  0.2403
 9535SOL     OW40063   2.746   0.774  13.385  0.1018  0.5896 -0.3644
 9535SOL    HW140064   2.751   0.720  13.306  0.5303  2.5063 -1.6458
 9535SOL    HW240065   2.746   0.858  13.340 -0.6894 -0.2274 -1.8775
 9536SOL     OW40066   2.416   1.844   8.801 -0.2603  0.1927 -0.0203
 9536SOL    HW140067   2.407   1.936   8.825  1.2439  0.2435  0.3575
 9536SOL    HW240068   2.496   1.846   8.748  0.3797 -0.6531  0.9128
 9537SOL     OW40069   1.795   0.591  15.408  0.6552  0.1247  0.2426
 9537SOL    HW140070   1.776   0.567  15.499  0.8320 -0.4106  0.1356
 9537SOL    HW240071   1.819   0.683  15.422  2.9484 -0.4758  0.2123
 9538SOL     OW40072   2.725   3.164   0.114  0.1788  0.3264  0.2185
 9538SOL    HW140073   2.801   3.218   0.091  0.0596  0.3910 -0.0180
 9538SOL    HW240074   2.757   3.076   0.093 -0.1963  0.5109 -1.1070
 9539SOL     OW40075   1.582   0.060   6.367  0.1773 -0.0953 -0.0970
 9539SOL    HW140076   1.646   0.131   6.372 -0.7190  0.8034 -1.3819
 9539SOL    HW240077   1.643   4.708   6.363  0.2831  0.0394 -0.9802
 9540SOL     OW40078   3.549   0.678   9.291 -0.6590  0.5030  0.0063
 9540SOL    HW140079   3.640   0.703   9.278 -0.1314 -3.3541 -3.9591
 9540SOL    HW240080   3.535   0.726   9.373 -0.4966  0.5210  0.0230
 9541SOL     OW40081   4.125   0.194  12.456 -1.0631  0.1265  0.3638
 9541SOL    HW140082   4.090   0.105  12.456 -1.5663  0.3321 -0.3425
 9541SOL    HW240083   4.148   0.204  12.549 -0.7560  1.1629  0.1738
 9542SOL     OW40084   2.613   1.315   5.885  0.0936 -0.2831  0.2607
 9542SOL    HW140085   2.527   1.355   5.877  1.1663  1.9141 -0.3433
 9542SOL    HW240086   2.590   1.231   5.925 -2.6355  0.4781  0.2529
 9543SOL     OW40087   3.602   1.680   8.265 -0.8363  0.3372  0.2326
 9543SOL    HW140088   3.608   1.626   8.186  0.8809  2.5235 -1.1193
 9543SOL    HW240089   3.513   1.715   8.260 -1.1120 -0.0315  2.6523
 9544SOL     OW40090   0.093   2.921   3.603 -0.3283  0.0082 -0.1704
 9544SOL    HW140091   0.086   2.828   3.585  0.8397  0.1870 -1.5436
 9544SOL    HW240092   0.187   2.923   3.619 -0.5215  3.0491  0.5827
 9545SOL     OW40093   3.183   3.392   8.323 -0.0981  0.8919 -0.3752
 9545SOL    HW140094   3.257   3.365   8.377 -0.2783  0.4553 -0.3487
 9545SOL    HW240095   3.147   3.463   8.375 -0.7747 -0.1039  0.5241
 9546SOL     OW40096   2.528   0.273  12.891 -0.4274 -0.0277 -0.2212
 9546SOL    HW140097   2.515   0.318  12.808 -0.1000  0.1440 -0.1794
 9546SOL    HW240098   2.618   0.304  12.894 -0.4920  0.1889 -0.5183
 9547SOL     OW40099   1.954   3.314  11.274  0.1103  0.2903 -1.1005
 9547SOL    HW140100   1.995   3.280  11.354 -4.3983 -0.1594  0.9830
 9547SOL    HW240101   1.874   3.263  11.279  0.5486 -0.4850 -2.0976
 9548SOL     OW40102   0.660   0.185   6.644 -0.1701  0.2605  0.3021
 9548SOL    HW140103   0.569   0.205   6.621  0.2638 -0.0895 -1.6737
 9548SOL    HW240104   0.661   0.090   6.633 -0.9740  0.4382 -1.3596
 9549SOL     OW40105   1.506   1.035   9.582 -0.1837 -0.3109  0.5755
 9549SOL    HW140106   1.554   0.971   9.635  0.0717  0.7270  1.6026
 9549SOL    HW240107   1.577   1.066   9.525 -1.5633  0.9311 -0.4417
 9550SOL     OW40108   3.399   3.886   4.068 -0.1922  0.2240  0.0379
 9550SOL    HW140109   3.369   3.820   4.006 -3.9525  2.6513 -0.7847
 9550SOL    HW240110   3.360   3.960   4.022 -0.8658  0.1121  0.4269
 9551SOL     OW40111   1.294   3.621   5.678  0.0433 -0.3854  0.3230
 9551SOL    HW140112   1.306   3.707   5.719 -0.9508 -0.0229 -0.1334
 9551SOL    HW240113   1.201   3.616   5.653 -0.1361  2.0955  0.5183
 9552SOL     OW40114   2.863   3.945  13.379  0.4403  0.3457 -0.7017
 9552SOL    HW140115   2.790   3.884  13.396  1.3641 -1.1515 -2.1716
 9552SOL    HW240116   2.876   3.924  13.287 -0.2757 -1.4348 -0.4088
 9553SOL     OW40117   1.420   0.447   4.735  0.4071 -0.3226  0.0413
 9553SOL    HW140118   1.357   0.508   4.696 -0.4231 -1.7411 -0.8557
 9553SOL    HW240119   1.392   0.364   4.696  2.2184  0.4646 -2.9324
 9554SOL     OW40120   2.937   2.364   7.103 -0.4743  0.2695  0.0156
 9554SOL    HW140121   3.015   2.315   7.130 -2.5835 -1.4255  3.0382
 9554SOL    HW240122   2.940   2.433   7.169  1.0715 -0.2398  0.4858
 9555SOL     OW40123   3.446   2.543  13.201  0.6372 -0.0134 -0.1489
 9555SOL    HW140124   3.371   2.595  13.173 -0.4067 -0.8405  1.0746
 9555SOL    HW240125   3.432   2.540  13.296 -2.7243  2.4450 -0.5664
 9556SOL     OW40126   2.026   0.349  12.457  0.1436 -0.7663  0.4098
 9556SOL    HW140127   2.116   0.380  12.466  0.0857 -0.5544  0.2609
 9556SOL    HW240128   2.032   0.265  12.413 -0.5110 -0.7910  0.3684
 9557SOL     OW40129   1.436   0.835   4.649  0.0269 -0.1218  0.4497
 9557SOL    HW140130   1.501   0.770   4.677 -0.3783  0.2874  2.3282
 9557SOL    HW240131   1.478   0.921   4.651  0.5229 -0.3552  0.2519
 9558SOL     OW40132   0.917   3.409  10.859  0.1797 -0.3935  0.2617
 9558SOL    HW140133   0.848   3.424  10.924  0.2914  1.7802 -0.1169
 9558SOL    HW240134   0.873   3.421  10.775  0.0059  0.6095  0.4924
 9559SOL     OW40135   1.630   2.064  11.465  0.3705  0.0769 -0.5067
 9559SOL    HW140136   1.549   2.031  11.504  0.3128 -1.3706 -1.8662
 9559SOL    HW240137   1.601   2.112  11.387  0.9331  0.1639 -0.6584
 9560SOL     OW40138   1.328   4.566  14.516 -0.1923 -0.6576  0.1500
 9560SOL    HW140139   1.360   4.476  14.526  1.4212 -0.3515 -1.9280
 9560SOL    HW240140   1.407   4.607  14.551  0.6575 -1.7089 -0.5116
 9561SOL     OW40141   3.736   4.347   5.095  0.6270 -0.0085  0.4593
 9561SOL    HW140142   3.812   4.296   5.067  0.8587  0.1483  0.8098
 9561SOL    HW240143   3.768   4.437   5.086  2.0339 -0.4539  1.0055
 9562SOL     OW40144   3.259   3.856   5.772 -0.2146 -0.5258 -0.1161
 9562SOL    HW140145   3.229   3.765   5.766 -1.5007 -0.2986  2.6210
 9562SOL    HW240146   3.338   3.853   5.827 -0.2951 -0.2541  0.0115
 9563SOL     OW40147   1.245   0.657  14.372  0.4410  0.5956 -0.0846
 9563SOL    HW140148   1.293   0.735  14.396  0.9697  0.2414  0.0048
 9563SOL    HW240149   1.266   0.640  14.280 -3.5537 -2.4807 -0.4643
 9564SOL     OW40150   2.337   0.807   8.129  0.0635  0.1119  0.1965
 9564SOL    HW140151   2.283   0.782   8.055 -1.1029  0.9005  0.7909
 9564SOL    HW240152   2.405   0.864   8.092  1.0440  0.0512  1.8626
 9565SOL     OW40153   1.908   1.122   0.475 -0.3651 -0.3694 -0.3329
 9565SOL    HW140154   1.884   1.032   0.453 -0.0675 -0.1611 -1.5211
 9565SOL    HW240155   1.851   1.151   0.546 -1.0797  0.2251 -1.1476
   4.72144   4.72144  17.68806
