Membrane in water
40155
    1TCq1    O1    1   1.846   2.327  10.943  0.0915  0.0989  0.3246
    1TCq1    C1    2   1.800   2.211  11.004 -0.1170 -0.0052  0.5785
    1TCq1    O2    3   1.876   2.143  11.070  0.4686  0.0420 -0.2482
    1TCq1    C2    4   1.652   2.212  11.002 -0.0945 -0.2481  0.2935
    1TCq1    C3    5   1.592   2.231  10.880  0.9862 -0.1609 -0.3834
    1TCq1    C4    6   1.451   2.229  10.869 -0.0366 -0.2516 -0.3253
    1TCq1    C5    7   1.367   2.216  10.973  0.5794 -0.5732 -0.3430
    1TCq1    C6    8   1.436   2.196  11.093  0.7163  0.5477  0.3328
    1TCq1    C7    9   1.571   2.187  11.114  0.3812 -0.0661 -0.1978
    1TCq1    C8   10   1.354   2.150  11.205  0.2296 -0.2169  0.1890
    1TCq1    O4   11   1.233   2.181  11.204 -0.4097 -0.3749  0.0953
    1TCq1    C9   12   1.382   2.245  10.742 -0.2818 -0.0813  0.1375
    1TCq1    O5   13   1.266   2.299  10.747  0.2431  0.8008 -0.2770
    1TCq1    O6   14   1.437   2.230  10.629  0.3921  0.2100  0.3817
    1TCq1    H1   15   1.775   2.374  10.896 -0.5032 -0.7427  0.3727
    1TCq1    H2   16   1.655   2.248  10.794 -0.4985  0.6843 -1.3137
    1TCq1    H3   17   1.259   2.202  10.968  0.2902  2.2567 -2.0379
    1TCq1    H4   18   1.622   2.181  11.209  2.0567 -0.9079 -1.1391
    2MPD2     C   19   1.312   1.805  11.579  0.9429  0.0549 -0.1588
    2MPD2    C1   20   1.218   1.897  11.526  0.2664 -0.2463  0.3336
    2MPD2    C2   21   1.246   1.978  11.419 -0.0568  0.1488 -0.1377
    2MPD2    C3   22   1.372   1.961  11.364  0.1726  0.2579  0.2019
    2MPD2    C4   23   1.465   1.877  11.415  0.9615 -0.2380  0.1562
    2MPD2    C5   24   1.433   1.793  11.517 -0.6726 -0.5008  0.6557
    2MPD2     H   25   1.175   2.052  11.385 -0.8090 -0.0882  0.8865
    2MPD2    H1   26   1.570   1.872  11.388  0.6633 -0.7644 -0.8951
    2MPD2    H2   27   1.286   1.739  11.661 -0.6952 -1.2033 -1.6727
    2MPD2    H3   28   1.509   1.726  11.557 -1.3543 -0.3437  2.2136
    2MPD2     N   29   1.423   2.049  11.270 -0.0559  0.5798 -0.1226
    2MPD2    H5   30   1.518   2.042  11.234  0.9114  2.5615  2.0008
    2MPD2    N1   31   1.093   1.908  11.590 -0.8905 -1.0470  0.2361
    2MPD2    H7   32   1.031   1.982  11.556  0.5310  0.4592  0.9181
    3TCq1    O1   33   1.078   3.290  10.088 -0.2588  0.2190 -0.5445
    3TCq1    C1   34   0.970   3.215  10.118  1.0865  0.6645  1.0316
    3TCq1    O2   35   0.948   3.113  10.056  0.0927 -0.1874 -0.1123
    3TCq1    C2   36   0.882   3.281  10.217 -1.4444  0.6065  0.0851
    3TCq1    C3   37   0.898   3.410  10.258 -0.1190 -0.1342  0.3421
    3TCq1    C4   38   0.814   3.456  10.350  0.5031 -0.1943  0.1034
    3TCq1    C5   39   0.713   3.380  10.403  0.2763 -0.3286 -0.8023
    3TCq1    C6   40   0.704   3.252  10.362 -0.0320 -0.2659  0.1948
    3TCq1    C7   41   0.787   3.199  10.262  0.0252 -0.0154 -0.6175
    3TCq1    C8   42   0.627   3.159  10.441 -0.4894  0.0952 -0.3308
    3TCq1    O4   43   0.613   3.052  10.393 -0.0888 -0.4806 -0.5176
    3TCq1    C9   44   0.821   3.597  10.396  0.7180 -0.4853 -0.0712
    3TCq1    O5   45   0.906   3.675  10.336  0.3619 -0.5333 -0.1064
    3TCq1    O6   46   0.782   3.615  10.517 -0.3490  0.2554  0.3707
    3TCq1    H1   47   1.105   3.362  10.149 -1.1511 -3.0126  3.6462
    3TCq1    H2   48   0.964   3.481  10.209 -1.7883  0.3541 -1.2059
    3TCq1    H3   49   0.637   3.429  10.463 -2.2181 -4.2954 -0.7776
    3TCq1    H4   50   0.774   3.104  10.212  3.2939 -0.5462 -0.4306
    4MPD2     C   51   0.398   3.015  10.870  0.4806 -0.0612  0.5048
    4MPD2    C1   52   0.436   3.146  10.895 -0.5116 -0.0782 -0.0039
    4MPD2    C2   53   0.498   3.207  10.790  0.1606 -0.6165 -0.0960
    4MPD2    C3   54   0.542   3.140  10.676  0.0102  0.5679 -0.1871
    4MPD2    C4   55   0.503   3.007  10.662  0.1106  0.1597 -0.1836
    4MPD2    C5   56   0.435   2.946  10.761  0.2055 -0.0062  0.1803
    4MPD2     H   57   0.532   3.309  10.797  0.6574 -0.6738 -1.7683
    4MPD2    H1   58   0.524   2.943  10.577  0.1182  0.6500 -0.5485
    4MPD2    H2   59   0.355   2.949  10.944  1.4830 -0.4591  0.7263
    4MPD2    H3   60   0.416   2.840  10.754 -0.4310  0.1014  0.3038
    4MPD2     N   61   0.597   3.212  10.567  0.1392 -0.0711  0.4645
    4MPD2    H5   62   0.606   3.312  10.586 -0.4052  0.0372  0.1442
    4MPD2    N1   63   0.409   3.211  11.019  0.4086 -0.3037  0.4824
    4MPD2    H7   64   0.440   3.307  11.032 -0.9220  0.2022 -0.0167
    5TCq1    O1   65   0.877   0.630  10.997  0.1883  0.1397  0.0033
    5TCq1    C1   66   0.772   0.638  10.914  0.0597 -0.3116 -0.0487
    5TCq1    O2   67   0.733   0.746  10.870 -0.2390  0.0711 -0.1790
    5TCq1    C2   68   0.710   0.506  10.907  0.3135 -0.2638 -0.0070
    5TCq1    C3   69   0.577   0.514  10.869  0.2958 -0.7992  0.1500
    5TCq1    C4   70   0.534   0.419  10.783  0.4541 -1.0834 -0.4455
    5TCq1    C5   71   0.605   0.312  10.744  0.2893  0.5372  0.4238
    5TCq1    C6   72   0.737   0.315  10.775  0.1329  0.4797  0.0425
    5TCq1    C7   73   0.791   0.410  10.855  0.5657  0.2763 -1.2434
    5TCq1    C8   74   0.819   0.220  10.709  0.0551 -0.1440  0.9171
    5TCq1    O4   75   0.917   0.184  10.770  0.1817 -0.4764 -0.3151
    5TCq1    C9   76   0.396   0.431  10.750  0.0099 -0.3714  0.1641
    5TCq1    O5   77   0.349   0.334  10.682 -0.0926  0.7042  0.9757
    5TCq1    O6   78   0.339   0.523  10.803 -0.6677 -0.5267  0.3364
    5TCq1    H1   79   0.899   0.539  11.028 -0.6612  0.3210  1.1465
    5TCq1    H2   80   0.521   0.603  10.896 -1.0459 -1.0634 -1.7386
    5TCq1    H3   81   0.552   0.242  10.680 -1.2629  2.1071 -0.0246
    5TCq1    H4   82   0.898   0.408  10.874  0.4749  0.6043 -0.6727
    6MPD2     C   83   0.848   0.141  10.357  0.4359  0.4351 -0.3071
    6MPD2    C1   84   0.866   0.120  10.490  0.4714  0.2789 -0.6070
    6MPD2    C2   85   0.970   0.041  10.532 -0.0987  0.2084  0.9563
    6MPD2    C3   86   1.045   4.694  10.442 -0.4545 -0.3995 -0.4081
    6MPD2    C4   87   1.016   4.703  10.305 -0.6839 -0.1042  0.4768
    6MPD2    C5   88   0.922   0.064  10.260 -0.2404 -0.6981  0.3990
    6MPD2     H   89   0.980   0.020  10.638 -1.1508 -1.5583  0.7101
    6MPD2    H1   90   1.074   4.665  10.222  0.9627 -0.3380  1.7147
    6MPD2    H2   91   0.771   0.209  10.323 -0.7719 -1.4189 -1.2766
    6MPD2    H3   92   0.904   0.087  10.156 -0.3108 -0.5871  0.4356
    6MPD2     N   93   1.142   4.615  10.495 -0.0786  0.8698  0.1181
    6MPD2    H5   94   1.149   4.627  10.596  0.4104  4.0481 -0.2872
    6MPD2    N1   95   0.796   0.206  10.572  0.0401 -0.3339  0.4512
    6MPD2    H7   96   0.725   0.267  10.533 -1.7430 -2.0852  0.9290
    7TCq1    O1   97   3.505   4.642  13.553  0.0160 -0.4479 -0.4512
    7TCq1    C1   98   3.549   4.625  13.431  0.6763 -0.0635  0.0914
    7TCq1    O2   99   3.664   4.630  13.388 -0.1593  0.5459 -0.0894
    7TCq1    C2  100   3.462   4.521  13.387  0.1527 -1.2489  0.5767
    7TCq1    C3  101   3.337   4.563  13.351 -0.4334  0.5974 -0.1658
    7TCq1    C4  102   3.256   4.466  13.301  0.0056 -0.6843 -0.3137
    7TCq1    C5  103   3.301   4.340  13.273  0.4685  0.2397  0.2291
    7TCq1    C6  104   3.428   4.301  13.321 -0.0246 -0.8566 -0.0883
    7TCq1    C7  105   3.514   4.391  13.377 -0.5148 -0.0485 -0.1029
    7TCq1    C8  106   3.443   4.158  13.349 -0.5180 -0.2854  0.6116
    7TCq1    O4  107   3.344   4.093  13.333 -0.4014 -0.9482  0.0697
    7TCq1    C9  108   3.124   4.501  13.250  0.1381 -0.6342 -0.7591
    7TCq1    O5  109   3.087   4.617  13.272 -0.7622  0.1666 -0.3690
    7TCq1    O6  110   3.045   4.402  13.220  0.8430 -0.4058  0.1193
    7TCq1    H1  111   3.411   4.621  13.573  0.1664 -0.5534  0.1353
    7TCq1    H2  112   3.314   4.669  13.355 -1.1688  0.3819  1.1915
    7TCq1    H3  113   3.246   4.267  13.214 -1.2221  2.4234 -0.8974
    7TCq1    H4  114   3.600   4.363  13.436 -0.1666  0.5150 -0.3427
    8MPD2     C  115   3.703   3.750  13.519 -0.6245 -0.0785  0.7714
    8MPD2    C1  116   3.565   3.765  13.499  0.0520 -0.6783 -0.1528
    8MPD2    C2  117   3.522   3.891  13.458  0.1974 -0.3045  0.3844
    8MPD2    C3  118   3.614   3.991  13.428  0.2579 -0.3944 -1.1626
    8MPD2    C4  119   3.751   3.961  13.442  0.2522  0.6632 -0.6070
    8MPD2    C5  120   3.793   3.847  13.496 -0.4215 -0.2463 -0.5274
    8MPD2     H  121   3.417   3.915  13.451  0.1517 -1.0140 -1.4147
    8MPD2    H1  122   3.825   4.040  13.433  0.1963  0.9071  0.9623
    8MPD2    H2  123   3.739   3.656  13.560  0.2164 -1.2439 -2.6505
    8MPD2    H3  124   3.898   3.834  13.521  0.1972 -1.5140 -3.8428
    8MPD2     N  125   3.571   4.122  13.391 -0.5549  0.3032 -0.4863
    8MPD2    H5  126   3.638   4.198  13.380  0.0685 -0.5196 -2.2208
    8MPD2    N1  127   3.470   3.671  13.522  0.2685  0.1054  0.4007
    8MPD2    H7  128   3.383   3.688  13.474 -0.5983 -0.0474  1.9214
    9TCq1    O1  129   1.023   2.682  10.851  0.4708 -0.0800  0.8500
    9TCq1    C1  130   1.066   2.732  10.967 -0.1677 -0.4341 -0.3451
    9TCq1    O2  131   1.015   2.714  11.078 -0.0464 -0.1945  0.3597
    9TCq1    C2  132   1.175   2.828  10.937 -0.3080 -0.2760 -1.2740
    9TCq1    C3  133   1.200   2.870  10.808 -0.3603 -0.1584  0.0183
    9TCq1    C4  134   1.305   2.953  10.791  0.0945  0.2319  0.0738
    9TCq1    C5  135   1.362   3.023  10.897 -0.5605 -0.6834  0.9571
    9TCq1    C6  136   1.329   2.987  11.024  0.8121  0.1737  0.1012
    9TCq1    C7  137   1.243   2.881  11.042  0.1382  0.3452  0.1650
    9TCq1    C8  138   1.406   3.020  11.144  0.3668 -0.5671 -0.7040
    9TCq1    O4  139   1.528   3.041  11.127  0.0873 -0.6351  0.6173
    9TCq1    C9  140   1.351   2.962  10.655  0.7533  1.0585 -0.2236
    9TCq1    O5  141   1.270   2.958  10.562  0.2776 -0.8500  0.0536
    9TCq1    O6  142   1.470   3.012  10.641 -0.2911 -0.5944 -0.6112
    9TCq1    H1  143   1.081   2.701  10.775  1.3164 -0.4599  1.4008
    9TCq1    H2  144   1.145   2.831  10.723  0.2293 -0.5028 -0.2060
    9TCq1    H3  145   1.450   3.085  10.885 -2.0034  1.1415 -0.3079
    9TCq1    H4  146   1.228   2.835  11.139  1.6813 -1.3751 -0.4036
   10MPD2     C  147   1.490   3.116  11.415  0.6416 -0.2685 -0.0727
   10MPD2    C1  148   1.366   3.056  11.392 -0.4239 -0.1234  0.6114
   10MPD2    C2  149   1.273   3.060  11.489  0.2797 -0.6528  0.0529
   10MPD2    C3  150   1.293   3.114  11.615 -0.1015 -0.8801 -0.2293
   10MPD2    C4  151   1.419   3.166  11.642  1.0213 -1.2367 -0.0716
   10MPD2    C5  152   1.515   3.166  11.543 -0.5594  0.6403 -0.0156
   10MPD2     H  153   1.177   3.015  11.467  0.9391 -2.7119  1.4185
   10MPD2    H1  154   1.448   3.209  11.737 -0.2570 -0.3870 -0.0621
   10MPD2    H2  155   1.571   3.113  11.343  1.8806  0.2698  1.3039
   10MPD2    H3  156   1.617   3.200  11.556  0.8432 -2.9575 -1.6762
   10MPD2     N  157   1.196   3.114  11.711 -0.2070 -0.3221  0.3366
   10MPD2    H5  158   1.206   3.179  11.789  0.8610  0.6707 -0.6283
   10MPD2    N1  159   1.330   3.015  11.258  0.1606 -0.0550 -0.3513
   10MPD2    H7  160   1.235   2.985  11.244 -1.2663  2.6540  3.3624
   11TCq1    O1  161   2.528   3.166  14.389 -0.0580 -0.0352 -0.0211
   11TCq1    C1  162   2.407   3.132  14.442  0.5002  0.2155 -0.1320
   11TCq1    O2  163   2.351   3.205  14.521  0.2155  0.2550 -0.6664
   11TCq1    C2  164   2.339   3.049  14.346  0.5236 -0.6244  0.5884
   11TCq1    C3  165   2.368   3.065  14.215 -0.0419 -0.3371 -0.0433
   11TCq1    C4  166   2.277   3.028  14.120 -0.7859  0.0363 -0.5433
   11TCq1    C5  167   2.148   3.003  14.157  0.1484  0.3515 -0.4029
   11TCq1    C6  168   2.119   2.994  14.286  0.0002  0.0370  0.6116
   11TCq1    C7  169   2.213   3.013  14.387  0.9149 -0.1204 -0.2235
   11TCq1    C8  170   1.990   2.936  14.325 -0.4358 -0.9250  0.3862
   11TCq1    O4  171   1.962   2.948  14.441  0.1357 -0.2378  0.0679
   11TCq1    C9  172   2.316   3.045  13.982 -0.1410  0.1871  0.6786
   11TCq1    O5  173   2.434   3.079  13.959 -0.1716  0.2721 -0.1858
   11TCq1    O6  174   2.232   3.012  13.898 -0.0098 -0.0879 -0.2202
   11TCq1    H1  175   2.572   3.101  14.331  0.2916 -1.4548  1.8177
   11TCq1    H2  176   2.460   3.107  14.175 -0.0158  0.0647  0.4401
   11TCq1    H3  177   2.072   2.995  14.081 -1.0605 -0.9002  0.9505
   11TCq1    H4  178   2.193   2.987  14.490  2.2988 -0.1462  0.0362
   12MPD2     C  179   1.697   2.874  14.295  0.1143 -1.3530 -0.3076
   12MPD2    C1  180   1.799   2.812  14.224  0.2827  0.1502 -0.0275
   12MPD2    C2  181   1.767   2.705  14.135  0.4421 -0.2074 -0.0804
   12MPD2    C3  182   1.638   2.661  14.113  0.7492 -0.2678 -0.1247
   12MPD2    C4  183   1.545   2.726  14.186  0.1473  0.5906  0.7857
   12MPD2    C5  184   1.567   2.821  14.276  0.9068 -0.0205 -0.3303
   12MPD2     H  185   1.855   2.662  14.087  0.1222 -1.7892  0.7524
   12MPD2    H1  186   1.444   2.692  14.169  0.9278 -1.0533 -0.5698
   12MPD2    H2  187   1.698   2.973  14.339 -2.4175 -1.3972 -0.1679
   12MPD2    H3  188   1.479   2.856  14.328  0.2206 -1.8964 -0.2481
   12MPD2     N  189   1.602   2.566  14.013 -0.4646  0.2194  0.5256
   12MPD2    H5  190   1.503   2.552  13.991 -0.2083  0.4278 -0.7551
   12MPD2    N1  191   1.930   2.858  14.224  0.0208 -0.0235  0.1501
   12MPD2    H7  192   1.987   2.806  14.159 -0.5300 -1.1306  0.5429
   13TCq1    O1  193   1.046   3.817  10.501  0.2351  0.3273 -0.9230
   13TCq1    C1  194   1.102   3.763  10.609 -0.4418  0.1945 -0.9527
   13TCq1    O2  195   1.105   3.815  10.718 -0.3744 -0.4544 -0.4153
   13TCq1    C2  196   1.114   3.618  10.581  0.1371 -0.1186  0.1183
   13TCq1    C3  197   1.169   3.576  10.463 -0.6089 -0.1683 -0.8917
   13TCq1    C4  198   1.197   3.439  10.453  0.6109 -0.1270  0.0736
   13TCq1    C5  199   1.175   3.346  10.555  0.2863 -0.3649  0.5436
   13TCq1    C6  200   1.127   3.398  10.668 -0.0245 -0.4916 -0.1261
   13TCq1    C7  201   1.088   3.530  10.688 -0.1230  0.7442  1.4121
   13TCq1    C8  202   1.051   3.305  10.754  0.1931 -0.4853  0.2765
   13TCq1    O4  203   1.001   3.348  10.855 -0.2238  0.1942  0.1644
   13TCq1    C9  204   1.242   3.394  10.325 -0.6339 -0.6837 -0.5895
   13TCq1    O5  205   1.283   3.278  10.313 -0.0859  0.0333 -1.0995
   13TCq1    O6  206   1.189   3.459  10.233 -0.3182 -0.0036 -0.3789
   13TCq1    H1  207   1.015   3.756  10.432  0.9336  0.6501 -1.5202
   13TCq1    H2  208   1.202   3.642  10.384 -1.7180  0.1536 -1.0795
   13TCq1    H3  209   1.217   3.246  10.544  1.1213  0.2992 -2.4188
   13TCq1    H4  210   1.066   3.568  10.787 -3.0067  1.6472  0.4193
   14MPD2     C  211   0.893   2.999  10.616 -0.3355 -0.1441  0.0164
   14MPD2    C1  212   0.946   3.087  10.715  0.0014 -0.0214  0.1295
   14MPD2    C2  213   0.928   3.058  10.851 -0.9053 -0.3380 -0.4280
   14MPD2    C3  214   0.828   2.971  10.895 -0.3187 -0.1232 -0.2249
   14MPD2    C4  215   0.770   2.894  10.794 -0.1321  0.1105  0.3044
   14MPD2    C5  216   0.812   2.902  10.664 -0.1676  0.0913 -0.3919
   14MPD2     H  217   0.981   3.115  10.926 -0.8301  0.3763 -1.0235
   14MPD2    H1  218   0.698   2.818  10.821  0.6978 -0.6491  0.3940
   14MPD2    H2  219   0.900   3.010  10.508 -3.0194 -1.2077 -0.2559
   14MPD2    H3  220   0.756   2.842  10.592  0.4760  1.1541 -1.7799
   14MPD2     N  221   0.804   2.960  11.031  0.4070  0.1783  0.0649
   14MPD2    H5  222   0.846   3.027  11.094 -1.3218  0.5583  0.8237
   14MPD2    N1  223   1.014   3.199  10.675 -0.1278 -0.2278 -0.1310
   14MPD2    H7  224   1.056   3.197  10.583  1.5598 -1.3484  0.6571
   15TCq1    O1  225   2.451   2.614   1.506  0.4408 -0.6458  0.1825
   15TCq1    C1  226   2.515   2.507   1.449 -0.4514 -0.9479 -0.6400
   15TCq1    O2  227   2.635   2.485   1.450  0.0361 -0.2165  0.3187
   15TCq1    C2  228   2.427   2.426   1.372  0.2434 -0.6993  0.0568
   15TCq1    C3  229   2.328   2.486   1.298  0.1265  0.1126  0.0260
   15TCq1    C4  230   2.271   2.415   1.195 -0.2117  0.0214  0.0665
   15TCq1    C5  231   2.312   2.286   1.176  0.3348  0.1461  0.3580
   15TCq1    C6  232   2.403   2.226   1.259  0.1302  0.2733 -0.7484
   15TCq1    C7  233   2.464   2.293   1.357  0.1500 -0.1561  0.7578
   15TCq1    C8  234   2.424   2.083   1.274  0.3129  0.1834  1.0085
   15TCq1    O4  235   2.535   2.044   1.322 -0.1517  0.3370  0.1940
   15TCq1    C9  236   2.162   2.481   1.123 -0.4626  0.0942  0.2915
   15TCq1    O5  237   2.108   2.413   1.035 -0.7130 -0.1534 -0.6690
   15TCq1    O6  238   2.131   2.599   1.160  0.1777  0.2116  0.5066
   15TCq1    H1  239   2.353   2.610   1.504  0.3790  0.3287  1.0774
   15TCq1    H2  240   2.312   2.593   1.308 -2.7900 -0.3275 -0.0411
   15TCq1    H3  241   2.261   2.239   1.092 -0.3315 -1.6327  1.7620
   15TCq1    H4  242   2.544   2.248   1.414 -0.2754  2.9312  3.7912
   16MPD2     C  243   2.188   1.826   1.151  0.0780  0.1409 -0.9835
   16MPD2    C1  244   2.302   1.872   1.215  0.3655 -0.1087 -0.1215
   16MPD2    C2  245   2.408   1.786   1.235  0.2479 -0.1420 -0.1703
   16MPD2    C3  246   2.385   1.653   1.223  0.6585  0.2547 -0.4751
   16MPD2    C4  247   2.258   1.606   1.187 -0.2496 -0.6944 -0.5580
   16MPD2    C5  248   2.170   1.695   1.146  0.2703 -0.4164 -0.4399
   16MPD2     H  249   2.501   1.823   1.279  0.5439  1.3543 -2.0692
   16MPD2    H1  250   2.235   1.501   1.174  1.1703 -0.9136 -1.3208
   16MPD2    H2  251   2.106   1.889   1.121 -0.0109  0.3762 -0.2605
   16MPD2    H3  252   2.075   1.664   1.103  0.0018  1.3952 -1.1585
   16MPD2     N  253   2.496   1.568   1.245  0.2116  0.1603 -0.1011
   16MPD2    H5  254   2.584   1.617   1.254 -0.1870  1.5226 -3.3174
   16MPD2    N1  255   2.317   2.013   1.234 -0.2734  0.0588  0.5093
   16MPD2    H7  256   2.236   2.069   1.210 -0.7064 -0.5770  0.4629
   17TCq1    O1  257   0.927   1.609  11.326 -0.0676  0.2242  0.1603
   17TCq1    C1  258   0.963   1.735  11.295 -0.1447 -0.2673  0.6242
   17TCq1    O2  259   0.907   1.832  11.346 -0.3581 -0.3352  0.2624
   17TCq1    C2  260   1.012   1.731  11.160  0.0039  0.1582 -0.1747
   17TCq1    C3  261   0.960   1.829  11.072  0.0753 -0.4217  0.1134
   17TCq1    C4  262   1.044   1.883  10.978  0.5153  0.2660  0.2672
   17TCq1    C5  263   1.171   1.851  10.975  0.1999 -0.7180  0.4644
   17TCq1    C6  264   1.221   1.753  11.057  0.5864  0.5605 -0.3581
   17TCq1    C7  265   1.143   1.686  11.144  0.7025 -0.8145 -0.5984
   17TCq1    C8  266   1.366   1.726  11.067 -0.4164 -0.3121 -0.1573
   17TCq1    O4  267   1.394   1.644  11.156 -0.1481  0.3367  0.2401
   17TCq1    C9  268   0.996   1.987  10.883 -0.2351  0.4383  0.0735
   17TCq1    O5  269   1.081   2.069  10.832  0.2543  0.4576 -0.2884
   17TCq1    O6  270   0.872   2.001  10.861 -0.8578  0.3521 -0.0988
   17TCq1    H1  271   0.964   1.551  11.256  0.7140  2.3354 -1.1823
   17TCq1    H2  272   0.860   1.868  11.091 -0.1182 -0.6962 -0.3448
   17TCq1    H3  273   1.231   1.908  10.905 -2.5658 -0.2264 -1.5429
   17TCq1    H4  274   1.184   1.604  11.202 -2.8357 -3.2718 -1.5494
   18MPD2     C  275   1.654   1.775  11.123 -0.7139  0.4189  0.4659
   18MPD2    C1  276   1.594   1.812  11.005  0.7581 -0.0885 -0.4243
   18MPD2    C2  277   1.672   1.861  10.897  0.3846 -0.0991  0.5094
   18MPD2    C3  278   1.815   1.865  10.906  0.0240  0.3325 -0.1241
   18MPD2    C4  279   1.871   1.803  11.011 -0.0263 -0.2931  0.3460
   18MPD2    C5  280   1.790   1.771  11.117  0.8068 -1.0714 -0.6436
   18MPD2     H  281   1.627   1.915  10.814  1.3381  2.6689  1.7802
   18MPD2    H1  282   1.978   1.806  11.025  0.1612  1.2290 -1.4183
   18MPD2    H2  283   1.605   1.742  11.214 -0.5593  0.4657  0.5662
   18MPD2    H3  284   1.830   1.744  11.214 -1.2867  1.8504  1.0430
   18MPD2     N  285   1.906   1.923  10.807  0.2131 -0.0070  0.2407
   18MPD2    H5  286   2.002   1.897  10.827  0.2318 -2.5262 -3.1145
   18MPD2    N1  287   1.449   1.799  10.992  0.6259 -0.4413 -0.7647
   18MPD2    H7  288   1.417   1.857  10.915  3.0418 -0.0017 -1.4625
   19TMC2    C1  289   2.778   2.661  13.676  0.1709  1.1580  0.9044
   19TMC2    C2  290   2.705   2.719  13.576  0.0596 -0.1783 -0.1087
   19TMC2    C3  291   2.578   2.682  13.553  0.1035  0.0022  0.0442
   19TMC2    C4  292   2.730   2.568  13.760  0.7845 -0.5271 -0.0950
   19TMC2    C5  293   2.606   2.531  13.729  0.5520  0.0269  0.2538
   19TMC2    C6  294   2.531   2.587  13.625 -0.3217 -0.0238 -0.4242
   19TMC2     C  295   2.919   2.705  13.686 -0.3505 -0.0497  0.2437
   19TMC2     O  296   2.954   2.791  13.607 -0.4675  0.0773  0.0640
   19TMC2     H  297   2.751   2.791  13.510 -1.2396 -0.6815 -1.5480
   19TMC2    H1  298   2.782   2.511  13.837 -0.9283  1.6493  2.6595
   19TMC2    H2  299   2.440   2.530  13.610 -0.6454  0.7843 -1.5013
   19TMC2    C7  300   2.548   2.417  13.800  0.0844 -0.3414 -0.5604
   19TMC2    C8  301   2.500   2.751  13.452  0.9647 -0.1512 -1.1503
   19TMC2    O1  302   2.615   2.327  13.850 -0.5098  0.2853 -0.4788
   19TMC2    O2  303   2.545   2.818  13.359  0.0445 -0.2198 -0.1922
   19TMC2    O5  304   2.379   2.703  13.454 -0.2060  0.6143  0.1741
   19TMC2    H5  305   2.358   2.666  13.542  1.6074 -0.3197  0.2166
   20MPD2     C  306   3.210   2.707  13.731  0.0813  0.0058 -0.1030
   20MPD2    C1  307   3.125   2.632  13.808 -0.2620 -0.4370 -0.3606
   20MPD2    C2  308   3.167   2.548  13.911 -0.4629 -0.2808  0.3381
   20MPD2    C3  309   3.305   2.531  13.921 -0.1335  0.4191  0.2201
   20MPD2    C4  310   3.394   2.603  13.842  0.2953 -0.9140  0.2658
   20MPD2    C5  311   3.344   2.696  13.752  0.1396 -0.5435 -0.0901
   20MPD2     H  312   3.100   2.499  13.981 -1.8477  0.9850 -0.0892
   20MPD2    H1  313   3.501   2.594  13.855  0.5240 -0.9143 -1.6136
   20MPD2    H2  314   3.188   2.784  13.658 -0.6087 -0.3054 -0.2195
   20MPD2    H3  315   3.410   2.751  13.686  0.5242  1.1113  1.6960
   20MPD2     N  316   3.359   2.457  14.028  0.4929 -0.3258 -0.4639
   20MPD2    H5  317   3.458   2.462  14.049  0.5882 -3.5934 -0.1096
   20MPD2    N1  318   2.985   2.632  13.782  0.0214 -0.4819  0.0435
   20MPD2    H7  319   2.926   2.576  13.842 -0.1065 -0.7676 -0.3465
   21MPD2     C  320   0.179   2.899  14.565 -0.2799  0.1380  0.3350
   21MPD2    C1  321   0.237   2.780  14.619  0.3728  0.1098  0.3130
   21MPD2    C2  322   0.170   2.706  14.714 -0.2549 -0.0306 -0.3024
   21MPD2    C3  323   0.042   2.747  14.750 -0.7912  0.0328  0.2380
   21MPD2    C4  324   4.705   2.857  14.694  0.3681  0.1962  0.0341
   21MPD2    C5  325   0.055   2.935  14.605 -0.3860 -0.1845  0.0579
   21MPD2     H  326   0.220   2.622  14.760 -1.6281 -1.0034 -0.5768
   21MPD2    H1  327   4.606   2.890  14.724 -0.0500 -0.0226 -1.1216
   21MPD2    H2  328   0.218   2.967  14.489 -0.3731 -1.2647 -0.9695
   21MPD2    H3  329   0.006   3.021  14.561 -0.3972 -0.3517 -0.2572
   21MPD2     N  330   4.687   2.688  14.847  0.5536  0.4007 -0.1087
   21MPD2    H5  331   4.590   2.718  14.852  0.5864  0.3083  1.1944
   21MPD2    N1  332   0.365   2.730  14.575 -0.3091 -0.1067  0.1354
   21MPD2    H7  333   0.396   2.649  14.627 -0.4335  0.9799  1.9355
   22TCq2    C1  334   4.723   2.577  14.917  0.3988 -0.6868 -0.3552
   22TCq2    O2  335   0.109   2.522  14.925  0.4111 -0.0900 -0.1975
   22TCq2    C2  336   4.615   2.533  14.997 -0.3098  0.1744 -0.2674
   22TCq2    C3  337   4.631   2.405  15.044  0.2128  0.5929  0.5881
   22TCq2    C4  338   4.521   2.330  15.081 -0.2581  0.0835 -0.1811
   22TCq2    C5  339   4.395   2.393  15.081  0.1816  0.9201  0.6886
   22TCq2    C6  340   4.391   2.527  15.038  0.5320 -0.0116  0.4075
   22TCq2    C7  341   4.496   2.600  14.985  0.8175 -0.1241  0.0059
   22TCq2    C8  342   4.263   2.591  15.080  0.1210  0.1240 -0.0796
   22TCq2    O4  343   4.220   2.554  15.191 -0.1654 -0.7650  0.5157
   22TCq2    C9  344   4.527   2.192  15.124  0.8675 -0.1929 -0.7410
   22TCq2    O5  345   4.639   2.144  15.132  0.1810  0.0655  0.6105
   22TCq2    O6  346   4.421   2.148  15.177  0.3636  0.0386  0.4331
   22TCq2    H2  347   0.007   2.364  15.058 -0.6282 -1.9450 -0.8687
   22TCq2    H3  348   4.305   2.335  15.100  0.2056  0.6563 -0.0132
   22TCq2    H4  349   4.488   2.707  14.974  1.5400 -0.0602  0.1002
   23MPD2     C  350   1.693   4.142  14.440 -0.4358 -0.1774  0.3505
   23MPD2    C1  351   1.576   4.097  14.494 -0.7297 -0.2071  0.5773
   23MPD2    C2  352   1.458   4.133  14.426 -0.3989 -0.7389  0.3111
   23MPD2    C3  353   1.460   4.212  14.311 -0.3015 -0.3493 -0.1141
   23MPD2    C4  354   1.582   4.251  14.248  0.0535  0.5708 -0.2601
   23MPD2    C5  355   1.694   4.215  14.325 -0.1293 -0.5878 -0.0928
   23MPD2     H  356   1.358   4.106  14.455 -0.0994 -1.2228  0.9065
   23MPD2    H1  357   1.598   4.312  14.160  1.2565 -1.7575 -1.6459
   23MPD2    H2  358   1.793   4.128  14.480 -1.0953 -0.9382  1.7110
   23MPD2    H3  359   1.790   4.251  14.290 -0.1529 -2.2783 -1.8977
   23MPD2     N  360   1.348   4.255  14.243  0.4743  0.6069  0.1813
   23MPD2    H5  361   1.351   4.328  14.173  1.1126  0.8438  0.4497
   23MPD2    N1  362   1.575   4.017  14.613 -0.4954  0.6410 -0.0288
   23MPD2    H7  363   1.486   3.978  14.645  0.3159 -1.1991 -0.0405
   24TCq2    C1  364   1.221   4.205  14.254 -0.0359 -0.1064 -0.4214
   24TCq2    O2  365   1.178   4.102  14.304 -0.0183  0.1212 -0.7623
   24TCq2    C2  366   1.138   4.278  14.168 -0.1260 -1.2932 -0.2332
   24TCq2    C3  367   1.162   4.413  14.149  0.2598  0.7014 -0.2187
   24TCq2    C4  368   1.080   4.477  14.063  0.3639 -0.5372 -0.4420
   24TCq2    C5  369   0.978   4.412  13.998 -0.6981 -0.2062  0.2896
   24TCq2    C6  370   0.960   4.283  14.023  0.1334 -0.2747  0.2427
   24TCq2    C7  371   1.041   4.210  14.102  0.4092 -0.2406 -0.0469
   24TCq2    C8  372   0.824   4.239  13.993 -1.0309 -0.2460  0.2184
   24TCq2    O4  373   0.783   4.271  13.883 -0.4712 -0.1055 -0.3202
   24TCq2    C9  374   1.098   4.618  14.031  0.5366  0.3577 -0.1063
   24TCq2    O5  375   0.993   4.682  14.004 -0.6015  0.5997  0.2005
   24TCq2    O6  376   1.212   4.665  14.043 -0.0795 -0.2600  0.1615
   24TCq2    H2  377   1.228   4.479  14.205  1.0199 -0.8750  0.7493
   24TCq2    H3  378   0.913   4.467  13.932 -0.0220  0.1399 -0.0818
   24TCq2    H4  379   1.003   4.113  14.134 -0.5463  0.8207  2.0564
   25TMC2    C1  380   0.597   1.773  11.387 -0.3951 -1.1124  0.5023
   25TMC2    C2  381   0.608   1.909  11.397  0.2129 -0.6910  0.2422
   25TMC2    C3  382   0.561   1.964  11.513  0.0330  0.5775 -0.3639
   25TMC2    C4  383   0.552   1.694  11.492 -0.5893  0.2008  0.0872
   25TMC2    C5  384   0.510   1.756  11.607 -0.2561 -0.0339  0.3982
   25TMC2    C6  385   0.508   1.894  11.622  0.0477  0.8998  0.0003
   25TMC2     C  386   0.618   1.722  11.253 -0.5451  0.1253 -0.3188
   25TMC2     O  387   0.637   1.804  11.163 -0.2758 -0.2736 -0.7245
   25TMC2     H  388   0.647   1.973  11.319 -0.3309  1.0828  1.4024
   25TMC2    H1  389   0.565   1.586  11.494  0.5085  0.2954 -2.1257
   25TMC2    H2  390   0.464   1.940  11.709  1.6022 -0.1013  1.3247
   25TMC2    C7  391   0.510   1.678  11.738 -0.6322  0.0761  0.3670
   25TMC2    C8  392   0.503   2.100  11.510  0.7853  0.1165 -0.3130
   25TMC2    O1  393   0.446   1.732  11.828  0.1621 -0.4027 -0.0314
   25TMC2    O2  394   0.488   2.157  11.616 -0.1087 -0.1374 -0.3628
   25TMC2    O5  395   0.520   2.150  11.386 -0.0258  0.6774  0.0913
   25TMC2    H5  396   0.514   2.246  11.370  0.7912  0.4846 -1.4381
   26MPD2     C  397   0.633   1.341  10.901  0.0544 -0.1119 -0.8112
   26MPD2    C1  398   0.581   1.295  11.018 -0.0876  0.1041 -0.0901
   26MPD2    C2  399   0.584   1.380  11.126 -0.2489  0.2510 -0.8813
   26MPD2    C3  400   0.617   1.513  11.122 -1.0744 -0.7542 -0.0245
   26MPD2    C4  401   0.654   1.562  10.998  0.3789 -0.3819  0.4549
   26MPD2    C5  402   0.673   1.472  10.894 -0.2483  0.7641  0.6089
   26MPD2     H  403   0.551   1.343  11.222  1.8387  0.4281 -0.1190
   26MPD2    H1  404   0.687   1.664  10.981 -0.5952 -0.1776 -0.1985
   26MPD2    H2  405   0.643   1.274  10.817 -0.0511 -1.5089  0.2800
   26MPD2    H3  406   0.724   1.502  10.802 -0.0103 -0.1343  0.4449
   26MPD2     N  407   0.593   1.587  11.235  0.0420 -0.0309  0.2417
   26MPD2    H5  408   0.559   1.533  11.314 -2.0063 -0.5856 -1.0188
   26MPD2    N1  409   0.542   1.157  11.020  0.9977  1.1370 -0.1171
   26MPD2    H7  410   0.551   1.110  10.930  0.5692 -1.1910  1.0430
   27TMC2    C1  411   4.345   3.043  12.035  0.3455 -0.4679 -0.3496
   27TMC2    C2  412   4.309   3.021  11.899  0.3482 -0.2038  0.2038
   27TMC2    C3  413   4.281   3.131  11.828 -0.0302 -0.1358 -0.6809
   27TMC2    C4  414   4.368   3.162  12.085 -0.1974  0.0510 -0.5901
   27TMC2    C5  415   4.350   3.270  12.007  0.8832  0.0521  0.3702
   27TMC2    C6  416   4.310   3.257  11.876  0.4824  0.1417  0.6414
   27TMC2     C  417   4.253   2.967  12.119 -0.4554 -0.2233  0.5102
   27TMC2     O  418   4.228   2.850  12.087 -0.3508  0.2501 -0.2434
   27TMC2     H  419   4.266   2.926  11.870 -0.9195  0.3299  0.3120
   27TMC2    H1  420   4.403   3.167  12.187 -0.2521 -1.1445 -0.5162
   27TMC2    H2  421   4.299   3.344  11.811  0.2064 -0.0300  0.4585
   27TMC2    C7  422   4.261   3.356  12.068 -0.0226 -0.1757 -0.9952
   27TMC2    C8  423   4.230   3.120  11.692 -0.7156 -0.3607  0.4286
   27TMC2    O1  424   4.189   3.305  12.155  0.2148 -0.0654  0.2773
   27TMC2    O2  425   4.180   3.212  11.637  0.3923  0.1651  0.7479
   27TMC2    O5  426   4.283   3.015  11.628 -0.0616  0.4876  0.3768
   27TMC2    H5  427   4.351   2.980  11.689 -0.8609  1.8589  2.0504
   28MPD2     C  428   3.961   2.917  12.539  0.1820 -0.4589 -0.2190
   28MPD2    C1  429   3.955   3.049  12.492 -0.9725 -0.3839  0.0822
   28MPD2    C2  430   4.033   3.090  12.388 -0.9619 -0.8978 -0.3337
   28MPD2    C3  431   4.116   2.998  12.326  0.6263  0.3860 -0.0272
   28MPD2    C4  432   4.127   2.870  12.379 -0.2092  0.3619  0.0377
   28MPD2    C5  433   4.048   2.828  12.479 -0.7922 -0.0852 -0.2184
   28MPD2     H  434   4.027   3.191  12.347  2.6340 -0.7214 -0.4300
   28MPD2    H1  435   4.186   2.793  12.330  0.8988  0.8847  0.5431
   28MPD2    H2  436   3.889   2.877  12.610  2.5080 -0.8330  1.9327
   28MPD2    H3  437   4.050   2.721  12.500 -1.5999 -0.0414  0.1036
   28MPD2     N  438   4.196   3.041  12.223 -0.5912  0.3323 -0.7636
   28MPD2    H5  439   4.197   3.141  12.206  0.1806  0.4304 -0.1403
   28MPD2    N1  440   3.858   3.129  12.553 -0.1357 -0.6832  0.2039
   28MPD2    H7  441   3.808   3.076  12.623  0.5677 -1.3882  0.1771
   29MPD2     C  442   3.643   0.635  14.261 -0.0234  0.4438  1.1426
   29MPD2    C1  443   3.697   0.632  14.388  0.3133 -0.1698  0.2370
   29MPD2    C2  444   3.721   0.748  14.457  0.6639  0.5437  0.6182
   29MPD2    C3  445   3.697   0.869  14.400  0.6513  0.0301 -0.0914
   29MPD2    C4  446   3.633   0.866  14.279 -0.0617 -0.1046 -0.6244
   29MPD2    C5  447   3.619   0.755  14.206 -0.9481 -0.2707 -0.1492
   29MPD2     H  448   3.762   0.742  14.557  0.6016 -2.5071  0.4661
   29MPD2    H1  449   3.608   0.959  14.229 -2.3280 -0.4813 -0.1956
   29MPD2    H2  450   3.635   0.545  14.201  0.3668 -0.5968  2.6460
   29MPD2    H3  451   3.586   0.761  14.103 -1.3735 -3.3038 -0.2087
   29MPD2     N  452   3.720   0.991  14.465 -0.3308 -0.1176  0.4564
   29MPD2    H5  453   3.679   1.076  14.428 -1.6186 -0.9997 -0.1252
   29MPD2    N1  454   3.712   0.512  14.454 -0.0935 -0.2451 -0.5361
   29MPD2    H7  455   3.764   0.508  14.541 -0.5373 -0.3043 -0.2713
   30TCq2    C1  456   3.763   1.010  14.598 -0.4021 -0.0332 -0.3558
   30TCq2    O2  457   3.792   0.923  14.680 -0.5367  0.7396 -0.3056
   30TCq2    C2  458   3.780   1.142  14.636  0.2506  0.4409 -0.3590
   30TCq2    C3  459   3.811   1.160  14.765 -0.6713  0.8569  0.2093
   30TCq2    C4  460   3.889   1.269  14.810  0.3818  0.0920  0.0044
   30TCq2    C5  461   3.927   1.366  14.720  0.2899 -0.7633 -0.3345
   30TCq2    C6  462   3.889   1.341  14.591 -0.7892  0.1338 -0.8020
   30TCq2    C7  463   3.828   1.227  14.549  0.3357  0.5090  0.0598
   30TCq2    C8  464   3.919   1.448  14.498 -0.2470 -0.3088 -0.5935
   30TCq2    O4  465   3.858   1.448  14.390 -0.4482  0.0012 -0.2584
   30TCq2    C9  466   3.927   1.267  14.947 -0.1377 -0.3265 -0.3964
   30TCq2    O5  467   3.861   1.199  15.029 -0.1836  0.2706  0.5493
   30TCq2    O6  468   4.008   1.354  14.985  0.7435  0.0503 -0.1509
   30TCq2    H2  469   3.778   1.092  14.843 -1.4765 -1.1599 -1.9074
   30TCq2    H3  470   3.994   1.438  14.766 -1.0820 -0.1503  0.6877
   30TCq2    H4  471   3.812   1.218  14.442  0.1286  0.6799  0.0755
   31MPD2     C  472   1.841   0.219  14.934  0.4471  0.4641 -0.1958
   31MPD2    C1  473   1.737   0.183  14.853 -0.6527 -0.7721 -0.5532
   31MPD2    C2  474   1.648   0.085  14.895  0.4964 -0.4707  0.0883
   31MPD2    C3  475   1.663   0.020  15.017  0.5062 -0.2953 -0.3092
   31MPD2    C4  476   1.768   0.056  15.098  0.3340  0.0556  0.3119
   31MPD2    C5  477   1.853   0.156  15.054  0.6905 -0.0267 -0.5636
   31MPD2     H  478   1.563   0.054  14.835 -0.5019  0.0087  1.2490
   31MPD2    H1  479   1.773   0.020  15.200  0.5857  0.7236  0.5350
   31MPD2    H2  480   1.914   0.291  14.898  0.2590  0.8249  0.1423
   31MPD2    H3  481   1.933   0.192  15.118 -0.7014  0.3174  0.9725
   31MPD2     N  482   1.579   4.638  15.066 -0.2083 -0.4448 -0.3936
   31MPD2    H5  483   1.592   4.599  15.158 -1.4679  2.6353  1.0870
   31MPD2    N1  484   1.732   0.240  14.724  0.0668  0.2959  0.1062
   31MPD2    H7  485   1.776   0.330  14.709  0.2895  0.8125  3.8970
   32TCq2    C1  486   1.484   4.572  14.991  0.3929 -0.1555  0.6144
   32TCq2    O2  487   1.455   4.586  14.870  0.3297  0.0411  0.4310
   32TCq2    C2  488   1.387   4.505  15.076 -0.3193  0.6561  0.0089
   32TCq2    C3  489   1.291   4.440  15.008  0.2450 -0.6286  0.3745
   32TCq2    C4  490   1.180   4.392  15.073  0.3561  0.8104  0.7103
   32TCq2    C5  491   1.166   4.404  15.207  0.2609  0.2773  0.0705
   32TCq2    C6  492   1.260   4.483  15.271  0.3167  0.5459  0.3810
   32TCq2    C7  493   1.367   4.536  15.208  0.2408 -1.0183 -0.9560
   32TCq2    C8  494   1.259   4.500  15.419 -0.3319 -1.1795  0.7001
   32TCq2    O4  495   1.361   4.532  15.480  0.1208 -0.2301 -0.1892
   32TCq2    C9  496   1.087   4.303  15.002 -0.4767 -0.2982 -0.1960
   32TCq2    O5  497   0.988   4.264  15.069  0.3866  0.0135  0.2737
   32TCq2    O6  498   1.100   4.300  14.875  0.3181 -0.5019 -0.1416
   32TCq2    H2  499   1.300   4.412  14.904 -1.4926 -1.9883  0.5958
   32TCq2    H3  500   1.077   4.362  15.254  0.4931 -0.0529  0.2120
   32TCq2    H4  501   1.436   4.597  15.265 -0.7019 -0.6340 -0.2321
   33MPD2     C  502   2.122   2.314   9.971 -0.1562 -0.3510  0.6873
   33MPD2    C1  503   2.090   2.368  10.094  0.2702 -0.2364 -0.7397
   33MPD2    C2  504   2.061   2.503  10.106  0.8241 -0.7175  0.3174
   33MPD2    C3  505   2.036   2.585   9.997  0.3554  0.0479 -0.1246
   33MPD2    C4  506   2.063   2.531   9.876 -0.1358 -0.4323  0.4543
   33MPD2    C5  507   2.099   2.398   9.866  0.1675 -0.0252  0.4606
   33MPD2     H  508   2.044   2.537  10.208  1.8751  0.4240  0.1068
   33MPD2    H1  509   2.059   2.585   9.782  1.7617 -1.7440 -0.3924
   33MPD2    H2  510   2.139   2.210   9.948  0.3704 -0.3235  0.9475
   33MPD2    H3  511   2.106   2.349   9.769 -2.2767  0.8557 -0.1734
   33MPD2     N  512   1.987   2.721  10.013  0.7079 -0.1544  0.0314
   33MPD2    H5  513   1.985   2.786   9.936  1.1510  0.8460  0.8583
   33MPD2    N1  514   2.100   2.267  10.204  0.3727  0.1545  0.2186
   33MPD2    H7  515   2.138   2.175  10.186 -2.6783 -1.2692  1.0280
   34TCq2    C1  516   1.919   2.771  10.125  0.2295 -0.0297 -0.6046
   34TCq2    O2  517   1.892   2.706  10.232  0.1587  0.8346 -0.7115
   34TCq2    C2  518   1.896   2.916  10.120  0.1579  0.5180  0.4224
   34TCq2    C3  519   1.822   2.962  10.222 -0.1924  0.3166  0.7482
   34TCq2    C4  520   1.822   3.093  10.248  0.6722 -0.3326 -0.5343
   34TCq2    C5  521   1.912   3.179  10.189  0.1737 -0.0372 -0.2539
   34TCq2    C6  522   1.985   3.127  10.083 -0.5168 -0.0375  0.4023
   34TCq2    C7  523   1.981   2.992  10.044 -0.6984  0.2536 -0.5934
   34TCq2    C8  524   2.064   3.214  10.004 -0.2075  0.0164  0.0126
   34TCq2    O4  525   2.094   3.318  10.054  0.3241 -0.0573 -0.1647
   34TCq2    C9  526   1.743   3.144  10.362 -0.1092 -0.5337  0.4339
   34TCq2    O5  527   1.751   3.270  10.378 -0.3579  0.5898 -0.2645
   34TCq2    O6  528   1.687   3.057  10.436 -0.0362 -0.4087 -0.4724
   34TCq2    H2  529   1.781   2.890  10.291  1.1753 -0.9163  0.2745
   34TCq2    H3  530   1.921   3.280  10.225  2.7369  0.0234 -1.0857
   34TCq2    H4  531   2.035   2.949   9.961  0.6330 -0.0803  0.4250
   35MPD2     C  532   3.881   3.960  11.866  0.2385  0.5494  0.1819
   35MPD2    C1  533   3.836   3.838  11.901 -0.9113  0.1577  0.5281
   35MPD2    C2  534   3.752   3.771  11.814 -0.5299  0.0086  0.1899
   35MPD2    C3  535   3.715   3.827  11.693 -0.0721 -1.0252 -0.1419
   35MPD2    C4  536   3.766   3.941  11.649  0.2488  0.2451 -0.3363
   35MPD2    C5  537   3.850   4.010  11.739  0.2710  0.3586 -0.3145
   35MPD2     H  538   3.710   3.678  11.851 -3.6544  1.5059  0.4572
   35MPD2    H1  539   3.762   3.977  11.547 -1.3020  1.6852  0.2255
   35MPD2    H2  540   3.932   4.015  11.944  0.1321 -0.9234  1.2989
   35MPD2    H3  541   3.904   4.101  11.716 -2.6253  2.0554 -0.3189
   35MPD2     N  542   3.623   3.759  11.618  0.2644 -1.1514 -0.2561
   35MPD2    H5  543   3.579   3.679  11.662 -0.2721 -0.3229  0.7352
   35MPD2    N1  544   3.845   3.796  12.034 -0.4466 -0.6842 -0.1406
   35MPD2    H7  545   3.857   3.869  12.104 -1.4256  1.7081 -2.4564
   36TCq2    C1  546   3.577   3.798  11.489  0.5713 -0.5461  0.6419
   36TCq2    O2  547   3.622   3.882  11.411  0.7710 -0.0835 -0.1724
   36TCq2    C2  548   3.458   3.722  11.445  0.0632 -0.4188 -0.0429
   36TCq2    C3  549   3.420   3.738  11.315  0.1671 -0.3187 -0.1458
   36TCq2    C4  550   3.297   3.693  11.282 -0.0140  0.7087 -0.4344
   36TCq2    C5  551   3.220   3.627  11.372  0.9198 -0.5654 -0.9390
   36TCq2    C6  552   3.264   3.605  11.501  0.1833  0.0942 -0.0327
   36TCq2    C7  553   3.383   3.658  11.543  0.5345  0.1341 -0.6172
   36TCq2    C8  554   3.172   3.553  11.605 -0.2522 -0.1272 -0.5156
   36TCq2    O4  555   3.061   3.530  11.558 -0.0968 -0.3419 -0.0393
   36TCq2    C9  556   3.250   3.731  11.157 -0.1538  0.6971  0.0571
   36TCq2    O5  557   3.330   3.786  11.084 -0.2200  0.4202 -0.2789
   36TCq2    O6  558   3.124   3.722  11.143  0.3874 -0.2129 -0.0605
   36TCq2    H2  559   3.479   3.788  11.239  1.0272 -1.8822 -0.5006
   36TCq2    H3  560   3.122   3.587  11.348  0.6842 -1.0024  0.7677
   36TCq2    H4  561   3.402   3.664  11.649  0.7078 -3.2092 -0.4554
   37TMC2    C1  562   0.343   4.016  11.621 -0.5411  0.9284 -0.3917
   37TMC2    C2  563   0.315   3.995  11.489  0.4692  0.1911  0.2201
   37TMC2    C3  564   0.422   3.959  11.413 -0.2410 -0.5942  0.4182
   37TMC2    C4  565   0.468   3.991  11.679 -0.9341 -0.4013  0.0419
   37TMC2    C5  566   0.575   3.957  11.598 -1.2388 -0.3868 -0.5925
   37TMC2    C6  567   0.549   3.942  11.466  0.1156 -0.0383 -0.3157
   37TMC2     C  568   0.239   4.048  11.711 -0.4070  0.6991  0.3560
   37TMC2     O  569   0.159   4.127  11.662 -0.3155 -0.4597 -0.4592
   37TMC2     H  570   0.213   4.002  11.451  0.8198 -0.3186 -0.8088
   37TMC2    H1  571   0.478   4.013  11.784 -0.4488  0.5019 -0.1953
   37TMC2    H2  572   0.626   3.931  11.391 -0.7124  2.2190 -1.4933
   37TMC2    C7  573   0.708   3.919  11.664  0.3827  0.1222 -0.1501
   37TMC2    C8  574   0.391   3.925  11.276 -0.1464  0.1630 -0.3304
   37TMC2    O1  575   0.718   3.948  11.784 -0.0636  0.1405  0.7629
   37TMC2    O2  576   0.324   3.999  11.208  0.3703 -0.3359  0.1696
   37TMC2    O5  577   0.479   3.836  11.237  0.0375 -0.1009  0.5189
   37TMC2    H5  578   0.508   3.777  11.309  0.5407 -0.2192  0.2222
   38MPD2     C  579   4.666   3.995  12.135 -0.7332  0.3548 -0.0391
   38MPD2    C1  580   0.057   3.929  12.160 -0.7666  0.5937 -0.5661
   38MPD2    C2  581   0.153   3.923  12.057  0.4138  0.5643 -1.1047
   38MPD2    C3  582   0.144   3.990  11.933  0.0571  0.0241  0.4922
   38MPD2    C4  583   0.031   4.063  11.922  0.4305 -0.2684 -0.1292
   38MPD2    C5  584   4.651   4.054  12.010 -0.5372 -0.1288 -0.0349
   38MPD2     H  585   0.253   3.886  12.077 -0.0913 -1.6557 -2.6480
   38MPD2    H1  586   0.008   4.118  11.832  0.3761  0.8552  0.5733
   38MPD2    H2  587   4.586   4.011  12.206 -0.5357 -0.2743  0.3180
   38MPD2    H3  588   4.557   4.104  11.989 -2.0737 -2.8789  0.2865
   38MPD2     N  589   0.240   3.983  11.829 -0.7893  0.0652 -1.1615
   38MPD2    H5  590   0.318   3.919  11.846 -1.1195  0.2434  1.0873
   38MPD2    N1  591   0.096   3.880  12.289  0.2497  0.5814 -0.0387
   38MPD2    H7  592   0.196   3.860  12.295  0.2509  1.0323  1.2443
   39MPD2     C  593   3.082   1.164   1.650  0.0715  0.5617  0.1044
   39MPD2    C1  594   3.072   1.049   1.576  0.2584 -1.2490  0.5378
   39MPD2    C2  595   2.951   1.008   1.521  0.0446 -0.0504  0.6761
   39MPD2    C3  596   2.841   1.089   1.530  0.8419 -0.2590  0.0855
   39MPD2    C4  597   2.851   1.203   1.600  0.1353 -0.1326 -0.3151
   39MPD2    C5  598   2.972   1.236   1.669  0.1749  0.9213  0.2842
   39MPD2     H  599   2.945   0.915   1.467  0.6437 -0.3145  1.0728
   39MPD2    H1  600   2.761   1.257   1.626 -0.2199 -1.1898  0.6426
   39MPD2    H2  601   3.178   1.195   1.691  0.1709 -0.7964  0.9084
   39MPD2    H3  602   2.965   1.321   1.736 -0.6173 -1.4219  3.1535
   39MPD2     N  603   2.710   1.068   1.474 -0.1621 -0.1044 -0.1560
   39MPD2    H5  604   2.645   1.145   1.487 -0.9160 -0.8092  0.2223
   39MPD2    N1  605   3.190   0.968   1.567  0.0196 -0.0179 -0.4098
   39MPD2    H7  606   3.271   1.004   1.618  0.2284 -0.0429 -0.7259
   40TCq2    C1  607   3.204   0.841   1.513 -0.5035 -0.2029  0.0550
   40TCq2    O2  608   3.124   0.761   1.468  0.0292 -0.4357  0.1530
   40TCq2    C2  609   3.345   0.787   1.522  0.6721 -0.4151  0.0115
   40TCq2    C3  610   3.355   0.647   1.542  0.4947 -0.8946  1.3687
   40TCq2    C4  611   3.481   0.599   1.578 -0.2865 -0.3135  0.4248
   40TCq2    C5  612   3.588   0.682   1.609  0.2303  0.2946 -0.3486
   40TCq2    C6  613   3.574   0.819   1.592 -0.0112 -0.0845 -0.5547
   40TCq2    C7  614   3.455   0.867   1.542 -0.3640  0.1475 -0.0069
   40TCq2    C8  615   3.691   0.904   1.597  0.6053  0.4625  0.1208
   40TCq2    O4  616   3.801   0.860   1.627  0.2194 -0.5679 -0.5228
   40TCq2    C9  617   3.502   0.458   1.581  0.0614  0.6555  0.0768
   40TCq2    O5  618   3.609   0.427   1.629  0.4274  0.4022 -0.1185
   40TCq2    O6  619   3.405   0.383   1.553 -1.3695  0.4825  0.3779
   40TCq2    H2  620   3.264   0.589   1.541  1.4216 -2.3330  1.0457
   40TCq2    H3  621   3.680   0.651   1.658 -0.3687  1.4044  1.4670
   40TCq2    H4  622   3.448   0.970   1.511  0.5284 -0.0667 -0.9563
   41TMC2    C1  623   2.147   3.397  13.947  0.3641  0.5070  0.6373
   41TMC2    C2  624   2.103   3.285  13.897 -0.0814  0.1269 -0.2371
   41TMC2    C3  625   2.105   3.275  13.757 -0.2102 -0.0861  0.0605
   41TMC2    C4  626   2.183   3.504  13.875  0.2096  0.3694  0.6947
   41TMC2    C5  627   2.177   3.500  13.737 -0.5102 -0.4619 -0.3639
   41TMC2    C6  628   2.133   3.386  13.678 -0.0380 -0.2077  0.2880
   41TMC2     C  629   2.146   3.404  14.095 -0.6425 -0.1449  0.3221
   41TMC2     O  630   2.090   3.310  14.149  0.0561  0.0620 -0.4786
   41TMC2     H  631   2.067   3.204  13.960 -1.4217  1.4616  0.6939
   41TMC2    H1  632   2.203   3.603  13.913  1.6522  0.6755 -0.8865
   41TMC2    H2  633   2.114   3.391  13.571 -0.1417 -1.1141  0.2665
   41TMC2    C7  634   2.226   3.614  13.663  0.3738  0.3776  0.4208
   41TMC2    C8  635   2.027   3.176  13.689 -0.6611  0.5883  0.0602
   41TMC2    O1  636   2.279   3.708  13.725  0.1344 -0.5103  0.2960
   41TMC2    O2  637   1.949   3.219  13.606  0.5988 -0.5529  0.0697
   41TMC2    O5  638   2.014   3.071  13.765 -0.3729 -0.1453 -0.5263
   41TMC2    H5  639   2.091   3.059  13.825 -1.5438 -0.4789  0.9286
   42MPD2     C  640   2.190   3.445  14.387 -0.3436  0.0488 -0.4494
   42MPD2    C1  641   2.188   3.545  14.297  0.2657  0.7613  0.5734
   42MPD2    C2  642   2.164   3.673  14.347  0.5579 -0.3459  0.4097
   42MPD2    C3  643   2.160   3.699  14.481 -0.1226 -0.4557 -0.1163
   42MPD2    C4  644   2.161   3.604  14.570  0.1210 -0.1845 -0.5720
   42MPD2    C5  645   2.164   3.474  14.518 -0.3265 -1.1483  0.1122
   42MPD2     H  646   2.153   3.759  14.282  0.9256  0.5514  1.5384
   42MPD2    H1  647   2.160   3.621  14.677  0.7398 -1.3276 -0.3838
   42MPD2    H2  648   2.202   3.342  14.354  1.6525 -0.4689  1.9385
   42MPD2    H3  649   2.169   3.385  14.579 -4.6805 -1.6659 -0.3313
   42MPD2     N  650   2.163   3.833  14.532 -0.6294  0.2103 -0.6196
   42MPD2    H5  651   2.167   3.846  14.633  1.4177 -4.1495 -0.1027
   42MPD2    N1  652   2.185   3.521  14.152 -0.0964 -0.6817 -0.3704
   42MPD2    H7  653   2.178   3.605  14.095  1.9341 -0.1227  0.2021
   43MPD2     C  654   3.400   2.054   0.115 -0.1985 -0.2021 -0.0310
   43MPD2    C1  655   3.495   2.071   0.213 -0.5892  0.0057 -0.0820
   43MPD2    C2  656   3.452   2.154   0.322  0.3264 -0.0968  0.5383
   43MPD2    C3  657   3.325   2.208   0.330  0.1389 -1.1506  0.1910
   43MPD2    C4  658   3.229   2.178   0.234  0.3380 -0.4651 -0.2634
   43MPD2    C5  659   3.274   2.106   0.123 -0.6279 -0.4027  0.1043
   43MPD2     H  660   3.515   2.176   0.408  1.9928 -1.4063 -0.3193
   43MPD2    H1  661   3.128   2.216   0.241  1.1479  1.3286  1.6830
   43MPD2    H2  662   3.428   2.011   0.020 -1.0590 -2.0128  0.5347
   43MPD2    H3  663   3.212   2.095   0.035  0.7474  3.1470 -1.2871
   43MPD2     N  664   3.284   2.301   0.429 -0.4372 -0.0666  0.6191
   43MPD2    H5  665   3.188   2.334   0.419  0.1375  1.8545  1.4736
   43MPD2    N1  666   3.632   2.044   0.195 -0.0566 -0.1285 -0.0795
   43MPD2    H7  667   3.696   2.078   0.266 -0.6074  0.6927  0.0263
   44TCq2    C1  668   3.391   2.600   0.936  0.0597  0.2634 -0.2177
   44TCq2    O2  669   3.465   2.510   0.973  0.0627  0.2938  0.2913
   44TCq2    C2  670   3.322   2.580   0.810 -0.4557 -0.0161 -0.0138
   44TCq2    C3  671   3.226   2.672   0.756 -0.2281  0.2138  0.4967
   44TCq2    C4  672   3.184   2.650   0.629 -0.2098  0.5665 -0.1670
   44TCq2    C5  673   3.213   2.537   0.569 -0.1657  0.1673 -0.3084
   44TCq2    C6  674   3.300   2.449   0.618  0.1233  0.6117 -0.0825
   44TCq2    C7  675   3.352   2.465   0.744 -0.2757 -0.2703  0.1544
   44TCq2    C8  676   3.357   2.338   0.539 -0.5869  0.3306  0.2654
   44TCq2    O4  677   3.470   2.299   0.575  0.3648 -0.1441 -0.6443
   44TCq2    C9  678   3.100   2.751   0.565  0.6471 -0.7602  0.7456
   44TCq2    O5  679   3.075   2.743   0.442  0.2112 -0.2725  0.5422
   44TCq2    O6  680   3.072   2.848   0.634  0.3983 -0.0253 -0.5341
   44TCq2    H2  681   3.188   2.761   0.805 -0.1149  0.6203 -0.1496
   44TCq2    H3  682   3.179   2.533   0.466 -0.4580 -1.2543 -0.1644
   44TCq2    H4  683   3.416   2.386   0.782  2.5663  2.2149  0.5709
   45TMC2    C1  684   0.035   4.233   9.179  0.3598 -0.1523  0.0945
   45TMC2    C2  685   0.027   4.196   9.050  0.5459  0.9280 -0.1812
   45TMC2    C3  686   0.078   4.274   8.953 -0.7450  0.1827  0.2390
   45TMC2    C4  687   0.096   4.349   9.218 -0.3211  0.6381 -0.4050
   45TMC2    C5  688   0.143   4.428   9.124  0.2314 -0.1967  0.0292
   45TMC2    C6  689   0.139   4.392   8.988  1.3029  0.0362 -0.1301
   45TMC2     C  690   4.719   4.127   9.270 -0.5931 -0.3291  0.3633
   45TMC2     O  691   0.058   4.122   9.374 -0.5990 -0.2917 -0.2117
   45TMC2     H  692   4.702   4.104   9.019  2.2933 -0.7155  2.0080
   45TMC2    H1  693   0.092   4.376   9.323  0.3365  4.0566 -1.2493
   45TMC2    H2  694   0.190   4.450   8.911  1.3405  0.0865 -0.0679
   45TMC2    C7  695   0.201   4.553   9.152 -0.0321  0.4023 -0.2345
   45TMC2    C8  696   0.073   4.253   8.812 -0.1612  0.7946 -0.2572
   45TMC2    O1  697   0.234   4.623   9.054  0.0873  0.0386 -0.1953
   45TMC2    O2  698   0.064   4.349   8.733  0.4703 -0.4998 -0.1772
   45TMC2    O5  699   0.014   4.133   8.786  0.0822 -0.6857  0.3618
   45TMC2    H5  700   0.054   4.057   8.834  2.4768  0.5874  0.3443
   46MPD2     C  701   4.571   3.904   9.408 -0.7414 -0.4158 -0.6491
   46MPD2    C1  702   4.536   3.961   9.294  0.0293  0.6153 -0.0078
   46MPD2    C2  703   4.428   3.910   9.226  0.3058 -0.8926  0.0273
   46MPD2    C3  704   4.355   3.800   9.272 -0.3471 -0.2892  0.3337
   46MPD2    C4  705   4.399   3.735   9.386 -0.4597 -0.5905 -0.1526
   46MPD2    C5  706   4.507   3.785   9.453  0.5027  0.4929 -0.0831
   46MPD2     H  707   4.392   3.951   9.132 -1.1892  0.9460  1.3976
   46MPD2    H1  708   4.343   3.647   9.416  1.1675 -1.7745 -0.5486
   46MPD2    H2  709   4.655   3.942   9.466 -1.3062 -1.7543  1.0436
   46MPD2    H3  710   4.533   3.737   9.546 -2.0091 -2.3448 -0.8660
   46MPD2     N  711   4.247   3.758   9.191 -0.3114 -0.6846 -0.2644
   46MPD2    H5  712   4.219   3.815   9.112 -0.3323 -1.5936 -0.9164
   46MPD2    N1  713   4.604   4.063   9.226  0.0287  0.5859  0.6333
   46MPD2    H7  714   4.561   4.100   9.142  0.4920  0.6134  0.4072
   47TMC2    C1  715   2.470   0.510   9.146 -0.2438  0.0419  0.3147
   47TMC2    C2  716   2.488   0.413   9.041  0.0259  0.3596 -0.0032
   47TMC2    C3  717   2.376   0.376   8.968  0.3803  0.3177 -0.1411
   47TMC2    C4  718   2.346   0.538   9.193  0.6863 -0.3273 -0.2692
   47TMC2    C5  719   2.237   0.485   9.127 -0.0092  0.8814  0.3726
   47TMC2    C6  720   2.250   0.406   9.014  0.0661  0.7686 -0.4204
   47TMC2     C  721   2.576   0.532   9.239 -0.8177  0.1288  0.2385
   47TMC2     O  722   2.570   0.624   9.318  0.3190 -0.2964  0.0172
   47TMC2     H  723   2.584   0.387   8.999 -0.5343  0.6071 -1.4291
   47TMC2    H1  724   2.334   0.603   9.279 -0.8248 -1.4246  0.3610
   47TMC2    H2  725   2.165   0.368   8.959  0.5738 -2.6002  1.1100
   47TMC2    C7  726   2.118   0.479   9.204  0.1533 -0.9305 -0.2164
   47TMC2    C8  727   2.395   0.296   8.848 -0.3484  0.1123  0.8794
   47TMC2    O1  728   2.130   0.524   9.319  0.0043  0.5853  0.1494
   47TMC2    O2  729   2.495   0.305   8.779  0.0960  0.5210 -0.5558
   47TMC2    O5  730   2.310   0.189   8.853  0.2210 -0.6001 -0.2752
   47TMC2    H5  731   2.246   0.192   8.927  2.0400  0.5664  1.2148
   48MPD2     C  732   2.836   0.493   9.387 -0.0627 -0.1369 -0.1534
   48MPD2    C1  733   2.761   0.394   9.329 -0.3107  0.5126 -0.6479
   48MPD2    C2  734   2.795   0.259   9.328  0.3218  0.6973 -0.3070
   48MPD2    C3  735   2.919   0.225   9.393 -0.0969  0.2119 -0.0760
   48MPD2    C4  736   2.988   0.324   9.459 -0.3696 -0.5405 -0.6969
   48MPD2    C5  737   2.943   0.455   9.460 -0.0249 -0.0105 -0.2449
   48MPD2     H  738   2.733   0.185   9.279 -0.3013  1.1757 -0.2551
   48MPD2    H1  739   3.085   0.308   9.504  0.3526  0.6237 -1.8204
   48MPD2    H2  740   2.818   0.597   9.362 -1.2589 -1.0351 -3.0294
   48MPD2    H3  741   3.006   0.534   9.500  0.6713 -0.1192 -1.1203
   48MPD2     N  742   2.951   0.090   9.387 -0.0838  0.4636  0.3288
   48MPD2    H5  743   2.880   0.033   9.341  1.2814 -0.4745 -0.6076
   48MPD2    N1  744   2.645   0.418   9.251 -0.0061  0.1034 -0.0574
   48MPD2    H7  745   2.600   0.340   9.204  1.7325 -0.4132 -0.8832
   49MPD2     C  746   0.593   1.751  10.082  0.0519  1.0484  0.2970
   49MPD2    C1  747   0.460   1.734  10.066 -0.6984  0.3180 -0.2739
   49MPD2    C2  748   0.375   1.776  10.166 -0.2341 -0.0624 -0.0989
   49MPD2    C3  749   0.419   1.844  10.277  0.7384 -0.5600 -0.4472
   49MPD2    C4  750   0.557   1.857  10.294  0.7847  0.3869 -0.6111
   49MPD2    C5  751   0.636   1.814  10.196  0.0090  0.2775  0.3198
   49MPD2     H  752   0.269   1.773  10.145 -0.4480 -3.0217  1.4638
   49MPD2    H1  753   0.603   1.900  10.382 -1.7602  1.0849  0.3807
   49MPD2    H2  754   0.673   1.717  10.017 -0.2986 -1.7079  1.3148
   49MPD2    H3  755   0.744   1.816  10.209  0.1738 -3.0307 -0.7593
   49MPD2     N  756   0.337   1.881  10.386 -0.1783  0.2698  0.1491
   49MPD2    H5  757   0.378   1.928  10.466  3.4399 -1.6023 -0.6277
   49MPD2    N1  758   0.409   1.657   9.961 -0.1320  0.2103 -0.2678
   49MPD2    H7  759   0.310   1.642   9.944 -0.1062  0.0759 -0.2957
   50TCq2    C1  760   0.477   1.602   9.853  0.8351  0.0084 -0.2367
   50TCq2    O2  761   0.592   1.615   9.820  0.0089 -0.6494 -0.4735
   50TCq2    C2  762   0.386   1.505   9.795  0.6273 -0.1308 -0.6892
   50TCq2    C3  763   0.411   1.467   9.663 -0.4642 -0.0879  0.1960
   50TCq2    C4  764   0.333   1.377   9.600 -0.3110  0.2063 -0.0959
   50TCq2    C5  765   0.231   1.308   9.668  0.6241 -0.9898  0.0416
   50TCq2    C6  766   0.236   1.330   9.804  0.6459 -0.2618  0.3495
   50TCq2    C7  767   0.306   1.424   9.875  0.0028  0.1782 -0.3314
   50TCq2    C8  768   0.127   1.279   9.885  0.3334 -0.3430  0.4223
   50TCq2    O4  769   0.136   1.276  10.007  0.0228 -0.5634 -0.1165
   50TCq2    C9  770   0.353   1.334   9.464  0.1036 -0.4801  0.6243
   50TCq2    O5  771   0.437   1.397   9.399  0.5326 -0.1499  0.7078
   50TCq2    O6  772   0.279   1.238   9.424 -0.3020  0.6157  0.1726
   50TCq2    H2  773   0.480   1.527   9.604  0.7024 -1.1539  0.4770
   50TCq2    H3  774   0.170   1.234   9.617 -0.2756 -0.8963  0.9818
   50TCq2    H4  775   0.296   1.437   9.982  1.7056  0.3453 -0.1816
   51MPD2     C  776   0.002   0.839   0.878 -0.6072 -0.6417 -0.0909
   51MPD2    C1  777   0.102   0.763   0.933  0.0375 -0.0616 -0.2868
   51MPD2    C2  778   0.212   0.812   1.005  0.4892  0.1083  0.0808
   51MPD2    C3  779   0.222   0.949   1.020  0.0201  0.0012  0.2241
   51MPD2    C4  780   0.126   1.031   0.960  0.4182 -0.0965 -0.4945
   51MPD2    C5  781   0.015   0.975   0.891  0.1941 -0.5157  0.1476
   51MPD2     H  782   0.274   0.744   1.063  0.0298 -0.5279 -0.1687
   51MPD2    H1  783   0.134   1.138   0.975 -1.6398  0.1216 -1.0144
   51MPD2    H2  784   4.632   0.806   0.833 -0.1740 -0.4585 -1.1296
   51MPD2    H3  785   4.661   1.039   0.853 -0.5867 -3.1302 -2.6213
   51MPD2     N  786   0.322   1.016   1.093  0.2608  0.2670  0.3864
   51MPD2    H5  787   0.316   1.116   1.111  0.6392  0.7301 -2.1368
   51MPD2    N1  788   0.101   0.626   0.923  0.1175  0.5977  0.0532
   51MPD2    H7  789   0.157   0.569   0.985  0.0492  0.2150 -0.2388
   52TCq2    C1  790   0.437   0.949   1.129  0.2504 -0.0197  0.3672
   52TCq2    O2  791   0.481   0.840   1.101 -0.5614  0.1019  0.3839
   52TCq2    C2  792   0.526   1.046   1.194  0.0872 -0.4740 -0.5480
   52TCq2    C3  793   0.632   0.986   1.269  0.0200  0.2084 -0.1836
   52TCq2    C4  794   0.729   1.065   1.324 -0.2853 -0.1113  0.6856
   52TCq2    C5  795   0.738   1.199   1.292 -0.4282  0.1152  0.6485
   52TCq2    C6  796   0.631   1.252   1.224 -0.5934  0.0022  0.3968
   52TCq2    C7  797   0.531   1.178   1.165 -0.7059 -0.8083 -0.2367
   52TCq2    C8  798   0.611   1.397   1.225  0.3835 -0.2737  0.3436
   52TCq2    O4  799   0.711   1.460   1.247 -0.3242 -0.4787 -0.5184
   52TCq2    C9  800   0.839   0.998   1.389 -0.4341 -0.9563 -0.1362
   52TCq2    O5  801   0.946   1.070   1.409  0.7836 -0.5035 -0.8499
   52TCq2    O6  802   0.815   0.890   1.453  0.1968 -0.4245 -0.4592
   52TCq2    H2  803   0.641   0.879   1.286 -0.0395  0.6758  2.7920
   52TCq2    H3  804   0.814   1.260   1.338 -1.6783 -1.5752  4.9405
   52TCq2    H4  805   0.457   1.226   1.102 -1.1382  0.4882  1.2498
   53TMC2    C1  806   1.283   3.807  12.093  0.1062  0.0615 -0.1294
   53TMC2    C2  807   1.404   3.817  12.151 -0.0838 -0.0879 -0.7615
   53TMC2    C3  808   1.413   3.843  12.285 -0.1081 -0.0934 -1.2984
   53TMC2    C4  809   1.174   3.824  12.171 -0.2866  0.6568  0.2887
   53TMC2    C5  810   1.178   3.836  12.306  0.1008 -0.0264 -0.3810
   53TMC2    C6  811   1.300   3.856  12.365 -0.6711 -0.4232 -0.4844
   53TMC2     C  812   1.279   3.793  11.951  0.3691  0.3376  0.4631
   53TMC2     O  813   1.376   3.739  11.895 -0.3040 -0.3259  0.3569
   53TMC2     H  814   1.491   3.825  12.087 -0.9274  1.1936 -1.7339
   53TMC2    H1  815   1.081   3.777  12.139  0.3709  0.3632 -1.1840
   53TMC2    H2  816   1.299   3.878  12.471 -0.7713 -1.8941 -0.1665
   53TMC2    C7  817   1.058   3.884  12.376  0.0031  0.0609 -0.2982
   53TMC2    C8  818   1.551   3.828  12.334 -0.2843 -0.3684 -0.0284
   53TMC2    O1  819   0.962   3.906  12.304 -0.2286 -0.0793 -0.2257
   53TMC2    O2  820   1.638   3.764  12.270  0.6257  0.3388 -0.3504
   53TMC2    O5  821   1.542   3.842  12.463 -0.0476  0.4396 -0.0960
   53TMC2    H5  822   1.491   3.923  12.484  0.4187  0.7705 -0.2420
   54MPD2     C  823   1.202   3.788  11.657  0.1150  0.0026  0.9106
   54MPD2    C1  824   1.122   3.830  11.757  0.1331  0.2516  0.4827
   54MPD2    C2  825   0.989   3.853  11.734  0.2411  0.1039  0.5557
   54MPD2    C3  826   0.934   3.842  11.611 -0.0464 -0.0196 -0.1924
   54MPD2    C4  827   1.016   3.809  11.503 -0.1338 -0.7101  0.7729
   54MPD2    C5  828   1.146   3.765  11.528  0.0128 -0.0936 -0.5996
   54MPD2     H  829   0.930   3.879  11.821 -2.2771  1.4855 -1.5859
   54MPD2    H1  830   0.966   3.792  11.408 -0.8077  0.9305  0.8387
   54MPD2    H2  831   1.306   3.765  11.677  0.2454  0.1440  0.3948
   54MPD2    H3  832   1.205   3.717  11.450  2.4703 -0.6600  1.6324
   54MPD2     N  833   0.802   3.869  11.577  0.2867 -0.3349 -0.8556
   54MPD2    H5  834   0.772   3.852  11.481 -0.5909 -0.0379 -0.6298
   54MPD2    N1  835   1.160   3.836  11.897  0.0320  0.1687  0.5524
   54MPD2    H7  836   1.094   3.864  11.968  1.3925 -0.4386  2.0678
   55MPD2     C  837   1.504   2.076  17.330  0.3874  0.1435  0.1379
   55MPD2    C1  838   1.449   1.948  17.366 -0.0146  0.3381 -0.2053
   55MPD2    C2  839   1.325   1.942  17.415  0.2774  0.1142  0.1986
   55MPD2    C3  840   1.253   2.054  17.427 -0.7953  0.4649 -0.1859
   55MPD2    C4  841   1.297   2.178  17.383 -0.2454  0.1215  0.5783
   55MPD2    C5  842   1.427   2.186  17.343 -0.0202 -0.4860 -0.3482
   55MPD2     H  843   1.296   1.850  17.465 -1.3954  0.6726  0.2618
   55MPD2    H1  844   1.231   2.264  17.383 -0.3506  0.0443 -0.7833
   55MPD2    H2  845   1.609   2.083  17.302 -0.1401  2.5103 -1.2684
   55MPD2    H3  846   1.468   2.280  17.309  2.1664 -0.9520  1.0282
   55MPD2     N  847   1.124   2.041  17.479  0.3843 -0.5110 -0.6364
   55MPD2    H5  848   1.083   1.950  17.495 -1.1403  0.0642 -1.2454
   55MPD2    N1  849   1.541   1.840  17.380 -0.2650  0.0178 -0.0708
   55MPD2    H7  850   1.638   1.853  17.354  0.1775  1.5736  2.3785
   56TCq2    C1  851   1.519   1.719  17.444  0.8635 -0.1688 -0.4184
   56TCq2    O2  852   1.419   1.672  17.496 -0.0392 -0.2003  0.3372
   56TCq2    C2  853   1.631   1.627  17.435  0.3659  0.3485  0.0859
   56TCq2    C3  854   1.705   1.619  17.323 -0.7064 -0.1303 -0.1859
   56TCq2    C4  855   1.777   1.504  17.301 -0.3009  0.4074 -0.5331
   56TCq2    C5  856   1.787   1.412  17.403 -0.2231  0.5551  0.1811
   56TCq2    C6  857   1.733   1.438  17.523 -0.0641 -0.4737 -0.0022
   56TCq2    C7  858   1.651   1.548  17.547  0.1598 -0.2259 -0.3369
   56TCq2    C8  859   1.753   1.331  17.625  0.2980 -0.4694  0.3227
   56TCq2    O4  860   1.787   1.218  17.591 -0.5778  0.7587  0.2892
   56TCq2    C9  861   1.836   1.482  17.173  0.2651 -0.3025  0.4113
   56TCq2    O5  862   1.889   1.373  17.143 -0.3463  0.3489 -0.5230
   56TCq2    O6  863   1.799   1.570  17.092  0.6759 -0.2530 -0.0367
   56TCq2    H2  864   1.687   1.686  17.240 -0.2180 -0.9600 -0.9497
   56TCq2    H3  865   1.831   1.315  17.381  0.6086  0.7232  1.1393
   56TCq2    H4  866   1.602   1.577  17.640  1.2367  1.6014 -0.3299
   57TMC2    C1  867   1.084   2.915  13.667  0.4063  0.3342  0.4464
   57TMC2    C2  868   1.115   2.872  13.796  0.6523 -0.0055  0.5506
   57TMC2    C3  869   1.243   2.817  13.797 -0.4899 -0.3342  0.0217
   57TMC2    C4  870   1.178   2.929  13.566  0.1626 -0.5294  0.3735
   57TMC2    C5  871   1.299   2.875  13.580 -0.7919  0.4608  0.1985
   57TMC2    C6  872   1.327   2.806  13.695 -0.4895  0.7572  0.3245
   57TMC2     C  873   0.955   2.969  13.634 -1.0173 -1.1401 -0.2049
   57TMC2     O  874   0.940   3.008  13.519  0.2766  0.4143 -0.0757
   57TMC2     H  875   1.051   2.887  13.882 -0.6295 -0.0058 -0.4000
   57TMC2    H1  876   1.154   2.970  13.469  0.8762 -0.9732  0.0094
   57TMC2    H2  877   1.423   2.761  13.717 -0.1448  2.1033  1.5323
   57TMC2    C7  878   1.385   2.880  13.462 -0.0793 -0.0144 -0.2069
   57TMC2    C8  879   1.278   2.745  13.917 -0.3266 -0.5348 -1.2435
   57TMC2    O1  880   1.375   2.976  13.386 -0.3343  0.1936  0.0096
   57TMC2    O2  881   1.342   2.640  13.928  0.0618 -0.9880  0.1817
   57TMC2    O5  882   1.244   2.830  14.014 -0.5098  0.2641 -0.4963
   57TMC2    H5  883   1.196   2.911  13.986  1.6218  1.7975  0.2343
   58MPD2     C  884   0.446   2.945  13.694 -0.2982 -0.1882 -0.0104
   58MPD2    C1  885   0.500   2.931  13.817 -0.8696  0.0955 -0.2837
   58MPD2    C2  886   0.641   2.945  13.820  0.2103  0.2808 -0.2788
   58MPD2    C3  887   0.723   2.970  13.708 -0.5966 -0.0785  0.3479
   58MPD2    C4  888   0.664   2.991  13.589  0.0034 -0.4764  0.4687
   58MPD2    C5  889   0.524   2.974  13.589 -0.4222  0.4960  0.7052
   58MPD2     H  890   0.691   2.924  13.913 -1.9402 -0.4107  0.7257
   58MPD2    H1  891   0.712   3.012  13.494  0.0844 -2.3323  0.0868
   58MPD2    H2  892   0.340   2.957  13.673  0.8757  1.8877 -4.9288
   58MPD2    H3  893   0.462   2.979  13.501  1.5304 -2.7513 -0.8572
   58MPD2     N  894   0.863   2.951  13.732 -0.1287  0.2625  0.0500
   58MPD2    H5  895   0.891   2.921  13.825 -1.0339  0.7475  0.4816
   58MPD2    N1  896   0.423   2.910  13.929  0.1929  0.4776 -0.0327
   58MPD2    H7  897   0.470   2.919  14.018  1.1697  0.4687 -0.5413
   59MPD2     C  898   3.127   2.847  13.187 -0.7231 -0.4079 -0.0002
   59MPD2    C1  899   3.250   2.852  13.124  0.0641 -0.3399  0.5382
   59MPD2    C2  900   3.355   2.918  13.182 -0.6091  0.1341 -0.0169
   59MPD2    C3  901   3.332   2.969  13.315  0.6969 -0.0349  0.3907
   59MPD2    C4  902   3.216   2.959  13.382 -0.2326 -0.7833  0.5088
   59MPD2    C5  903   3.107   2.902  13.314 -0.3282  0.8095  0.2344
   59MPD2     H  904   3.451   2.913  13.132 -1.8030 -1.4620 -2.1291
   59MPD2    H1  905   3.197   3.007  13.478 -0.9839 -1.5252  0.7308
   59MPD2    H2  906   3.044   2.797  13.137 -1.4939  1.6069 -0.7559
   59MPD2    H3  907   3.016   2.902  13.373 -0.1110  0.9748  0.5732
   59MPD2     N  908   3.423   3.057  13.376  0.3578  0.1760 -0.1597
   59MPD2    H5  909   3.393   3.088  13.468 -1.2141  0.6707 -0.8376
   59MPD2    N1  910   3.254   2.793  12.999  0.0302  0.0313 -0.7515
   59MPD2    H7  911   3.180   2.728  12.975 -0.3778  0.0598  0.4717
   60TCq2    C1  912   3.356   2.803  12.910 -0.0442 -0.1038 -0.2896
   60TCq2    O2  913   3.438   2.896  12.905 -0.1536 -0.3422  0.2757
   60TCq2    C2  914   3.338   2.729  12.782 -0.0705 -0.0084  0.7575
   60TCq2    C3  915   3.268   2.616  12.770 -0.4776  0.5148  0.0264
   60TCq2    C4  916   3.276   2.539  12.654  0.0727 -0.3272 -0.4087
   60TCq2    C5  917   3.355   2.576  12.549 -0.0935 -0.1091 -0.0095
   60TCq2    C6  918   3.427   2.693  12.567  0.0084 -0.1267  0.4270
   60TCq2    C7  919   3.420   2.775  12.678 -0.0458  0.1654  0.6468
   60TCq2    C8  920   3.511   2.721  12.460  0.4506  0.7231 -0.5763
   60TCq2    O4  921   3.566   2.621  12.415 -0.1776  0.4092 -0.0688
   60TCq2    C9  922   3.196   2.418  12.647 -0.2890  0.7246  0.4774
   60TCq2    O5  923   3.091   2.417  12.718 -0.7156 -0.0399 -0.2002
   60TCq2    O6  924   3.222   2.340  12.551 -0.7021 -0.1016  0.3965
   60TCq2    H2  925   3.212   2.571  12.851 -0.6562  1.1719  0.2720
   60TCq2    H3  926   3.365   2.510  12.463  1.5674  1.7884 -1.2863
   60TCq2    H4  927   3.487   2.860  12.688  0.4910 -0.5206  3.0109
   61MPD2     C  928   1.934   0.363  15.552 -0.0255 -0.3884  0.3521
   61MPD2    C1  929   2.069   0.341  15.576  0.1295  0.4540 -0.1043
   61MPD2    C2  930   2.161   0.381  15.474 -0.0393  0.0612 -0.3592
   61MPD2    C3  931   2.119   0.432  15.352 -0.5346  0.1146 -0.5195
   61MPD2    C4  932   1.985   0.459  15.341  0.0386  1.0066 -0.0705
   61MPD2    C5  933   1.895   0.423  15.433 -0.1149 -0.2045 -1.0975
   61MPD2     H  934   2.266   0.362  15.494  0.4423  2.8736 -0.1944
   61MPD2    H1  935   1.946   0.491  15.245  2.4405  0.8174 -1.1117
   61MPD2    H2  936   1.859   0.322  15.618 -1.6755 -1.2247 -2.0795
   61MPD2    H3  937   1.788   0.438  15.418 -0.3855  0.2518  1.3906
   61MPD2     N  938   2.205   0.463  15.245  0.5643  0.9041 -0.6584
   61MPD2    H5  939   2.154   0.498  15.165  1.3078  3.3503 -0.0740
   61MPD2    N1  940   2.124   0.281  15.695  0.1386 -0.5131  0.0078
   61MPD2    H7  941   2.225   0.279  15.702  0.1375  0.6810  0.2760
   62TCq2    C1  942   2.061   0.221  15.798  0.3376 -0.1084  0.2576
   62TCq2    O2  943   1.942   0.225  15.832  0.1548 -0.1636  0.4308
   62TCq2    C2  944   2.148   0.173  15.902 -0.1176 -0.4349  0.5130
   62TCq2    C3  945   2.123   0.048  15.957  0.9462  0.4863  0.0264
   62TCq2    C4  946   2.230   4.688  15.967  0.4613  0.5168  0.9597
   62TCq2    C5  947   2.355   0.006  15.955 -0.4069  0.0246  0.8740
   62TCq2    C6  948   2.382   0.134  15.920  0.1664  0.4919  0.4067
   62TCq2    C7  949   2.277   0.213  15.889  0.4081 -0.6038 -0.0661
   62TCq2    C8  950   2.494   0.169  15.850 -1.1255  0.0069 -0.5786
   62TCq2    O4  951   2.478   0.216  15.742 -0.0524  0.3120 -0.7005
   62TCq2    C9  952   2.210   4.545  15.985  0.4257 -0.4108  0.4621
   62TCq2    O5  953   2.306   4.473  15.953  0.1455 -0.1485 -0.7315
   62TCq2    O6  954   2.090   4.509  16.010 -0.1989  0.1118  0.0740
   62TCq2    H2  955   2.019   0.016  15.958  1.0025  0.2730 -0.9254
   62TCq2    H3  956   2.432   4.653  15.962  1.1624  1.5292  0.3009
   62TCq2    H4  957   2.298   0.304  15.835  0.2304  0.3740  1.5096
   63TMC2    C1  958   3.132   4.472  10.720 -0.6204 -0.1745 -0.4934
   63TMC2    C2  959   3.257   4.486  10.781  0.4025 -0.1167 -0.1345
   63TMC2    C3  960   3.346   4.574  10.718 -0.4193 -0.3713  0.6428
   63TMC2    C4  961   3.103   4.533  10.596 -0.3051 -0.8627 -0.3020
   63TMC2    C5  962   3.204   4.603  10.536 -0.3291 -0.0137  0.1230
   63TMC2    C6  963   3.321   4.629  10.597 -0.4025 -0.3061  0.4455
   63TMC2     C  964   3.022   4.418  10.795 -0.2596  0.0129 -0.3702
   63TMC2     O  965   3.041   4.408  10.914  0.3656 -0.1154 -0.0577
   63TMC2     H  966   3.266   4.443  10.880  1.7086 -0.0818 -0.2383
   63TMC2    H1  967   3.007   4.520  10.548 -0.0827  1.5965 -1.4040
   63TMC2    H2  968   3.403   4.687  10.556 -0.6456  1.3157  2.2434
   63TMC2    C7  969   3.162   4.689  10.438  0.1564  0.2406 -0.0692
   63TMC2    C8  970   3.447   4.634  10.800  0.5027  0.3153  0.2204
   63TMC2    O1  971   3.067   4.651  10.369 -1.0653 -0.3725 -0.7470
   63TMC2    O2  972   3.478   0.031  10.808 -0.0115 -0.0381 -0.5310
   63TMC2    O5  973   3.483   4.543  10.894  0.2806 -0.1229  0.0797
   63TMC2    H5  974   3.456   4.454  10.862 -3.4356  0.5201  1.4836
   64MPD2     C  975   2.600   4.146  10.860 -0.3701 -0.2814  0.3052
   64MPD2    C1  976   2.649   4.113  10.738  0.3682  0.3003 -0.1681
   64MPD2    C2  977   2.767   4.177  10.696 -0.0159 -0.2741  0.6484
   64MPD2    C3  978   2.832   4.268  10.772  0.3959  0.4159 -0.2341
   64MPD2    C4  979   2.788   4.290  10.898  0.1090 -0.3199 -0.1013
   64MPD2    C5  980   2.667   4.234  10.939  0.6022  0.8426 -0.3405
   64MPD2     H  981   2.799   4.150  10.596 -0.6106 -1.3427  0.7469
   64MPD2    H1  982   2.829   4.365  10.965 -2.9562  1.4770 -0.2739
   64MPD2    H2  983   2.511   4.101  10.902  0.5511 -0.4077  2.1086
   64MPD2    H3  984   2.628   4.263  11.036 -0.6242 -0.2007 -0.5168
   64MPD2     N  985   2.946   4.340  10.715  0.0757 -0.2752  0.2139
   64MPD2    H5  986   2.972   4.331  10.617  0.1542 -1.8487  0.3839
   64MPD2    N1  987   2.593   3.999  10.666  0.5148  0.2471 -0.4740
   64MPD2    H7  988   2.652   3.969  10.589  1.1665  2.3947 -0.8251
   65MPD2     C  989   3.349   3.844  16.114  0.1173  0.5446  0.2215
   65MPD2    C1  990   3.427   3.815  16.005  0.1793 -0.9187 -0.3308
   65MPD2    C2  991   3.396   3.720  15.911 -0.4151 -0.0906 -0.7725
   65MPD2    C3  992   3.292   3.639  15.934  0.3415  0.3630 -1.0857
   65MPD2    C4  993   3.208   3.660  16.045 -0.0053  0.0094 -0.8563
   65MPD2    C5  994   3.237   3.763  16.129 -0.6961 -0.1756  0.6765
   65MPD2     H  995   3.470   3.710  15.833 -2.0863 -0.6951 -2.2784
   65MPD2    H1  996   3.113   3.608  16.051 -0.0894  0.4578  1.6005
   65MPD2    H2  997   3.383   3.908  16.195 -1.5420  0.3323  1.1106
   65MPD2    H3  998   3.186   3.777  16.224 -1.3990 -1.1926  0.4412
   65MPD2     N  999   3.260   3.530  15.843 -0.2050  0.2735  0.2593
   65MPD2    H5 1000   3.186   3.466  15.865  0.3115 -0.7512 -0.9837
   65MPD2    N1 1001   3.543   3.883  15.966 -0.3413  0.5268  0.1887
   65MPD2    H7 1002   3.590   3.861  15.879  0.4753 -3.0810  1.5191
   66TCq2    C1 1003   3.592   3.993  16.031  0.0911  0.6418 -0.3741
   66TCq2    O2 1004   3.559   4.056  16.127  0.5150 -0.5656 -0.7841
   66TCq2    C2 1005   3.698   4.054  15.946 -0.3198 -0.0078 -0.2170
   66TCq2    C3 1006   3.730   3.989  15.831  0.2575 -0.0188 -1.4214
   66TCq2    C4 1007   3.809   4.056  15.740 -0.1425  0.1792  0.2440
   66TCq2    C5 1008   3.852   4.190  15.765 -0.6597 -0.5159  0.1660
   66TCq2    C6 1009   3.826   4.253  15.881 -0.0902 -0.3508 -0.2812
   66TCq2    C7 1010   3.744   4.185  15.972 -0.0857  0.7664 -0.3877
   66TCq2    C8 1011   3.837   4.396  15.869  0.9530  0.4713  0.8877
   66TCq2    O4 1012   3.927   4.439  15.798 -0.4103 -0.3529  0.2307
   66TCq2    C9 1013   3.835   3.988  15.610 -0.4920 -0.0770  0.0245
   66TCq2    O5 1014   3.779   3.877  15.594  0.3011 -0.5585  0.2064
   66TCq2    O6 1015   3.881   4.060  15.514 -0.2804 -0.7687 -0.5889
   66TCq2    H2 1016   3.727   3.882  15.815 -1.9028 -0.4266  1.7748
   66TCq2    H3 1017   3.916   4.244  15.697  0.2963 -2.5433 -0.5195
   66TCq2    H4 1018   3.720   4.238  16.064  0.5263 -0.8014  0.6710
   67MPD2     C 1019   3.256   3.117  14.305 -0.5744  0.2351  0.2411
   67MPD2    C1 1020   3.214   3.229  14.365  0.3464  0.2043 -0.1123
   67MPD2    C2 1021   3.088   3.273  14.323  0.1136  0.4338  0.0623
   67MPD2    C3 1022   3.014   3.206  14.229  0.1965  0.3775  0.2823
   67MPD2    C4 1023   3.063   3.085  14.181 -0.0280 -0.6562 -0.0960
   67MPD2    C5 1024   3.187   3.044  14.215 -0.4166  0.0479  0.1128
   67MPD2     H 1025   3.051   3.367  14.364  0.0172  0.1151  0.7009
   67MPD2    H1 1026   3.000   3.018  14.123 -0.6343  0.3120 -0.5427
   67MPD2    H2 1027   3.359   3.089  14.325 -0.4168  0.9922  0.5283
   67MPD2    H3 1028   3.234   2.952  14.180  1.1106  0.0868  2.0605
   67MPD2     N 1029   2.890   3.249  14.180  0.4350  0.0880 -0.1714
   67MPD2    H5 1030   2.847   3.199  14.103  0.9165  1.3238 -1.2391
   67MPD2    N1 1031   3.274   3.282  14.472  0.2170  0.2465 -0.5056
   67MPD2    H7 1032   3.220   3.349  14.527  1.0410  0.0854  0.4935
   68TCq2    C1 1033   3.388   3.241  14.540  0.4863  0.0114 -0.3416
   68TCq2    O2 1034   3.462   3.148  14.517 -0.6031 -0.3292 -0.4523
   68TCq2    C2 1035   3.423   3.318  14.658 -0.2949  0.5458 -0.0297
   68TCq2    C3 1036   3.363   3.438  14.666  0.3466 -0.7912  0.5060
   68TCq2    C4 1037   3.388   3.510  14.779 -0.4264 -0.9102  0.3977
   68TCq2    C5 1038   3.458   3.454  14.883  0.1669 -0.4423  1.6920
   68TCq2    C6 1039   3.513   3.331  14.877  0.7308 -0.1912  0.3952
   68TCq2    C7 1040   3.495   3.257  14.763  0.9796 -0.5770 -0.1859
   68TCq2    C8 1041   3.641   3.307  14.936 -0.0682 -0.5229 -0.7283
   68TCq2    O4 1042   3.712   3.221  14.881 -0.4094 -0.7253  0.2513
   68TCq2    C9 1043   3.332   3.640  14.794 -0.4037 -0.3716 -0.6229
   68TCq2    O5 1044   3.347   3.707  14.901  0.8132 -0.0577  0.1862
   68TCq2    O6 1045   3.276   3.694  14.698 -0.2668 -0.2888 -0.1914
   68TCq2    H2 1046   3.310   3.482  14.582  0.5806 -0.6474  0.4339
   68TCq2    H3 1047   3.483   3.526  14.960  1.9207 -0.4164  1.0957
   68TCq2    H4 1048   3.527   3.153  14.756 -2.9987 -1.5767 -2.8555
   69TMC2    C1 1049   4.677   4.610  11.966  0.2595 -0.2086  0.1477
   69TMC2    C2 1050   4.545   4.613  11.930 -0.1241  0.3677  0.1750
   69TMC2    C3 1051   4.517   4.623  11.796  0.0820  0.3355  0.1123
   69TMC2    C4 1052   0.055   4.585  11.876  0.0526 -0.1508  0.2266
   69TMC2    C5 1053   0.026   4.585  11.745 -0.2082 -0.3433  0.4017
   69TMC2    C6 1054   4.617   4.606  11.696 -0.5216  0.6106  0.4279
   69TMC2     C 1055   4.714   4.627  12.104  0.2849 -0.2312 -0.3252
   69TMC2     O 1056   4.628   4.612  12.193  0.4932  0.1354  0.2687
   69TMC2     H 1057   4.470   4.630  12.006 -2.1697  2.5051 -2.3430
   69TMC2    H1 1058   0.154   4.563  11.913 -0.0569 -0.7203  0.1724
   69TMC2    H2 1059   4.587   4.595  11.593 -0.5587 -0.9838  0.6039
   69TMC2    C7 1060   0.137   4.594  11.658  0.2061 -0.1778 -0.2875
   69TMC2    C8 1061   4.374   4.634  11.779  0.3064  0.0627  0.1058
   69TMC2    O1 1062   0.248   4.565  11.705  0.2012  0.1221 -0.0259
   69TMC2    O2 1063   4.294   4.594  11.866 -0.0018 -0.2896  0.6102
   69TMC2    O5 1064   4.350   4.656  11.647  0.8777 -0.2189 -0.1920
   69TMC2    H5 1065   4.427   4.679  11.590  0.0879  2.0749 -0.3589
   70MPD2     C 1066   0.296   0.070  12.210  0.3357 -0.7945  0.1413
   70MPD2    C1 1067   0.184   4.716  12.222 -0.7800 -0.0864 -0.2940
   70MPD2    C2 1068   0.164   4.656  12.351 -0.4149 -0.0889 -0.0983
   70MPD2    C3 1069   0.247   4.677  12.460 -0.3261 -0.2384 -0.1216
   70MPD2    C4 1070   0.358   0.040  12.444  0.2758 -0.0345 -0.7298
   70MPD2    C5 1071   0.373   0.101  12.322 -0.0023 -0.4991  0.0096
   70MPD2     H 1072   0.084   4.586  12.372  1.1105 -1.6525  0.4902
   70MPD2    H1 1073   0.430   0.045  12.525  0.2914  1.5783 -0.8429
   70MPD2    H2 1074   0.314   0.119  12.115 -1.7396 -0.7258 -0.2219
   70MPD2    H3 1075   0.458   0.169  12.317  1.1476 -1.8020  1.5179
   70MPD2     N 1076   0.236   4.605  12.587  0.4846 -0.2984  0.1919
   70MPD2    H5 1077   0.319   4.614  12.646  0.9436 -1.3128 -0.3000
   70MPD2    N1 1078   0.109   4.693  12.104  0.8213 -0.0839 -0.3824
   70MPD2    H7 1079   0.154   0.001  12.019  0.1183  0.9601 -0.3695
   71TMC2    C1 1080   2.084   0.848   1.509  0.0998  0.5946 -0.2165
   71TMC2    C2 1081   2.163   0.878   1.624 -0.6829 -0.1812 -1.0112
   71TMC2    C3 1082   2.096   0.956   1.710  0.0577 -0.0881 -0.1446
   71TMC2    C4 1083   1.956   0.879   1.487  0.4871 -0.6776 -0.3315
   71TMC2    C5 1084   1.896   0.954   1.580 -0.2200 -0.0485 -0.1827
   71TMC2    C6 1085   1.969   1.004   1.684 -0.3838  0.3704  0.5434
   71TMC2     C 1086   2.148   0.745   1.424  0.3302  0.0549 -0.5485
   71TMC2     O 1087   2.269   0.750   1.406 -0.4519 -0.6109  0.3284
   71TMC2     H 1088   2.240   0.805   1.647  0.6670  1.2593 -0.9872
   71TMC2    H1 1089   1.894   0.853   1.402 -0.6936 -1.5629  0.7986
   71TMC2    H2 1090   1.915   1.044   1.770 -0.3967  1.1731  0.1557
   71TMC2    C7 1091   1.747   0.976   1.586 -0.1826 -0.0762  0.0639
   71TMC2    C8 1092   2.149   0.952   1.839 -0.4900 -0.5265 -0.3237
   71TMC2    O1 1093   1.699   1.051   1.669  0.1706 -0.0027 -0.6923
   71TMC2    O2 1094   2.116   1.039   1.918 -0.5245  0.1274 -0.1309
   71TMC2    O5 1095   2.142   0.825   1.886 -0.1221  0.7022 -0.5925
   71TMC2    H5 1096   2.138   0.750   1.823  0.8561 -1.5253  1.9660
   72MPD2     C 1097   2.122   0.336   1.094 -0.1837  0.3252  0.8789
   72MPD2    C1 1098   2.221   0.429   1.115 -0.4141  0.2635  0.1253
   72MPD2    C2 1099   2.205   0.529   1.210  0.3772  0.4645 -0.0625
   72MPD2    C3 1100   2.092   0.534   1.292 -0.4776 -0.1857 -0.4651
   72MPD2    C4 1101   2.004   0.429   1.284 -0.2113  0.5554  0.0132
   72MPD2    C5 1102   2.021   0.330   1.192 -0.4366  0.9878 -1.0784
   72MPD2     H 1103   2.273   0.614   1.205  1.8893 -0.5954  2.4296
   72MPD2    H1 1104   1.924   0.423   1.357 -0.5798  0.8038 -0.3644
   72MPD2    H2 1105   2.123   0.257   1.020  0.1123  0.5239  0.6707
   72MPD2    H3 1106   1.941   0.257   1.179 -1.2108  1.3676  1.4450
   72MPD2     N 1107   2.064   0.643   1.386  0.1145  0.1242  0.2055
   72MPD2    H5 1108   1.971   0.649   1.426  0.6257 -3.6514  1.9900
   72MPD2    N1 1109   2.340   0.431   1.038 -0.0899 -0.2560  0.2799
   72MPD2    H7 1110   2.401   0.507   1.068 -0.8682  1.7278 -3.1432
   73TMC2    C1 1111   2.871   1.942  13.823  0.1411  0.8508 -0.5590
   73TMC2    C2 1112   2.784   1.955  13.922 -0.0409 -0.5391 -0.1011
   73TMC2    C3 1113   2.843   1.956  14.049  0.1182  0.4763  0.1326
   73TMC2    C4 1114   2.996   1.898  13.847  0.2481  0.8450 -0.1466
   73TMC2    C5 1115   3.046   1.901  13.976 -0.5183  0.2189 -0.6705
   73TMC2    C6 1116   2.969   1.919  14.088 -0.0602 -0.4769 -0.0409
   73TMC2     C 1117   2.853   2.006  13.694  0.3874 -0.5506  0.4500
   73TMC2     O 1118   2.957   2.026  13.636 -0.0936  0.1634 -0.2873
   73TMC2     H 1119   2.689   2.003  13.905 -0.3923 -0.7398  1.3107
   73TMC2    H1 1120   3.059   1.868  13.763 -0.2723 -1.3881  0.2497
   73TMC2    H2 1121   3.010   1.922  14.188  0.5152  2.2675 -0.3360
   73TMC2    C7 1122   3.173   1.974  13.976 -0.2846  0.7541  0.8243
   73TMC2    C8 1123   2.741   1.953  14.147  0.0318  0.2812 -0.2237
   73TMC2    O1 1124   3.257   1.946  14.056 -0.5280 -0.0355 -0.5393
   73TMC2    O2 1125   2.623   1.922  14.127  0.1484 -0.5479 -0.2243
   73TMC2    O5 1126   2.766   2.048  14.236 -0.7359  0.1954 -0.1559
   73TMC2    H5 1127   2.852   2.093  14.218  0.0121 -0.5448  1.5921
   74MPD2     C 1128   2.608   2.352  13.415  0.7680  0.5534  0.2978
   74MPD2    C1 1129   2.746   2.332  13.425 -0.0379  0.2509  0.2473
   74MPD2    C2 1130   2.793   2.222  13.491  0.9049  0.6833 -0.0442
   74MPD2    C3 1131   2.695   2.144  13.566 -0.2711  0.2422  0.8117
   74MPD2    C4 1132   2.559   2.169  13.555  0.0518 -0.1664 -0.3272
   74MPD2    C5 1133   2.519   2.267  13.478 -0.3025  0.0744 -0.0719
   74MPD2     H 1134   2.898   2.196  13.489  0.4748 -1.0360 -0.8998
   74MPD2    H1 1135   2.490   2.111  13.617 -0.5689  1.8388  0.8494
   74MPD2    H2 1136   2.563   2.437  13.365  1.0845 -0.0611 -1.0387
   74MPD2    H3 1137   2.413   2.290  13.468 -0.3818 -0.9720 -1.5580
   74MPD2     N 1138   2.725   2.047  13.669  0.2990  0.0243 -0.1985
   74MPD2    H5 1139   2.647   2.013  13.723 -0.1402 -0.3547 -1.0689
   74MPD2    N1 1140   2.831   2.427  13.370 -0.4644 -0.3947  0.2926
   74MPD2    H7 1141   2.786   2.500  13.315  0.4197  1.5285  2.0964
   75TCq2    C1 1142   2.805   3.331  14.249  1.0818 -0.9720  0.0521
   75TCq2    O2 1143   2.805   3.358  14.367  0.1693 -0.5534  0.2162
   75TCq2    C2 1144   2.697   3.396  14.173 -0.7447  0.1251  0.1842
   75TCq2    C3 1145   2.641   3.506  14.235  0.0874  0.0968  0.3219
   75TCq2    C4 1146   2.582   3.596  14.157  0.5188  0.0838  0.6337
   75TCq2    C5 1147   2.551   3.575  14.027  0.2754  0.0917 -0.8075
   75TCq2    C6 1148   2.603   3.468  13.966  0.5836  0.1350  0.0060
   75TCq2    C7 1149   2.679   3.375  14.038  0.3124  0.0774 -0.1770
   75TCq2    C8 1150   2.588   3.451  13.820  0.4868 -0.6515 -0.2190
   75TCq2    O4 1151   2.617   3.337  13.772  0.0344 -0.0035 -0.5574
   75TCq2    C9 1152   2.537   3.721  14.231  0.0916  0.3102 -0.4482
   75TCq2    O5 1153   2.495   3.820  14.163 -0.4633 -0.2463 -0.2012
   75TCq2    O6 1154   2.560   3.728  14.355  0.6218 -0.9069 -0.2599
   75TCq2    H2 1155   2.648   3.519  14.342  3.8778 -3.2992  0.4987
   75TCq2    H3 1156   2.509   3.654  13.965 -1.4974 -0.4006 -0.2509
   75TCq2    H4 1157   2.742   3.307  13.983  0.4246 -0.5482  0.7180
   76MPD2     C 1158   1.134   0.165  11.964 -0.5564 -0.1780 -0.5461
   76MPD2    C1 1159   1.149   0.055  11.886 -0.0604 -0.2510  0.8364
   76MPD2    C2 1160   1.246   4.689  11.925 -0.1380 -0.4941  0.4860
   76MPD2    C3 1161   1.312   4.693  12.042  0.3366  0.5808  0.0328
   76MPD2    C4 1162   1.305   0.086  12.114 -0.2167  0.0177 -0.0184
   76MPD2    C5 1163   1.208   0.175  12.075 -0.6603  0.1945  0.4151
   76MPD2     H 1164   1.265   4.603  11.863 -2.1380  0.0451 -0.8564
   76MPD2    H1 1165   1.354   0.109  12.208  1.4933 -1.0123 -0.6649
   76MPD2    H2 1166   1.057   0.241  11.959  0.8913  1.2521 -1.0766
   76MPD2    H3 1167   1.186   0.262  12.136 -0.6690  0.1170  0.5233
   76MPD2     N 1168   1.384   4.580  12.088  0.5366 -0.1962 -0.6587
   76MPD2    H5 1169   1.391   4.506  12.019  1.7471 -1.0600  0.4036
   76MPD2    N1 1170   1.077   0.037  11.763  0.2730 -0.1511  0.0818
   76MPD2    H7 1171   1.112   4.684  11.705 -1.8912 -0.4572 -0.7964
   77TCq2    C1 1172   1.439   4.568  12.217  0.1271 -0.2971 -0.5882
   77TCq2    O2 1173   1.398   4.617  12.324  0.5508 -0.3859 -0.1108
   77TCq2    C2 1174   1.466   4.430  12.241  0.0065  0.8966 -0.6542
   77TCq2    C3 1175   1.394   4.370  12.345 -0.8092  0.2879  1.3333
   77TCq2    C4 1176   1.442   4.250  12.389 -0.0869 -0.4888 -0.3039
   77TCq2    C5 1177   1.553   4.190  12.337  0.3738  0.7570  0.4343
   77TCq2    C6 1178   1.619   4.255  12.246 -0.0551  0.2102 -0.6485
   77TCq2    C7 1179   1.584   4.377  12.191 -0.1054 -0.0849 -0.4573
   77TCq2    C8 1180   1.750   4.201  12.209  0.1681  0.6024 -0.6641
   77TCq2    O4 1181   1.800   4.250  12.110 -0.4453  0.4941 -1.1819
   77TCq2    C9 1182   1.370   4.175  12.492 -0.2440 -0.1548  0.4130
   77TCq2    O5 1183   1.251   4.215  12.524  0.5257  0.1509 -1.0417
   77TCq2    O6 1184   1.426   4.071  12.536 -0.4250  1.1589  0.1469
   77TCq2    H2 1185   1.306   4.408  12.397  0.3332  2.2175  1.8668
   77TCq2    H3 1186   1.574   4.089  12.370  2.2518  0.4886 -1.6431
   77TCq2    H4 1187   1.642   4.431  12.117 -0.4602  0.9634  0.0336
   78MPD1     C 1188   3.870   2.592   1.512  0.6605  0.9580  0.1896
   78MPD1    C1 1189   3.778   2.565   1.609 -0.1446  0.3868  0.0240
   78MPD1    C2 1190   3.732   2.671   1.687 -0.2199 -0.2059 -0.7025
   78MPD1    C3 1191   3.764   2.808   1.663 -0.0179 -0.5502 -1.1758
   78MPD1    C4 1192   3.870   2.829   1.576 -0.0003  0.4150 -0.4984
   78MPD1    C5 1193   3.918   2.725   1.503  0.1174  1.0864 -0.0217
   78MPD1     H 1194   3.661   2.655   1.768 -1.5526  0.3791 -1.7358
   78MPD1    H1 1195   3.899   2.930   1.549  1.2490 -0.3182 -1.8513
   78MPD1    H2 1196   3.900   2.517   1.440  0.7987  0.9203  0.2857
   78MPD1    H3 1197   3.985   2.747   1.421 -1.4261  0.0065 -1.5458
   78MPD1     N 1198   3.707   2.921   1.724 -0.1016 -0.2707  0.6388
   78MPD1    H5 1199   3.748   3.010   1.699  2.6423 -2.1101 -1.3852
   78MPD1    N1 1200   3.750   2.430   1.643  0.1830 -0.2370  0.5583
   78MPD1    H6 1201   3.665   2.412   1.695 -0.6640 -1.4354 -1.2500
   78MPD1    H7 1202   3.729   2.376   1.559  0.8655 -0.5142  0.5655
   79TCq2    C1 1203   3.590   2.923   1.797 -0.0389 -0.3809  0.5504
   79TCq2    O2 1204   3.514   2.829   1.820 -0.4312  0.3920  0.1955
   79TCq2    C2 1205   3.552   3.060   1.841  0.3773 -0.2518 -1.3249
   79TCq2    C3 1206   3.419   3.075   1.862  0.0632  0.6244 -0.1247
   79TCq2    C4 1207   3.365   3.200   1.883  0.3269  0.0271 -0.4302
   79TCq2    C5 1208   3.446   3.304   1.888  0.0495 -0.3853 -0.6174
   79TCq2    C6 1209   3.584   3.288   1.854  0.2579 -0.2201  0.5132
   79TCq2    C7 1210   3.636   3.164   1.832 -0.0830 -0.5323  0.8695
   79TCq2    C8 1211   3.676   3.399   1.879  0.1512 -0.2717  0.4362
   79TCq2    O4 1212   3.623   3.507   1.866  0.7649 -0.0693  0.1241
   79TCq2    C9 1213   3.232   3.212   1.924  0.0697 -0.0476  0.3046
   79TCq2    O5 1214   3.150   3.117   1.900  0.2304 -0.0884  0.0811
   79TCq2    O6 1215   3.195   3.318   1.977  0.4273  0.2327 -0.0813
   79TCq2    H2 1216   3.356   2.989   1.880 -1.2772  1.7602  0.6733
   79TCq2    H3 1217   3.404   3.403   1.904 -2.7539 -1.4476 -1.4377
   79TCq2    H4 1218   3.737   3.158   1.792 -0.3489 -0.9768  0.2713
   80MPD2     C 1219   0.863   3.550  12.782  0.6174 -0.4342 -0.3406
   80MPD2    C1 1220   0.822   3.584  12.651 -0.8059 -0.3402  0.2848
   80MPD2    C2 1221   0.697   3.647  12.639  0.4333 -0.2570 -0.5492
   80MPD2    C3 1222   0.611   3.649  12.752  0.4940  0.8458 -0.8126
   80MPD2    C4 1223   0.648   3.613  12.875  0.3185  0.4523  0.4810
   80MPD2    C5 1224   0.774   3.569  12.890  0.0270  0.0913 -0.0195
   80MPD2     H 1225   0.665   3.690  12.545 -1.2679 -0.1833  0.0595
   80MPD2    H1 1226   0.584   3.604  12.962 -1.9417 -0.8638 -1.3033
   80MPD2    H2 1227   0.953   3.493  12.801  0.7451 -0.1939 -0.2386
   80MPD2    H3 1228   0.796   3.534  12.990  2.1538 -1.8680 -1.1572
   80MPD2     N 1229   0.476   3.699  12.739  0.3724  0.1429  0.3400
   80MPD2    H5 1230   0.417   3.699  12.822 -0.1651 -2.8879 -0.0378
   80MPD2    N1 1231   0.907   3.585  12.537 -0.0483 -0.0066 -0.9869
   80MPD2    H7 1232   0.863   3.601  12.447  0.8675  2.1109 -1.0771
   81TCq2    C1 1233   1.039   3.526  12.530  0.0627 -0.5721 -0.1535
   81TCq2    O2 1234   1.113   3.500  12.625  0.3597  0.1055  0.7737
   81TCq2    C2 1235   1.079   3.508  12.392 -1.0611 -0.8000 -0.2458
   81TCq2    C3 1236   1.214   3.506  12.357 -0.3078 -0.2008  0.1813
   81TCq2    C4 1237   1.245   3.474  12.226  0.0493  0.2223 -0.3393
   81TCq2    C5 1238   1.155   3.434  12.132  0.7691  0.0170 -0.6483
   81TCq2    C6 1239   1.029   3.426  12.172  0.4974  0.5122  0.7750
   81TCq2    C7 1240   0.982   3.466  12.300 -0.3437  0.5114  0.1458
   81TCq2    C8 1241   0.936   3.367  12.082  0.0111  0.5135  0.0037
   81TCq2    O4 1242   0.952   3.374  11.963 -0.7381 -0.0952 -0.3425
   81TCq2    C9 1243   1.381   3.464  12.189  0.2363 -0.3833  0.7106
   81TCq2    O5 1244   1.399   3.432  12.070 -0.1063 -0.4853  0.2465
   81TCq2    O6 1245   1.467   3.464  12.281  0.1260 -0.1093  0.2020
   81TCq2    H2 1246   1.290   3.529  12.431  0.3437  0.3066 -0.6480
   81TCq2    H3 1247   1.177   3.396  12.033  0.5357 -0.5180 -0.4958
   81TCq2    H4 1248   0.876   3.470  12.319 -0.3507  2.1353 -0.2329
   82MPD2     C 1249   4.275   3.332  10.810 -0.0721 -0.3706 -0.0982
   82MPD2    C1 1250   4.199   3.217  10.824  0.8887  0.6296  1.4581
   82MPD2    C2 1251   4.245   3.105  10.886 -0.1982  0.1224  0.2364
   82MPD2    C3 1252   4.368   3.112  10.945  0.5430 -0.4239  0.4652
   82MPD2    C4 1253   4.435   3.227  10.937 -0.0673  0.1705  0.2857
   82MPD2    C5 1254   4.392   3.333  10.865 -0.4973  0.5424  0.0456
   82MPD2     H 1255   4.183   3.017  10.882  1.9623 -1.3723 -0.5334
   82MPD2    H1 1256   4.529   3.243  10.988  0.8490  0.2468 -1.3961
   82MPD2    H2 1257   4.249   3.428  10.767 -1.1548 -1.1745 -1.2276
   82MPD2    H3 1258   4.454   3.422  10.869  2.2529 -1.3573 -0.3726
   82MPD2     N 1259   4.431   2.991  10.994 -0.8098 -0.4445 -0.5034
   82MPD2    H5 1260   4.529   2.991  11.020 -0.8351 -1.4869 -0.4162
   82MPD2    N1 1261   4.070   3.230  10.767  0.7530  0.2898  0.3669
   82MPD2    H7 1262   4.037   3.308  10.711  0.5269  1.5845  2.3012
   83TCq2    C1 1263   4.360   2.872  11.019 -0.0508 -0.2532  0.2774
   83TCq2    O2 1264   4.239   2.856  11.026 -0.8102 -0.3212 -0.2454
   83TCq2    C2 1265   4.447   2.759  11.064 -0.1351 -0.2643  0.6148
   83TCq2    C3 1266   4.582   2.749  11.048  0.2487 -0.0942  0.0383
   83TCq2    C4 1267   4.643   2.625  11.073 -0.0179 -0.3533 -0.2896
   83TCq2    C5 1268   4.576   2.508  11.104 -0.0453 -0.1945  0.4656
   83TCq2    C6 1269   4.439   2.522  11.106  0.3770  0.5605  0.0880
   83TCq2    C7 1270   4.378   2.641  11.086  0.1062 -0.4125 -0.5039
   83TCq2    C8 1271   4.359   2.404  11.140  0.1106 -0.2850 -0.5343
   83TCq2    O4 1272   4.311   2.411  11.254 -0.1527  0.0730  0.1305
   83TCq2    C9 1273   0.066   2.609  11.055 -0.5569 -0.2301  0.3037
   83TCq2    O5 1274   0.114   2.486  11.059 -0.3930  0.8274 -0.2097
   83TCq2    O6 1275   0.144   2.709  11.061  0.0126  0.5943  0.5897
   83TCq2    H2 1276   4.646   2.834  11.026 -0.0082 -0.1757 -1.0141
   83TCq2    H3 1277   4.622   2.412  11.126 -2.7510 -1.4461  0.6063
   83TCq2    H4 1278   4.271   2.645  11.105  0.0257  1.0526 -1.2713
   84TCq2    C1 1279   0.206   1.832  10.402  0.2163 -0.4090  0.3167
   84TCq2    O2 1280   0.133   1.764  10.331  0.0472 -0.5962 -0.5905
   84TCq2    C2 1281   0.160   1.882  10.526  0.3334 -0.4180 -0.3046
   84TCq2    C3 1282   0.160   2.025  10.540  0.1503 -0.1222 -0.2486
   84TCq2    C4 1283   0.168   2.088  10.664 -0.2186 -0.3772 -0.2276
   84TCq2    C5 1284   0.186   2.007  10.771  0.5489 -0.3070  0.1668
   84TCq2    C6 1285   0.203   1.872  10.755 -0.3799 -0.1617  0.4194
   84TCq2    C7 1286   0.185   1.805  10.635 -0.3857  0.1335 -0.2827
   84TCq2    C8 1287   0.186   1.803  10.876 -0.1883  0.0347  0.2714
   84TCq2    O4 1288   0.143   1.858  10.976 -0.0692  0.0547  0.0421
   84TCq2    C9 1289   0.168   2.229  10.681 -0.6968  0.7841  0.2125
   84TCq2    O5 1290   0.168   2.280  10.799 -0.1623 -0.0130 -0.0697
   84TCq2    O6 1291   0.183   2.289  10.573 -0.0504  0.7787 -0.0436
   84TCq2    H2 1292   0.151   2.095  10.458 -0.0350  0.7421  0.5003
   84TCq2    H3 1293   0.181   2.048  10.872  0.7605 -0.3846  0.2102
   84TCq2    H4 1294   0.194   1.700  10.608  0.9023  0.3451 -0.6867
   85MPD2     C 1295   0.286   0.146  16.126 -0.5987  0.6473  0.6941
   85MPD2    C1 1296   0.420   0.102  16.121 -0.0850 -0.2111  0.8972
   85MPD2    C2 1297   0.504   0.170  16.039  0.3145  0.1361 -0.1782
   85MPD2    C3 1298   0.460   0.285  15.965 -0.4986  0.0007 -0.8943
   85MPD2    C4 1299   0.335   0.334  15.983  0.2717  0.3421  0.3158
   85MPD2    C5 1300   0.248   0.261  16.058 -0.0464 -0.1639  0.9414
   85MPD2     H 1301   0.608   0.143  16.028  0.3091  0.3388 -0.7327
   85MPD2    H1 1302   0.300   0.428  15.943  0.1390  0.1983  0.0982
   85MPD2    H2 1303   0.208   0.082  16.168 -0.9967  0.5909 -0.1276
   85MPD2    H3 1304   0.143   0.287  16.057  0.1046  0.4074 -2.1761
   85MPD2     N 1305   0.558   0.352  15.891  0.4078 -0.2490 -0.0868
   85MPD2    H5 1306   0.646   0.304  15.878  1.1801  0.4042  2.5636
   85MPD2    N1 1307   0.464   4.713  16.188  0.6786 -0.4874  0.0646
   85MPD2    H7 1308   0.549   4.669  16.153  0.4558 -0.6418 -0.2828
   86TCq2    C1 1309   0.531   0.464  15.812 -0.0298  0.2788 -0.4795
   86TCq2    O2 1310   0.428   0.520  15.790  0.2754  0.3379  0.1805
   86TCq2    C2 1311   0.647   0.522  15.758 -0.4655 -0.5213  0.1336
   86TCq2    C3 1312   0.637   0.631  15.679  0.4392 -0.1035 -0.2253
   86TCq2    C4 1313   0.743   0.701  15.637  0.0477 -0.1402  0.5203
   86TCq2    C5 1314   0.865   0.677  15.680  0.0941  0.0530  0.5904
   86TCq2    C6 1315   0.881   0.563  15.753 -0.1281  0.6411  0.1032
   86TCq2    C7 1316   0.773   0.485  15.795  0.2494  0.4643  0.3826
   86TCq2    C8 1317   1.020   0.511  15.771 -0.3534  0.5636  0.0237
   86TCq2    O4 1318   1.033   0.409  15.838  0.3792 -0.2835 -0.3918
   86TCq2    C9 1319   0.716   0.820  15.560 -0.5854 -0.0646 -0.1605
   86TCq2    O5 1320   0.807   0.850  15.478  0.1007  0.2485  0.2480
   86TCq2    O6 1321   0.605   0.879  15.580 -0.0221 -0.3285 -0.1027
   86TCq2    H2 1322   0.537   0.668  15.658  0.3882  0.9926  1.9719
   86TCq2    H3 1323   0.946   0.746  15.656 -0.0095  0.9600  2.9038
   86TCq2    H4 1324   0.792   0.389  15.842 -2.0427  0.5081  1.4008
   87MPD2     C 1325   2.847   4.145   1.476 -0.3900  0.1226 -0.2137
   87MPD2    C1 1326   2.726   4.134   1.411  0.1956 -0.6459  0.5561
   87MPD2    C2 1327   2.637   4.240   1.400  0.1037  0.6315  0.0288
   87MPD2    C3 1328   2.669   4.365   1.444 -0.2128  0.0071  0.5372
   87MPD2    C4 1329   2.793   4.377   1.502 -1.0004  0.4819 -0.1460
   87MPD2    C5 1330   2.867   4.269   1.524  0.1237 -0.3638  0.7516
   87MPD2     H 1331   2.539   4.218   1.360  0.1477 -0.2088  0.3936
   87MPD2    H1 1332   2.827   4.470   1.547  1.2772 -0.2641 -0.3662
   87MPD2    H2 1333   2.917   4.065   1.500  0.1393  0.9320  0.9332
   87MPD2    H3 1334   2.963   4.272   1.574  1.6161 -0.3600 -2.1069
   87MPD2     N 1335   2.603   4.484   1.415  0.5116  0.7478  0.5749
   87MPD2    H5 1336   2.653   4.570   1.438 -0.0612  1.5123 -1.0254
   87MPD2    N1 1337   2.686   4.006   1.356 -0.3975  0.2539 -0.5473
   87MPD2    H7 1338   2.597   4.006   1.308  0.0551  0.5379 -1.3962
   88TCq2    C1 1339   2.773   3.892   1.365  0.4399 -0.1151 -0.1116
   88TCq2    O2 1340   2.892   3.881   1.392  0.0405 -0.4286 -0.3794
   88TCq2    C2 1341   2.706   3.762   1.350 -1.1118 -0.1282  0.1942
   88TCq2    C3 1342   2.567   3.743   1.339 -0.6164  0.5640  0.4561
   88TCq2    C4 1343   2.517   3.623   1.311 -0.1942 -1.1039 -0.5017
   88TCq2    C5 1344   2.600   3.522   1.282  0.0466 -0.2963 -0.4088
   88TCq2    C6 1345   2.731   3.539   1.265  0.7080 -0.2570 -0.4564
   88TCq2    C7 1346   2.788   3.658   1.310  0.0939  1.0578 -0.4187
   88TCq2    C8 1347   2.813   3.468   1.164 -0.1626 -0.0765 -0.2279
   88TCq2    O4 1348   2.931   3.486   1.163  1.0350  0.1577  0.0660
   88TCq2    C9 1349   2.378   3.600   1.320  0.2967  0.0201 -0.5741
   88TCq2    O5 1350   2.343   3.482   1.313 -0.3894  1.1317 -0.4487
   88TCq2    O6 1351   2.308   3.697   1.363 -0.3861  0.2431  0.0342
   88TCq2    H2 1352   2.506   3.821   1.384 -0.2179  0.0959  1.8345
   88TCq2    H3 1353   2.562   3.422   1.271 -2.7727  0.7416 -0.0809
   88TCq2    H4 1354   2.893   3.681   1.297  0.4092 -0.2015 -0.1505
   89MPD2     C 1355   3.869   1.136   1.525 -0.7029  0.9509  0.2134
   89MPD2    C1 1356   3.739   1.145   1.574 -0.3418  0.3222 -0.7121
   89MPD2    C2 1357   3.686   1.272   1.579 -0.0430 -0.1191  0.2356
   89MPD2    C3 1358   3.749   1.385   1.539  0.0722  0.0180  0.0809
   89MPD2    C4 1359   3.874   1.370   1.484 -0.0041  0.4232  0.2022
   89MPD2    C5 1360   3.929   1.248   1.477  0.3032 -0.5279  0.4836
   89MPD2     H 1361   3.589   1.282   1.627 -0.3060 -2.6970  0.2000
   89MPD2    H1 1362   3.924   1.449   1.429 -2.7155 -0.1224 -3.0277
   89MPD2    H2 1363   3.910   1.036   1.518 -2.0365  0.3758  0.7892
   89MPD2    H3 1364   4.024   1.236   1.425  0.0638 -1.0813  0.1730
   89MPD2     N 1365   3.692   1.511   1.576 -0.0245 -1.3988  0.4635
   89MPD2    H5 1366   3.601   1.505   1.619 -0.4815  0.8908 -0.2131
   89MPD2    N1 1367   3.652   1.034   1.591  0.4497  0.8153  0.4163
   89MPD2    H7 1368   3.552   1.044   1.604  0.3940  0.5114  0.2211
   90TCq2    C1 1369   3.758   1.635   1.556 -0.1718 -0.2496  0.0382
   90TCq2    O2 1370   3.866   1.663   1.501 -0.0730 -0.0718 -0.4240
   90TCq2    C2 1371   3.677   1.742   1.614  0.1587  0.0811  0.6522
   90TCq2    C3 1372   3.594   1.710   1.724  0.2532 -0.3670  0.5927
   90TCq2    C4 1373   3.508   1.808   1.770  0.3753 -0.1507  0.0091
   90TCq2    C5 1374   3.520   1.936   1.715 -0.2673 -0.7175 -0.5102
   90TCq2    C6 1375   3.620   1.969   1.621 -0.2845 -0.0660 -0.1163
   90TCq2    C7 1376   3.701   1.872   1.578  0.2535 -0.5653  0.0554
   90TCq2    C8 1377   3.612   2.092   1.546 -0.0783  0.3678 -0.1914
   90TCq2    O4 1378   3.521   2.168   1.580  0.3215  0.1182 -1.0303
   90TCq2    C9 1379   3.428   1.768   1.884 -0.1084  0.2490 -0.7157
   90TCq2    O5 1380   3.345   1.850   1.936 -0.1085 -0.3659  0.2114
   90TCq2    O6 1381   3.460   1.658   1.933  0.2910 -0.1532 -0.1671
   90TCq2    H2 1382   3.578   1.609   1.760 -0.5309  0.0488  1.4266
   90TCq2    H3 1383   3.459   2.013   1.761  2.4738  0.3815  1.3020
   90TCq2    H4 1384   3.751   1.888   1.484  0.3019  1.7087  0.4625
   91TMC2    C1 1385   0.949   0.972  16.375  0.1285 -0.4990  0.5090
   91TMC2    C2 1386   1.029   0.884  16.446 -0.8111  0.8311  0.1027
   91TMC2    C3 1387   0.974   0.771  16.504  0.2976 -0.4061 -0.9695
   91TMC2    C4 1388   0.810   0.957  16.369  0.0229  0.2239  0.1048
   91TMC2    C5 1389   0.762   0.851  16.442  0.1163 -0.2737  0.8494
   91TMC2    C6 1390   0.838   0.758  16.517 -0.6683  0.3220 -0.2778
   91TMC2     C 1391   0.996   1.114  16.361 -0.0353  0.6166  0.0434
   91TMC2     O 1392   0.910   1.199  16.337 -0.6034  0.5305 -0.4235
   91TMC2     H 1393   1.138   0.885  16.444 -0.8551 -0.5609 -2.4650
   91TMC2    H1 1394   0.740   1.026  16.324  0.5997  0.8840  0.2254
   91TMC2    H2 1395   0.783   0.689  16.579  0.3702 -0.2137  0.0482
   91TMC2    C7 1396   0.628   0.865  16.482 -0.6630 -0.5566 -0.8744
   91TMC2    C8 1397   1.040   0.723  16.627 -0.6900 -0.1688 -0.3468
   91TMC2    O1 1398   0.600   0.821  16.594  0.1496  0.1513  0.2431
   91TMC2    O2 1399   1.016   0.798  16.719 -0.7345  0.3527  0.1174
   91TMC2    O5 1400   1.016   0.588  16.625 -0.1652  0.1625 -0.0576
   91TMC2    H5 1401   1.051   0.552  16.540  2.1382 -0.5106  1.1900
   92MPD2     C 1402   1.142   1.381  16.376 -0.4616 -0.1240  0.6965
   92MPD2    C1 1403   1.199   1.259  16.353 -0.4968  0.1688  0.4059
   92MPD2    C2 1404   1.332   1.250  16.337  0.1172 -0.2900 -0.3901
   92MPD2    C3 1405   1.412   1.358  16.357 -0.8020  0.8510  0.1595
   92MPD2    C4 1406   1.356   1.479  16.399  0.0360  0.1495 -0.1307
   92MPD2    C5 1407   1.224   1.490  16.410  0.0251  0.7266  0.5498
   92MPD2     H 1408   1.386   1.166  16.293  0.3099 -0.6327  0.5046
   92MPD2    H1 1409   1.398   1.570  16.441 -1.9652  0.8357  0.4061
   92MPD2    H2 1410   1.037   1.405  16.381 -0.2645  0.7195  0.8110
   92MPD2    H3 1411   1.181   1.585  16.441  0.4352  0.5770  1.5684
   92MPD2     N 1412   1.553   1.349  16.336 -0.1838 -0.0754 -0.0043
   92MPD2    H5 1413   1.594   1.264  16.299 -1.7510 -1.2435  0.9522
   92MPD2    N1 1414   1.134   1.130  16.357  0.4511 -0.5335 -0.3822
   92MPD2    H7 1415   1.190   1.048  16.339 -0.1666 -1.2473  0.9243
   93MPD2     C 1416   2.359   1.104  13.858 -0.0471  0.1124  0.7013
   93MPD2    C1 1417   2.330   1.229  13.896 -0.0231 -0.1812  0.5766
   93MPD2    C2 1418   2.204   1.281  13.865 -0.2643 -0.2072 -0.8058
   93MPD2    C3 1419   2.108   1.201  13.805  0.5725 -0.4663  0.7633
   93MPD2    C4 1420   2.143   1.073  13.770 -0.2823 -0.8707  0.0803
   93MPD2    C5 1421   2.268   1.024  13.796  0.0469  0.4402  0.6248
   93MPD2     H 1422   2.180   1.384  13.890 -1.4204 -0.4711 -0.7961
   93MPD2    H1 1423   2.071   1.005  13.725 -2.3162  2.6089 -1.8904
   93MPD2    H2 1424   2.458   1.060  13.860 -0.8005 -1.7231 -2.0685
   93MPD2    H3 1425   2.294   0.922  13.769 -1.6518  0.8965 -2.7191
   93MPD2     N 1426   1.977   1.237  13.774 -0.0014 -0.4758 -0.7706
   93MPD2    H5 1427   1.931   1.158  13.729 -2.3925 -0.4348  1.6037
   93MPD2    N1 1428   2.421   1.315  13.966 -0.4202  1.4370 -0.6875
   93MPD2    H7 1429   2.388   1.404  14.000  1.2587  1.5067  0.7416
   94TCq2    C1 1430   2.561   1.296  13.975  0.2121 -0.0704 -1.1403
   94TCq2    O2 1431   2.621   1.221  13.898 -0.6781  0.2662  0.1413
   94TCq2    C2 1432   2.632   1.415  14.004 -0.7675 -0.5321 -0.3891
   94TCq2    C3 1433   2.607   1.473  14.124 -0.0285 -0.0849  0.4801
   94TCq2    C4 1434   2.706   1.546  14.181  0.3152  0.2418  0.6709
   94TCq2    C5 1435   2.830   1.558  14.117  0.2142  0.0188  0.4987
   94TCq2    C6 1436   2.848   1.507  13.993 -0.3408 -0.1575  0.1683
   94TCq2    C7 1437   2.750   1.427  13.937 -0.7393 -1.1660 -0.2618
   94TCq2    C8 1438   2.970   1.516  13.924  0.0203 -0.3232  0.3311
   94TCq2    O4 1439   3.067   1.542  13.994 -0.0737  0.0312 -0.5392
   94TCq2    C9 1440   2.683   1.608  14.307 -0.0293 -0.1989 -0.1378
   94TCq2    O5 1441   2.563   1.616  14.345 -0.0553  0.1781  0.2052
   94TCq2    O6 1442   2.777   1.678  14.362 -0.0531  0.5464  0.2436
   94TCq2    H2 1443   2.511   1.465  14.174 -0.0758  0.7416  0.5104
   94TCq2    H3 1444   2.907   1.628  14.150  0.8286 -0.7045  0.5979
   94TCq2    H4 1445   2.766   1.377  13.842 -2.3178  0.8828 -1.5900
   95TMC2    C1 1446   2.538   2.991  16.181 -0.2245  0.5592 -0.8249
   95TMC2    C2 1447   2.498   2.867  16.223 -0.6697  0.1478 -0.4872
   95TMC2    C3 1448   2.413   2.865  16.332  0.1113 -1.1388  0.1940
   95TMC2    C4 1449   2.496   3.112  16.243  1.0284 -0.5330 -0.4157
   95TMC2    C5 1450   2.406   3.100  16.341  0.3622 -0.5908  0.7979
   95TMC2    C6 1451   2.371   2.979  16.387 -0.4803  0.3642 -0.7108
   95TMC2     C 1452   2.622   3.008  16.061 -0.6019  0.1251 -0.3112
   95TMC2     O 1453   2.674   3.117  16.047  0.3425 -0.4762  0.1448
   95TMC2     H 1454   2.507   2.780  16.159  3.0320 -0.4318  0.7920
   95TMC2    H1 1455   2.526   3.208  16.202 -0.0365  0.7787  1.8539
   95TMC2    H2 1456   2.306   2.969  16.474 -0.9410 -0.3746 -1.1396
   95TMC2    C7 1457   2.406   3.215  16.438 -0.0147 -0.7080  0.6567
   95TMC2    C8 1458   2.358   2.735  16.384  0.3013 -0.0439  0.1083
   95TMC2    O1 1459   2.472   3.311  16.404 -0.4091 -0.0351  0.2512
   95TMC2    O2 1460   2.256   2.723  16.446 -0.4267  0.1094 -0.1273
   95TMC2    O5 1461   2.456   2.639  16.379  0.1384 -0.4107 -0.1096
   95TMC2    H5 1462   2.539   2.676  16.341 -0.4256  0.6508 -0.2946
   96MPD2     C 1463   2.926   2.808  15.685  0.1103  0.0534  0.7775
   96MPD2    C1 1464   2.901   2.938  15.722  0.4665 -0.1365 -0.4874
   96MPD2    C2 1465   2.810   2.970  15.821 -0.2763  0.1453  0.3610
   96MPD2    C3 1466   2.750   2.871  15.893 -0.5630 -0.6427 -0.4633
   96MPD2    C4 1467   2.781   2.743  15.870  0.3366 -0.3647 -0.5319
   96MPD2    C5 1468   2.856   2.709  15.758 -0.5373 -0.9622 -0.7099
   96MPD2     H 1469   2.787   3.074  15.842 -2.1798 -0.5201  1.5539
   96MPD2    H1 1470   2.738   2.666  15.934 -0.7515 -0.6071 -1.5469
   96MPD2    H2 1471   2.993   2.779  15.606  0.1760  1.0444  0.4604
   96MPD2    H3 1472   2.874   2.604  15.734 -0.6504 -1.7723  2.8586
   96MPD2     N 1473   2.665   2.887  16.010 -0.3197  0.2779  0.3964
   96MPD2    H5 1474   2.627   2.807  16.059  2.0375  0.4129  2.4668
   96MPD2    N1 1475   2.982   3.040  15.657  1.2840 -0.4429  0.0202
   96MPD2    H7 1476   3.061   2.999  15.607 -0.2523 -2.1449 -0.9912
   97MPD2     C 1477   4.441   0.344   0.776 -0.6917 -0.1252  0.4495
   97MPD2    C1 1478   4.315   0.396   0.802 -0.2852 -0.3167 -0.7026
   97MPD2    C2 1479   4.228   0.422   0.698  0.2371 -0.0718 -0.0182
   97MPD2    C3 1480   4.266   0.406   0.566  0.1425  0.0156 -0.1642
   97MPD2    C4 1481   4.393   0.346   0.540  0.0187 -0.1953 -0.4209
   97MPD2    C5 1482   4.475   0.312   0.645 -0.3452  0.0202  0.4383
   97MPD2     H 1483   4.131   0.464   0.719 -0.7171 -1.0332 -2.6119
   97MPD2    H1 1484   4.430   0.337   0.439 -3.7073  0.9356 -1.8651
   97MPD2    H2 1485   4.499   0.309   0.861  0.2009  3.6168  1.3651
   97MPD2    H3 1486   4.569   0.264   0.624  0.5337  0.7554  2.7206
   97MPD2     N 1487   4.182   0.445   0.459  0.1722 -0.8681 -0.3328
   97MPD2    H5 1488   4.220   0.432   0.365  1.5912 -0.5716  0.1892
   97MPD2    N1 1489   4.281   0.404   0.934 -0.1237  0.5162 -0.0332
   97MPD2    H7 1490   4.350   0.396   1.007 -1.2865 -3.7450  0.5848
   98TCq2    C1 1491   4.048   0.483   0.473 -0.2420 -0.8025 -1.0547
   98TCq2    O2 1492   3.963   0.473   0.561 -0.4203 -0.0939  0.2251
   98TCq2    C2 1493   3.998   0.543   0.352  0.2799 -0.5351  0.8341
   98TCq2    C3 1494   3.862   0.566   0.344 -0.0858  0.8233  0.6316
   98TCq2    C4 1495   3.820   0.667   0.264 -0.2563 -0.0904  0.3181
   98TCq2    C5 1496   3.912   0.743   0.196  0.4733  0.1029 -0.7444
   98TCq2    C6 1497   4.044   0.708   0.198 -0.2882 -0.2237 -0.4191
   98TCq2    C7 1498   4.094   0.609   0.273 -0.2897 -0.2274  0.0285
   98TCq2    C8 1499   4.134   0.797   0.140 -0.9575  0.2033  0.2912
   98TCq2    O4 1500   4.234   0.750   0.084  0.5496 -0.1444 -0.2065
   98TCq2    C9 1501   3.682   0.703   0.263  0.6233 -0.2811 -0.3213
   98TCq2    O5 1502   3.661   0.825   0.242  0.4994  0.2364 -0.2940
   98TCq2    O6 1503   3.596   0.617   0.286 -0.1986 -0.2557 -0.2420
   98TCq2    H2 1504   3.787   0.510   0.399  0.8743 -1.9521 -0.8879
   98TCq2    H3 1505   3.883   0.814   0.120 -0.3239 -0.3501 -0.8597
   98TCq2    H4 1506   4.200   0.608   0.291 -0.2632  0.8040 -0.0772
   99MPD2     C 1507   3.491   2.815   1.386  0.2543  0.7255  0.8701
   99MPD2    C1 1508   3.370   2.863   1.342 -0.1879 -0.2545 -0.1062
   99MPD2    C2 1509   3.318   2.813   1.227 -0.4612  0.1688  0.3038
   99MPD2    C3 1510   3.396   2.735   1.145 -0.4022  0.3110  0.3789
   99MPD2    C4 1511   3.525   2.706   1.169  0.2740  0.3448 -0.1019
   99MPD2    C5 1512   3.565   2.742   1.298  0.6197 -0.0925  0.2628
   99MPD2     H 1513   3.221   2.844   1.191 -1.2344 -1.0054  1.3534
   99MPD2    H1 1514   3.598   2.660   1.104 -0.4959  0.3212 -0.9562
   99MPD2    H2 1515   3.540   2.839   1.480  0.9768 -0.3797  0.7677
   99MPD2    H3 1516   3.665   2.717   1.330  0.5685  2.3346  2.3351
   99MPD2     N 1517   3.338   2.694   1.024  0.0933  0.4662  0.3959
   99MPD2    H5 1518   3.254   2.745   0.997 -0.1683 -2.0902 -3.5660
   99MPD2    N1 1519   3.296   2.957   1.410  0.5124 -0.2148  0.0260
   99MPD2    H7 1520   3.202   2.980   1.379  0.5334 -2.6142 -1.8186
  100TCq2    C1 1521   3.348   3.045   1.499  0.0705  0.9856 -0.0438
  100TCq2    O2 1522   3.465   3.056   1.538  0.3148 -0.4004  0.6489
  100TCq2    C2 1523   3.262   3.159   1.527 -0.4760  0.4763  0.0826
  100TCq2    C3 1524   3.324   3.281   1.531  0.0963 -0.1800  0.5006
  100TCq2    C4 1525   3.256   3.399   1.543 -0.7559 -0.3036  0.3321
  100TCq2    C5 1526   3.118   3.400   1.530  1.0764 -0.1854 -0.3915
  100TCq2    C6 1527   3.056   3.279   1.527 -0.3757 -0.3020 -0.1802
  100TCq2    C7 1528   3.126   3.156   1.520 -1.1385  0.1112 -0.9874
  100TCq2    C8 1529   2.909   3.280   1.511 -0.9709 -0.0199  0.0814
  100TCq2    O4 1530   2.844   3.376   1.550  0.1548  0.2519  0.3455
  100TCq2    C9 1531   3.327   3.523   1.540  0.3111 -0.0593 -0.3476
  100TCq2    O5 1532   3.256   3.631   1.558  0.0509  0.0966 -0.0803
  100TCq2    O6 1533   3.445   3.513   1.497  0.3674 -0.2416  0.0388
  100TCq2    H2 1534   3.433   3.275   1.533  0.2270  2.3509  1.1445
  100TCq2    H3 1535   3.064   3.494   1.530  1.0569 -0.2026  1.5046
  100TCq2    H4 1536   3.076   3.059   1.521 -0.3267 -0.3161 -2.1477
  101MPD2     C 1537   4.252   3.790  13.311  0.3377 -0.4853 -0.4394
  101MPD2    C1 1538   4.143   3.769  13.229  0.4031  0.0045  0.7719
  101MPD2    C2 1539   4.036   3.684  13.265 -0.5800  0.2831 -0.0047
  101MPD2    C3 1540   4.046   3.605  13.384 -0.6864 -0.4113  0.4962
  101MPD2    C4 1541   4.147   3.635  13.469  0.2451 -0.9225  0.0833
  101MPD2    C5 1542   4.247   3.722  13.432  0.3086  0.2761  0.3353
  101MPD2     H 1543   3.954   3.665  13.197 -0.5631  1.9547 -0.5051
  101MPD2    H1 1544   4.153   3.583  13.564 -1.0182 -1.3348 -0.0689
  101MPD2    H2 1545   4.334   3.859  13.296 -0.4641  0.7903  1.1444
  101MPD2    H3 1546   4.334   3.722  13.497  0.6370 -0.5320 -0.0922
  101MPD2     N 1547   3.957   3.498  13.423 -0.1664 -0.7752 -0.2616
  101MPD2    H5 1548   3.972   3.448  13.510 -0.8571  0.5211  0.5998
  101MPD2    N1 1549   4.133   3.863  13.120  0.6592  0.3527 -0.1617
  101MPD2    H7 1550   4.218   3.918  13.111  0.4078  0.9544  1.0291
  102TCq2    C1 1551   4.273   4.064  12.670 -0.2231 -0.5706  0.0495
  102TCq2    O2 1552   4.366   4.118  12.738  0.8749 -0.1386  0.7914
  102TCq2    C2 1553   4.150   4.035  12.739  0.0160 -0.4325 -0.1432
  102TCq2    C3 1554   4.032   4.068  12.676  0.5484 -0.8558 -0.7474
  102TCq2    C4 1555   3.918   4.064  12.751  0.3556 -0.8998 -0.0540
  102TCq2    C5 1556   3.922   4.020  12.884  0.3290 -0.5305 -0.0422
  102TCq2    C6 1557   4.038   3.994  12.951  0.4308  0.6128 -0.3886
  102TCq2    C7 1558   4.156   3.998  12.873 -0.5889  1.0558  0.3653
  102TCq2    C8 1559   4.021   3.897  13.055 -0.3308  0.3926  0.2744
  102TCq2    O4 1560   3.904   3.860  13.080 -0.6094  0.2166  0.2805
  102TCq2    C9 1561   3.786   4.086  12.692 -0.5835  0.6079 -0.0532
  102TCq2    O5 1562   3.789   4.148  12.579  0.2991  0.0677 -0.8355
  102TCq2    O6 1563   3.690   4.018  12.733 -0.2137 -0.2327 -0.3379
  102TCq2    H2 1564   4.031   4.098  12.572  1.0992 -0.0271 -0.5137
  102TCq2    H3 1565   3.825   3.984  12.918  1.0114 -0.7796  1.6306
  102TCq2    H4 1566   4.247   3.967  12.924 -1.2559 -0.1589  0.8397
  103TMC2    C1 1567   2.168   3.668  12.650  0.5038 -0.3318 -0.0926
  103TMC2    C2 1568   2.261   3.579  12.599  0.4297  0.0607 -0.5573
  103TMC2    C3 1569   2.337   3.508  12.685  0.0908 -0.4463 -0.0198
  103TMC2    C4 1570   2.157   3.686  12.780 -0.0930 -0.1945  0.5313
  103TMC2    C5 1571   2.236   3.612  12.866  0.4589 -0.5134  0.2830
  103TMC2    C6 1572   2.320   3.514  12.816 -0.0108  0.0113 -0.0389
  103TMC2     C 1573   2.084   3.751  12.571 -0.2495 -0.2398  0.5237
  103TMC2     O 1574   1.973   3.781  12.615  0.0440 -0.1777  0.4884
  103TMC2     H 1575   2.269   3.551  12.495  0.9862 -0.4119 -0.3897
  103TMC2    H1 1576   2.090   3.761  12.819  0.3194  0.8856 -0.8587
  103TMC2    H2 1577   2.392   3.465  12.881  0.5597  2.4080  1.1417
  103TMC2    C7 1578   2.205   3.610  13.010  0.5802  0.0895 -0.3154
  103TMC2    C8 1579   2.467   3.461  12.647  0.0772  0.3477 -0.9132
  103TMC2    O1 1580   2.199   3.499  13.066  0.1225 -0.2287  0.2261
  103TMC2    O2 1581   2.538   3.392  12.723 -0.6959  0.9044  0.3168
  103TMC2    O5 1582   2.516   3.562  12.570 -0.5816 -0.0881  0.8142
  103TMC2    H5 1583   2.450   3.630  12.545  1.2780  1.4354  0.0299
  104MPD2     C 1584   2.118   3.853  12.224  0.7357 -0.1077 -0.3324
  104MPD2    C1 1585   2.057   3.853  12.346  0.8480 -0.1406 -0.2362
  104MPD2    C2 1586   1.950   3.936  12.367 -0.0778  0.7642  0.5988
  104MPD2    C3 1587   1.906   4.026  12.267  0.1109  0.2047  0.4130
  104MPD2    C4 1588   1.975   4.035  12.144 -0.0586  0.4392 -0.3316
  104MPD2    C5 1589   2.075   3.947  12.128 -0.4736  0.8214  0.6486
  104MPD2     H 1590   1.910   3.940  12.468 -2.5683  0.2750 -0.3535
  104MPD2    H1 1591   1.948   4.096  12.058 -0.9920  0.1832 -0.2193
  104MPD2    H2 1592   2.201   3.787  12.201 -0.2521 -0.5792 -2.5748
  104MPD2    H3 1593   2.127   3.948  12.033 -1.0775  0.6730  0.3155
  104MPD2     N 1594   1.797   4.110  12.297 -0.3362  0.4694  0.1830
  104MPD2    H5 1595   1.768   4.106  12.395 -3.3079 -0.9969 -0.7485
  104MPD2    N1 1596   2.125   3.765  12.443 -0.0201  0.2225  0.1622
  104MPD2    H7 1597   2.216   3.724  12.422  1.1989  2.6218  0.6684
  105MPD2     C 1598   3.759   2.913   0.018 -0.5604 -0.1292 -0.0049
  105MPD2    C1 1599   3.704   3.025  17.666 -0.5899  0.2498  0.6658
  105MPD2    C2 1600   3.640   3.107   0.061  0.8458  0.4731  0.8949
  105MPD2    C3 1601   3.634   3.080   0.197  0.6556  0.8514  0.8835
  105MPD2    C4 1602   3.705   2.974   0.245 -0.3467 -0.0164 -0.3181
  105MPD2    C5 1603   3.755   2.890   0.154 -0.0772  0.5669  0.1186
  105MPD2     H 1604   3.589   3.194   0.022 -0.3263 -0.5249  0.1914
  105MPD2    H1 1605   3.708   2.946   0.349 -1.7514  0.8586 -0.0494
  105MPD2    H2 1606   3.812   2.840  17.654  0.7700 -1.1010  2.3709
  105MPD2    H3 1607   3.803   2.798   0.189 -2.1958 -0.4064  0.4521
  105MPD2     N 1608   3.553   3.162   0.285  0.5207 -0.1318 -0.1718
  105MPD2    H5 1609   3.515   3.249   0.249 -0.2156 -0.7012 -0.7786
  105MPD2    N1 1610   3.704   3.061  17.526  0.1758  0.0099 -0.4234
  105MPD2    H7 1611   3.644   3.136  17.492  0.0247  1.0516  2.1386
  106TCq2    C1 1612   3.530   3.141   0.418  0.4909 -0.3736 -0.3243
  106TCq2    O2 1613   3.553   3.037   0.480 -0.1117  0.3169 -0.2266
  106TCq2    C2 1614   3.438   3.238   0.470 -0.7859  0.3029  0.9393
  106TCq2    C3 1615   3.456   3.368   0.464  0.2582  0.0191 -0.0275
  106TCq2    C4 1616   3.401   3.447   0.563  0.2681 -0.2525 -1.2923
  106TCq2    C5 1617   3.314   3.400   0.653 -0.4214 -0.0465  0.3013
  106TCq2    C6 1618   3.273   3.268   0.638 -0.4953  0.2693  0.1024
  106TCq2    C7 1619   3.343   3.189   0.547 -0.5050 -0.6536 -0.2093
  106TCq2    C8 1620   3.132   3.246   0.644 -0.0746  0.5302 -0.2144
  106TCq2    O4 1621   3.087   3.159   0.577  0.1901 -0.0724  0.0205
  106TCq2    C9 1622   3.426   3.592   0.581 -0.1526  0.1612 -0.5054
  106TCq2    O5 1623   3.461   3.627   0.693 -1.1448  0.1582  0.4854
  106TCq2    O6 1624   3.371   3.669   0.498 -0.4709  0.1503 -0.7220
  106TCq2    H2 1625   3.523   3.420   0.396  1.7924  0.1385  1.5955
  106TCq2    H3 1626   3.267   3.469   0.722 -2.0745  1.8567 -2.7707
  106TCq2    H4 1627   3.315   3.085   0.537  0.9704 -1.0452 -0.1911
  107TMC2    C1 1628   0.125   1.724  11.692 -0.0820 -0.3216  0.2006
  107TMC2    C2 1629   0.152   1.659  11.807 -0.6147  1.0076 -0.3566
  107TMC2    C3 1630   0.185   1.526  11.801 -0.1002  0.6119 -0.1021
  107TMC2    C4 1631   0.155   1.668  11.573 -0.0805  0.2287  0.0050
  107TMC2    C5 1632   0.184   1.530  11.569  0.0978  0.4982 -1.3687
  107TMC2    C6 1633   0.197   1.457  11.683 -0.5765 -0.1330  0.0269
  107TMC2     C 1634   0.056   1.851  11.694 -0.0240 -0.3921  0.3383
  107TMC2     O 1635   4.705   1.877  11.787 -0.2698 -0.0587 -0.2520
  107TMC2     H 1636   0.138   1.706  11.903 -0.8819  2.4969 -1.1277
  107TMC2    H1 1637   0.129   1.728  11.485  2.4405  0.6390 -0.4514
  107TMC2    H2 1638   0.243   1.359  11.674 -0.7038 -0.4111  2.4593
  107TMC2    C7 1639   0.215   1.467  11.439 -0.5594  0.0781 -0.9881
  107TMC2    C8 1640   0.181   1.456  11.923 -0.8638 -0.1503  0.5827
  107TMC2    O1 1641   0.216   1.340  11.438  0.1564 -0.8787  0.4184
  107TMC2    O2 1642   0.177   1.513  12.030  0.1159  0.0148 -0.3115
  107TMC2    O5 1643   0.100   1.358  11.899  0.1561 -1.5221  0.1258
  107TMC2    H5 1644   0.134   1.311  11.820  0.9885 -0.8983  0.1107
  108MPD2     C 1645   0.134   2.138  11.482  0.0388 -0.5059  0.4248
  108MPD2    C1 1646   0.064   2.072  11.578  0.4600 -0.2934 -0.1636
  108MPD2    C2 1647   4.705   2.143  11.666  0.2194  0.7180 -0.7630
  108MPD2    C3 1648   4.680   2.279  11.642 -0.4291 -0.4989 -0.2108
  108MPD2    C4 1649   0.026   2.337  11.538  0.1475 -0.6003  0.0327
  108MPD2    C5 1650   0.114   2.271  11.456 -0.7046  0.3263  0.0149
  108MPD2     H 1651   4.661   2.096  11.753  0.0991  1.8882 -0.1901
  108MPD2    H1 1652   0.022   2.444  11.524 -0.8768 -0.8634 -1.7669
  108MPD2    H2 1653   0.199   2.086  11.413  0.3775  2.5979 -1.5870
  108MPD2    H3 1654   0.163   2.317  11.371 -1.0492 -0.6264 -0.6935
  108MPD2     N 1655   4.594   2.363  11.715  0.2963  0.2767  0.4127
  108MPD2    H5 1656   4.591   2.459  11.684 -0.9444  0.0664 -0.1223
  108MPD2    N1 1657   0.104   1.939  11.599 -0.4811  0.0253  0.2742
  108MPD2    H7 1658   0.168   1.895  11.534 -1.0645  1.1789 -1.0676
  109MPD2     C 1659   4.508   4.162   2.147 -0.9856  0.4364 -0.7158
  109MPD2    C1 1660   4.428   4.230   2.058 -0.7978  0.3825  0.4142
  109MPD2    C2 1661   4.494   4.319   1.976  0.2533  0.5807 -0.1229
  109MPD2    C3 1662   4.629   4.358   1.995  0.0525  0.0107 -0.3491
  109MPD2    C4 1663   4.700   4.305   2.101 -0.3562 -0.7807  0.2362
  109MPD2    C5 1664   4.643   4.202   2.169 -0.1428 -0.1040  0.2005
  109MPD2     H 1665   4.427   4.376   1.912 -0.3850 -0.2799 -0.2150
  109MPD2    H1 1666   0.074   4.335   2.136 -0.2705 -0.0939 -0.5625
  109MPD2    H2 1667   4.474   4.082   2.211  0.6544 -1.0783 -1.7220
  109MPD2    H3 1668   4.699   4.149   2.246 -0.5075 -0.3247  0.3157
  109MPD2     N 1669   4.687   4.455   1.908 -0.6462 -0.3909  0.1541
  109MPD2    H5 1670   4.624   4.501   1.842  0.5227  1.4446  0.3476
  109MPD2    N1 1671   4.288   4.194   2.055  0.1406 -0.0849 -0.0280
  109MPD2    H7 1672   4.261   4.114   2.111  0.1424 -0.4490 -0.5387
  110TCq2    C1 1673   0.097   4.476   1.893  0.2244  0.5334  0.3309
  110TCq2    O2 1674   0.190   4.420   1.951  0.6610  0.2336  1.0148
  110TCq2    C2 1675   0.139   4.570   1.784 -0.1650  0.3169 -0.2231
  110TCq2    C3 1676   0.260   4.545   1.729  0.5711  0.0157 -0.0478
  110TCq2    C4 1677   0.319   4.632   1.637  0.4185 -0.1468  0.2279
  110TCq2    C5 1678   0.253   0.025   1.606 -0.4893 -0.0915 -0.3135
  110TCq2    C6 1679   0.133   0.053   1.675  0.5704 -0.2161 -0.2418
  110TCq2    C7 1680   0.072   4.689   1.762 -1.0513  0.1336 -0.3208
  110TCq2    C8 1681   0.066   0.180   1.647  0.7474 -0.8360 -0.6749
  110TCq2    O4 1682   4.679   0.176   1.693 -0.1363 -0.5804 -0.4486
  110TCq2    C9 1683   0.448   4.600   1.582 -0.4203  0.4238  0.2574
  110TCq2    O5 1684   0.501   4.675   1.500  0.5238 -0.2540  0.1141
  110TCq2    O6 1685   0.506   4.505   1.640 -0.1943 -0.0995  0.0838
  110TCq2    H2 1686   0.303   4.446   1.738  1.1775  0.4609  1.7984
  110TCq2    H3 1687   0.303   0.093   1.538  1.5531 -0.6036  0.6592
  110TCq2    H4 1688   4.708   4.720   1.818 -0.3422  1.2131  0.1894
  111TMC2    C1 1689   0.401   4.319  11.392  0.3179 -0.2206  0.1199
  111TMC2    C2 1690   0.513   4.345  11.317 -0.0804  0.0722 -0.0352
  111TMC2    C3 1691   0.637   4.357  11.385 -0.4568  1.0573 -0.0787
  111TMC2    C4 1692   0.411   4.312  11.528 -0.0815  0.6038 -0.0419
  111TMC2    C5 1693   0.529   4.343  11.590  0.4320  0.6226  0.6016
  111TMC2    C6 1694   0.642   4.355  11.518  0.1027  0.3663  0.3040
  111TMC2     C 1695   0.270   4.307  11.321  0.1685  0.0070 -0.0075
  111TMC2     O 1696   0.268   4.343  11.204 -0.3380  0.3355 -0.3025
  111TMC2     H 1697   0.521   4.381  11.215  0.5214 -1.5906 -0.5759
  111TMC2    H1 1698   0.325   4.306  11.593  0.6259  0.5287  0.8905
  111TMC2    H2 1699   0.737   4.378  11.566 -0.9675 -2.7675  3.8656
  111TMC2    C7 1700   0.531   4.347  11.736  0.1632  0.0281  1.0148
  111TMC2    C8 1701   0.747   4.406  11.300 -0.7173  0.6131 -0.0364
  111TMC2    O1 1702   0.471   4.263  11.802  0.1968  0.1166  0.6269
  111TMC2    O2 1703   0.722   4.483  11.206 -0.3950  0.1905  0.8747
  111TMC2    O5 1704   0.865   4.382  11.366  0.0910 -0.6300 -0.3252
  111TMC2    H5 1705   0.871   4.302  11.423  2.1807 -0.3254 -0.1362
  112MPD2     C 1706   4.479   4.329  11.321  1.1345 -0.3481  0.0296
  112MPD2    C1 1707   4.569   4.355  11.216 -0.0096  0.3767 -0.2700
  112MPD2    C2 1708   4.705   4.338  11.235 -0.1158 -0.1289 -0.2028
  112MPD2    C3 1709   0.027   4.302  11.363  0.0165  0.2092  0.4154
  112MPD2    C4 1710   4.656   4.281  11.464  0.1489 -0.5069 -0.1242
  112MPD2    C5 1711   4.516   4.293  11.446  0.2733  0.6521  0.3585
  112MPD2     H 1712   0.054   4.351  11.155  0.6408  1.0417  0.6748
  112MPD2    H1 1713   4.683   4.253  11.565  0.4472 -1.1278 -0.3779
  112MPD2    H2 1714   4.372   4.339  11.309  1.2683 -2.3406 -2.7650
  112MPD2    H3 1715   4.445   4.273  11.526 -0.9007  2.4212 -0.2308
  112MPD2     N 1716   0.162   4.284  11.407 -0.1067 -0.1519  0.0856
  112MPD2    H5 1717   0.176   4.264  11.505  1.9866  0.7351 -0.0231
  112MPD2    N1 1718   4.533   4.396  11.084 -0.6640 -0.0911 -1.0358
  112MPD2    H7 1719   4.608   4.404  11.016  1.6915 -0.7832  1.4487
  113MPD2     C 1720   2.644   2.251   0.660  0.2655 -0.6626  0.4349
  113MPD2    C1 1721   2.558   2.341   0.603 -0.1982  0.3415 -0.0952
  113MPD2    C2 1722   2.450   2.290   0.535  0.1442 -0.6762 -1.0814
  113MPD2    C3 1723   2.424   2.150   0.537 -0.0606 -0.1215 -1.1041
  113MPD2    C4 1724   2.505   2.062   0.604 -0.2430  0.6724 -0.8336
  113MPD2    C5 1725   2.611   2.114   0.673  0.3203  0.4159  0.8356
  113MPD2     H 1726   2.374   2.355   0.494 -0.3257  1.5483  3.3619
  113MPD2    H1 1727   2.480   1.957   0.612 -1.1955  0.8099 -2.0485
  113MPD2    H2 1728   2.737   2.283   0.707 -0.3390  0.1682  1.0681
  113MPD2    H3 1729   2.693   2.052   0.709  1.0703 -0.2587 -2.0333
  113MPD2     N 1730   2.317   2.096   0.474 -0.3094  0.8295  0.2304
  113MPD2    H5 1731   2.309   1.996   0.492 -1.0920  0.3890 -2.5024
  113MPD2    N1 1732   2.589   2.479   0.596 -0.6198 -0.0478 -0.0285
  113MPD2    H7 1733   2.525   2.539   0.544  0.9302  2.8366  1.3659
  114TCq2    C1 1734   2.231   2.161   0.385  0.3265  0.1097 -0.3602
  114TCq2    O2 1735   2.232   2.279   0.347  0.4548  0.0159  0.1083
  114TCq2    C2 1736   2.127   2.069   0.341 -0.4887 -0.2442  0.6357
  114TCq2    C3 1737   2.088   2.078   0.212 -0.1103  0.6838 -0.2800
  114TCq2    C4 1738   1.984   2.000   0.167  0.2437 -0.1313 -0.1065
  114TCq2    C5 1739   1.929   1.905   0.243 -0.6422  0.9348 -0.2913
  114TCq2    C6 1740   1.962   1.909   0.376 -0.1108 -0.4428  0.5762
  114TCq2    C7 1741   2.051   1.999   0.434 -0.2705  0.4115 -0.8358
  114TCq2    C8 1742   1.890   1.813   0.457  0.1984 -0.4964  0.2754
  114TCq2    O4 1743   1.834   1.724   0.390 -0.1914  0.1872  0.1718
  114TCq2    C9 1744   1.936   2.017   0.038  0.1501 -0.1512  0.1227
  114TCq2    O5 1745   1.856   1.933  17.686  0.4578 -0.4312 -0.4279
  114TCq2    O6 1746   1.958   2.130  17.678  0.4434  0.1584 -0.2396
  114TCq2    H2 1747   2.133   2.147   0.142 -0.1682 -0.1729 -1.1648
  114TCq2    H3 1748   1.842   1.852   0.208  1.9288 -2.2405 -1.8622
  114TCq2    H4 1749   2.070   2.010   0.540  0.2364  0.1054 -0.8975
  115TMC2    C1 1750   3.049   0.046   0.071  0.3130 -0.9914  1.4886
  115TMC2    C2 1751   3.157   0.021  17.680  0.3819  0.9515 -0.6070
  115TMC2    C3 1752   3.190   0.137  17.608  0.2554  0.4300  0.2108
  115TMC2    C4 1753   2.970   0.155   0.067  0.3052 -0.1016 -0.6126
  115TMC2    C5 1754   3.022   0.265  17.690  0.7138 -0.7112 -0.4046
  115TMC2    C6 1755   3.139   0.259  17.618  0.3052 -0.0760  0.3995
  115TMC2     C 1756   2.991   4.640   0.113 -0.2979  1.1008 -0.3447
  115TMC2     O 1757   3.015   4.547   0.040 -0.4148 -0.2460 -0.4409
  115TMC2     H 1758   3.212   4.652  17.671 -0.8894  0.1832 -0.4579
  115TMC2    H1 1759   2.872   0.158   0.113  1.1457  1.6703  1.0487
  115TMC2    H2 1760   3.177   0.342  17.559 -2.2690  0.2353 -0.8326
  115TMC2    C7 1761   2.953   0.390   0.007  0.8820  0.4620  0.3044
  115TMC2    C8 1762   3.319   0.121  17.536 -0.4713 -0.2422  0.1212
  115TMC2    O1 1763   2.847   0.381   0.073 -0.3694 -0.1591  0.1146
  115TMC2    O2 1764   3.356   0.189  17.438  0.4754 -0.7014  0.2992
  115TMC2    O5 1765   3.398   0.091  17.640  0.5914  0.0365  0.5433
  115TMC2    H5 1766   3.349   0.061   0.024  0.8123  1.8450  1.3628
  116MPD2     C 1767   2.646   4.361   0.374 -0.6504 -0.6241  0.7450
  116MPD2    C1 1768   2.733   4.333   0.269  0.3768 -0.1405 -0.1016
  116MPD2    C2 1769   2.831   4.425   0.231  0.2140  0.1029 -1.0727
  116MPD2    C3 1770   2.831   4.554   0.284  0.5585  0.0203 -0.0048
  116MPD2    C4 1771   2.748   4.579   0.392  0.0785 -0.1781  0.1212
  116MPD2    C5 1772   2.660   4.484   0.440 -1.0485 -0.4825 -0.0082
  116MPD2     H 1773   2.908   4.391   0.162  0.8994 -0.8742  0.1960
  116MPD2    H1 1774   2.744   4.679   0.432  2.8150  0.3339 -0.8708
  116MPD2    H2 1775   2.565   4.299   0.412 -0.7641 -1.2505 -0.4947
  116MPD2    H3 1776   2.598   4.508   0.526 -0.1437  2.4813 -0.2047
  116MPD2     N 1777   2.922   4.656   0.227  0.4236 -0.5807  0.3551
  116MPD2    H5 1778   2.922   0.023   0.273  0.4770 -1.4650  2.0692
  116MPD2    N1 1779   2.733   4.199   0.209 -0.3293 -0.2943  0.5729
  116MPD2    H7 1780   2.676   4.140   0.268 -1.1650 -1.3925 -1.3376
  117TMC2    C1 1781   2.230   1.618  13.714 -0.6916  0.0098  0.1386
  117TMC2    C2 1782   2.340   1.547  13.681 -0.1017 -0.7316 -0.2940
  117TMC2    C3 1783   2.462   1.584  13.725  0.1402  0.3132  0.0558
  117TMC2    C4 1784   2.237   1.724  13.794  0.7409  0.3683 -0.2366
  117TMC2    C5 1785   2.363   1.764  13.839  0.2075  0.3131  0.4666
  117TMC2    C6 1786   2.473   1.696  13.798 -0.1413 -1.0359 -0.8143
  117TMC2     C 1787   2.126   1.617  13.609 -0.1941  0.0334  0.3754
  117TMC2     O 1788   2.147   1.566  13.498  0.1430  0.3269 -0.0699
  117TMC2     H 1789   2.328   1.466  13.610  2.9022 -2.1098  0.7551
  117TMC2    H1 1790   2.154   1.789  13.817  2.1717  2.1812 -0.1332
  117TMC2    H2 1791   2.567   1.724  13.843 -1.0628  0.0674  0.4276
  117TMC2    C7 1792   2.386   1.907  13.841  0.4918 -0.0909  0.2221
  117TMC2    C8 1793   2.571   1.566  13.633 -0.6044  1.3163 -0.3475
  117TMC2    O1 1794   2.490   1.949  13.789 -0.2407  0.4279  0.0470
  117TMC2    O2 1795   2.688   1.564  13.669  0.1060  0.3835 -0.7321
  117TMC2    O5 1796   2.536   1.612  13.508  0.6139  0.4018 -0.1777
  117TMC2    H5 1797   2.454   1.664  13.516  1.6147  1.6078  2.3234
  118MPD2     C 1798   2.157   2.146  13.992 -0.2788 -0.4524  0.9322
  118MPD2    C1 1799   2.276   2.106  13.933 -0.4924 -0.3379  0.1691
  118MPD2    C2 1800   2.369   2.198  13.880 -0.1239  0.4051  0.6658
  118MPD2    C3 1801   2.337   2.328  13.880 -0.1432  0.4738  0.1509
  118MPD2    C4 1802   2.213   2.369  13.923 -0.2541  0.1181  0.5230
  118MPD2    C5 1803   2.124   2.277  13.983 -0.4147 -0.6952  0.1132
  118MPD2     H 1804   2.458   2.169  13.827 -0.6882 -2.3295  1.2378
  118MPD2    H1 1805   2.181   2.472  13.920  1.1954  0.5441 -0.2207
  118MPD2    H2 1806   2.091   2.080  14.047  1.1194 -1.1187  1.8059
  118MPD2    H3 1807   2.031   2.312  14.027 -0.5889 -2.4418  1.1467
  118MPD2     N 1808   2.413   2.430  13.831  0.2625 -0.0120  0.4428
  118MPD2    H5 1809   2.365   2.518  13.813 -1.0880 -0.3264  2.4113
  118MPD2    N1 1810   2.285   1.967  13.910 -0.6792  0.4886  0.2853
  118MPD2    H7 1811   2.229   1.911  13.974 -1.5573 -0.6713 -1.5159
  119MPD2     C 1812   0.488   3.303  14.154 -1.0562 -0.7394 -0.8342
  119MPD2    C1 1813   0.358   3.252  14.147  0.5110 -0.0110  0.6869
  119MPD2    C2 1814   0.298   3.241  14.019 -0.5513  0.4693 -0.0210
  119MPD2    C3 1815   0.383   3.258  13.907  0.0175  1.0641  0.0260
  119MPD2    C4 1816   0.514   3.305  13.917 -0.0378 -0.6291  0.4637
  119MPD2    C5 1817   0.563   3.335  14.044 -0.5566  0.3894  0.1205
  119MPD2     H 1818   0.193   3.213  14.018 -0.5658  0.5297 -0.1388
  119MPD2    H1 1819   0.572   3.310  13.826  0.0857  1.2454  0.6440
  119MPD2    H2 1820   0.539   3.329  14.246 -1.3842 -1.3713 -0.4743
  119MPD2    H3 1821   0.654   3.391  14.058 -2.0609  3.3033 -1.6095
  119MPD2     N 1822   0.329   3.237  13.774 -0.8522 -0.0516  0.5096
  119MPD2    H5 1823   0.399   3.239  13.700 -2.8146 -0.3229 -1.3661
  119MPD2    N1 1824   0.293   3.227  14.276  0.5668 -0.4395  0.1258
  119MPD2    H7 1825   0.335   3.270  14.357  2.8075 -1.6475 -0.3807
  120TCq2    C1 1826   0.200   3.189  13.742  0.2433  0.2610 -0.6543
  120TCq2    O2 1827   0.108   3.161  13.816  0.1650 -0.1822 -0.6002
  120TCq2    C2 1828   0.183   3.172  13.604  0.3434  0.6228  0.0787
  120TCq2    C3 1829   0.263   3.250  13.514 -0.4450  0.2265  0.5836
  120TCq2    C4 1830   0.230   3.257  13.382  0.0293 -0.7163  0.2851
  120TCq2    C5 1831   0.105   3.217  13.349  0.2294 -0.6057 -0.4974
  120TCq2    C6 1832   0.028   3.142  13.440 -0.3156 -0.3375  0.1123
  120TCq2    C7 1833   0.060   3.125  13.566 -0.0472  0.6543  0.0287
  120TCq2    C8 1834   4.632   3.075  13.395 -0.0150  0.4650  0.0546
  120TCq2    O4 1835   4.569   3.132  13.307 -0.1524 -0.3322  0.1375
  120TCq2    C9 1836   0.313   3.318  13.286 -0.1303  0.0681  0.2419
  120TCq2    O5 1837   0.284   3.289  13.163 -0.1116  0.0254 -0.1378
  120TCq2    O6 1838   0.433   3.341  13.320  0.4225 -0.1199  0.2373
  120TCq2    H2 1839   0.366   3.275  13.534 -0.0224 -0.4339 -0.7703
  120TCq2    H3 1840   0.083   3.217  13.243 -0.4445  1.5988 -0.3654
  120TCq2    H4 1841   4.709   3.097  13.639 -1.0258 -0.0871 -1.2616
  121TMC2    C1 1842   1.955   0.053  13.781  0.0171  0.0074  0.1899
  121TMC2    C2 1843   2.079   0.003  13.764 -0.5455  0.4491 -0.1713
  121TMC2    C3 1844   2.095   4.592  13.741 -0.5239  0.2784 -0.0824
  121TMC2    C4 1845   1.843   4.696  13.792  0.4456  0.4900  0.2949
  121TMC2    C5 1846   1.872   4.561  13.772 -0.0221  0.1165  0.4715
  121TMC2    C6 1847   1.990   4.505  13.745 -0.0782  0.6652  0.7104
  121TMC2     C 1848   1.934   0.195  13.739  0.6269  0.4200  0.2971
  121TMC2     O 1849   2.010   0.238  13.650 -0.6637  0.4691  0.1486
  121TMC2     H 1850   2.163   0.068  13.741 -1.2670  0.7537 -1.9722
  121TMC2    H1 1851   1.748   0.008  13.829  0.3156  1.5826 -1.0955
  121TMC2    H2 1852   1.999   4.398  13.728  1.8410  0.6631  1.7815
  121TMC2    C7 1853   1.768   4.470  13.793 -0.3857 -0.4240 -0.7701
  121TMC2    C8 1854   2.222   4.538  13.693 -0.0280 -0.8038 -0.3531
  121TMC2    O1 1855   1.794   4.363  13.848  0.3551 -0.0339 -0.2058
  121TMC2    O2 1856   2.241   4.437  13.622 -0.1914 -0.0649 -0.2721
  121TMC2    O5 1857   2.325   4.613  13.743 -1.1254  0.1802 -0.3647
  121TMC2    H5 1858   2.303   4.679  13.812 -0.9427  1.6179 -1.7063
  122MPD2     C 1859   1.698   0.438  13.867  0.7498  0.5998 -0.1866
  122MPD2    C1 1860   1.800   0.389  13.791 -0.2612  0.6221  0.5958
  122MPD2    C2 1861   1.863   0.476  13.701  0.7612 -0.0272 -0.6744
  122MPD2    C3 1862   1.814   0.609  13.691 -0.2719 -0.0764 -0.4709
  122MPD2    C4 1863   1.715   0.653  13.774  0.1601  0.3521  0.9967
  122MPD2    C5 1864   1.659   0.569  13.864  0.3025  0.0986 -0.3900
  122MPD2     H 1865   1.944   0.445  13.636  0.4460 -0.9428 -0.6330
  122MPD2    H1 1866   1.695   0.759  13.769  1.8978  0.6936  1.4324
  122MPD2    H2 1867   1.643   0.377  13.938  0.4941  0.4827 -0.4844
  122MPD2    H3 1868   1.584   0.602  13.934 -1.9227 -1.8449 -1.8852
  122MPD2     N 1869   1.865   0.700  13.597  0.0912  0.1435 -1.1632
  122MPD2    H5 1870   1.837   0.797  13.602 -0.8840 -0.2227  0.4562
  122MPD2    N1 1871   1.833   0.254  13.810 -0.0144 -0.6710 -0.3713
  122MPD2    H7 1872   1.797   0.210  13.894 -1.2125 -0.1544 -0.6105
  123MPD2     C 1873   0.230   2.737  10.354  0.0608 -0.0437 -0.0226
  123MPD2    C1 1874   0.282   2.819  10.249 -0.0487 -0.0338  0.1412
  123MPD2    C2 1875   0.291   2.951  10.275  0.1076 -0.1347  0.2479
  123MPD2    C3 1876   0.239   3.008  10.387  0.4599 -0.0992 -0.4275
  123MPD2    C4 1877   0.177   2.928  10.481  0.3227  0.0454  0.6100
  123MPD2    C5 1878   0.170   2.790  10.463 -0.9560 -0.3236 -0.1429
  123MPD2     H 1879   0.336   3.013  10.198  0.0919  0.0629  0.4000
  123MPD2    H1 1880   0.116   2.958  10.566  0.0888 -0.5298  0.6436
  123MPD2    H2 1881   0.229   2.631  10.333 -0.4334  0.0168 -0.3049
  123MPD2    H3 1882   0.115   2.728  10.534 -0.8212 -0.0564  0.1971
  123MPD2     N 1883   0.261   3.146  10.407 -0.2779 -0.4913 -0.2921
  123MPD2    H5 1884   0.322   3.185  10.336  0.7438 -0.7096  0.4729
  123MPD2    N1 1885   0.310   2.756  10.124  0.2807  0.5507 -0.5498
  123MPD2    H7 1886   0.294   2.656  10.120  1.8655  0.3519 -1.9622
  124TCq2    C1 1887   0.236   3.225  10.515  0.7901  0.8117  0.7509
  124TCq2    O2 1888   0.180   3.186  10.613  0.4576 -0.7622  0.7814
  124TCq2    C2 1889   0.278   3.371  10.495  0.0733 -0.2966  0.5309
  124TCq2    C3 1890   0.315   3.451  10.605  0.3339  0.4301 -0.1819
  124TCq2    C4 1891   0.380   3.565  10.575  0.4697  0.0810 -0.0417
  124TCq2    C5 1892   0.416   3.606  10.451 -0.0674 -0.6307 -0.5926
  124TCq2    C6 1893   0.376   3.528  10.345 -0.4720 -0.6652  0.7357
  124TCq2    C7 1894   0.299   3.415  10.369  0.5971  1.1530  0.8365
  124TCq2    C8 1895   0.455   3.523  10.217 -0.4955 -0.0023 -0.1048
  124TCq2    O4 1896   0.436   3.415  10.155 -0.2415  0.0863 -0.6955
  124TCq2    C9 1897   0.411   3.644  10.695  0.0991 -0.0991 -0.3247
  124TCq2    O5 1898   0.481   3.742  10.673  0.4726  0.2599  0.4141
  124TCq2    O6 1899   0.356   3.627  10.809 -0.1892  0.2395 -0.4038
  124TCq2    H2 1900   0.314   3.414  10.707  0.1655 -3.4208 -1.6021
  124TCq2    H3 1901   0.471   3.699  10.448  1.2910 -1.3732  1.5480
  124TCq2    H4 1902   0.268   3.352  10.286  1.3000  1.1241  0.5961
  125TMC2    C1 1903   1.098   0.316   8.978 -0.3950  0.2013 -0.0061
  125TMC2    C2 1904   1.140   0.275   8.852  0.0684  0.6293  0.3022
  125TMC2    C3 1905   1.268   0.265   8.820 -0.2539  0.2272 -0.0770
  125TMC2    C4 1906   1.184   0.329   9.083  0.0656  0.8921  0.8456
  125TMC2    C5 1907   1.308   0.303   9.051  0.1376  0.2185  0.0921
  125TMC2    C6 1908   1.359   0.289   8.917 -0.1040  0.3710  0.1619
  125TMC2     C 1909   0.960   0.287   9.002 -0.5002 -0.3430 -0.1500
  125TMC2     O 1910   0.894   0.246   8.909 -0.0842 -0.0697 -0.5610
  125TMC2     H 1911   1.067   0.257   8.774 -0.3654  2.9321  0.1774
  125TMC2    H1 1912   1.152   0.341   9.186 -1.3804  1.4483  0.3346
  125TMC2    H2 1913   1.463   0.264   8.896 -0.5334 -0.3935 -1.0971
  125TMC2    C7 1914   1.406   0.317   9.159  0.3803 -0.0513 -0.1803
  125TMC2    C8 1915   1.303   0.235   8.688  0.3184  0.5562  0.1663
  125TMC2    O1 1916   1.364   0.293   9.275 -0.1896 -0.3365 -0.6353
  125TMC2    O2 1917   1.232   0.173   8.611 -0.2375 -0.4853  0.2180
  125TMC2    O5 1918   1.398   0.325   8.652 -0.1439 -0.8669  0.1388
  125TMC2    H5 1919   1.429   0.385   8.724 -3.6862  0.4095  0.5906
  126MPD1     C 1920   0.539   0.239   9.287 -0.2755  0.1309 -0.0403
  126MPD1    C1 1921   0.629   0.312   9.364 -0.3085 -0.1348  0.9307
  126MPD1    C2 1922   0.756   0.326   9.307 -0.3140 -0.0852  0.1059
  126MPD1    C3 1923   0.789   0.285   9.183  0.3797  0.6551  0.5417
  126MPD1    C4 1924   0.702   0.203   9.114  0.6550 -0.3322  0.2742
  126MPD1    C5 1925   0.576   0.181   9.170 -0.7958 -0.5218 -0.1646
  126MPD1     H 1926   0.830   0.384   9.361 -2.4034  2.5465  0.1368
  126MPD1    H1 1927   0.721   0.138   9.030 -1.8991  0.2548 -0.7479
  126MPD1    H2 1928   0.435   0.227   9.314 -0.4312 -0.4326 -0.8665
  126MPD1    H3 1929   0.520   0.108   9.111  1.3072 -0.6298 -2.0269
  126MPD1     N 1930   0.915   0.313   9.132 -0.1393  0.3064  0.2451
  126MPD1    H5 1931   0.988   0.360   9.184 -0.6778  0.2935  1.0001
  126MPD1    N1 1932   0.597   0.368   9.488 -0.2289  0.0444 -0.8158
  126MPD1    H6 1933   0.629   0.318   9.571 -1.7236 -0.5119 -0.5715
  126MPD1    H7 1934   0.495   0.372   9.494 -0.3056 -2.7207 -0.2815
  127MPD2     C 1935   3.246   3.944   9.999 -0.5625  0.4303 -0.7447
  127MPD2    C1 1936   3.144   3.921   9.912 -0.0992  0.5121  0.4543
  127MPD2    C2 1937   3.110   4.014   9.817 -0.6410 -0.0810 -0.2342
  127MPD2    C3 1938   3.166   4.133   9.811 -0.0402 -0.5042  0.2071
  127MPD2    C4 1939   3.266   4.165   9.903 -0.7465  0.4938 -0.6416
  127MPD2    C5 1940   3.312   4.072   9.992  0.3175 -0.3831  0.2332
  127MPD2     H 1941   3.026   4.003   9.749 -0.0660 -0.3234 -0.9005
  127MPD2    H1 1942   3.323   4.256   9.914 -1.2654  0.8973 -1.2516
  127MPD2    H2 1943   3.268   3.879  10.083  1.5102  2.5981  0.3810
  127MPD2    H3 1944   3.389   4.095  10.065  0.8902  1.4344 -0.9598
  127MPD2     N 1945   3.122   4.221   9.713  0.1812  0.6060  0.0813
  127MPD2    H5 1946   3.041   4.198   9.655  0.7108 -3.8033  1.0863
  127MPD2    N1 1947   3.089   3.792   9.919 -0.0272 -0.6522 -0.6741
  127MPD2    H7 1948   3.118   3.727   9.991 -0.9569  0.5773  0.7952
  128TCq2    C1 1949   2.987   3.758   9.829  0.1187 -0.1270 -0.1486
  128TCq2    O2 1950   2.977   3.788   9.711  0.0727  0.6132  0.3014
  128TCq2    C2 1951   2.893   3.672   9.894  0.0474  0.2585 -0.2371
  128TCq2    C3 1952   2.864   3.705  10.029  0.2587 -0.1001  0.4037
  128TCq2    C4 1953   2.732   3.688  10.066  0.5215  0.0137 -0.1866
  128TCq2    C5 1954   2.639   3.624   9.990  0.3944  0.2955 -0.3144
  128TCq2    C6 1955   2.675   3.598   9.861  0.3022 -0.1015 -0.3634
  128TCq2    C7 1956   2.800   3.610   9.809  0.2883  0.3546  0.0521
  128TCq2    C8 1957   2.575   3.532   9.772 -0.2550 -0.1914 -0.5500
  128TCq2    O4 1958   2.598   3.535   9.654  0.6163  0.8253  0.0870
  128TCq2    C9 1959   2.690   3.721  10.200 -0.0287  0.3447  0.5860
  128TCq2    O5 1960   2.772   3.774  10.273  0.5746 -0.4304 -0.3436
  128TCq2    O6 1961   2.567   3.709  10.230 -0.1499 -0.7067 -0.0361
  128TCq2    H2 1962   2.941   3.742  10.097 -0.1290  0.4512  0.5442
  128TCq2    H3 1963   2.539   3.617  10.031  1.5311 -1.2560  2.2237
  128TCq2    H4 1964   2.827   3.596   9.705 -0.0324 -1.4288  0.2146
  129MPD2     C 1965   4.634   4.521   1.445  0.1171 -0.2271 -0.0349
  129MPD2    C1 1966   0.034   4.514   1.388 -0.6877 -0.0128 -0.8621
  129MPD2    C2 1967   0.067   4.606   1.295 -0.2599  0.0176 -0.6196
  129MPD2    C3 1968   4.715   4.711   1.257 -0.2807  0.1223 -0.1655
  129MPD2    C4 1969   4.591   4.720   1.313 -0.3721 -0.1638 -0.3010
  129MPD2    C5 1970   4.550   4.625   1.406 -1.1609  0.0136 -0.0706
  129MPD2     H 1971   0.162   4.605   1.242  0.5237 -0.3332  0.7891
  129MPD2    H1 1972   4.524   0.078   1.288  0.6820  0.7397 -0.1786
  129MPD2    H2 1973   4.591   4.446   1.510  0.1034 -0.3222 -0.1539
  129MPD2    H3 1974   4.463   4.628   1.472 -1.3559 -0.1857 -0.3197
  129MPD2     N 1975   0.036   0.082   1.156  0.2571  0.2194  0.5325
  129MPD2    H5 1976   0.131   0.070   1.123  0.5112 -2.4232  2.2079
  129MPD2    N1 1977   0.131   4.415   1.409  1.0329 -0.1103 -0.4251
  129MPD2    H7 1978   0.221   4.435   1.366  0.6754 -0.2107 -1.2193
  130TCq2    C1 1979   0.109   4.294   1.480  0.1345 -0.2308 -0.2137
  130TCq2    O2 1980   0.009   4.242   1.526  0.4009 -0.1163 -0.3062
  130TCq2    C2 1981   0.230   4.206   1.478 -0.2441  0.9189 -0.4670
  130TCq2    C3 1982   0.335   4.232   1.392  0.7256 -0.4993 -0.5493
  130TCq2    C4 1983   0.442   4.143   1.379 -0.5940  0.5234 -0.0764
  130TCq2    C5 1984   0.441   4.026   1.453 -0.0883 -0.4872  0.2168
  130TCq2    C6 1985   0.330   4.000   1.523 -0.0258 -0.8357 -0.8961
  130TCq2    C7 1986   0.220   4.087   1.540  0.0742  0.6335 -0.0646
  130TCq2    C8 1987   0.301   3.870   1.588 -0.1498  0.1432 -0.0401
  130TCq2    O4 1988   0.191   3.852   1.636 -0.3018 -0.0847  0.0669
  130TCq2    C9 1989   0.559   4.173   1.301  0.5094  0.8995 -1.0371
  130TCq2    O5 1990   0.554   4.267   1.220  0.6418 -0.5544 -0.2975
  130TCq2    O6 1991   0.659   4.095   1.307  0.3841  0.5187 -0.2518
  130TCq2    H2 1992   0.333   4.318   1.326 -0.0015  0.0454  0.1861
  130TCq2    H3 1993   0.530   3.964   1.441 -0.8643 -1.5665  0.0816
  130TCq2    H4 1994   0.124   4.064   1.583 -0.0784 -0.9372 -1.2310
  131MPD2     C 1995   0.561   3.282   9.407 -0.6978 -0.2734 -0.0446
  131MPD2    C1 1996   0.439   3.299   9.461  0.0558  0.8491 -0.4311
  131MPD2    C2 1997   0.376   3.183   9.502 -0.1430  0.5204  0.0658
  131MPD2    C3 1998   0.435   3.058   9.498 -0.4675  0.2496  0.2184
  131MPD2    C4 1999   0.546   3.041   9.417  0.3092  0.5292 -0.0540
  131MPD2    C5 2000   0.615   3.156   9.383 -0.2700  0.0368 -0.9048
  131MPD2     H 2001   0.278   3.184   9.547  0.7259 -1.2079  1.9337
  131MPD2    H1 2002   0.610   2.954   9.405 -2.0439 -1.4320  1.5353
  131MPD2    H2 2003   0.610   3.374   9.377  0.2811  0.3567  3.4172
  131MPD2    H3 2004   0.714   3.156   9.339 -0.0470  0.0271 -0.3988
  131MPD2     N 2005   0.371   2.953   9.566  0.1244  0.3165 -0.0148
  131MPD2    H5 2006   0.302   2.976   9.637 -0.1946 -0.0261 -0.2148
  131MPD2    N1 2007   0.379   3.429   9.471 -0.1637  0.0612  0.2466
  131MPD2    H7 2008   0.440   3.507   9.452 -0.8048  0.7733  1.1296
  132TCq2    C1 2009   0.302   3.876   9.281 -0.9487 -0.3102 -0.9463
  132TCq2    O2 2010   0.287   3.816   9.176  0.9272  0.4212 -0.1187
  132TCq2    C2 2011   0.275   3.799   9.407 -0.8219 -0.5728  0.0983
  132TCq2    C3 2012   0.213   3.863   9.502 -0.6608 -0.0689 -0.4344
  132TCq2    C4 2013   0.142   3.791   9.593 -0.2753 -0.7526  0.4324
  132TCq2    C5 2014   0.137   3.660   9.590  0.5495  0.0848  0.1072
  132TCq2    C6 2015   0.221   3.593   9.503  0.1856  0.9016 -0.1982
  132TCq2    C7 2016   0.287   3.663   9.401 -0.4812 -0.2425  0.3409
  132TCq2    C8 2017   0.261   3.461   9.527 -1.0342  0.1480 -0.0591
  132TCq2    O4 2018   0.176   3.385   9.569 -0.2811  0.6159  0.3453
  132TCq2    C9 2019   0.071   3.865   9.691 -0.3274 -0.3700 -0.1128
  132TCq2    O5 2020   0.102   3.982   9.715  0.2022 -0.6849  0.5966
  132TCq2    O6 2021   4.701   3.808   9.753 -0.1882 -0.3371  0.5241
  132TCq2    H2 2022   0.204   3.971   9.494  0.2193  0.2276  2.4499
  132TCq2    H3 2023   0.084   3.606   9.667 -0.9100 -0.5954 -1.3915
  132TCq2    H4 2024   0.348   3.619   9.323 -0.3826 -0.0877  0.3309
  133MPD2     C 2025   4.170   4.386   8.708 -0.4141  0.1616 -0.1896
  133MPD2    C1 2026   4.236   4.328   8.810  0.2825  0.1716 -0.2132
  133MPD2    C2 2027   4.183   4.219   8.870  0.2672  0.0979  0.0651
  133MPD2    C3 2028   4.071   4.165   8.816 -0.1324 -0.6243 -0.4602
  133MPD2    C4 2029   4.004   4.226   8.712  0.1541  0.4227 -0.0035
  133MPD2    C5 2030   4.062   4.331   8.651 -1.1046 -0.0191  0.2781
  133MPD2     H 2031   4.244   4.173   8.947  0.0813 -0.1216  0.0812
  133MPD2    H1 2032   3.918   4.174   8.670  0.4493  0.5115 -0.7149
  133MPD2    H2 2033   4.211   4.472   8.656 -0.7803  0.1436 -0.5075
  133MPD2    H3 2034   4.013   4.371   8.563 -0.0678 -0.2787 -0.4163
  133MPD2     N 2035   4.011   4.052   8.876  0.2719 -0.0955  0.7448
  133MPD2    H5 2036   3.918   4.022   8.850 -0.4184  1.3040  1.5811
  133MPD2    N1 2037   4.350   4.397   8.858  0.6683  0.0224  0.4652
  133MPD2    H7 2038   4.362   4.495   8.835 -2.9294  0.1121 -1.0070
  134TCq2    C1 2039   4.439   4.339   8.953 -0.3776 -0.2805  0.4340
  134TCq2    O2 2040   4.453   4.230   8.998 -0.0897 -0.2226  0.2994
  134TCq2    C2 2041   4.518   4.444   9.020 -0.1748 -0.2092  1.1575
  134TCq2    C3 2042   4.563   4.551   8.950 -0.4434 -0.0036  0.1707
  134TCq2    C4 2043   4.603   4.670   9.009  0.0164  0.6421 -0.2008
  134TCq2    C5 2044   4.593   4.683   9.144 -0.9112  0.3613 -0.4910
  134TCq2    C6 2045   4.536   4.574   9.213  0.3307 -0.1237  0.1429
  134TCq2    C7 2046   4.506   4.457   9.156  0.5055 -0.5785 -0.4560
  134TCq2    C8 2047   4.562   4.547   9.354  0.4381  0.1162  0.0366
  134TCq2    O4 2048   4.537   4.439   9.399  0.0013 -0.4842  0.2150
  134TCq2    C9 2049   4.654   0.048   8.922  0.0636  0.4513 -0.3712
  134TCq2    O5 2050   4.703   0.157   8.971  0.1060  0.0620 -0.8454
  134TCq2    O6 2051   4.659   0.017   8.797  0.6858  0.2274 -0.4773
  134TCq2    H2 2052   4.565   4.538   8.843 -0.2525 -0.0442  0.1794
  134TCq2    H3 2053   4.627   0.052   9.190 -0.0519 -0.2542  0.1182
  134TCq2    H4 2054   4.462   4.376   9.214  0.3678 -0.3305 -0.2160
  135MPD2     C 2055   2.006   0.634   8.836  0.0254  0.0936 -0.7012
  135MPD2    C1 2056   2.014   0.709   8.946  0.1185 -0.3450 -0.2641
  135MPD2    C2 2057   2.136   0.765   8.979 -0.5997 -0.6881  0.4927
  135MPD2    C3 2058   2.247   0.755   8.897  0.2128  0.2072 -0.2183
  135MPD2    C4 2059   2.243   0.670   8.795 -0.6414  0.0823 -0.8162
  135MPD2    C5 2060   2.122   0.614   8.768 -0.0094 -0.5472  0.4790
  135MPD2     H 2061   2.138   0.827   9.068 -1.2454  0.5795 -0.3681
  135MPD2    H1 2062   2.324   0.655   8.726 -0.0859  0.2533 -0.1998
  135MPD2    H2 2063   1.923   0.579   8.794  0.1721 -0.8384  0.2106
  135MPD2    H3 2064   2.128   0.549   8.682 -2.2366 -2.5785  1.8685
  135MPD2     N 2065   2.366   0.828   8.913 -0.6304 -0.1424  0.0076
  135MPD2    H5 2066   2.444   0.804   8.854 -0.2308 -0.2406  0.5753
  135MPD2    N1 2067   1.897   0.738   9.025  0.8453 -0.1440  0.0683
  135MPD2    H7 2068   1.904   0.779   9.118 -2.0636 -1.4144  0.8564
  136TCq2    C1 2069   1.768   0.709   8.987  0.1408 -0.2614  0.8344
  136TCq2    O2 2070   1.738   0.687   8.870 -0.1712  0.6409 -0.0696
  136TCq2    C2 2071   1.663   0.736   9.083 -0.2485  0.2600  0.4495
  136TCq2    C3 2072   1.533   0.719   9.040  0.5793 -0.2637 -0.2011
  136TCq2    C4 2073   1.430   0.708   9.129  0.5321 -0.0183  0.5779
  136TCq2    C5 2074   1.454   0.709   9.263 -0.9179 -0.2505 -0.2503
  136TCq2    C6 2075   1.587   0.721   9.305  0.1750  0.0552  0.4571
  136TCq2    C7 2076   1.694   0.739   9.216 -0.0270 -1.4722  0.7454
  136TCq2    C8 2077   1.615   0.749   9.445 -0.3323  0.6884  0.3856
  136TCq2    O4 2078   1.725   0.797   9.476  0.2990 -0.1353 -0.0463
  136TCq2    C9 2079   1.296   0.701   9.077  0.1870  0.2438 -0.0442
  136TCq2    O5 2080   1.277   0.691   8.953  0.5667  0.4346 -0.1286
  136TCq2    O6 2081   1.195   0.723   9.154 -0.2936  0.2594  0.1134
  136TCq2    H2 2082   1.504   0.717   8.936 -2.9654  0.0592  0.7546
  136TCq2    H3 2083   1.368   0.697   9.328  0.3982 -1.0813  1.3201
  136TCq2    H4 2084   1.795   0.738   9.254  0.1815 -0.8741  0.1980
  137MPD2     C 2085   1.628   4.393   9.601  0.0848 -0.6504  0.0161
  137MPD2    C1 2086   1.723   4.486   9.624  0.1267  1.1500  0.1610
  137MPD2    C2 2087   1.767   4.523   9.755  0.5649 -0.0181 -0.2618
  137MPD2    C3 2088   1.694   4.466   9.858  0.3188 -0.4348 -0.4421
  137MPD2    C4 2089   1.602   4.364   9.827  0.1673  0.5231 -0.6139
  137MPD2    C5 2090   1.561   4.333   9.703  0.2757 -0.1626 -0.0360
  137MPD2     H 2091   1.844   4.598   9.765  0.8422 -0.3564  0.1451
  137MPD2    H1 2092   1.551   4.315   9.909 -0.3680  1.1027 -0.5984
  137MPD2    H2 2093   1.591   4.363   9.504 -2.1984 -2.1553  1.3399
  137MPD2    H3 2094   1.483   4.262   9.678  1.3364 -1.3101 -0.0842
  137MPD2     N 2095   1.719   4.512   9.993  0.4827 -0.5321  0.4630
  137MPD2    H5 2096   1.796   4.578  10.000  0.2178 -0.0332 -1.1340
  137MPD2    N1 2097   1.752   4.554   9.509  0.1159 -0.0176  0.0305
  137MPD2    H7 2098   1.706   4.518   9.425  0.1034  0.5907 -0.2183
  138TCq2    C1 2099   1.828   4.668   9.496  0.2656 -0.2652  0.3795
  138TCq2    O2 2100   1.898   0.006   9.572  0.0735 -0.1300 -0.2838
  138TCq2    C2 2101   1.841   4.708   9.354 -0.3619 -0.1675  0.0245
  138TCq2    C3 2102   1.956   0.050   9.315 -0.7921  0.1511  0.3252
  138TCq2    C4 2103   1.969   0.072   9.184 -0.1701 -0.1148  0.4464
  138TCq2    C5 2104   1.876   0.031   9.091 -0.1292  0.1914 -0.4849
  138TCq2    C6 2105   1.750   4.712   9.133 -0.5986 -0.1063 -1.2713
  138TCq2    C7 2106   1.736   4.679   9.267  0.2803  0.2850 -0.0975
  138TCq2    C8 2107   1.647   4.668   9.037  0.0623  0.9581  0.6356
  138TCq2    O4 2108   1.680   4.650   8.922  0.3813 -0.1434  0.1966
  138TCq2    C9 2109   2.098   0.123   9.139  0.1300 -0.8994  0.5058
  138TCq2    O5 2110   2.192   0.136   9.227  0.6338 -0.1956 -0.1909
  138TCq2    O6 2111   2.117   0.129   9.018  0.2098 -0.8303 -0.2567
  138TCq2    H2 2112   2.034   0.079   9.385  0.8495 -1.1821 -0.9459
  138TCq2    H3 2113   1.897   0.056   8.988 -2.1139  2.0155 -0.4613
  138TCq2    H4 2114   1.648   4.621   9.294 -0.5621  1.8681  0.5208
  139TMC2    C1 2115   2.013   2.617  13.396 -0.0170 -0.3091  0.0924
  139TMC2    C2 2116   2.075   2.718  13.327  0.0302  0.1422  0.2170
  139TMC2    C3 2117   2.038   2.847  13.366  0.1499  0.0984  0.5361
  139TMC2    C4 2118   1.919   2.632  13.495  0.6749 -0.2390  0.1100
  139TMC2    C5 2119   1.893   2.764  13.530  0.2552  0.0603 -0.4594
  139TMC2    C6 2120   1.949   2.868  13.469 -0.2549 -0.3549 -0.3108
  139TMC2     C 2121   2.062   2.482  13.374 -0.2988 -0.5208 -0.1054
  139TMC2     O 2122   2.126   2.470  13.273 -0.3008 -0.0850 -0.1333
  139TMC2     H 2123   2.134   2.706  13.237 -1.2209 -1.6202 -0.3744
  139TMC2    H1 2124   1.861   2.547  13.529 -0.9459  0.8743  0.1035
  139TMC2    H2 2125   1.932   2.971  13.497  1.5645  0.0076 -0.5235
  139TMC2    C7 2126   1.807   2.786  13.637 -0.8733  0.3671  0.1956
  139TMC2    C8 2127   2.102   2.950  13.296  0.0032 -0.0012 -0.9718
  139TMC2    O1 2128   1.805   2.707  13.727  0.4399 -0.6147  0.2322
  139TMC2    O2 2129   2.057   3.063  13.298 -0.0018 -0.2365  0.2506
  139TMC2    O5 2130   2.235   2.924  13.282 -0.2960  0.0062 -0.2691
  139TMC2    H5 2131   2.264   2.831  13.291  0.6692  0.4032  0.7386
  140MPD2     C 2132   2.043   2.205  13.616 -0.7528  0.4416  0.0440
  140MPD2    C1 2133   2.082   2.272  13.502  0.0768  0.5812 -0.1032
  140MPD2    C2 2134   2.167   2.210  13.414 -0.5969  0.0939 -0.4175
  140MPD2    C3 2135   2.220   2.084  13.442 -0.0365  0.6907  0.4863
  140MPD2    C4 2136   2.180   2.016  13.552  0.1961  0.0145  0.0471
  140MPD2    C5 2137   2.092   2.078  13.640  0.4361 -0.3072  0.0549
  140MPD2     H 2138   2.201   2.267  13.328  0.2678  1.5850  0.9167
  140MPD2    H1 2139   2.212   1.916  13.581  0.2557  0.2516  0.7967
  140MPD2    H2 2140   1.978   2.249  13.691  0.7806  0.6566  1.2603
  140MPD2    H3 2141   2.057   2.034  13.733  1.2020  1.3872  1.1474
  140MPD2     N 2142   2.313   2.031  13.346 -0.3391  0.2225  0.3505
  140MPD2    H5 2143   2.335   2.082  13.261 -0.3342 -0.4732 -0.0681
  140MPD2    N1 2144   2.043   2.404  13.487  0.0942 -0.3931  0.2259
  140MPD2    H7 2145   2.009   2.451  13.570  0.2135 -0.1909  0.1596
  141TCq2    C1 2146   2.176   3.952  14.469 -0.5693 -0.3657 -0.0171
  141TCq2    O2 2147   2.178   3.973  14.350  0.0809 -0.6912  0.0300
  141TCq2    C2 2148   2.148   4.067  14.562  0.0408  0.3062  0.5433
  141TCq2    C3 2149   2.147   4.042  14.697 -0.2421 -1.1599  0.2141
  141TCq2    C4 2150   2.093   4.132  14.783 -0.9302 -0.5068 -0.3202
  141TCq2    C5 2151   2.051   4.256  14.741  0.5183 -0.2737  0.0252
  141TCq2    C6 2152   2.056   4.274  14.604 -0.2174 -0.4858 -0.6363
  141TCq2    C7 2153   2.109   4.187  14.516 -0.0438 -0.9581  0.2541
  141TCq2    C8 2154   2.050   4.413  14.558 -0.2977 -0.3239 -0.5866
  141TCq2    O4 2155   2.015   4.422  14.441  0.0856 -0.3607  0.5367
  141TCq2    C9 2156   2.076   4.096  14.922 -0.1586 -0.2693  0.3443
  141TCq2    O5 2157   2.078   3.974  14.961  0.4563 -0.0951 -0.0507
  141TCq2    O6 2158   2.023   4.188  14.999  0.6644 -0.3465  0.0290
  141TCq2    H2 2159   2.184   3.948  14.736 -0.9827 -1.8513 -0.7739
  141TCq2    H3 2160   1.987   4.316  14.805 -0.2485 -1.1945  0.1226
  141TCq2    H4 2161   2.101   4.210  14.410  1.4588  1.2424  0.6076
  142MPD2     C 2162   0.581   2.407   9.960 -0.0951  0.3029 -0.3145
  142MPD2    C1 2163   0.606   2.415   9.831  0.3356 -0.3619  0.2063
  142MPD2    C2 2164   0.668   2.528   9.788 -0.7857  0.0557 -0.2220
  142MPD2    C3 2165   0.682   2.641   9.870 -0.2529  0.1485 -0.5033
  142MPD2    C4 2166   0.649   2.631  10.004 -0.2950  0.5595 -0.4113
  142MPD2    C5 2167   0.609   2.509  10.051 -0.5480  0.3516 -0.4039
  142MPD2     H 2168   0.681   2.539   9.681 -0.3818 -1.7856 -0.3616
  142MPD2    H1 2169   0.656   2.713  10.074 -2.4345  1.1187 -0.8551
  142MPD2    H2 2170   0.533   2.321  10.007 -0.2836 -0.6816 -2.3015
  142MPD2    H3 2171   0.595   2.500  10.158 -0.1979  0.1019 -0.3789
  142MPD2     N 2172   0.728   2.771   9.827  0.0461 -0.0401 -0.0701
  142MPD2    H5 2173   0.732   2.842   9.900  0.4112 -0.3509  0.2075
  142MPD2    N1 2174   0.566   2.312   9.742  0.0080 -0.3048 -0.2601
  142MPD2    H7 2175   0.526   2.229   9.784  0.8557 -1.0045 -0.8559
  143TCq2    C1 2176   0.770   2.799   9.703  0.6627 -0.1232  0.1705
  143TCq2    O2 2177   0.806   2.715   9.619  0.1630  0.1711  0.1496
  143TCq2    C2 2178   0.800   2.937   9.684 -0.2047 -0.5091 -0.1790
  143TCq2    C3 2179   0.896   2.968   9.595 -0.1565 -0.3557  0.0902
  143TCq2    C4 2180   0.940   3.101   9.587  0.2513 -0.3406 -0.1175
  143TCq2    C5 2181   0.871   3.201   9.650  0.6770  1.0819  0.2344
  143TCq2    C6 2182   0.763   3.176   9.724 -0.0684 -0.7182 -0.1816
  143TCq2    C7 2183   0.732   3.042   9.749  0.2724 -0.0589  0.5443
  143TCq2    C8 2184   0.694   3.274   9.803  0.2768 -0.4472 -0.1205
  143TCq2    O4 2185   0.592   3.240   9.860  0.1781  0.5508  0.1038
  143TCq2    C9 2186   1.055   3.138   9.509 -0.5596  0.0019  0.4169
  143TCq2    O5 2187   1.092   3.256   9.522 -0.1625  0.0917 -0.1190
  143TCq2    O6 2188   1.113   3.047   9.454 -0.2928 -0.0814 -0.5952
  143TCq2    H2 2189   0.964   2.902   9.541  0.9989  0.3849  0.6261
  143TCq2    H3 2190   0.908   3.302   9.635  0.6639  1.3997  2.4411
  143TCq2    H4 2191   0.643   3.017   9.806 -0.4977 -0.5080 -0.8559
  144MPD2     C 2192   2.279   1.691   0.751  0.4883  0.0309  0.5448
  144MPD2    C1 2193   2.345   1.582   0.702  0.4181  1.0832  0.0563
  144MPD2    C2 2194   2.473   1.547   0.759 -0.4399 -0.6758 -1.0771
  144MPD2    C3 2195   2.534   1.632   0.852  0.6636  0.1715  0.3613
  144MPD2    C4 2196   2.478   1.754   0.873 -0.3732  0.0599 -0.1376
  144MPD2    C5 2197   2.350   1.780   0.836 -0.2218  0.6270 -0.3216
  144MPD2     H 2198   2.522   1.456   0.726  1.8228  0.6623 -1.4581
  144MPD2    H1 2199   2.535   1.826   0.931  2.4731 -0.2798 -2.5068
  144MPD2    H2 2200   2.183   1.728   0.718  0.6328  0.4896  0.6395
  144MPD2    H3 2201   2.296   1.867   0.872  0.1774  0.8200 -0.1877
  144MPD2     N 2202   2.670   1.617   0.907  0.4871  0.4610 -0.4767
  144MPD2    H5 2203   2.705   1.694   0.962  0.4468 -0.4134  0.7906
  144MPD2    N1 2204   2.289   1.493   0.608  0.7151 -0.2846  0.3583
  144MPD2    H7 2205   2.336   1.404   0.604  0.0820 -0.5822 -0.5241
  145TCq2    C1 2206   2.752   1.512   0.878 -0.2520 -0.4906 -0.8368
  145TCq2    O2 2207   2.715   1.401   0.840 -0.1086  0.3808  0.2108
  145TCq2    C2 2208   2.895   1.527   0.922 -0.1416 -0.4958 -0.2526
  145TCq2    C3 2209   2.971   1.417   0.932 -0.1701  0.5723 -0.5161
  145TCq2    C4 2210   3.104   1.436   0.945 -0.1180 -0.5254  0.2740
  145TCq2    C5 2211   3.166   1.561   0.949  0.1210  0.2531  0.6684
  145TCq2    C6 2212   3.083   1.668   0.943 -0.3172  0.2534 -0.1051
  145TCq2    C7 2213   2.948   1.652   0.928 -0.4658  0.3061  0.2157
  145TCq2    C8 2214   3.146   1.797   0.967  0.0308  0.2898 -0.6800
  145TCq2    O4 2215   3.263   1.802   1.003  0.5684  0.2702 -0.4514
  145TCq2    C9 2216   3.187   1.330   0.983  0.7345 -0.3054 -0.5081
  145TCq2    O5 2217   3.137   1.247   1.060 -0.2085  0.2271 -0.8201
  145TCq2    O6 2218   3.312   1.343   0.954  0.0854 -0.6850 -0.3292
  145TCq2    H2 2219   2.916   1.323   0.924  1.1867 -0.2326 -0.4486
  145TCq2    H3 2220   3.273   1.576   0.941 -0.1498  2.8473  1.7878
  145TCq2    H4 2221   2.885   1.738   0.911  0.1985  0.2932 -2.3166
  146TMC2    C1 2222   3.501   0.356  13.059  0.3731 -0.3683 -0.4462
  146TMC2    C2 2223   3.428   0.442  12.975 -0.2393 -0.2524  0.4086
  146TMC2    C3 2224   3.419   0.398  12.846 -0.5686 -0.7335  0.0778
  146TMC2    C4 2225   3.557   0.238  13.016  0.6058  0.0577 -0.3352
  146TMC2    C5 2226   3.533   0.203  12.883  0.3910 -0.2357  0.2489
  146TMC2    C6 2227   3.472   0.281  12.795  0.0501 -0.5946  0.0742
  146TMC2     C 2228   3.563   0.420  13.177  0.3602  0.1847  0.2364
  146TMC2     O 2229   3.519   0.532  13.211  0.3448 -0.0562  0.1289
  146TMC2     H 2230   3.388   0.539  13.002 -2.0909 -0.5430 -1.3046
  146TMC2    H1 2231   3.607   0.174  13.089 -0.7388 -0.2614  0.3136
  146TMC2    H2 2232   3.449   0.249  12.694  0.1079  2.4399 -0.8941
  146TMC2    C7 2233   3.600   0.083  12.816 -0.8380 -0.1489  0.0160
  146TMC2    C8 2234   3.359   0.496  12.753  0.2497  0.4345 -0.2121
  146TMC2    O1 2235   3.556   0.057  12.706  0.2004 -0.1367 -0.5605
  146TMC2    O2 2236   3.240   0.536  12.765 -0.4281 -0.4991  0.0238
  146TMC2    O5 2237   3.425   0.485  12.636  0.2690 -0.0144  0.0996
  146TMC2    H5 2238   3.517   0.467  12.668  0.2685 -1.5153 -0.7342
  147MPD2     C 2239   3.897   4.395  12.760 -0.1066  0.0155  0.8173
  147MPD2    C1 2240   3.955   4.476  12.850  0.5099  0.4882 -0.7029
  147MPD2    C2 2241   3.895   4.596  12.890  0.2941  0.4836  0.0659
  147MPD2    C3 2242   3.776   4.633  12.837  0.0692  0.3936  0.4231
  147MPD2    C4 2243   3.719   4.554  12.741 -0.1167  0.0412 -0.2282
  147MPD2    C5 2244   3.780   4.436  12.702 -0.8546 -0.7676 -0.7988
  147MPD2     H 2245   3.946   4.660  12.962 -0.7689  0.4609  0.8253
  147MPD2    H1 2246   3.617   4.564  12.705 -0.2206  1.6087  0.5068
  147MPD2    H2 2247   3.946   4.304  12.727  0.2259  0.4362  0.1537
  147MPD2    H3 2248   3.743   4.375  12.621  0.7444 -0.7890 -1.5213
  147MPD2     N 2249   3.707   0.027  12.878 -0.4651  0.4586  0.3787
  147MPD2    H5 2250   3.738   0.080  12.959 -0.4481 -0.1483  0.7683
  147MPD2    N1 2251   4.090   4.444  12.884  0.0015 -0.3978  0.0519
  147MPD2    H7 2252   4.136   4.365  12.841  1.7939  0.3808  0.4973
  148MPD2     C 2253   0.029   3.626  10.633 -0.0034  0.0053  0.3841
  148MPD2    C1 2254   0.009   3.679  10.511  0.4608 -0.0026 -0.5160
  148MPD2    C2 2255   4.646   3.610  10.425 -0.3683  0.1248 -0.4333
  148MPD2    C3 2256   4.581   3.496  10.462 -0.8188 -0.6001 -0.3100
  148MPD2    C4 2257   4.610   3.447  10.584  0.0445  0.1896  0.2416
  148MPD2    C5 2258   4.693   3.513  10.668 -0.1119 -0.1575  0.0329
  148MPD2     H 2259   4.618   3.655  10.330  1.9036  1.3931 -0.4853
  148MPD2    H1 2260   4.566   3.356  10.621 -1.9501  2.4536  3.4020
  148MPD2    H2 2261   0.098   3.674  10.700  0.9509 -1.9080  0.7698
  148MPD2    H3 2262   4.706   3.482  10.771  1.9927  2.0680  0.4205
  148MPD2     N 2263   4.482   3.439  10.385  0.7756  0.2114  0.6123
  148MPD2    H5 2264   4.459   3.341  10.402  0.8300  0.0414 -0.3024
  148MPD2    N1 2265   0.073   3.799  10.457 -0.0295  0.1978  0.2582
  148MPD2    H7 2266   0.071   3.800  10.355  1.2857 -2.9390  0.1951
  149TCq2    C1 2267   0.161   3.870  10.521  0.7369  0.4844 -0.2357
  149TCq2    O2 2268   0.189   3.888  10.637 -0.0401 -0.3715  0.1636
  149TCq2    C2 2269   0.222   3.967  10.435  0.2790  0.1019 -0.0869
  149TCq2    C3 2270   0.356   3.963  10.446 -0.2253 -0.4368 -0.1005
  149TCq2    C4 2271   0.436   3.995  10.339  0.9503  0.5817 -0.2666
  149TCq2    C5 2272   0.379   3.986  10.212 -0.9362  0.4585  0.7457
  149TCq2    C6 2273   0.238   3.991  10.202  0.1148 -0.0486  0.3513
  149TCq2    C7 2274   0.160   3.983  10.317  0.3341  0.1313 -0.5392
  149TCq2    C8 2275   0.188   3.905  10.101  0.2228  0.4187 -0.6296
  149TCq2    O4 2276   0.082   3.848  10.132 -0.0385  0.6008 -0.0044
  149TCq2    C9 2277   0.574   3.968  10.346  0.2191 -0.3140  0.0826
  149TCq2    O5 2278   0.654   4.024  10.268  0.0583 -0.1245  0.4278
  149TCq2    O6 2279   0.612   3.865  10.409 -0.3561  0.3138  0.1996
  149TCq2    H2 2280   0.407   3.929  10.536 -0.8407 -3.3046 -0.8333
  149TCq2    H3 2281   0.448   3.988  10.129 -0.4791 -0.0944  1.1043
  149TCq2    H4 2282   0.051   3.985  10.316  0.2861 -1.2938  2.0604
  150MPD2     C 2283   1.301   2.647  12.282  0.3178  0.0119  0.2628
  150MPD2    C1 2284   1.262   2.781  12.264 -0.7178 -0.7428  0.1527
  150MPD2    C2 2285   1.344   2.871  12.330 -1.2795 -0.2027 -0.4956
  150MPD2    C3 2286   1.454   2.831  12.410 -0.2992  0.7433 -0.0711
  150MPD2    C4 2287   1.489   2.704  12.423  0.1256  0.3789 -0.1119
  150MPD2    C5 2288   1.411   2.606  12.364 -0.6164 -0.1073 -0.3967
  150MPD2     H 2289   1.325   2.978  12.329  1.6559  0.3293  1.0549
  150MPD2    H1 2290   1.580   2.670  12.471  0.7517  1.3357 -0.6052
  150MPD2    H2 2291   1.251   2.562  12.236  2.1029  0.2934 -2.2251
  150MPD2    H3 2292   1.436   2.503  12.386  0.7938  0.0023 -1.4567
  150MPD2     N 2293   1.514   2.937  12.481  0.2206  0.2871  0.3570
  150MPD2    H5 2294   1.474   3.030  12.468  0.0709 -0.0899 -1.9192
  150MPD2    N1 2295   1.157   2.822  12.180 -0.6833 -0.5418  0.0359
  150MPD2    H7 2296   1.107   2.750  12.129 -1.6732  1.4208 -1.7752
  151TCq2    C1 2297   1.636   2.933  12.538 -0.1703 -0.2777 -0.6585
  151TCq2    O2 2298   1.726   2.850  12.532 -0.1238  0.1685  0.1296
  151TCq2    C2 2299   1.673   3.064  12.593 -0.1743 -0.7019  0.1332
  151TCq2    C3 2300   1.569   3.166  12.608 -0.1901  0.2895  0.6702
  151TCq2    C4 2301   1.619   3.296  12.634 -0.2519  0.2967  0.3089
  151TCq2    C5 2302   1.753   3.323  12.630 -0.3099  0.2820  0.0388
  151TCq2    C6 2303   1.841   3.223  12.619  0.4995 -0.1714 -0.3525
  151TCq2    C7 2304   1.807   3.091  12.599  0.3274 -0.3457  0.1336
  151TCq2    C8 2305   1.976   3.269  12.579  0.5650 -0.2859 -0.5400
  151TCq2    O4 2306   1.996   3.386  12.551  0.0698  0.1069 -0.5936
  151TCq2    C9 2307   1.520   3.407  12.634  0.0950  0.2719 -0.6190
  151TCq2    O5 2308   1.404   3.369  12.660 -0.1141  0.0206  0.2043
  151TCq2    O6 2309   1.564   3.515  12.587 -0.3037 -0.4748  0.0367
  151TCq2    H2 2310   1.462   3.153  12.606 -0.0527 -0.8425  0.9617
  151TCq2    H3 2311   1.780   3.426  12.648  2.3762 -0.5960  1.0020
  151TCq2    H4 2312   1.886   3.020  12.577 -0.6445 -1.2616 -0.4417
  152MPD2     C 2313   1.010   2.342  12.911  0.2356  0.5317 -0.4469
  152MPD2    C1 2314   1.052   2.456  12.855 -0.6350 -0.2166  0.5034
  152MPD2    C2 2315   0.958   2.533  12.784  0.1053  0.5078 -0.4140
  152MPD2    C3 2316   0.832   2.482  12.759  0.0732 -0.9365 -0.8438
  152MPD2    C4 2317   0.798   2.356  12.809  1.0373 -0.4942 -0.4665
  152MPD2    C5 2318   0.886   2.298  12.893 -0.2886  0.5938  0.0052
  152MPD2     H 2319   0.982   2.628  12.736 -0.8289  0.3337 -1.2376
  152MPD2    H1 2320   0.699   2.312  12.801  0.5875  0.0168  2.3686
  152MPD2    H2 2321   1.082   2.292  12.976  0.9363 -0.8195 -2.2667
  152MPD2    H3 2322   0.851   2.205  12.936 -0.9132  1.6662  1.8101
  152MPD2     N 2323   0.736   2.552  12.677 -0.3947 -1.0205  0.1613
  152MPD2    H5 2324   0.767   2.645  12.649 -0.3716 -0.7148  1.2061
  152MPD2    N1 2325   1.181   2.501  12.884  0.1471 -0.4114  0.1353
  152MPD2    H7 2326   1.247   2.440  12.932 -1.2164 -1.4504  0.6933
  153TCq2    C1 2327   1.222   2.628  12.857  0.0939 -0.4157  0.1035
  153TCq2    O2 2328   1.166   2.728  12.821 -0.3324  0.0759 -0.4407
  153TCq2    C2 2329   1.370   2.650  12.872 -0.0628  0.9374  0.4911
  153TCq2    C3 2330   1.456   2.554  12.843 -0.6348  0.2787 -0.3946
  153TCq2    C4 2331   1.593   2.591  12.841  0.3643 -0.4530  0.2335
  153TCq2    C5 2332   1.633   2.720  12.856 -0.1454  0.5338 -0.0575
  153TCq2    C6 2333   1.543   2.817  12.879 -0.6713  0.6066 -0.0191
  153TCq2    C7 2334   1.409   2.783  12.888  0.3395  0.3440 -0.2744
  153TCq2    C8 2335   1.583   2.953  12.928 -0.1781  0.1535  0.0279
  153TCq2    O4 2336   1.489   3.025  12.953  0.1809 -0.4660 -0.3074
  153TCq2    C9 2337   1.686   2.483  12.797  0.6986  0.2252 -1.5082
  153TCq2    O5 2338   1.651   2.359  12.789  0.0278 -0.8394  0.4396
  153TCq2    O6 2339   1.805   2.512  12.777  0.2298 -0.1368 -0.0100
  153TCq2    H2 2340   1.411   2.459  12.818  0.1685 -0.3947  0.6970
  153TCq2    H3 2341   1.739   2.736  12.837 -0.2678 -1.0117 -2.0531
  153TCq2    H4 2342   1.339   2.863  12.908  1.1052  1.8557 -3.7280
  154MPD2     C 2343   3.117   3.726   0.694  0.7470  0.5766 -0.3576
  154MPD2    C1 2344   3.028   3.649   0.625 -0.0307 -0.0209 -0.3270
  154MPD2    C2 2345   2.895   3.658   0.660  0.1763 -0.1980 -0.1302
  154MPD2    C3 2346   2.846   3.740   0.767 -0.5495  0.1984 -0.3357
  154MPD2    C4 2347   2.941   3.819   0.830 -0.5463 -0.0558  0.0500
  154MPD2    C5 2348   3.068   3.810   0.791  0.7061 -1.0351 -0.5019
  154MPD2     H 2349   2.825   3.602   0.599  2.2957 -1.4839 -1.3950
  154MPD2    H1 2350   2.925   3.892   0.908  0.0408  2.4349 -2.1538
  154MPD2    H2 2351   3.223   3.733   0.675  0.7031  0.0291 -0.8157
  154MPD2    H3 2352   3.133   3.880   0.843  1.2484 -1.7069 -0.2865
  154MPD2     N 2353   2.716   3.742   0.801  0.1888 -0.2613  0.3626
  154MPD2    H5 2354   2.661   3.662   0.772 -0.9726  0.5192  0.3888
  154MPD2    N1 2355   3.075   3.577   0.512  0.2421 -0.2699  0.1745
  154MPD2    H7 2356   3.173   3.596   0.500  0.2535 -1.0523 -1.0272
  155TCq2    C1 2357   2.999   3.506   0.420  0.0100 -0.1809  0.1412
  155TCq2    O2 2358   2.876   3.490   0.402 -0.5253 -0.6057 -0.2780
  155TCq2    C2 2359   3.086   3.437   0.325  1.1486  0.4658  0.0450
  155TCq2    C3 2360   3.051   3.309   0.283 -0.3198 -0.0867  0.6674
  155TCq2    C4 2361   3.141   3.242   0.205  0.3909 -0.8531 -0.4995
  155TCq2    C5 2362   3.247   3.304   0.143 -0.1845 -0.4271 -0.1755
  155TCq2    C6 2363   3.272   3.434   0.180  0.4327  0.0725  0.6081
  155TCq2    C7 2364   3.198   3.497   0.278 -0.2879 -0.0676 -0.1328
  155TCq2    C8 2365   3.388   3.496   0.119 -0.6532 -0.1407 -0.3379
  155TCq2    O4 2366   3.452   3.438   0.031  0.0637  0.3260 -0.4471
  155TCq2    C9 2367   3.126   3.097   0.185 -0.5898 -0.3603 -0.8746
  155TCq2    O5 2368   3.189   3.043   0.092 -0.1336  0.2214  0.1729
  155TCq2    O6 2369   3.061   3.026   0.273  0.1977 -0.2478  0.0299
  155TCq2    H2 2370   2.970   3.253   0.328 -1.2746  0.9749  0.2458
  155TCq2    H3 2371   3.314   3.244   0.082  0.0610  0.4138 -0.7343
  155TCq2    H4 2372   3.211   3.603   0.298 -0.4631 -0.2536  0.9614
  156MPD2     C 2373   2.274   0.478  11.578  0.1467 -0.3245 -0.1974
  156MPD2    C1 2374   2.149   0.477  11.515  0.5445 -0.0611  0.2357
  156MPD2    C2 2375   2.032   0.496  11.588 -0.2114 -0.4370  0.3413
  156MPD2    C3 2376   2.037   0.503  11.724 -0.1627 -0.3755  0.2251
  156MPD2    C4 2377   2.160   0.495  11.790 -0.7064  0.0952 -0.6172
  156MPD2    C5 2378   2.279   0.478  11.712  0.1885  0.4146  1.0107
  156MPD2     H 2379   1.930   0.500  11.553  0.2383 -1.9862 -1.1450
  156MPD2    H1 2380   2.166   0.512  11.897 -0.1922 -0.7085 -0.5164
  156MPD2    H2 2381   2.363   0.477  11.517  0.9550  0.9809  0.9703
  156MPD2    H3 2382   2.373   0.485  11.766  0.8135 -0.1632 -0.0069
  156MPD2     N 2383   1.914   0.529  11.794 -0.0028  0.6052 -0.0828
  156MPD2    H5 2384   1.832   0.521  11.735  0.4801  0.7204 -0.7736
  156MPD2    N1 2385   2.146   0.468  11.374 -0.5638  0.3100 -0.6230
  156MPD2    H7 2386   2.231   0.490  11.323  0.0636  0.4680  0.4925
  157TCq2    C1 2387   2.032   0.442  11.303 -0.0187 -0.3715  0.2860
  157TCq2    O2 2388   1.918   0.437  11.342 -0.4245 -0.2936 -0.0772
  157TCq2    C2 2389   2.057   0.471  11.158 -0.2561  0.2881 -0.1497
  157TCq2    C3 2390   2.133   0.580  11.125 -0.1973  0.0157  0.3017
  157TCq2    C4 2391   2.098   0.651  11.012 -0.8520  0.4908 -0.3321
  157TCq2    C5 2392   1.986   0.620  10.943 -0.0780 -0.2723  0.3689
  157TCq2    C6 2393   1.905   0.524  10.990 -0.2375 -0.0269 -0.0964
  157TCq2    C7 2394   1.951   0.441  11.084 -0.4575 -0.0929  0.4601
  157TCq2    C8 2395   1.774   0.571  11.015  0.0988 -0.1590 -0.7798
  157TCq2    O4 2396   1.758   0.690  10.991  0.8733  0.1407  0.1164
  157TCq2    C9 2397   2.185   0.763  10.972  0.3198 -0.8986 -0.8118
  157TCq2    O5 2398   2.298   0.771  11.027  0.4218  0.5213  0.0610
  157TCq2    O6 2399   2.132   0.853  10.904  0.0265  0.2538 -0.3185
  157TCq2    H2 2400   2.225   0.613  11.173 -0.5322 -0.5728  1.3609
  157TCq2    H3 2401   1.958   0.686  10.863 -1.1530 -1.7211 -0.4434
  157TCq2    H4 2402   1.895   0.354  11.116 -0.1963 -0.1208  0.8346
  158TMC2    C1 2403   1.881   4.143  13.199  0.4120 -0.4763  0.7834
  158TMC2    C2 2404   1.915   4.248  13.121 -0.1876 -0.3137 -0.2247
  158TMC2    C3 2405   1.823   4.296  13.037 -0.2101 -0.0983  0.3805
  158TMC2    C4 2406   1.755   4.083  13.186 -0.4850 -0.0993 -0.3351
  158TMC2    C5 2407   1.660   4.140  13.101  0.1625  0.1966 -0.7442
  158TMC2    C6 2408   1.695   4.243  13.020  0.0594  0.4236 -1.0973
  158TMC2     C 2409   1.936   4.158  13.336 -0.6121 -0.3423  0.3993
  158TMC2     O 2410   2.025   4.241  13.340  0.5008 -0.7853 -0.2353
  158TMC2     H 2411   2.017   4.286  13.125 -0.9150  1.2517  3.0965
  158TMC2    H1 2412   1.721   4.006  13.254 -0.8999  0.7149  0.3793
  158TMC2    H2 2413   1.625   4.301  12.960  2.0656  3.1783 -0.7791
  158TMC2    C7 2414   1.525   4.095  13.085  0.2993  0.5640  0.3339
  158TMC2    C8 2415   1.878   4.392  12.943 -0.0048 -0.4908  0.5128
  158TMC2    O1 2416   1.458   4.152  13.001 -0.0467  0.0409  0.0165
  158TMC2    O2 2417   1.864   4.516  12.951  0.1341  0.3162  0.7782
  158TMC2    O5 2418   1.991   4.337  12.896  0.0538  0.3047  0.2715
  158TMC2    H5 2419   1.979   4.240  12.883  1.3531  0.3045 -0.9311
  159MPD2     C 2420   1.989   4.079  13.830 -0.4783  0.2495  0.0495
  159MPD2    C1 2421   1.854   4.057  13.801  0.5531  0.1553  0.7469
  159MPD2    C2 2422   1.808   4.079  13.671 -0.0191 -0.4117  0.0538
  159MPD2    C3 2423   1.897   4.110  13.570 -0.1997 -0.5307 -0.1683
  159MPD2    C4 2424   2.031   4.122  13.596  0.4384  0.5590  0.1506
  159MPD2    C5 2425   2.073   4.104  13.723 -0.4973  0.0591  0.2927
  159MPD2     H 2426   1.705   4.066  13.639 -0.2188 -0.2244  0.6044
  159MPD2    H1 2427   2.112   4.146  13.528  1.4556  0.6468  1.3878
  159MPD2    H2 2428   2.028   4.082  13.931 -1.2351 -2.9229  0.4241
  159MPD2    H3 2429   2.179   4.111  13.746 -0.5683 -1.0928  0.9944
  159MPD2     N 2430   1.855   4.107  13.437 -0.2881  0.1087 -0.7711
  159MPD2    H5 2431   1.772   4.053  13.417  0.2491 -1.5521  1.5158
  159MPD2    N1 2432   1.766   4.015  13.910 -0.9872  0.0409 -0.1665
  159MPD2    H7 2433   1.812   3.999  13.999  0.3681  2.7667 -0.3746
  160TMC2    C1 2434   1.490   2.282   1.100  0.1391  1.2108  0.1406
  160TMC2    C2 2435   1.394   2.184   1.121 -0.0091  0.1025 -0.1974
  160TMC2    C3 2436   1.399   2.068   1.052 -0.6898 -0.2803  0.3643
  160TMC2    C4 2437   1.596   2.264   1.021  0.1089  0.1476 -0.1523
  160TMC2    C5 2438   1.589   2.158   0.939  0.0672  0.0009 -0.5740
  160TMC2    C6 2439   1.496   2.059   0.955 -0.5982 -0.0720  0.0797
  160TMC2     C 2440   1.476   2.411   1.171  0.2452 -0.1679 -0.2963
  160TMC2     O 2441   1.580   2.468   1.200  0.3038 -0.6080  0.2241
  160TMC2     H 2442   1.320   2.207   1.198 -1.2395 -1.9258 -0.7689
  160TMC2    H1 2443   1.693   2.313   1.020 -1.0412  2.3752 -0.7143
  160TMC2    H2 2444   1.503   1.967   0.899  1.3337  0.0288  0.1435
  160TMC2    C7 2445   1.661   2.167   0.810  0.5187 -0.2434 -0.2662
  160TMC2    C8 2446   1.296   1.969   1.049  0.1474 -0.5512  0.5613
  160TMC2    O1 2447   1.740   2.260   0.796 -0.0872  0.5404 -0.0954
  160TMC2    O2 2448   1.310   1.858   0.993 -0.6099  0.0270 -0.1325
  160TMC2    O5 2449   1.176   2.037   1.054  0.3110  0.2298 -0.1708
  160TMC2    H5 2450   1.188   2.129   1.084 -1.1087  0.7000 -1.0314
  161MPD2     C 2451   1.397   2.628   1.349  0.2636 -0.3375 -0.0860
  161MPD2    C1 2452   1.307   2.548   1.278 -0.4966  0.4496  0.6057
  161MPD2    C2 2453   1.175   2.583   1.284 -0.5711 -0.4623 -0.0666
  161MPD2    C3 2454   1.124   2.683   1.357  0.3121 -0.0058 -0.1129
  161MPD2    C4 2455   1.212   2.752   1.436  0.0537 -0.0925 -0.3178
  161MPD2    C5 2456   1.343   2.727   1.421  0.2550  0.5623 -0.0717
  161MPD2     H 2457   1.110   2.515   1.231 -1.5156  0.9007 -0.6385
  161MPD2    H1 2458   1.192   2.843   1.492  2.0246  0.9678 -1.3188
  161MPD2    H2 2459   1.505   2.616   1.347  0.1820 -1.1265  0.2295
  161MPD2    H3 2460   1.417   2.787   1.472  0.5005 -0.1976  0.4660
  161MPD2     N 2461   0.982   2.701   1.365  0.0411 -0.2891 -0.5681
  161MPD2    H5 2462   0.946   2.767   1.434  0.3259 -1.2150  0.4633
  161MPD2    N1 2463   1.348   2.442   1.196  1.1047 -0.3866 -0.3017
  161MPD2    H7 2464   1.274   2.380   1.164 -0.1377  0.5265  0.7774
  162TMC2    C1 2465   3.884   4.058   1.327 -0.7990  0.3358 -0.0649
  162TMC2    C2 2466   3.754   4.091   1.350 -0.5122 -0.2205 -0.5087
  162TMC2    C3 2467   3.717   4.088   1.482 -0.4393 -0.6820  0.9229
  162TMC2    C4 2468   3.969   4.016   1.424  0.2149  0.2747  0.7367
  162TMC2    C5 2469   3.926   4.013   1.554 -0.3829  0.4496 -0.2022
  162TMC2    C6 2470   3.802   4.055   1.575 -0.0898  0.2443  0.4639
  162TMC2     C 2471   3.921   4.064   1.188  0.1140  0.3836  0.5525
  162TMC2     O 2472   3.836   4.053   1.103 -0.3599  0.0959  0.0874
  162TMC2     H 2473   3.694   4.149   1.281 -0.1273  0.8436  0.0401
  162TMC2    H1 2474   4.071   3.983   1.407 -0.7888 -1.6927 -1.4218
  162TMC2    H2 2475   3.767   4.020   1.671 -0.4736 -1.4423 -0.2957
  162TMC2    C7 2476   4.033   4.012   1.652 -0.0859 -0.3976 -0.1604
  162TMC2    C8 2477   3.581   4.052   1.514  0.0358 -0.1298 -0.2792
  162TMC2    O1 2478   4.056   4.122   1.702  0.0754 -0.5506 -0.2974
  162TMC2    O2 2479   3.539   4.057   1.632 -0.0737  0.6541  1.2330
  162TMC2    O5 2480   3.564   3.948   1.427  0.2549  0.2119 -0.1840
  162TMC2    H5 2481   3.628   3.924   1.357  0.2144  0.6383 -0.3674
  163MPD2     C 2482   4.313   4.071   0.865  0.0875 -0.1935 -0.0413
  163MPD2    C1 2483   4.182   4.051   0.834 -0.4148 -0.3742  0.3503
  163MPD2    C2 2484   4.095   4.055   0.940  0.1306 -0.3537  0.7158
  163MPD2    C3 2485   4.144   4.077   1.067 -0.0791  0.3578 -0.5717
  163MPD2    C4 2486   4.276   4.085   1.092  0.5290  0.5711 -0.0875
  163MPD2    C5 2487   4.364   4.080   0.989 -0.2565 -0.7225 -0.2147
  163MPD2     H 2488   3.987   4.048   0.929 -0.0242 -0.4230  2.2975
  163MPD2    H1 2489   4.315   4.096   1.192  1.2198 -1.7753 -0.0900
  163MPD2    H2 2490   4.383   4.062   0.783 -0.2483 -2.2995 -0.0836
  163MPD2    H3 2491   4.470   4.090   1.006 -0.4519 -0.3809  0.7581
  163MPD2     N 2492   4.059   4.081   1.180 -0.1574 -0.5151 -0.0515
  163MPD2    H5 2493   4.101   4.105   1.269 -0.2072  2.3747 -0.8080
  163MPD2    N1 2494   4.147   4.039   0.700  0.3211 -0.0369 -0.1280
  163MPD2    H7 2495   4.225   4.023   0.637  1.2911  0.7163  0.8904
  164TCq2    C1 2496   0.356   3.157  11.132 -0.3272 -0.2214  0.5411
  164TCq2    O2 2497   0.362   3.035  11.158 -0.3560  0.5552  0.1440
  164TCq2    C2 2498   0.323   3.242  11.244  0.0819 -0.4126  0.1194
  164TCq2    C3 2499   0.358   3.186  11.359  0.9344  0.4681  0.4134
  164TCq2    C4 2500   0.366   3.272  11.469 -0.9113  0.2660  0.9138
  164TCq2    C5 2501   0.319   3.403  11.460  0.6763  0.3184 -0.1199
  164TCq2    C6 2502   0.293   3.457  11.336  0.8833 -0.0745  0.0379
  164TCq2    C7 2503   0.296   3.375  11.221  0.2279  0.0785  0.2391
  164TCq2    C8 2504   0.217   3.580  11.326  0.4431  0.3238 -0.1783
  164TCq2    O4 2505   0.210   3.638  11.217 -0.5446  0.3470 -0.2090
  164TCq2    C9 2506   0.385   3.217  11.601  0.4735  0.2934  0.4915
  164TCq2    O5 2507   0.363   3.293  11.698  0.8515 -0.5600  0.4424
  164TCq2    O6 2508   0.373   3.095  11.599  0.1960 -0.3216 -0.2057
  164TCq2    H2 2509   0.363   3.081  11.385  1.5114  0.4832  0.3522
  164TCq2    H3 2510   0.308   3.466  11.547 -0.2598 -0.9927  0.7255
  164TCq2    H4 2511   0.269   3.407  11.121  2.2335 -0.6245 -0.5369
  165MPD2     C 2512   0.337   1.605   1.098 -0.6797 -0.1927  0.2751
  165MPD2    C1 2513   0.450   1.578   1.169 -0.6296  0.1941 -0.5119
  165MPD2    C2 2514   0.525   1.682   1.221  0.0657  0.1370  0.0399
  165MPD2    C3 2515   0.483   1.815   1.216  0.3426  0.5088 -0.0944
  165MPD2    C4 2516   0.360   1.836   1.159  0.0852 -1.0476 -0.0505
  165MPD2    C5 2517   0.286   1.735   1.100  0.2339 -0.7685 -0.0753
  165MPD2     H 2518   0.613   1.661   1.282  1.8568 -0.0409 -2.6241
  165MPD2    H1 2519   0.321   1.937   1.163  0.7725 -0.8157  0.7232
  165MPD2    H2 2520   0.272   1.528   1.058 -1.1933 -0.6057  1.8931
  165MPD2    H3 2521   0.188   1.747   1.054  1.4780  0.7410 -2.3120
  165MPD2     N 2522   0.556   1.926   1.263  0.0763 -0.2362 -0.9304
  165MPD2    H5 2523   0.505   2.013   1.262 -0.8502 -0.7750 -0.6940
  165MPD2    N1 2524   0.484   1.438   1.190  0.4850 -0.0485  0.2895
  165MPD2    H7 2525   0.424   1.365   1.152  0.0690  0.3549  0.1682
  166TCq2    C1 2526   0.683   1.926   1.310 -0.1732  0.0403  0.0736
  166TCq2    O2 2527   0.769   1.847   1.283 -0.3557  0.2152 -0.0218
  166TCq2    C2 2528   0.718   2.058   1.366  0.4596  0.1539  0.0548
  166TCq2    C3 2529   0.641   2.138   1.448 -0.8832 -0.3210 -0.4039
  166TCq2    C4 2530   0.700   2.252   1.508 -0.0919  0.0845  0.2679
  166TCq2    C5 2531   0.830   2.290   1.477  0.2799 -0.6254  0.7112
  166TCq2    C6 2532   0.904   2.202   1.400 -0.1450  0.1744  0.2263
  166TCq2    C7 2533   0.846   2.095   1.338  0.1741 -0.5778  0.3178
  166TCq2    C8 2534   1.048   2.205   1.402  0.7974 -0.0928  0.4524
  166TCq2    O4 2535   1.103   2.125   1.327 -0.0643 -0.1589  0.3760
  166TCq2    C9 2536   0.611   2.344   1.578  0.4083  0.0510  0.1556
  166TCq2    O5 2537   0.673   2.443   1.627 -0.2831  0.4263  0.6814
  166TCq2    O6 2538   0.500   2.295   1.612 -0.1726 -0.3228 -0.6643
  166TCq2    H2 2539   0.540   2.109   1.476 -0.3530 -1.5059  0.2897
  166TCq2    H3 2540   0.873   2.382   1.517  3.3986 -2.0172  0.5602
  166TCq2    H4 2541   0.905   2.032   1.273  1.1292  1.9170 -1.2049
  167TMC2    C1 2542   3.981   3.685  12.651  0.7914 -0.0464  0.1984
  167TMC2    C2 2543   3.869   3.727  12.716  0.0051 -0.2520 -1.1282
  167TMC2    C3 2544   3.815   3.653  12.819 -0.3432 -0.5560  0.6490
  167TMC2    C4 2545   4.038   3.563  12.671 -0.1273 -0.1075  0.1874
  167TMC2    C5 2546   3.983   3.490  12.779  0.1149  0.3945 -0.3174
  167TMC2    C6 2547   3.874   3.530  12.849  0.0371 -0.2281  0.4327
  167TMC2     C 2548   3.995   3.742  12.515  0.3300 -0.8163 -0.1709
  167TMC2     O 2549   3.974   3.858  12.505  0.4003  0.2342  0.2958
  167TMC2     H 2550   3.818   3.819  12.688 -0.2211 -0.6362 -1.9606
  167TMC2    H1 2551   4.126   3.533  12.616  0.2865 -0.1640  0.8742
  167TMC2    H2 2552   3.849   3.468  12.934  1.0743 -0.3888  0.6276
  167TMC2    C7 2553   4.037   3.356  12.808 -0.0757 -0.8307  0.7184
  167TMC2    C8 2554   3.679   3.677  12.864 -0.6227  0.3088  0.0619
  167TMC2    O1 2555   3.974   3.289  12.891  0.0381 -0.2419  0.1800
  167TMC2    O2 2556   3.617   3.592  12.925 -0.3999 -0.2206 -0.3647
  167TMC2    O5 2557   3.653   3.810  12.873 -0.5192 -0.6872 -0.2009
  167TMC2    H5 2558   3.696   3.867  12.806 -0.6218 -2.0651 -1.4295
  168MPD2     C 2559   4.113   3.814  12.248  0.5197 -0.0239 -0.1370
  168MPD2    C1 2560   4.112   3.692  12.303 -0.2057 -0.6348 -0.0834
  168MPD2    C2 2561   4.159   3.583  12.229  0.3661 -0.4720  0.1784
  168MPD2    C3 2562   4.203   3.592  12.099  0.4664  0.6669 -0.6350
  168MPD2    C4 2563   4.197   3.719  12.043 -0.6049  0.5647 -0.1835
  168MPD2    C5 2564   4.159   3.827  12.122  0.5477  0.5571  0.9681
  168MPD2     H 2565   4.161   3.481  12.265  2.2206  0.4773  2.8089
  168MPD2    H1 2566   4.217   3.731  11.937 -1.1033 -0.6014 -0.4068
  168MPD2    H2 2567   4.079   3.904  12.299 -0.3858 -0.1756 -0.4656
  168MPD2    H3 2568   4.151   3.922  12.071 -2.0251 -0.8632 -1.2905
  168MPD2     N 2569   4.266   3.488  12.025 -0.1265  0.1983  0.5223
  168MPD2    H5 2570   4.325   3.509  11.945 -1.0272  0.5130 -0.0562
  168MPD2    N1 2571   4.055   3.654  12.430  0.1715 -0.7262 -0.5641
  168MPD2    H7 2572   4.064   3.556  12.457 -0.5895 -0.0268  2.1246
  169MPD1     C 2573   1.489   2.880   9.978  0.2358  0.1089  0.7102
  169MPD1    C1 2574   1.508   2.755   9.913 -0.4833 -0.0429  0.6352
  169MPD1    C2 2575   1.609   2.742   9.822 -0.3320 -0.0615  0.4157
  169MPD1    C3 2576   1.698   2.846   9.798 -0.5961  0.0221 -0.3602
  169MPD1    C4 2577   1.678   2.963   9.867  0.0985  0.1975 -0.6513
  169MPD1    C5 2578   1.573   2.982   9.954  0.2122  0.9174 -0.5356
  169MPD1     H 2579   1.615   2.643   9.780  0.7807  0.3919 -0.4927
  169MPD1    H1 2580   1.753   3.041   9.854  0.4562  0.1392  1.0431
  169MPD1    H2 2581   1.402   2.897  10.040 -0.7919 -2.2484 -0.0820
  169MPD1    H3 2582   1.550   3.078   9.999  0.6374  0.5539  0.4544
  169MPD1     N 2583   1.809   2.808   9.718 -0.0279 -0.2087  0.0051
  169MPD1    H5 2584   1.797   2.723   9.664 -2.3823 -0.8590  1.5953
  169MPD1    N1 2585   1.412   2.657   9.940  0.2400 -0.5013  0.3252
  169MPD1    H6 2586   1.356   2.659  10.025 -0.2700  0.7975 -0.0364
  169MPD1    H7 2587   1.447   2.562   9.930 -0.4804 -0.4897 -2.4711
  170MPD1     C 2588   0.301   0.716  13.121 -0.3259  0.2352  0.3716
  170MPD1    C1 2589   0.332   0.718  13.258  0.1660 -0.3809 -0.1064
  170MPD1    C2 2590   0.346   0.841  13.321 -0.2891 -0.5820 -0.1037
  170MPD1    C3 2591   0.354   0.959  13.246 -0.5534 -0.0993  1.1178
  170MPD1    C4 2592   0.328   0.952  13.111 -0.1087 -0.6468  0.0202
  170MPD1    C5 2593   0.298   0.834  13.047  0.2366 -0.7428  0.1497
  170MPD1     H 2594   0.360   0.836  13.428 -0.3106  1.5916 -0.0158
  170MPD1    H1 2595   0.348   1.043  13.055  2.1428 -1.4888 -0.5680
  170MPD1    H2 2596   0.283   0.630  13.058  0.6111 -1.2073  2.0607
  170MPD1    H3 2597   0.287   0.841  12.939  1.9343 -1.5573 -0.0885
  170MPD1     N 2598   0.377   1.076  13.322  0.2407 -0.5531  0.4482
  170MPD1    H5 2599   0.396   1.054  13.419 -1.8614 -3.5395  0.1822
  170MPD1    N1 2600   0.304   0.607  13.343  0.6423  0.4666  0.2312
  170MPD1    H6 2601   0.349   0.620  13.433  0.9118 -1.4311  0.3717
  170MPD1    H7 2602   0.333   0.514  13.313  0.8096  0.1355  1.4355
  171MPD1     C 2603   3.304   1.955  15.527 -0.0627 -0.3518 -0.4018
  171MPD1    C1 2604   3.348   1.833  15.473 -0.0398 -0.6945 -0.2792
  171MPD1    C2 2605   3.447   1.767  15.537  0.2299 -0.2447  0.0859
  171MPD1    C3 2606   3.506   1.808  15.652 -0.1621 -0.4003 -0.4684
  171MPD1    C4 2607   3.473   1.932  15.694 -0.5334  0.3117  0.4540
  171MPD1    C5 2608   3.369   2.000  15.639 -0.3787 -0.1047 -0.0947
  171MPD1     H 2609   3.467   1.669  15.495  0.9018  0.1782 -0.5832
  171MPD1    H1 2610   3.518   1.977  15.782  0.2777  0.1436  0.1271
  171MPD1    H2 2611   3.214   2.006  15.494  0.7672  0.5441 -1.2562
  171MPD1    H3 2612   3.330   2.090  15.686 -0.4047  0.8245 -1.8662
  171MPD1     N 2613   3.611   1.741  15.720  0.0385  0.1320 -0.0853
  171MPD1    H5 2614   3.650   1.786  15.802 -0.2205 -0.3168  0.2811
  171MPD1    N1 2615   3.282   1.770  15.362 -0.4164 -0.0472 -0.8586
  171MPD1    H6 2616   3.332   1.689  15.328 -0.0264 -0.8296  1.5668
  171MPD1    H7 2617   3.268   1.840  15.289 -0.7293  0.6369 -0.1461
  172MPD1     C 2618   3.850   1.286   0.523  0.4106 -0.6798 -0.0683
  172MPD1    C1 2619   3.761   1.196   0.469  1.0022  0.1976 -0.5701
  172MPD1    C2 2620   3.629   1.242   0.448  0.7036  0.2745  0.2202
  172MPD1    C3 2621   3.584   1.358   0.501  0.0004 -0.4573 -1.0353
  172MPD1    C4 2622   3.679   1.453   0.553 -0.1414  0.5437 -0.0695
  172MPD1    C5 2623   3.812   1.414   0.562  0.3004 -0.6430  0.3371
  172MPD1     H 2624   3.564   1.173   0.396 -1.3733  2.6059 -0.2567
  172MPD1    H1 2625   3.655   1.554   0.587  2.6520  0.6938  1.4854
  172MPD1    H2 2626   3.957   1.266   0.526  0.5352  0.2626  2.1025
  172MPD1    H3 2627   3.880   1.489   0.602 -0.4609  0.3464 -0.2205
  172MPD1     N 2628   3.447   1.395   0.510  0.2169  1.2464  0.9304
  172MPD1    H5 2629   3.431   1.492   0.538  2.1927  1.5565  1.0045
  172MPD1    N1 2630   3.812   1.073   0.425  0.6823 -0.2528 -0.0198
  172MPD1    H6 2631   3.744   0.999   0.415 -0.5087  0.3204  4.1737
  172MPD1    H7 2632   3.890   1.041   0.482 -0.1191  0.0293  1.2158
  173MPD1     C 2633   4.386   1.493  14.262  0.9357 -0.6867 -0.0761
  173MPD1    C1 2634   4.279   1.442  14.203 -0.1786  0.3074  0.4398
  173MPD1    C2 2635   4.213   1.348  14.277  0.3590 -0.3203  0.2440
  173MPD1    C3 2636   4.255   1.312  14.405  0.4375  0.9002 -0.1363
  173MPD1    C4 2637   4.362   1.374  14.464 -0.7284 -0.0787  0.3641
  173MPD1    C5 2638   4.433   1.461  14.390  0.6701 -0.4185  0.2400
  173MPD1     H 2639   4.126   1.295  14.240  1.9493 -0.6682 -2.9941
  173MPD1    H1 2640   4.411   1.341  14.554  1.9567  1.5776 -0.4994
  173MPD1    H2 2641   4.440   1.567  14.203 -1.3037 -0.9924 -2.4594
  173MPD1    H3 2642   4.522   1.507  14.433  1.3289 -2.2530  0.8606
  173MPD1     N 2643   4.187   1.215  14.477  1.2260 -1.3421 -0.3670
  173MPD1    H5 2644   4.116   1.153  14.439 -0.2796  0.2045 -0.0837
  173MPD1    N1 2645   4.243   1.460  14.073 -0.4980  0.2456  0.3621
  173MPD1    H6 2646   4.252   1.558  14.045  0.2837  0.9418  3.0126
  173MPD1    H7 2647   4.148   1.428  14.053 -0.0430 -0.5619 -0.4633
  174MPD1     C 2648   3.936   0.474  14.103  0.6626  0.8582 -0.6241
  174MPD1    C1 2649   3.999   0.420  14.212  0.4682  0.1209  0.2665
  174MPD1    C2 2650   4.039   0.504  14.310  0.1844  0.4563 -0.2706
  174MPD1    C3 2651   4.039   0.644  14.293 -0.8276 -0.0049 -0.6770
  174MPD1    C4 2652   3.988   0.688  14.181 -0.9757 -0.1445 -0.7455
  174MPD1    C5 2653   3.942   0.609  14.079  0.4185  0.5679 -0.0231
  174MPD1     H 2654   4.066   0.466  14.408 -0.0818  1.2048  0.0934
  174MPD1    H1 2655   3.989   0.796  14.171 -1.8616 -0.0541  0.0986
  174MPD1    H2 2656   3.901   0.418  14.017 -0.5585  1.5381 -0.5701
  174MPD1    H3 2657   3.916   0.651  13.983  1.0415 -1.0722 -0.9049
  174MPD1     N 2658   4.075   0.731  14.403  0.1831 -0.0112  0.2457
  174MPD1    H5 2659   4.046   0.828  14.392 -0.9169 -0.3490  0.2155
  174MPD1    N1 2660   4.005   0.281  14.236 -0.4151  0.4432 -0.4456
  174MPD1    H6 2661   4.003   0.222  14.153  2.6522  0.6351 -0.6498
  174MPD1    H7 2662   4.073   0.248  14.305  0.3499  0.8669 -0.9983
  175MPD1     C 2663   2.799   2.019  16.101  0.4706  0.0991 -0.0397
  175MPD1    C1 2664   2.663   1.999  16.127 -0.5183  0.4733 -0.0711
  175MPD1    C2 2665   2.599   2.087  16.214 -0.1178 -0.1760  0.0280
  175MPD1    C3 2666   2.675   2.175  16.294 -0.3762 -0.3630  0.3489
  175MPD1    C4 2667   2.812   2.184  16.276 -0.1725  0.2811 -0.9073
  175MPD1    C5 2668   2.869   2.109  16.173  0.3283 -0.4625  0.0500
  175MPD1     H 2669   2.492   2.087  16.224  0.1522  1.2085  2.8677
  175MPD1    H1 2670   2.880   2.238  16.341 -1.4008 -0.3822  0.9070
  175MPD1    H2 2671   2.852   1.959  16.029 -0.9548 -3.1582  1.6233
  175MPD1    H3 2672   2.974   2.125  16.151 -0.1098  1.0817 -0.9135
  175MPD1     N 2673   2.623   2.263  16.392  0.2321  0.6076  0.3029
  175MPD1    H5 2674   2.689   2.324  16.440 -0.4232  0.9924  0.7250
  175MPD1    N1 2675   2.580   1.926  16.041 -0.2401  0.1751  0.2827
  175MPD1    H6 2676   2.493   1.909  16.091  0.6415 -1.8104  1.1608
  175MPD1    H7 2677   2.623   1.841  16.003 -1.6846 -0.9567  1.1632
  176MPD1     C 2678   4.162   4.337  16.918 -0.4590 -0.0962 -0.0082
  176MPD1    C1 2679   4.121   4.384  17.041 -0.1922 -0.1341  0.1839
  176MPD1    C2 2680   4.197   4.481  17.101 -0.7288  0.0941 -0.2090
  176MPD1    C3 2681   4.321   4.506  17.058 -0.1031 -0.1462 -0.1644
  176MPD1    C4 2682   4.370   4.446  16.946 -0.0997 -0.5490 -0.2232
  176MPD1    C5 2683   4.280   4.371  16.867 -0.4449 -1.1305 -0.0848
  176MPD1     H 2684   4.165   4.517  17.198  0.7119  0.2180  0.2142
  176MPD1    H1 2685   4.470   4.451  16.905 -0.5614  0.4166 -1.2176
  176MPD1    H2 2686   4.098   4.267  16.865 -1.0217  0.4495 -0.0601
  176MPD1    H3 2687   4.308   4.329  16.771  3.6219 -0.2220  0.6903
  176MPD1     N 2688   4.407   4.588  17.127 -0.5499 -0.2907 -0.0443
  176MPD1    H5 2689   4.490   4.614  17.075  0.1425  1.5688  1.9553
  176MPD1    N1 2690   3.996   4.348  17.089  0.1484 -0.3685  0.4698
  176MPD1    H6 2691   3.990   4.350  17.191  0.1680  0.9346  0.4420
  176MPD1    H7 2692   3.966   4.257  17.055  1.2557 -0.2051 -0.9413
  177MPD1     C 2693   2.360   4.079   9.429  0.3359 -0.0497  0.0251
  177MPD1    C1 2694   2.431   4.066   9.548  0.0553 -0.2115 -0.7237
  177MPD1    C2 2695   2.553   4.129   9.556  0.1957  0.3974  0.0897
  177MPD1    C3 2696   2.597   4.211   9.455 -0.4703  0.1149  0.5480
  177MPD1    C4 2697   2.521   4.235   9.345  0.2358  0.0743  0.4831
  177MPD1    C5 2698   2.405   4.169   9.331 -0.0157 -0.3188  1.0009
  177MPD1     H 2699   2.601   4.117   9.652 -2.1106 -0.6847  1.1209
  177MPD1    H1 2700   2.555   4.303   9.268  0.9035  1.3811  1.9202
  177MPD1    H2 2701   2.267   4.025   9.416  0.2452 -0.0105  0.5036
  177MPD1    H3 2702   2.342   4.171   9.243 -0.4254 -1.0631  1.2826
  177MPD1     N 2703   2.721   4.274   9.478 -0.2826  0.6240 -0.5727
  177MPD1    H5 2704   2.776   4.236   9.554 -0.5075  0.2998 -0.5708
  177MPD1    N1 2705   2.393   3.973   9.648  0.4223  0.1400 -0.3998
  177MPD1    H6 2706   2.435   3.998   9.737  1.9621  0.4727 -1.2129
  177MPD1    H7 2707   2.292   3.963   9.656  0.4386  1.3027  1.2709
  178MPD1     C 2708   4.691   0.563   0.368  0.6751  0.5415 -0.0386
  178MPD1    C1 2709   4.669   0.644   0.257  0.2219  0.1284  0.4835
  178MPD1    C2 2710   0.025   0.648   0.146  0.3653 -0.1207  0.2973
  178MPD1    C3 2711   0.136   0.569   0.145 -0.0745  0.3618  0.4516
  178MPD1    C4 2712   0.163   0.486   0.256  0.3088 -0.9120 -0.5810
  178MPD1    C5 2713   0.085   0.489   0.368  0.2093  0.3768 -0.4255
  178MPD1     H 2714   4.713   0.698   0.057 -0.1811  0.3335  0.7701
  178MPD1    H1 2715   0.245   0.415   0.267  0.3569 -0.8155 -0.3072
  178MPD1    H2 2716   4.620   0.545   0.448  0.3235  0.5182 -0.3556
  178MPD1    H3 2717   0.116   0.432   0.455 -0.3494 -1.8767 -1.7158
  178MPD1     N 2718   0.230   0.561   0.034 -0.1116 -0.4343  0.4515
  178MPD1    H5 2719   0.309   0.499   0.051  0.2772 -0.0816 -0.0581
  178MPD1    N1 2720   4.547   0.716   0.254 -0.8610 -0.4976 -0.1850
  178MPD1    H6 2721   4.563   0.809   0.216  0.1816 -0.4206  0.4443
  178MPD1    H7 2722   4.527   0.742   0.351  0.9783 -0.5009  0.1965
  179MPD1     C 2723   0.694   3.208  15.612  0.1215  0.8464  0.0640
  179MPD1    C1 2724   0.590   3.283  15.573  0.6119 -0.2238 -0.1618
  179MPD1    C2 2725   0.458   3.245  15.580 -0.3531  0.1991  0.3441
  179MPD1    C3 2726   0.434   3.117  15.632 -0.9253 -0.0352  0.2075
  179MPD1    C4 2727   0.541   3.029  15.649 -0.7219  0.2856 -0.3210
  179MPD1    C5 2728   0.667   3.076  15.641 -0.3228 -0.4131 -0.6260
  179MPD1     H 2729   0.373   3.311  15.568 -1.6946 -1.5163  0.2788
  179MPD1    H1 2730   0.524   2.933  15.696 -0.5207  1.3387  1.8841
  179MPD1    H2 2731   0.793   3.250  15.616  0.4310  0.1130  0.1477
  179MPD1    H3 2732   0.753   3.015  15.664 -2.0852 -2.3997  0.6491
  179MPD1     N 2733   0.313   3.055  15.656  0.7844  0.1661  0.5416
  179MPD1    H5 2734   0.311   2.961  15.695 -0.2477 -1.0101 -2.3156
  179MPD1    N1 2735   0.620   3.423  15.562 -0.6491  0.4618 -0.2309
  179MPD1    H6 2736   0.544   3.471  15.513  0.3839 -0.9891 -3.2427
  179MPD1    H7 2737   0.703   3.448  15.509 -2.4669  2.7443 -1.9906
  180MPD1     C 2738   4.369   4.448  15.431  0.3713 -0.2039  0.0058
  180MPD1    C1 2739   4.470   4.464  15.338  0.1523 -0.7486  0.2496
  180MPD1    C2 2740   4.442   4.430  15.207  0.4851  0.1012 -0.0821
  180MPD1    C3 2741   4.311   4.412  15.158 -0.7983 -0.4177 -0.1023
  180MPD1    C4 2742   4.208   4.399  15.255  0.5665  0.3928 -0.1747
  180MPD1    C5 2743   4.244   4.410  15.388 -0.2326  0.2216 -0.1404
  180MPD1     H 2744   4.521   4.441  15.133 -0.9370  1.5687 -1.3772
  180MPD1    H1 2745   4.104   4.374  15.237  0.1320  2.1180 -0.0715
  180MPD1    H2 2746   4.388   4.462  15.536  0.4423 -0.8758  0.0844
  180MPD1    H3 2747   4.171   4.397  15.468 -0.7966  0.4459 -0.6201
  180MPD1     N 2748   4.299   4.393  15.024  0.0553  0.0753 -0.1882
  180MPD1    H5 2749   4.383   4.402  14.969 -0.6082 -1.0725 -1.3899
  180MPD1    N1 2750   4.604   4.505  15.367  0.1519 -0.1993 -0.0920
  180MPD1    H6 2751   4.608   4.574  15.441  0.1873 -0.0720 -0.2146
  180MPD1    H7 2752   4.638   4.555  15.285  0.9613 -0.4284  0.1030
  181MPD1     C 2753   1.710   0.944  10.201 -0.0158  0.0896 -0.1684
  181MPD1    C1 2754   1.710   1.067  10.268 -1.0911 -0.2620  0.1996
  181MPD1    C2 2755   1.810   1.157  10.238  0.7958  0.0053  0.1702
  181MPD1    C3 2756   1.922   1.106  10.158 -0.1123 -0.3162 -0.4590
  181MPD1    C4 2757   1.929   0.975  10.118  0.0327  0.0761  0.9361
  181MPD1    C5 2758   1.819   0.895  10.133  0.9152  0.1923  0.1221
  181MPD1     H 2759   1.800   1.258  10.276  2.6422  0.4058 -0.3803
  181MPD1    H1 2760   2.013   0.944  10.057 -0.4840 -0.3931  0.4673
  181MPD1    H2 2761   1.624   0.884  10.227  0.5411 -1.1196 -1.1788
  181MPD1    H3 2762   1.812   0.797  10.087  0.4793  0.1305  0.3152
  181MPD1     N 2763   2.032   1.191  10.114 -0.2712 -0.0885  0.2880
  181MPD1    H5 2764   2.108   1.139  10.071 -0.2390  0.2864 -0.1151
  181MPD1    N1 2765   1.594   1.108  10.329 -0.2491  0.2649  0.0835
  181MPD1    H6 2766   1.610   1.186  10.392  0.7988  0.7852 -0.8281
  181MPD1    H7 2767   1.583   1.032  10.395 -0.7636  0.3394  0.0877
  182MPD1     C 2768   1.680   1.410   1.633  0.3171 -0.7489  0.2679
  182MPD1    C1 2769   1.548   1.454   1.648  0.9351 -0.3431 -0.2166
  182MPD1    C2 2770   1.453   1.417   1.549 -0.0741 -0.0692  0.4042
  182MPD1    C3 2771   1.484   1.336   1.441 -0.1501 -0.8293  0.2214
  182MPD1    C4 2772   1.612   1.283   1.434  0.4433 -0.1240 -0.2888
  182MPD1    C5 2773   1.706   1.319   1.530 -0.0782  0.2160 -0.0920
  182MPD1     H 2774   1.350   1.447   1.565 -0.9684 -2.2296 -1.2547
  182MPD1    H1 2775   1.646   1.218   1.354 -1.7350 -1.6377  0.0387
  182MPD1    H2 2776   1.755   1.432   1.709  0.1772  3.8195 -0.8873
  182MPD1    H3 2777   1.809   1.285   1.523 -0.6952 -1.1240 -2.6864
  182MPD1     N 2778   1.392   1.302   1.340  0.4928 -0.6114 -0.4002
  182MPD1    H5 2779   1.417   1.237   1.266  0.0772 -0.1523 -0.9394
  182MPD1    N1 2780   1.504   1.534   1.753  0.6517  0.3105  0.8190
  182MPD1    H6 2781   1.575   1.606   1.770  0.3187  0.7674  0.2793
  182MPD1    H7 2782   1.415   1.580   1.735  0.2113 -0.6985  0.4169
  183MPD1     C 2783   4.063   1.906   9.638  0.9565  0.2198 -0.1029
  183MPD1    C1 2784   4.053   1.794   9.723  0.7980  0.0922 -0.0221
  183MPD1    C2 2785   3.923   1.744   9.732  0.0653 -0.1895  0.4322
  183MPD1    C3 2786   3.808   1.819   9.700 -0.5224 -0.0301 -0.2372
  183MPD1    C4 2787   3.829   1.941   9.632 -0.1863  0.1341 -0.2193
  183MPD1    C5 2788   3.958   1.978   9.603  1.1405 -0.3555  0.3464
  183MPD1     H 2789   3.909   1.651   9.785 -0.7615 -0.1003  0.3792
  183MPD1    H1 2790   3.744   1.996   9.594 -0.3996  0.4340  0.6874
  183MPD1    H2 2791   4.159   1.929   9.595 -0.5909  2.8431 -2.1314
  183MPD1    H3 2792   3.969   2.058   9.530 -1.1742 -1.3724 -1.1242
  183MPD1     N 2793   3.677   1.760   9.709  0.3711  0.3235  0.2841
  183MPD1    H5 2794   3.671   1.665   9.742 -0.1518 -0.3284 -1.6794
  183MPD1    N1 2795   4.169   1.714   9.743  0.2417 -0.1265  0.4409
  183MPD1    H6 2796   4.171   1.663   9.831  0.8926  1.7570  1.5332
  183MPD1    H7 2797   4.254   1.771   9.743  1.5619 -2.0969 -0.3265
  184MPD1     C 2798   1.832   4.153  10.317  0.0726 -0.7988  0.6814
  184MPD1    C1 2799   1.962   4.200  10.333  0.5626 -0.3608 -0.1819
  184MPD1    C2 2800   2.033   4.240  10.222  0.1142 -0.3404 -0.2040
  184MPD1    C3 2801   1.975   4.248  10.097 -0.1028  0.1914  0.0842
  184MPD1    C4 2802   1.849   4.213  10.080  0.4175  0.5457  0.1862
  184MPD1    C5 2803   1.780   4.169  10.190  0.4066 -0.2108  0.0275
  184MPD1     H 2804   2.138   4.268  10.229  0.8711 -2.9940 -0.7125
  184MPD1    H1 2805   1.806   4.210   9.980 -1.8379  2.7521  1.1096
  184MPD1    H2 2806   1.776   4.119  10.403  0.2308 -0.1057  1.0578
  184MPD1    H3 2807   1.686   4.118  10.168 -0.1500  0.1913  1.4882
  184MPD1     N 2808   2.040   4.277   9.971  0.4492 -0.1417 -0.0719
  184MPD1    H5 2809   1.976   4.274   9.892  0.9103 -0.9028 -0.4160
  184MPD1    N1 2810   2.038   4.163  10.443  0.0542 -0.1304 -0.0974
  184MPD1    H6 2811   1.975   4.153  10.523  0.5867 -2.3495  0.0643
  184MPD1    H7 2812   2.112   4.228  10.469  1.1548 -2.1498  1.8658
  185MPD1     C 2813   1.840   4.361   9.017 -0.2022  0.2429  0.1499
  185MPD1    C1 2814   1.817   4.268   9.117 -0.1873 -0.5049  0.4677
  185MPD1    C2 2815   1.901   4.261   9.227 -0.7700 -0.1470  0.1729
  185MPD1    C3 2816   1.992   4.362   9.245 -0.4799 -0.0372  0.0929
  185MPD1    C4 2817   2.021   4.448   9.145  0.2931 -0.5826  0.2050
  185MPD1    C5 2818   1.942   4.450   9.032 -0.0801  0.3165  0.0106
  185MPD1     H 2819   1.876   4.195   9.309 -1.6111  0.3198  0.2933
  185MPD1    H1 2820   2.103   4.518   9.158  0.6775 -0.6419 -1.8221
  185MPD1    H2 2821   1.783   4.375   8.926  0.0927 -1.4172 -0.2838
  185MPD1    H3 2822   1.968   4.513   8.948 -0.4054  0.6771  0.1827
  185MPD1     N 2823   2.071   4.378   9.364 -0.3047 -0.3956 -0.2885
  185MPD1    H5 2824   2.124   4.464   9.364 -0.1169 -0.5098 -0.2364
  185MPD1    N1 2825   1.701   4.188   9.110  0.2295 -0.1860  0.1299
  185MPD1    H6 2826   1.656   4.177   9.019 -0.1906 -0.4474  0.3672
  185MPD1    H7 2827   1.706   4.092   9.144 -0.5417 -0.8515 -1.6097
  186MPD1     C 2828   0.302   2.815  16.255  0.1551  0.3425 -0.1405
  186MPD1    C1 2829   0.437   2.852  16.254 -0.3631  0.7914 -0.0822
  186MPD1    C2 2830   0.467   2.986  16.292 -0.6136 -0.1287  0.5828
  186MPD1    C3 2831   0.367   3.070  16.334  0.9102 -0.5026 -0.0134
  186MPD1    C4 2832   0.231   3.033  16.332 -0.2895 -0.3125 -0.6684
  186MPD1    C5 2833   0.208   2.904  16.297 -0.2766 -0.1537  0.4719
  186MPD1     H 2834   0.571   3.019  16.289  0.0281 -2.1906 -0.3438
  186MPD1    H1 2835   0.152   3.098  16.367 -0.6713 -0.9048 -0.4222
  186MPD1    H2 2836   0.276   2.715  16.222  0.2314 -0.0910  1.0839
  186MPD1    H3 2837   0.102   2.883  16.292 -0.1351 -0.8505  0.4746
  186MPD1     N 2838   0.393   3.190  16.402  0.0986  0.7908  0.3328
  186MPD1    H5 2839   0.320   3.237  16.455 -1.4487 -0.5177 -0.6475
  186MPD1    N1 2840   0.532   2.768  16.184 -0.4647  0.3629 -0.0176
  186MPD1    H6 2841   0.514   2.669  16.194  0.2085  0.5065  2.8127
  186MPD1    H7 2842   0.629   2.794  16.199  0.1100 -1.7461 -0.0791
  187MPD1     C 2843   3.303   1.508   0.115  0.5401  0.4930 -0.3420
  187MPD1    C1 2844   3.420   1.567   0.074  0.4709 -0.2947 -0.1526
  187MPD1    C2 2845   3.524   1.494   0.012 -0.3429 -0.0395  0.6707
  187MPD1    C3 2846   3.505   1.354  17.692  0.7054  0.3412  0.4064
  187MPD1    C4 2847   3.383   1.287   0.043  0.6070  0.7540  0.0602
  187MPD1    C5 2848   3.285   1.369   0.095 -0.4490 -0.1027  0.2629
  187MPD1     H 2849   3.611   1.543  17.666 -0.3495 -0.4955  0.1282
  187MPD1    H1 2850   3.360   1.183   0.024  1.1076  0.5895  0.3665
  187MPD1    H2 2851   3.215   1.564   0.143  0.2668 -0.5913  0.9366
  187MPD1    H3 2852   3.183   1.336   0.111 -1.4819  2.0909 -1.8301
  187MPD1     N 2853   3.599   1.277  17.627 -0.1159  0.6777 -0.5308
  187MPD1    H5 2854   3.576   1.182  17.600 -1.4404  0.2762  1.9868
  187MPD1    N1 2855   3.430   1.703   0.070 -0.0562 -0.7081 -0.0556
  187MPD1    H6 2856   3.528   1.729   0.084 -0.5699  0.8294  0.7743
  187MPD1    H7 2857   3.373   1.747   0.142  1.6852  0.4846  0.6200
  188MPD1     C 2858   4.112   0.863   9.913 -0.3055 -0.0468 -0.1422
  188MPD1    C1 2859   4.093   0.841   9.783  0.4015  0.0532  0.0399
  188MPD1    C2 2860   4.133   0.714   9.739  0.2279 -0.0360  0.0932
  188MPD1    C3 2861   4.165   0.617   9.827 -0.1204 -0.2820  0.3549
  188MPD1    C4 2862   4.181   0.644   9.964  0.2697  0.0438 -0.1424
  188MPD1    C5 2863   4.152   0.775  10.011 -0.4643  0.1528 -0.5683
  188MPD1     H 2864   4.130   0.692   9.633  3.1840  0.8458 -0.1754
  188MPD1    H1 2865   4.193   0.560  10.031  2.6558 -0.5377 -1.2877
  188MPD1    H2 2866   4.079   0.963   9.939 -0.7847 -0.1087 -0.5382
  188MPD1    H3 2867   4.163   0.803  10.116  2.9247  0.4107 -1.0060
  188MPD1     N 2868   4.190   0.484   9.789 -0.2732  0.3339 -0.6672
  188MPD1    H5 2869   4.223   0.413   9.852 -0.2787  0.1192 -0.9063
  188MPD1    N1 2870   4.077   0.947   9.700  0.4207 -0.8911  0.4477
  188MPD1    H6 2871   4.044   0.918   9.608 -0.7876 -0.3871  0.7328
  188MPD1    H7 2872   4.005   1.008   9.738 -1.6123 -2.7257 -0.4553
  189MPD1     C 2873   0.631   0.727   0.463  0.0711  0.2890  0.3230
  189MPD1    C1 2874   0.552   0.649   0.379  0.4285  0.7546 -0.1382
  189MPD1    C2 2875   0.455   0.709   0.304 -0.4823  0.6052  0.0272
  189MPD1    C3 2876   0.432   0.841   0.304 -0.3022  0.4733  0.5318
  189MPD1    C4 2877   0.517   0.915   0.386 -0.2738 -0.1878  0.3307
  189MPD1    C5 2878   0.614   0.865   0.472  0.1273 -0.8477  0.1255
  189MPD1     H 2879   0.385   0.649   0.248  1.8210 -1.0058 -1.0640
  189MPD1    H1 2880   0.505   1.023   0.386  1.0966 -0.0289 -3.2712
  189MPD1    H2 2881   0.701   0.677   0.528 -0.1164  0.8142  0.9266
  189MPD1    H3 2882   0.683   0.922   0.533  1.2194 -0.9744 -0.9817
  189MPD1     N 2883   0.343   0.893   0.207 -0.0603  0.4431 -0.1949
  189MPD1    H5 2884   0.303   0.822   0.147  1.2457  0.8895 -1.6060
  189MPD1    N1 2885   0.579   0.513   0.364  0.2355  0.6140 -0.2604
  189MPD1    H6 2886   0.506   0.456   0.320  1.7273 -0.9317 -0.7247
  189MPD1    H7 2887   0.592   0.461   0.450 -2.0626  0.7560  0.1782
  190MPD1     C 2888   4.322   0.180  15.277  0.5369 -0.4773 -0.0352
  190MPD1    C1 2889   4.433   0.265  15.280  0.6556 -0.2917  1.1828
  190MPD1    C2 2890   4.531   0.232  15.376 -0.1750  0.2163  0.1103
  190MPD1    C3 2891   4.508   0.135  15.474 -0.7953 -0.6804 -0.0397
  190MPD1    C4 2892   4.385   0.078  15.483 -0.1910  0.1131  0.0118
  190MPD1    C5 2893   4.295   0.096  15.381 -0.4060 -0.2595  0.4333
  190MPD1     H 2894   4.636   0.259  15.376  0.1802 -1.1505 -0.9850
  190MPD1    H1 2895   4.353   0.023  15.571  0.9192 -0.3549  0.1173
  190MPD1    H2 2896   4.236   0.189  15.211 -0.1273  0.2314  0.9212
  190MPD1    H3 2897   4.210   0.030  15.377  0.1666 -0.9704  0.1349
  190MPD1     N 2898   4.612   0.108  15.571 -0.0343 -0.4111 -0.0280
  190MPD1    H5 2899   4.686   0.177  15.581  0.8060 -1.2358 -0.6380
  190MPD1    N1 2900   4.469   0.346  15.168  0.6556 -0.3526 -0.0842
  190MPD1    H6 2901   4.391   0.381  15.112 -0.2642 -0.2025  1.2892
  190MPD1    H7 2902   4.534   0.418  15.198  2.3612 -1.9124 -0.0248
  191MPD1     C 2903   4.168   1.244  13.291 -0.1240 -0.3700  0.0959
  191MPD1    C1 2904   4.227   1.321  13.193  0.1148 -0.5549  0.5827
  191MPD1    C2 2905   4.145   1.347  13.087  0.1856 -0.6622 -0.4094
  191MPD1    C3 2906   4.011   1.322  13.082  0.2347 -0.6493  0.4500
  191MPD1    C4 2907   3.959   1.248  13.175  0.4520  0.5839  0.6175
  191MPD1    C5 2908   4.036   1.204  13.278  1.0447 -0.7776  0.1358
  191MPD1     H 2909   4.200   1.386  13.002 -0.5363 -2.2255 -1.5868
  191MPD1    H1 2910   3.856   1.213  13.169  1.2498 -1.7588  0.5908
  191MPD1    H2 2911   4.225   1.210  13.377 -0.9036  0.2910  0.8685
  191MPD1    H3 2912   3.990   1.148  13.359 -1.3639 -0.8155 -1.2588
  191MPD1     N 2913   3.934   1.357  12.970 -0.0521  0.2611  0.3045
  191MPD1    H5 2914   3.994   1.386  12.893 -1.1349 -1.6052 -1.2315
  191MPD1    N1 2915   4.367   1.338  13.188  0.4316 -0.3329 -0.3336
  191MPD1    H6 2916   4.417   1.331  13.277  1.5471  0.1636 -0.9165
  191MPD1    H7 2917   4.397   1.427  13.149  0.9496 -0.6638 -0.6844
  192MPD1     C 2918   3.105   0.945  12.575  0.3649 -0.2803  0.6653
  192MPD1    C1 2919   3.135   1.038  12.478 -0.1500 -0.1127  0.3524
  192MPD1    C2 2920   3.233   1.130  12.513 -0.0760 -0.2171  0.7092
  192MPD1    C3 2921   3.294   1.131  12.643  0.1034  0.4999 -0.0943
  192MPD1    C4 2922   3.257   1.038  12.736 -0.2232 -0.4595  0.4268
  192MPD1    C5 2923   3.164   0.948  12.702 -0.6939 -0.1841 -0.6545
  192MPD1     H 2924   3.260   1.216  12.451  1.3681 -3.0642 -2.6094
  192MPD1    H1 2925   3.291   1.043  12.838 -1.4591 -0.9423  0.8620
  192MPD1    H2 2926   3.048   0.855  12.552  0.3050 -0.7538  2.6181
  192MPD1    H3 2927   3.116   0.882  12.773 -0.7202  1.2443  0.6671
  192MPD1     N 2928   3.386   1.229  12.677 -0.4861  0.0465  0.0131
  192MPD1    H5 2929   3.420   1.226  12.773 -0.0347 -1.0644 -0.1756
  192MPD1    N1 2930   3.048   1.061  12.368 -0.3960 -0.3021 -0.7761
  192MPD1    H6 2931   3.006   0.972  12.341 -0.6188 -0.2186 -0.7072
  192MPD1    H7 2932   3.079   1.116  12.289  0.7447  1.8906  1.2139
  193MPD1     C 2933   3.279   2.034  16.603  0.0263  0.1500 -0.3984
  193MPD1    C1 2934   3.397   1.994  16.552  0.6667 -0.1981 -0.1702
  193MPD1    C2 2935   3.511   2.014  16.633  0.8301  0.4033  0.4766
  193MPD1    C3 2936   3.506   2.071  16.751 -0.4198 -0.3011  0.8157
  193MPD1    C4 2937   3.379   2.111  16.793 -0.0567  0.6458  0.0875
  193MPD1    C5 2938   3.268   2.101  16.717 -0.2031 -0.2575 -0.2058
  193MPD1     H 2939   3.602   1.980  16.586  0.5494  0.8928 -0.4017
  193MPD1    H1 2940   3.376   2.168  16.885 -1.2521 -1.1952  1.1637
  193MPD1    H2 2941   3.185   2.026  16.550  0.5551 -1.9769 -1.0171
  193MPD1    H3 2942   3.173   2.141  16.750  0.6598  1.0082  0.7420
  193MPD1     N 2943   3.616   2.097  16.836  0.1708 -0.0614  0.2129
  193MPD1    H5 2944   3.595   2.136  16.927 -0.2325 -0.9481  0.4954
  193MPD1    N1 2945   3.402   1.910  16.439  0.5602 -0.3327  0.1717
  193MPD1    H6 2946   3.491   1.923  16.391  0.1793 -0.8952 -0.6877
  193MPD1    H7 2947   3.330   1.939  16.374  1.7287  1.3661 -0.3784
  194MPD1     C 2948   1.208   4.101  16.368 -0.2190  0.0541 -0.3606
  194MPD1    C1 2949   1.161   4.169  16.470  0.4594 -0.3178  0.2985
  194MPD1    C2 2950   1.206   4.136  16.596  0.7098  0.0293 -0.1836
  194MPD1    C3 2951   1.271   4.012  16.621  0.3962 -0.3491 -0.1213
  194MPD1    C4 2952   1.312   3.941  16.512 -0.0029 -0.4237 -0.1669
  194MPD1    C5 2953   1.286   3.993  16.389 -0.3245 -0.7184  0.7232
  194MPD1     H 2954   1.167   4.200  16.674 -1.0677 -1.3261  0.0262
  194MPD1    H1 2955   1.348   3.839  16.526 -0.1451 -0.0991  2.6186
  194MPD1    H2 2956   1.193   4.138  16.267  2.5525 -0.6362 -1.0472
  194MPD1    H3 2957   1.317   3.940  16.300 -2.1530 -0.1789 -0.2336
  194MPD1     N 2958   1.307   3.964  16.748  0.8384 -0.3907  0.2189
  194MPD1    H5 2959   1.365   3.880  16.744  2.3475  0.5734  1.8697
  194MPD1    N1 2960   1.093   4.291  16.447  0.0234 -0.2511 -0.3397
  194MPD1    H6 2961   1.018   4.295  16.515 -0.2299  0.6263 -0.6670
  194MPD1    H7 2962   1.044   4.281  16.358  0.7020 -1.2314 -0.6105
  195MPD1     C 2963   4.070   0.135   1.417 -0.2424 -0.0634 -0.0692
  195MPD1    C1 2964   4.202   0.136   1.370 -0.3065  0.2508  0.0096
  195MPD1    C2 2965   4.217   0.106   1.234 -0.0667 -0.4747  0.5087
  195MPD1    C3 2966   4.107   0.102   1.149 -0.9330 -0.4148 -0.4303
  195MPD1    C4 2967   3.975   0.115   1.199  0.1278  0.2769  0.2640
  195MPD1    C5 2968   3.958   0.128   1.335 -0.5872 -0.2150  0.7153
  195MPD1     H 2969   4.313   0.095   1.186  0.9508  0.7098  2.2858
  195MPD1    H1 2970   3.887   0.102   1.136 -0.7529 -0.6014  1.6762
  195MPD1    H2 2971   4.061   0.157   1.523  2.7285  0.8499  0.0036
  195MPD1    H3 2972   3.860   0.130   1.382 -0.5805  0.6416  0.7030
  195MPD1     N 2973   4.114   0.084   1.008 -0.0354 -0.0005  0.8557
  195MPD1    H5 2974   4.021   0.070   0.970  0.6822  1.6159 -1.5049
  195MPD1    N1 2975   4.303   0.147   1.464  0.0358 -0.5504  0.0859
  195MPD1    H6 2976   4.385   0.188   1.420 -1.1853  1.5574 -0.1923
  195MPD1    H7 2977   4.267   0.186   1.551  0.5355  0.4459 -0.1533
  196MPD1     C 2978   2.526   0.042   0.135 -0.4598  0.0333  0.0064
  196MPD1    C1 2979   2.597   0.161   0.146  0.0852  0.0100 -0.4176
  196MPD1    C2 2980   2.623   0.220   0.268 -0.3942 -0.3853 -0.2275
  196MPD1    C3 2981   2.565   0.167   0.377  0.2405 -0.2291 -0.1463
  196MPD1    C4 2982   2.493   0.045   0.367  0.3228  0.0010 -0.3735
  196MPD1    C5 2983   2.465   4.711   0.245 -0.4588  0.1653 -0.2400
  196MPD1     H 2984   2.665   0.320   0.272 -0.6513 -0.1749 -2.7060
  196MPD1    H1 2985   2.446   4.718   0.451 -1.2239  2.3037  0.1388
  196MPD1    H2 2986   2.508   0.004   0.036 -1.7734  1.0631 -0.1600
  196MPD1    H3 2987   2.410   4.618   0.235 -0.7792  0.4014 -0.6587
  196MPD1     N 2988   2.573   0.222   0.503 -0.6903 -0.7377 -0.5631
  196MPD1    H5 2989   2.530   0.160   0.571  0.1506 -1.2586 -0.5174
  196MPD1    N1 2990   2.610   0.238   0.021 -0.4548  0.0215  0.6270
  196MPD1    H6 2991   2.701   0.283   0.034 -0.2175  0.4723 -2.4371
  196MPD1    H7 2992   2.620   0.185  17.630 -2.4352 -0.4620  0.6940
  197MPD1     C 2993   1.805   3.249   0.084  0.3137 -0.5100  0.4075
  197MPD1    C1 2994   1.778   3.260  17.645 -0.0809 -0.1272 -0.5574
  197MPD1    C2 2995   1.876   3.301  17.557  0.0918  0.9857  0.0763
  197MPD1    C3 2996   2.007   3.309  17.599  0.2293 -0.5535  0.3719
  197MPD1    C4 2997   2.038   3.292   0.035  0.1060 -0.0509  0.8040
  197MPD1    C5 2998   1.936   3.260   0.123  0.0634 -0.7739 -0.2915
  197MPD1     H 2999   1.850   3.317  17.453 -3.3313 -1.0886  0.5942
  197MPD1    H1 3000   2.139   3.293   0.075 -0.9874  2.1383  3.5435
  197MPD1    H2 3001   1.732   3.229   0.161  1.2919 -0.2989  1.3932
  197MPD1    H3 3002   1.957   3.257   0.229 -0.6892 -2.1710 -0.1822
  197MPD1     N 3003   2.107   3.329  17.499  0.0498  0.3768 -0.3453
  197MPD1    H5 3004   2.203   3.338  17.529  0.2345  1.6286 -1.3093
  197MPD1    N1 3005   1.643   3.276  17.600  0.0777  0.2213 -0.3818
  197MPD1    H6 3006   1.630   3.256  17.501  2.5388 -0.7830 -0.5022
  197MPD1    H7 3007   1.574   3.233  17.662 -1.2979 -0.2648 -2.2470
  198MPD1     C 3008   3.863   1.166  15.694  0.1984  0.1008  0.2668
  198MPD1    C1 3009   3.950   1.157  15.589  0.0802  0.0819 -0.3145
  198MPD1    C2 3010   4.081   1.171  15.615  0.6061 -0.3735  0.3576
  198MPD1    C3 3011   4.131   1.186  15.746 -0.0134  0.2082 -0.2965
  198MPD1    C4 3012   4.044   1.196  15.848 -0.0779 -0.1471  0.0374
  198MPD1    C5 3013   3.908   1.196  15.816  0.5904 -1.0964 -0.0749
  198MPD1     H 3014   4.155   1.145  15.540 -0.3649 -2.5994  0.1530
  198MPD1    H1 3015   4.083   1.223  15.945  1.0005  1.0765 -0.7255
  198MPD1    H2 3016   3.756   1.166  15.673  0.5665  0.3169 -1.6152
  198MPD1    H3 3017   3.832   1.213  15.892 -0.7148 -1.8637 -1.1947
  198MPD1     N 3018   4.275   1.186  15.773  0.3614 -0.6241  0.9147
  198MPD1    H5 3019   4.331   1.151  15.696  1.3019 -1.5572  2.0244
  198MPD1    N1 3020   3.905   1.101  15.470 -0.3734 -0.4719 -0.0271
  198MPD1    H6 3021   3.966   1.125  15.392 -2.3522  1.1919 -1.0888
  198MPD1    H7 3022   3.809   1.126  15.446  0.3863  0.9843 -1.4922
  199MPD1     C 3023   3.260   1.859  10.091  0.1633  1.1440  0.7433
  199MPD1    C1 3024   3.230   1.948   9.991  0.4052  0.1625 -0.1318
  199MPD1    C2 3025   3.098   1.971   9.947 -0.0512  0.3194  0.8155
  199MPD1    C3 3026   3.004   1.879   9.988 -0.0446 -0.0417  0.4137
  199MPD1    C4 3027   3.034   1.776  10.081 -0.0906  0.7107 -0.7147
  199MPD1    C5 3028   3.159   1.777  10.134  0.7841 -0.3173 -0.4253
  199MPD1     H 3029   3.077   2.049   9.875 -0.3991 -2.2763 -1.9385
  199MPD1    H1 3030   2.963   1.697  10.101  0.2835  0.8518  1.1837
  199MPD1    H2 3031   3.361   1.848  10.127  0.4087 -1.5089 -0.7100
  199MPD1    H3 3032   3.193   1.698  10.200  1.9811  1.8923  1.5917
  199MPD1     N 3033   2.878   1.875   9.925  0.2177  0.4102 -0.6238
  199MPD1    H5 3034   2.827   1.788   9.938  0.2188  0.4723 -0.2095
  199MPD1    N1 3035   3.325   2.048   9.960 -0.9149 -0.2319 -0.0822
  199MPD1    H6 3036   3.314   2.079   9.863  0.4477  1.6411  0.3776
  199MPD1    H7 3037   3.421   2.017   9.974 -0.5627  1.5105  1.2877
  200MPD1     C 3038   0.805   1.939  14.916  0.1831 -0.3109  0.5556
  200MPD1    C1 3039   0.870   2.062  14.907  0.3749 -0.1611 -0.4651
  200MPD1    C2 3040   0.993   2.069  14.847 -0.3636  0.3284  0.2173
  200MPD1    C3 3041   1.042   1.953  14.786  0.0770  0.2798 -0.4402
  200MPD1    C4 3042   0.969   1.835  14.790 -0.5649  0.0957  0.3524
  200MPD1    C5 3043   0.854   1.824  14.859  0.3129  0.7153 -0.6955
  200MPD1     H 3044   1.047   2.163  14.841 -0.6745  0.4434 -0.7305
  200MPD1    H1 3045   1.002   1.742  14.747 -1.3716 -0.2633  0.5065
  200MPD1    H2 3046   0.722   1.923  14.984 -0.1393  1.6206  0.6079
  200MPD1    H3 3047   0.803   1.729  14.867 -0.2275  0.9592 -1.2885
  200MPD1     N 3048   1.164   1.958  14.720  0.1702  0.4123 -0.5423
  200MPD1    H5 3049   1.213   2.047  14.719 -0.6757  0.8690 -1.2213
  200MPD1    N1 3050   0.832   2.168  14.981  0.5070  0.0808  0.2217
  200MPD1    H6 3051   0.866   2.254  14.939 -0.6517  0.1472 -0.5774
  200MPD1    H7 3052   0.731   2.177  14.992  0.1040 -0.7935 -2.8054
  201MPD1     C 3053   2.500   1.007  13.516  0.2086 -0.5477 -0.4107
  201MPD1    C1 3054   2.494   0.911  13.420  0.3959  0.9115 -0.0428
  201MPD1    C2 3055   2.614   0.838  13.393  0.7022 -0.0378 -0.3349
  201MPD1    C3 3056   2.736   0.866  13.456  0.1592  0.7536  0.0924
  201MPD1    C4 3057   2.735   0.968  13.555 -0.2950 -0.3132  0.7339
  201MPD1    C5 3058   2.617   1.041  13.576  0.7307 -0.2337 -0.2981
  201MPD1     H 3059   2.612   0.757  13.321 -0.5294 -0.5672  0.2914
  201MPD1    H1 3060   2.823   1.006  13.605 -1.0260  1.4225  0.6861
  201MPD1    H2 3061   2.410   1.063  13.536  1.2856  2.2081 -3.2288
  201MPD1    H3 3062   2.619   1.118  13.653 -0.6116  0.9886 -1.5006
  201MPD1     N 3063   2.852   0.797  13.413 -1.0085 -0.1949  0.8923
  201MPD1    H5 3064   2.846   0.750  13.323 -0.1356  2.9379 -0.7808
  201MPD1    N1 3065   2.374   0.870  13.362 -0.2022 -0.8402  0.3313
  201MPD1    H6 3066   2.308   0.940  13.330 -0.1881  0.1684  2.4910
  201MPD1    H7 3067   2.395   0.805  13.287 -3.7698 -1.9889  0.3446
  202MPD1     C 3068   3.919   0.543   9.013 -0.1392 -0.0407  0.5871
  202MPD1    C1 3069   3.819   0.623   9.061  0.1819 -0.5466 -0.1161
  202MPD1    C2 3070   3.829   0.648   9.196  0.2365  0.2303  0.0106
  202MPD1    C3 3071   3.893   0.567   9.286  0.3185 -0.3934  0.8136
  202MPD1    C4 3072   3.982   0.480   9.226 -0.2732  0.5263 -0.1461
  202MPD1    C5 3073   4.000   0.471   9.094  0.0700 -0.1018  0.3423
  202MPD1     H 3074   3.764   0.728   9.230  0.5213  0.4593  0.0160
  202MPD1    H1 3075   4.047   0.414   9.283 -1.0927 -0.8349 -0.7741
  202MPD1    H2 3076   3.936   0.521   8.908 -5.2745  1.8917 -0.6556
  202MPD1    H3 3077   4.064   0.395   9.049  1.1367  1.1173 -0.2210
  202MPD1     N 3078   3.868   0.570   9.426  0.2620  0.3584  0.7734
  202MPD1    H5 3079   3.923   0.511   9.488  1.0020 -1.8440 -1.9876
  202MPD1    N1 3080   3.779   0.729   8.981  0.6920  0.0355 -0.5724
  202MPD1    H6 3081   3.703   0.776   9.031  0.3986 -1.7124  0.5887
  202MPD1    H7 3082   3.740   0.695   8.893 -2.4765  2.7891 -0.2752
  203MPD1     C 3083   2.024   1.919  12.567  0.2543  0.2404  0.4397
  203MPD1    C1 3084   2.101   1.913  12.679  0.0889  0.2360 -0.0189
  203MPD1    C2 3085   2.197   1.813  12.685 -0.4743 -0.1309 -0.2580
  203MPD1    C3 3086   2.229   1.725  12.583 -0.4953  0.0176 -0.4449
  203MPD1    C4 3087   2.153   1.744  12.468 -0.6090 -0.1052 -1.2305
  203MPD1    C5 3088   2.052   1.835  12.465  0.3803 -0.0471 -0.3475
  203MPD1     H 3089   2.251   1.808  12.778 -2.4687  0.9897  0.9569
  203MPD1    H1 3090   2.177   1.696  12.374  0.4411  1.6028 -1.8271
  203MPD1    H2 3091   1.944   1.990  12.553 -1.5952 -1.6169  1.5931
  203MPD1    H3 3092   1.997   1.840  12.371 -1.3775 -0.5743  0.6562
  203MPD1     N 3093   2.324   1.622  12.599  0.8852 -0.1990 -0.7288
  203MPD1    H5 3094   2.351   1.606  12.696  3.2799  0.8562 -1.2151
  203MPD1    N1 3095   2.067   1.988  12.794  0.2255 -0.2943  0.7396
  203MPD1    H6 3096   2.139   1.987  12.866  1.0674  2.4593 -0.0788
  203MPD1    H7 3097   2.027   2.081  12.784  0.7586 -0.0823  0.5630
  204MPD1     C 3098   0.650   1.901  16.831 -0.7934  0.2129  0.3369
  204MPD1    C1 3099   0.759   1.892  16.742 -0.6180 -0.0448 -0.2848
  204MPD1    C2 3100   0.883   1.880  16.803 -0.6731  0.5855 -0.3601
  204MPD1    C3 3101   0.903   1.863  16.940  0.2350  0.5163 -0.3528
  204MPD1    C4 3102   0.792   1.876  17.022  0.1699 -0.5149  0.1829
  204MPD1    C5 3103   0.667   1.888  16.967 -0.2402  0.1677  0.2023
  204MPD1     H 3104   0.965   1.902  16.736  1.5536 -0.5324  2.0159
  204MPD1    H1 3105   0.805   1.870  17.130 -0.1683 -1.0491  0.1951
  204MPD1    H2 3106   0.552   1.917  16.790 -0.4253  1.5367 -0.0173
  204MPD1    H3 3107   0.577   1.878  17.025 -0.3552  0.4164  0.0680
  204MPD1     N 3108   1.037   1.842  16.989 -0.3026  0.5848 -0.7056
  204MPD1    H5 3109   1.108   1.835  16.917 -0.3167  2.4572 -0.8929
  204MPD1    N1 3110   0.750   1.931  16.608  0.0327  0.4499 -0.2182
  204MPD1    H6 3111   0.661   1.910  16.564  0.1120 -0.9349  0.2756
  204MPD1    H7 3112   0.820   1.885  16.550 -1.4145 -1.6846 -0.2877
  205MPD1     C 3113   1.323   0.648  16.368 -0.2736 -0.2471  0.5344
  205MPD1    C1 3114   1.273   0.553  16.453  0.0704 -0.5274  1.3016
  205MPD1    C2 3115   1.308   0.554  16.588 -0.1845 -0.3937  0.0598
  205MPD1    C3 3116   1.403   0.647  16.634 -0.0986 -0.8619 -0.8381
  205MPD1    C4 3117   1.451   0.735  16.546  0.1742 -0.4339 -0.7707
  205MPD1    C5 3118   1.421   0.735  16.405 -0.4978  0.2749  0.5030
  205MPD1     H 3119   1.273   0.475  16.653  0.2603 -0.8235 -0.2229
  205MPD1    H1 3120   1.528   0.801  16.584 -0.0970 -0.0360 -0.9195
  205MPD1    H2 3121   1.287   0.658  16.266  0.9670 -1.4685 -0.0125
  205MPD1    H3 3122   1.464   0.801  16.331  0.2077 -0.6443  0.1010
  205MPD1     N 3123   1.436   0.650  16.775 -0.0313 -0.7663 -0.5978
  205MPD1    H5 3124   1.493   0.731  16.794  1.3607 -0.9477 -3.9823
  205MPD1    N1 3125   1.158   0.478  16.420 -0.6109  0.0205 -0.4239
  205MPD1    H6 3126   1.171   0.384  16.457  2.0172  0.2578 -0.7733
  205MPD1    H7 3127   1.150   0.456  16.321 -2.3731  1.0095 -0.5028
  206MPD1     C 3128   1.468   4.586  16.890  0.0277 -0.0953 -0.3649
  206MPD1    C1 3129   1.471   4.451  16.883 -0.3364 -0.4486 -0.0033
  206MPD1    C2 3130   1.483   4.390  16.760 -0.5173 -0.3821  0.2189
  206MPD1    C3 3131   1.474   4.464  16.646  0.5317  1.1578 -0.2711
  206MPD1    C4 3132   1.444   4.603  16.661 -0.1262  0.5112 -0.4596
  206MPD1    C5 3133   1.454   4.664  16.781 -0.2742  0.0983 -0.2413
  206MPD1     H 3134   1.499   4.283  16.753  1.1727 -0.0883 -0.3790
  206MPD1    H1 3135   1.442   4.672  16.577 -0.4907 -0.1481 -0.9976
  206MPD1    H2 3136   1.462   4.636  16.986 -0.1035  0.3900 -0.6243
  206MPD1    H3 3137   1.447   0.047  16.794  2.2958  0.3701 -0.9791
  206MPD1     N 3138   1.474   4.414  16.516  0.2915 -0.1394  0.1546
  206MPD1    H5 3139   1.441   4.484  16.450 -1.6943 -1.4071 -0.2024
  206MPD1    N1 3140   1.491   4.382  17.002  0.3890  1.0517  0.3558
  206MPD1    H6 3141   1.455   4.288  16.988  2.6078  0.0952  1.1440
  206MPD1    H7 3142   1.434   4.414  17.081  1.5475  1.0691  1.1971
  207MPD1     C 3143   0.747   1.775   8.809  0.1941 -0.2024  0.3329
  207MPD1    C1 3144   0.843   1.824   8.891 -0.0166  1.1826 -0.7695
  207MPD1    C2 3145   0.790   1.873   9.013  0.6107  0.1923 -0.1862
  207MPD1    C3 3146   0.653   1.880   9.036  0.1392  0.1494 -0.1006
  207MPD1    C4 3147   0.559   1.826   8.948  0.7726  0.5397 -0.3627
  207MPD1    C5 3148   0.613   1.777   8.834 -0.7417  0.3865  0.3946
  207MPD1     H 3149   0.868   1.907   9.081  0.6803 -0.4492  0.0543
  207MPD1    H1 3150   0.453   1.808   8.966  0.8480  0.3047 -0.1454
  207MPD1    H2 3151   0.788   1.755   8.710  0.1164 -2.2213  0.7090
  207MPD1    H3 3152   0.538   1.747   8.762 -2.0358 -1.9736  2.7354
  207MPD1     N 3153   0.601   1.926   9.162 -0.2792  0.4620 -1.3007
  207MPD1    H5 3154   0.508   1.911   9.199  1.4150 -1.4379  2.2889
  207MPD1    N1 3155   0.983   1.800   8.873 -0.1531 -0.3154  0.3100
  207MPD1    H6 3156   1.036   1.878   8.913 -1.0817  0.2661  0.4022
  207MPD1    H7 3157   1.008   1.782   8.776 -0.1130  1.8812 -0.0965
  208MPD1     C 3158   2.381   1.208   0.821 -0.1134 -0.1535  0.3912
  208MPD1    C1 3159   2.262   1.192   0.888  0.0976 -0.8677 -0.1585
  208MPD1    C2 3160   2.168   1.108   0.830 -0.1595  0.0865 -0.2069
  208MPD1    C3 3161   2.197   1.026   0.718 -0.5516 -0.0977 -0.1210
  208MPD1    C4 3162   2.320   1.044   0.658  0.5204 -0.6445 -0.3441
  208MPD1    C5 3163   2.411   1.121   0.720 -0.0741  0.0057  0.1148
  208MPD1     H 3164   2.067   1.109   0.870 -0.2678  0.7721 -0.5024
  208MPD1    H1 3165   2.358   0.984   0.576  1.4314 -1.7454  0.8852
  208MPD1    H2 3166   2.461   1.273   0.854 -1.7540  3.1371 -2.1115
  208MPD1    H3 3167   2.509   1.123   0.674 -0.3860 -0.9093 -0.5759
  208MPD1     N 3168   2.090   0.951   0.673 -0.3997 -0.4719 -0.5490
  208MPD1    H5 3169   2.015   0.935   0.739  1.1289  1.6483  1.7647
  208MPD1    N1 3170   2.224   1.287   0.985 -1.2881 -0.4036  0.3096
  208MPD1    H6 3171   2.303   1.309   1.047 -0.0836  0.2079 -1.4421
  208MPD1    H7 3172   2.151   1.252   1.047 -1.6718  1.5899  0.9771
  209MPD1     C 3173   3.869   1.290  10.148 -0.2363  0.0071 -0.1932
  209MPD1    C1 3174   3.942   1.240  10.255 -0.0679  0.2595  0.3808
  209MPD1    C2 3175   4.078   1.263  10.243  0.1358 -0.0229  0.4608
  209MPD1    C3 3176   4.138   1.337  10.143 -0.6425  0.5135  0.4176
  209MPD1    C4 3177   4.058   1.377  10.035 -0.3746  0.3751  0.1919
  209MPD1    C5 3178   3.925   1.351  10.040  0.0662  0.3085  0.1974
  209MPD1     H 3179   4.130   1.220  10.328 -0.3887  1.8723  1.7487
  209MPD1    H1 3180   4.090   1.450   9.962  3.3832 -0.7993  0.6070
  209MPD1    H2 3181   3.761   1.292  10.139 -0.3967  1.1373  1.9379
  209MPD1    H3 3182   3.855   1.405   9.977 -1.3111  0.3179  1.7250
  209MPD1     N 3183   4.277   1.364  10.148  0.4679  0.2227  0.7106
  209MPD1    H5 3184   4.334   1.331  10.226 -1.4522  0.0096  2.0317
  209MPD1    N1 3185   3.884   1.164  10.353  0.1720  0.3155 -0.2636
  209MPD1    H6 3186   3.787   1.195  10.352 -0.2676 -1.0156  0.8236
  209MPD1    H7 3187   3.932   1.169  10.442 -1.0145 -3.0734  0.5792
  210MPD1     C 3188   0.449   1.363  10.615 -0.0527  0.4021  0.6204
  210MPD1    C1 3189   0.328   1.287  10.616 -0.2529  0.0553 -0.6854
  210MPD1    C2 3190   0.214   1.350  10.564  0.6377  0.1939  0.3543
  210MPD1    C3 3191   0.223   1.448  10.471 -0.8936 -0.2912 -0.2838
  210MPD1    C4 3192   0.348   1.509  10.463  0.0119 -0.1792  1.0175
  210MPD1    C5 3193   0.455   1.475  10.540  0.1017  0.2999  0.2126
  210MPD1     H 3194   0.128   1.284  10.562  0.8956 -0.1652  1.1292
  210MPD1    H1 3195   0.356   1.594  10.397 -0.6984 -0.0413  1.1046
  210MPD1    H2 3196   0.544   1.332  10.657  0.6754  1.9801  0.1433
  210MPD1    H3 3197   0.545   1.534  10.524  0.6584 -0.1815  1.4856
  210MPD1     N 3198   0.125   1.488  10.381  0.0699 -0.8173 -0.4073
  210MPD1    H5 3199   0.142   1.575  10.331 -0.3912 -1.4875 -1.7209
  210MPD1    N1 3200   0.319   1.167  10.686  0.4801 -0.0722 -0.6971
  210MPD1    H6 3201   0.413   1.129  10.698  0.4076 -0.0922 -0.2234
  210MPD1    H7 3202   0.263   1.091  10.647 -0.1115  0.1789 -0.3254
  211MPD1     C 3203   2.295   1.031  15.772  0.0327  0.3612 -0.1822
  211MPD1    C1 3204   2.348   1.142  15.831 -0.1470 -0.7815 -0.0372
  211MPD1    C2 3205   2.263   1.232  15.890 -0.0924 -0.0507 -0.7746
  211MPD1    C3 3206   2.127   1.205  15.903 -0.0215  0.1220  0.0641
  211MPD1    C4 3207   2.073   1.095  15.840 -0.3443 -0.1562 -0.3888
  211MPD1    C5 3208   2.156   1.014  15.775 -0.0213 -0.3364 -0.2462
  211MPD1     H 3209   2.289   1.328  15.933 -2.5147 -0.6000  1.9383
  211MPD1    H1 3210   1.970   1.064  15.833 -0.5156  0.3429 -0.0737
  211MPD1    H2 3211   2.364   0.959  15.730  2.4631  0.6961  3.2614
  211MPD1    H3 3212   2.107   0.942  15.711  0.3473 -0.6777 -0.1434
  211MPD1     N 3213   2.046   1.300  15.972  0.1152  0.8125 -0.3083
  211MPD1    H5 3214   2.085   1.384  16.014  0.9901  0.0456  0.4003
  211MPD1    N1 3215   2.485   1.176  15.812 -0.2305 -0.2525 -0.9678
  211MPD1    H6 3216   2.540   1.094  15.786 -1.7902 -1.7315  0.3761
  211MPD1    H7 3217   2.528   1.224  15.891  0.6422 -1.3146 -0.7907
  212MPD1     C 3218   0.643   0.064  16.496 -0.7363 -0.3395  0.2224
  212MPD1    C1 3219   0.744   4.705  16.459 -0.5017 -0.2217 -0.3763
  212MPD1    C2 3220   0.764   4.584  16.531  0.0870 -0.3749  0.3840
  212MPD1    C3 3221   0.688   4.560  16.645 -0.2418 -0.4638 -0.4852
  212MPD1    C4 3222   0.586   4.645  16.674  0.1124 -1.0205  0.0445
  212MPD1    C5 3223   0.558   0.030  16.595  0.3919  0.4304 -0.3416
  212MPD1     H 3224   0.833   4.509  16.496 -0.0005 -0.0927 -0.4102
  212MPD1    H1 3225   0.519   4.627  16.757 -3.3238  1.3275 -2.2004
  212MPD1    H2 3226   0.607   0.147  16.437  0.3375  0.2936  0.4708
  212MPD1    H3 3227   0.477   0.093  16.628 -1.5327 -1.4881 -1.4066
  212MPD1     N 3228   0.709   4.452  16.734  0.8757 -0.5644  0.0432
  212MPD1    H5 3229   0.662   4.444  16.824  0.0716 -1.3264 -0.4397
  212MPD1    N1 3230   0.804   4.714  16.335  0.5487 -0.0099  0.2808
  212MPD1    H6 3231   0.899   4.678  16.334  0.1810 -0.9476 -1.3215
  212MPD1    H7 3232   0.812   0.085  16.300 -0.3111  0.0918  0.3359
  213MPD1     C 3233   4.334   4.723  15.976 -0.5877  0.2277 -0.3615
  213MPD1    C1 3234   4.241   4.630  15.929 -0.7665  0.9311 -0.0558
  213MPD1    C2 3235   4.174   4.660  15.815 -0.2974  0.8678 -0.8155
  213MPD1    C3 3236   4.172   0.063  15.761 -0.1565  0.5531 -0.0113
  213MPD1    C4 3237   4.251   0.159  15.822  0.0375  0.0139 -0.1085
  213MPD1    C5 3238   4.333   0.127  15.930  0.0196 -0.2225 -0.0771
  213MPD1     H 3239   4.113   4.578  15.779 -0.6327  0.5379  0.4812
  213MPD1    H1 3240   4.258   0.258  15.779  2.4182  0.2494  0.8595
  213MPD1    H2 3241   4.408   4.703  16.053 -0.9822 -1.0979 -0.3238
  213MPD1    H3 3242   4.391   0.211  15.966 -0.4088 -0.2302  0.6253
  213MPD1     N 3243   4.076   0.090  15.655 -0.2070 -0.6936  0.2294
  213MPD1    H5 3244   4.021   0.013  15.619 -0.3678 -0.7286  0.5594
  213MPD1    N1 3245   4.254   4.495  15.978 -0.4590 -0.2889  0.2412
  213MPD1    H6 3246   4.273   4.491  16.078 -3.2171 -0.0609  0.7673
  213MPD1    H7 3247   4.165   4.446  15.980 -1.2616  1.1207 -1.4771
  214MPD1     C 3248   3.398   4.319  15.515  0.2379 -0.0276 -0.4823
  214MPD1    C1 3249   3.373   4.419  15.417 -0.0021  0.5450  0.0983
  214MPD1    C2 3250   3.456   4.527  15.405  0.3117 -0.2970  0.8206
  214MPD1    C3 3251   3.574   4.538  15.479  0.2543 -0.4759 -0.6291
  214MPD1    C4 3252   3.589   4.444  15.580  0.1024 -0.3158 -0.4253
  214MPD1    C5 3253   3.496   4.343  15.606  0.4964 -0.0288 -0.4906
  214MPD1     H 3254   3.437   4.595  15.323 -4.1618 -0.3518  1.8347
  214MPD1    H1 3255   3.677   4.452  15.643 -0.9427  0.9700  0.8604
  214MPD1    H2 3256   3.330   4.234  15.525  2.3069 -1.4570  1.4613
  214MPD1    H3 3257   3.523   4.277  15.688 -0.4131 -0.2435 -0.3656
  214MPD1     N 3258   3.672   4.641  15.474  0.0651  0.8515  0.4422
  214MPD1    H5 3259   3.754   4.631  15.532 -0.8721  0.4657  1.7030
  214MPD1    N1 3260   3.255   4.396  15.341  0.2955 -0.0366 -0.5309
  214MPD1    H6 3261   3.221   4.485  15.305  2.4048  0.5742 -1.0541
  214MPD1    H7 3262   3.186   4.352  15.402 -1.3980  2.3309 -0.7469
  215MPD1     C 3263   4.490   0.591  10.745  0.4114 -0.0593 -0.6866
  215MPD1    C1 3264   4.576   0.630  10.838 -0.2881 -0.6219 -0.6154
  215MPD1    C2 3265   4.595   0.764  10.858 -0.0270 -0.2868  0.1649
  215MPD1    C3 3266   4.517   0.863  10.793  0.9571  0.6511  0.1213
  215MPD1    C4 3267   4.423   0.817  10.703  0.4979 -0.2258  0.4500
  215MPD1    C5 3268   4.409   0.679  10.677  0.5425 -0.3624  0.4692
  215MPD1     H 3269   4.663   0.791  10.938 -0.4536  0.8918  0.1338
  215MPD1    H1 3270   4.355   0.887  10.656  0.8829  0.5807  1.0730
  215MPD1    H2 3271   4.479   0.485  10.724  0.6656 -0.3590  0.6547
  215MPD1    H3 3272   4.339   0.649  10.600  0.3295  0.0111  0.5152
  215MPD1     N 3273   4.547   1.005  10.820  0.2490 -0.6547 -0.5724
  215MPD1    H5 3274   4.627   1.027  10.877  0.5680 -2.6505 -0.2468
  215MPD1    N1 3275   4.673   0.544  10.887 -0.2827  0.0070 -0.6387
  215MPD1    H6 3276   4.712   0.588  10.969 -0.2839 -0.9561 -0.1189
  215MPD1    H7 3277   4.621   0.459  10.908  2.0284 -1.6025 -1.4214
  216MPD1     C 3278   0.594   2.201   0.946  0.6274  0.2248 -0.3006
  216MPD1    C1 3279   0.469   2.249   0.929  0.6469 -0.6717 -0.3016
  216MPD1    C2 3280   0.444   2.385   0.952  0.6111  0.9826 -0.3185
  216MPD1    C3 3281   0.553   2.473   0.977 -0.3566  0.4288  0.4847
  216MPD1    C4 3282   0.683   2.419   0.980  0.1265  0.7121  0.2842
  216MPD1    C5 3283   0.701   2.282   0.968 -0.1089 -0.3103  0.3934
  216MPD1     H 3284   0.341   2.419   0.957  0.3859  0.1695  0.4848
  216MPD1    H1 3285   0.771   2.481   0.991 -0.7160  2.2445 -1.4604
  216MPD1    H2 3286   0.605   2.094   0.941  1.4232  0.3839 -1.8209
  216MPD1    H3 3287   0.795   2.229   0.984  1.3347  2.6490  1.8301
  216MPD1     N 3288   0.521   2.614   0.992  0.1572  0.4496  0.5750
  216MPD1    H5 3289   0.421   2.630   0.989  0.3245  1.2472 -0.5910
  216MPD1    N1 3290   0.365   2.155   0.917  0.2056  0.6138  0.1262
  216MPD1    H6 3291   0.396   2.064   0.885 -0.5586  1.7324 -3.8890
  216MPD1    H7 3292   0.294   2.192   0.854  1.3535 -0.0469 -1.5645
  217MPD1     C 3293   3.082   1.627   9.044  0.0655 -0.5268 -0.9155
  217MPD1    C1 3294   2.960   1.621   9.103  0.0707 -0.0136  0.1437
  217MPD1    C2 3295   2.886   1.502   9.097 -0.1635 -0.2948 -0.1844
  217MPD1    C3 3296   2.938   1.391   9.035 -0.2860  0.1090 -0.4114
  217MPD1    C4 3297   3.056   1.399   8.966  0.4940 -0.0298 -1.7745
  217MPD1    C5 3298   3.120   1.521   8.969  0.3150  0.5284 -0.2638
  217MPD1     H 3299   2.788   1.498   9.143 -0.0927 -1.2341 -0.1074
  217MPD1    H1 3300   3.091   1.318   8.903 -1.1482 -0.7630 -1.7190
  217MPD1    H2 3301   3.140   1.718   9.051 -0.6271 -0.1864  0.3490
  217MPD1    H3 3302   3.212   1.544   8.916  0.2067 -2.1499 -1.5992
  217MPD1     N 3303   2.861   1.267   9.027 -0.6054  0.2718 -0.0838
  217MPD1    H5 3304   2.903   1.188   8.981  2.2722  1.2471  0.8642
  217MPD1    N1 3305   2.934   1.721   9.196  0.3094  0.5542 -0.1433
  217MPD1    H6 3306   2.838   1.743   9.221  0.6417  1.3925  0.3838
  217MPD1    H7 3307   2.984   1.804   9.165  1.0186  0.6998  1.3827
  218MPD1     C 3308   3.456   2.016  12.144 -0.2328  0.3696  0.4227
  218MPD1    C1 3309   3.589   2.019  12.108 -0.0167  0.1358 -0.7409
  218MPD1    C2 3310   3.670   1.910  12.123  0.0535  0.3037 -0.2593
  218MPD1    C3 3311   3.621   1.786  12.164 -0.1114  0.2702  0.3254
  218MPD1    C4 3312   3.484   1.781  12.190 -0.8028 -0.1321 -0.4233
  218MPD1    C5 3313   3.406   1.895  12.194  0.7256 -0.3083 -0.8878
  218MPD1     H 3314   3.776   1.915  12.103  0.1965  0.3752  0.5219
  218MPD1    H1 3315   3.439   1.687  12.220 -0.2428 -0.6931 -1.3339
  218MPD1    H2 3316   3.391   2.103  12.135 -1.0025 -0.7058 -4.6582
  218MPD1    H3 3317   3.299   1.900  12.214  0.8126  1.3135 -0.7692
  218MPD1     N 3318   3.714   1.679  12.175  0.6026 -0.0479  0.2089
  218MPD1    H5 3319   3.814   1.696  12.170  0.3726  0.0677 -4.0146
  218MPD1    N1 3320   3.647   2.139  12.071  0.1267  0.5535 -0.2645
  218MPD1    H6 3321   3.586   2.194  12.012 -0.0745  2.5515  1.7973
  218MPD1    H7 3322   3.731   2.144  12.015 -0.7090 -3.4509 -1.8910
  219MPD1     C 3323   4.650   1.458  12.289 -0.2373 -0.2646 -0.0631
  219MPD1    C1 3324   4.584   1.515  12.188  0.3274  0.4005 -0.0671
  219MPD1    C2 3325   4.447   1.506  12.191  0.3039 -0.5734  0.0927
  219MPD1    C3 3326   4.382   1.442  12.299  0.0816  0.1782  0.2160
  219MPD1    C4 3327   4.453   1.375  12.397  0.5272  0.0792 -0.6205
  219MPD1    C5 3328   4.593   1.384  12.389  0.2460  0.8024  0.7853
  219MPD1     H 3329   4.387   1.542  12.109  0.3894  0.9354  0.6780
  219MPD1    H1 3330   4.417   1.315  12.480  0.1145  0.0602 -0.8097
  219MPD1    H2 3331   0.034   1.471  12.289 -0.5810  2.4991 -1.1528
  219MPD1    H3 3332   4.654   1.335  12.465  0.4255 -3.1385 -1.8976
  219MPD1     N 3333   4.249   1.421  12.307 -0.2690  0.0796 -0.3622
  219MPD1    H5 3334   4.226   1.363  12.387 -1.4086 -0.7016 -1.2568
  219MPD1    N1 3335   4.646   1.593  12.090  0.3208 -0.5501  1.0106
  219MPD1    H6 3336   0.011   1.546  12.073 -0.7301 -1.4875 -1.8951
  219MPD1    H7 3337   4.590   1.597  12.005 -0.1308 -0.9035  1.2894
  220MPD1     C 3338   3.703   2.511  10.052  0.7852  0.2387  0.1750
  220MPD1    C1 3339   3.833   2.472  10.082  0.1966 -0.3291  0.2652
  220MPD1    C2 3340   3.863   2.339  10.092 -0.7506  0.4727 -0.9076
  220MPD1    C3 3341   3.772   2.240  10.059  0.1992  0.1897  0.8021
  220MPD1    C4 3342   3.647   2.282  10.022 -0.3449 -0.4523 -0.1321
  220MPD1    C5 3343   3.609   2.414  10.023  0.3675 -0.2154  0.2406
  220MPD1     H 3344   3.966   2.313  10.114 -1.1015 -1.0948 -1.1190
  220MPD1    H1 3345   3.568   2.211  10.000  0.8417 -1.1505 -2.1385
  220MPD1    H2 3346   3.672   2.612  10.028 -0.7435 -0.6033 -1.3058
  220MPD1    H3 3347   3.511   2.446   9.988  0.4364 -0.1161  0.1384
  220MPD1     N 3348   3.816   2.109  10.064  0.7725  0.0785  0.0936
  220MPD1    H5 3349   3.914   2.095  10.085  1.1659  3.6373  0.5681
  220MPD1    N1 3350   3.939   2.564  10.105 -0.1173 -0.1766  0.5351
  220MPD1    H6 3351   4.013   2.535  10.041  1.7965  1.4064  2.0372
  220MPD1    H7 3352   3.909   2.655  10.071  2.5183  1.2604  2.0667
  221MPD1     C 3353   2.313   0.130  17.117  0.5137 -0.6792 -0.0144
  221MPD1    C1 3354   2.362   0.215  17.020 -0.4882 -0.6912  0.2808
  221MPD1    C2 3355   2.281   0.286  16.931 -0.1532  0.9322  0.6972
  221MPD1    C3 3356   2.138   0.274  16.944  0.0714  0.0291 -0.0606
  221MPD1    C4 3357   2.091   0.195  17.041  1.0196  0.1176  0.2318
  221MPD1    C5 3358   2.175   0.120  17.126 -0.3244 -0.8835  0.1607
  221MPD1     H 3359   2.319   0.345  16.848 -0.2774  0.8505  0.5834
  221MPD1    H1 3360   1.985   0.171  17.040  1.2305 -0.8536  1.8610
  221MPD1    H2 3361   2.375   0.067  17.179 -0.4306 -0.7647  0.8423
  221MPD1    H3 3362   2.132   0.055  17.201 -2.1369  2.3673  1.9387
  221MPD1     N 3363   2.043   0.326  16.857 -0.5151 -0.2719  0.1609
  221MPD1    H5 3364   1.945   0.304  16.870 -0.5526  0.5469  1.2668
  221MPD1    N1 3365   2.503   0.221  17.013  1.1978  0.1262 -0.2350
  221MPD1    H6 3366   2.544   0.304  16.969 -0.4891 -0.0357 -2.1116
  221MPD1    H7 3367   2.548   0.204  17.103  0.6593 -0.0079  0.0051
  222MPD1     C 3368   1.241   3.133  16.928  0.2498 -0.2416  0.5686
  222MPD1    C1 3369   1.152   3.229  16.900 -0.5649 -0.2501  0.4730
  222MPD1    C2 3370   1.117   3.317  17.004 -0.6285 -0.1788  0.5127
  222MPD1    C3 3371   1.165   3.297  17.130  0.4315  0.3135 -0.4221
  222MPD1    C4 3372   1.248   3.185  17.159 -0.6176  0.1159 -0.8874
  222MPD1    C5 3373   1.282   3.106  17.052 -0.3507 -0.2627  0.6742
  222MPD1     H 3374   1.052   3.400  16.981  1.5943  1.5281  0.4112
  222MPD1    H1 3375   1.268   3.159  17.262 -2.4689 -0.0637 -0.5643
  222MPD1    H2 3376   1.273   3.073  16.844 -0.6460  1.1039 -0.7355
  222MPD1    H3 3377   1.352   3.025  17.065  1.0592  0.9741  0.7445
  222MPD1     N 3378   1.133   3.376  17.245  0.4702  0.5229 -0.5163
  222MPD1    H5 3379   1.188   3.359  17.328 -0.3249 -0.1284 -0.1250
  222MPD1    N1 3380   1.116   3.255  16.766 -0.5827  0.2164 -0.0091
  222MPD1    H6 3381   1.101   3.172  16.710 -0.6568  0.0318  0.2844
  222MPD1    H7 3382   1.030   3.309  16.763  1.1793  3.0369  0.3693
  223MPD1     C 3383   0.791   3.208   0.430 -0.3606  0.8342  1.0440
  223MPD1    C1 3384   0.748   3.336   0.421 -0.2369  0.3275 -0.2572
  223MPD1    C2 3385   0.780   3.409   0.308  0.7099  0.1996 -0.8834
  223MPD1    C3 3386   0.863   3.357   0.211  0.0394  0.1807 -0.2875
  223MPD1    C4 3387   0.915   3.229   0.229  0.4830  0.5557 -0.0450
  223MPD1    C5 3388   0.884   3.158   0.343 -0.8485 -0.2797 -0.6066
  223MPD1     H 3389   0.746   3.510   0.287 -2.2506 -0.3239  1.4624
  223MPD1    H1 3390   0.989   3.181   0.166 -0.0268  0.3777 -0.5071
  223MPD1    H2 3391   0.766   3.159   0.523 -0.8072 -0.6002  0.1759
  223MPD1    H3 3392   0.937   3.067   0.367 -0.4549  0.0637 -0.1794
  223MPD1     N 3393   0.890   3.443   0.104 -0.0742  0.2912 -0.4263
  223MPD1    H5 3394   0.842   3.531   0.092 -0.0959  0.2989 -0.2881
  223MPD1    N1 3395   0.670   3.393   0.518  0.4618 -0.4281  0.2660
  223MPD1    H6 3396   0.704   3.379   0.613 -0.5685 -1.2713  0.5069
  223MPD1    H7 3397   0.671   3.495   0.517  0.8353 -0.4509 -2.3959
  224MPD1     C 3398   3.429   1.864   9.271  0.5898  0.3576  0.0600
  224MPD1    C1 3399   3.519   1.779   9.326  1.0053 -0.5889  0.3902
  224MPD1    C2 3400   3.473   1.659   9.374  0.2287  0.0342  0.4250
  224MPD1    C3 3401   3.344   1.637   9.401 -0.1413  0.5061  0.1459
  224MPD1    C4 3402   3.250   1.735   9.362  0.0819 -0.0616 -0.3757
  224MPD1    C5 3403   3.293   1.845   9.292  0.4695 -0.2582  0.3739
  224MPD1     H 3404   3.548   1.589   9.411 -0.1056  0.0979  1.2300
  224MPD1    H1 3405   3.144   1.730   9.384  0.1691 -1.6882 -0.2994
  224MPD1    H2 3406   3.472   1.955   9.228 -0.9846  1.0647 -0.0002
  224MPD1    H3 3407   3.216   1.916   9.264 -1.6675 -1.7981  2.3062
  224MPD1     N 3408   3.299   1.523   9.477 -0.0877  0.1501  0.3351
  224MPD1    H5 3409   3.199   1.509   9.478 -0.2599  1.2005 -1.1642
  224MPD1    N1 3410   3.652   1.797   9.301 -1.0811 -0.3245 -0.6072
  224MPD1    H6 3411   3.677   1.895   9.297 -0.4153 -0.3411  3.5896
  224MPD1    H7 3412   3.703   1.748   9.374  1.3318 -2.4234 -3.6853
  225MPD1     C 3413   4.181   2.220  11.945 -0.0305  0.0503 -0.9364
  225MPD1    C1 3414   4.134   2.263  11.827  0.3573  0.5394 -0.3373
  225MPD1    C2 3415   4.007   2.326  11.819  0.0654  0.1838 -0.0692
  225MPD1    C3 3416   3.937   2.349  11.930  0.4408 -0.6508  0.5099
  225MPD1    C4 3417   3.991   2.312  12.055  0.9066 -0.1179 -0.2040
  225MPD1    C5 3418   4.108   2.236  12.058 -0.3729 -0.1002  0.2216
  225MPD1     H 3419   3.969   2.361  11.724  2.4308  0.2918 -0.9846
  225MPD1    H1 3420   3.940   2.329  12.149 -0.6462 -3.7517 -0.3986
  225MPD1    H2 3421   4.260   2.149  11.961  0.2664  0.5676 -0.1262
  225MPD1    H3 3422   4.141   2.210  12.158  1.5280  1.3573 -0.0287
  225MPD1     N 3423   3.817   2.415  11.928 -0.2465 -0.1026 -0.1677
  225MPD1    H5 3424   3.780   2.445  12.018 -0.1999 -0.8867  0.1101
  225MPD1    N1 3425   4.203   2.237  11.707  0.0737  1.1549 -0.2506
  225MPD1    H6 3426   4.190   2.307  11.635  1.2862  2.7186  1.0427
  225MPD1    H7 3427   4.304   2.223  11.712 -0.1020  0.1925  0.6542
  226MPD1     C 3428   2.905   0.924   9.373  0.0795 -0.1199  0.4215
  226MPD1    C1 3429   2.953   1.051   9.364 -0.3059  0.2549  0.3984
  226MPD1    C2 3430   2.861   1.153   9.392  1.0121  0.0910 -0.0414
  226MPD1    C3 3431   2.725   1.132   9.398 -0.1592  0.0416  0.5643
  226MPD1    C4 3432   2.681   1.006   9.392 -0.3510 -0.1425  0.7300
  226MPD1    C5 3433   2.770   0.897   9.381  0.1785  0.1743  0.4866
  226MPD1     H 3434   2.895   1.256   9.397  1.7606 -0.2171  1.2343
  226MPD1    H1 3435   2.574   0.991   9.403 -0.6892  0.9179 -1.1268
  226MPD1    H2 3436   2.980   0.846   9.372  0.2416  0.0179  1.9224
  226MPD1    H3 3437   2.733   0.795   9.390 -0.8292  0.5231  0.3792
  226MPD1     N 3438   2.640   1.241   9.414  0.3863  0.0385  0.1490
  226MPD1    H5 3439   2.687   1.328   9.435 -0.0112 -0.1982  2.0352
  226MPD1    N1 3440   3.088   1.063   9.351  0.2272  0.1166  0.1848
  226MPD1    H6 3441   3.128   0.997   9.284 -1.2149  0.3010 -0.8567
  226MPD1    H7 3442   3.126   1.149   9.312 -1.3749  0.1809 -1.2564
  227MPD1     C 3443   1.630   1.322   9.421  0.2369 -0.8149  0.2388
  227MPD1    C1 3444   1.711   1.212   9.396 -0.2998 -0.2433 -0.3905
  227MPD1    C2 3445   1.841   1.229   9.365  0.2271  0.0257 -0.2515
  227MPD1    C3 3446   1.897   1.358   9.365 -0.8307 -0.3991  0.1913
  227MPD1    C4 3447   1.811   1.461   9.399  0.4927 -0.0879 -0.0043
  227MPD1    C5 3448   1.685   1.441   9.440  0.2485  0.8181  0.6329
  227MPD1     H 3449   1.905   1.146   9.335  1.9964  1.3676 -0.1904
  227MPD1    H1 3450   1.846   1.563   9.390  1.2551 -0.4891 -1.6587
  227MPD1    H2 3451   1.522   1.323   9.429  0.1317  0.9574 -1.2172
  227MPD1    H3 3452   1.624   1.530   9.457  0.7422  0.9630  1.6570
  227MPD1     N 3453   2.028   1.382   9.339  0.0324 -0.2671 -0.1726
  227MPD1    H5 3454   2.085   1.301   9.318  0.3426  0.2114 -1.2226
  227MPD1    N1 3455   1.655   1.084   9.389  0.1574  0.2097  0.7310
  227MPD1    H6 3456   1.716   1.015   9.432  0.2221  1.1834  2.1815
  227MPD1    H7 3457   1.555   1.072   9.401 -0.3490  1.9009 -1.7609
  228MPD1     C 3458   0.196   0.226  12.803  0.7443 -0.4532 -0.1475
  228MPD1    C1 3459   0.099   0.180  12.716 -0.0778  0.3636 -0.2086
  228MPD1    C2 3460   4.721   0.103  12.776 -0.1613  0.1094  0.3400
  228MPD1    C3 3461   0.011   0.050  12.900  0.4782 -0.4280  0.0191
  228MPD1    C4 3462   0.118   0.079  12.983 -1.4970  0.6498  0.0160
  228MPD1    C5 3463   0.212   0.167  12.928 -1.0141  0.7568 -0.4168
  228MPD1     H 3464   4.632   0.071  12.723 -0.8753 -2.4816  3.0793
  228MPD1    H1 3465   0.129   0.030  13.079 -0.1701 -0.7396 -0.8525
  228MPD1    H2 3466   0.279   0.290  12.774  0.1769 -0.4398 -1.7518
  228MPD1    H3 3467   0.296   0.202  12.986 -0.7962 -2.3934  1.2118
  228MPD1     N 3468   4.639   4.676  12.932 -0.0914  0.5074 -0.5354
  228MPD1    H5 3469   4.564   4.668  12.864  0.2170 -1.9927 -0.5589
  228MPD1    N1 3470   0.088   0.226  12.589 -0.1904 -0.1274 -0.2928
  228MPD1    H6 3471   0.057   0.151  12.528 -2.3308  1.9366 -1.7599
  228MPD1    H7 3472   0.182   0.248  12.558 -0.2848  0.1939 -0.3522
  229MPD1     C 3473   4.454   3.009  15.030 -0.2758  0.1225  0.2457
  229MPD1    C1 3474   4.480   2.925  15.132  0.1155  0.5223  0.5537
  229MPD1    C2 3475   4.605   2.886  15.166  0.6258  0.0761  0.7649
  229MPD1    C3 3476   4.713   2.924  15.088 -0.4284  0.0706 -0.9258
  229MPD1    C4 3477   4.691   3.005  14.974 -0.0364 -0.4049 -0.2318
  229MPD1    C5 3478   4.560   3.048  14.952 -0.3106  0.3543 -0.3072
  229MPD1     H 3479   4.620   2.814  15.246 -2.2088 -1.0915  0.2516
  229MPD1    H1 3480   0.051   3.017  14.907 -2.5103  2.1260 -2.8279
  229MPD1    H2 3481   4.352   3.037  15.009 -0.6013 -2.6453 -1.7785
  229MPD1    H3 3482   4.535   3.102  14.861  1.3226  1.9622  0.2153
  229MPD1     N 3483   0.119   2.877  15.115  0.0511  0.2338  1.0102
  229MPD1    H5 3484   0.185   2.909  15.045 -2.2172  0.2190 -1.1137
  229MPD1    N1 3485   4.378   2.899  15.224 -0.0074 -0.6803  0.6849
  229MPD1    H6 3486   4.292   2.877  15.174 -0.6574  3.5115 -0.0912
  229MPD1    H7 3487   4.402   2.815  15.275  2.5858 -0.8979 -0.8810
  230MPD1     C 3488   0.999   2.729  15.743 -0.4565  0.6119  0.5120
  230MPD1    C1 3489   1.029   2.687  15.615  0.1893  0.2582 -0.1522
  230MPD1    C2 3490   0.931   2.689  15.521 -0.0735 -0.2096 -0.0207
  230MPD1    C3 3491   0.800   2.722  15.547  0.3170  1.2859 -0.2275
  230MPD1    C4 3492   0.767   2.758  15.681 -0.4362 -0.0760 -0.0431
  230MPD1    C5 3493   0.865   2.755  15.775  0.2770  0.5125  0.3809
  230MPD1     H 3494   0.948   2.641  15.425 -0.2029 -1.0311  0.3672
  230MPD1    H1 3495   0.665   2.772  15.716  0.2400 -2.6853  2.9699
  230MPD1    H2 3496   1.067   2.714  15.826  2.0632  0.7852 -1.4821
  230MPD1    H3 3497   0.835   2.766  15.878 -0.0373 -0.1963  0.3660
  230MPD1     N 3498   0.714   2.731  15.433 -0.1169  0.5122 -0.4607
  230MPD1    H5 3499   0.753   2.729  15.339  1.9132 -0.5557  0.4044
  230MPD1    N1 3500   1.146   2.619  15.587 -0.3200 -0.2097  0.3245
  230MPD1    H6 3501   1.225   2.651  15.643  1.1138 -3.4368  0.1604
  230MPD1    H7 3502   1.174   2.632  15.490 -0.0877  1.7529  0.6572
  231MPD1     C 3503   3.151   4.511  15.908  0.2110  0.1428 -0.1692
  231MPD1    C1 3504   3.065   4.508  15.796 -0.2126  0.3870 -0.0138
  231MPD1    C2 3505   3.112   4.581  15.682  0.4576  0.2177  0.2621
  231MPD1    C3 3506   3.222   4.666  15.695 -0.2569 -0.2315  0.0594
  231MPD1    C4 3507   3.306   4.660  15.802  0.3575 -0.2486 -0.3573
  231MPD1    C5 3508   3.271   4.574  15.903  0.1952  0.4428 -0.4682
  231MPD1     H 3509   3.054   4.590  15.590  0.8903  1.5821  0.1236
  231MPD1    H1 3510   3.403   4.709  15.809 -1.0217  1.6953  4.8805
  231MPD1    H2 3511   3.126   4.455  15.997  0.8503  1.4955  0.8403
  231MPD1    H3 3512   3.336   4.556  15.987 -0.7728 -0.3029  0.1235
  231MPD1     N 3513   3.249   0.020  15.582  0.9303  0.3503 -0.1360
  231MPD1    H5 3514   3.204   0.002  15.493 -1.4982  0.6593  1.0470
  231MPD1    N1 3515   2.953   4.419  15.789 -0.3765 -0.1517 -0.4756
  231MPD1    H6 3516   2.911   4.423  15.881  0.9157  0.4495  0.0946
  231MPD1    H7 3517   2.885   4.446  15.718  1.0490  0.6334 -1.5379
  232MPD1     C 3518   4.667   3.405   0.943  0.0318  0.3856 -0.0766
  232MPD1    C1 3519   0.001   3.289   0.912 -0.0836 -0.3321 -0.2384
  232MPD1    C2 3520   0.003   3.236   0.788 -0.7239 -0.1060  0.2540
  232MPD1    C3 3521   4.644   3.297   0.688  0.7309 -0.3059 -0.1593
  232MPD1    C4 3522   4.569   3.405   0.723  0.2891 -0.2918  0.2370
  232MPD1    C5 3523   4.585   3.458   0.853  0.0226  0.2270 -0.2546
  232MPD1     H 3524   0.060   3.148   0.760 -2.2264 -0.9582 -0.1030
  232MPD1    H1 3525   4.503   3.454   0.652  1.6659 -0.0564 -0.8793
  232MPD1    H2 3526   4.681   3.454   1.038  1.4380  0.4543 -0.3198
  232MPD1    H3 3527   4.535   3.552   0.872  2.3317  1.3966  0.0734
  232MPD1     N 3528   4.631   3.228   0.566 -0.4214 -0.0182  0.5498
  232MPD1    H5 3529   4.646   3.128   0.560  0.7102  0.3899 -3.3419
  232MPD1    N1 3530   0.087   3.222   1.002 -0.2861  0.2418  0.5263
  232MPD1    H6 3531   0.066   3.252   1.096 -1.2292 -1.4488  0.8573
  232MPD1    H7 3532   0.089   3.120   1.001  1.3436  0.2793 -1.2357
  233MPD1     C 3533   4.256   0.841   0.526  0.2962 -0.0495 -0.5061
  233MPD1    C1 3534   4.325   0.941   0.465  0.3285 -0.2008 -0.4899
  233MPD1    C2 3535   4.463   0.957   0.489  1.0756  0.1080 -0.3220
  233MPD1    C3 3536   4.533   0.854   0.549 -0.0168  0.6417  0.1131
  233MPD1    C4 3537   4.454   0.758   0.612 -0.2451 -0.1819 -0.3445
  233MPD1    C5 3538   4.321   0.755   0.605 -0.5254 -1.3323 -0.2141
  233MPD1     H 3539   4.513   1.030   0.428  0.5611  0.9892  0.3154
  233MPD1    H1 3540   4.495   0.673   0.665 -0.2519  0.4673  0.6990
  233MPD1    H2 3541   4.148   0.836   0.533  0.3744  1.7565  1.9927
  233MPD1    H3 3542   4.267   0.676   0.655 -0.5802 -0.9136  0.3986
  233MPD1     N 3543   4.674   0.854   0.555  0.2716  0.3123  0.2520
  233MPD1    H5 3544   4.718   0.769   0.587  0.1267 -0.0614 -0.5642
  233MPD1    N1 3545   4.253   1.039   0.392  0.6822 -0.3450 -0.3692
  233MPD1    H6 3546   4.160   1.010   0.364  0.0760  1.2050  0.0193
  233MPD1    H7 3547   4.309   1.083   0.319  0.0632  0.2269 -0.4917
  234MPD1     C 3548   3.213   4.232   9.184 -0.1915  0.0540  0.2946
  234MPD1    C1 3549   3.142   4.329   9.123 -0.0245  0.9206  0.2613
  234MPD1    C2 3550   3.171   4.463   9.136 -0.4893  0.1869  0.1156
  234MPD1    C3 3551   3.269   4.501   9.227 -0.7312 -0.2231 -0.2208
  234MPD1    C4 3552   3.347   4.406   9.291 -0.4228  1.0558 -0.1005
  234MPD1    C5 3553   3.316   4.270   9.266  0.0094  0.4035  0.6184
  234MPD1     H 3554   3.104   4.524   9.076 -1.9900 -2.3458 -0.8238
  234MPD1    H1 3555   3.417   4.426   9.371  0.1999 -0.7324 -0.2131
  234MPD1    H2 3556   3.205   4.128   9.156  0.2659  0.3312 -0.8705
  234MPD1    H3 3557   3.379   4.195   9.311 -0.2835  1.1190  2.2158
  234MPD1     N 3558   3.296   4.640   9.229  0.4283 -0.5428  0.1524
  234MPD1    H5 3559   3.224   4.697   9.185 -1.6184 -1.8018  1.8284
  234MPD1    N1 3560   3.044   4.294   9.024  0.4217  0.2251 -0.5239
  234MPD1    H6 3561   2.970   4.364   9.016 -0.3163 -0.5333 -0.2945
  234MPD1    H7 3562   3.008   4.200   9.039  0.7673  0.0777 -0.6107
  235MPD1     C 3563   0.028   2.058   9.439  0.1425  0.9311  0.0367
  235MPD1    C1 3564   0.102   2.150   9.367 -0.1227  0.1539  0.8403
  235MPD1    C2 3565   0.135   2.268   9.424  0.0900 -0.9207 -0.0042
  235MPD1    C3 3566   0.120   2.290   9.562 -0.2274 -0.3652  0.1615
  235MPD1    C4 3567   0.050   2.194   9.630  0.3456 -0.6029  0.6799
  235MPD1    C5 3568   4.720   2.085   9.568 -0.1038  0.1815 -0.6089
  235MPD1     H 3569   0.189   2.343   9.368  0.4004 -2.6282 -1.9765
  235MPD1    H1 3570   0.035   2.197   9.738 -0.6588  0.1661  0.5187
  235MPD1    H2 3571   4.704   1.972   9.394  0.5265  0.2277  0.9843
  235MPD1    H3 3572   4.680   2.003   9.626 -0.6766  1.1200  0.3413
  235MPD1     N 3573   0.169   2.408   9.618  0.6544  0.4418  0.1566
  235MPD1    H5 3574   0.208   2.476   9.553  0.9216 -0.1760 -0.3291
  235MPD1    N1 3575   0.116   2.133   9.227 -0.3237 -0.1621  0.2760
  235MPD1    H6 3576   0.202   2.167   9.186  0.7606 -0.5084  2.2496
  235MPD1    H7 3577   0.102   2.033   9.215  4.3537 -0.7872  0.2135
  236MPD1     C 3578   3.513   3.596   9.870  0.2554  0.2387  0.1952
  236MPD1    C1 3579   3.616   3.684   9.871  0.1260 -0.4554 -0.4708
  236MPD1    C2 3580   3.731   3.647   9.939  0.7133 -0.0652  0.5958
  236MPD1    C3 3581   3.741   3.517   9.995  0.4705 -0.0535 -0.1474
  236MPD1    C4 3582   3.628   3.438   9.990 -0.8585  0.1703 -0.6200
  236MPD1    C5 3583   3.510   3.478   9.929 -0.3014  0.1481  0.5478
  236MPD1     H 3584   3.815   3.714   9.951  0.1340  1.2828 -2.8428
  236MPD1    H1 3585   3.626   3.333  10.016  0.6375  0.3390  0.1348
  236MPD1    H2 3586   3.436   3.615   9.796  1.3954  1.4224 -0.6982
  236MPD1    H3 3587   3.429   3.408   9.912 -2.0002  2.0007  1.0972
  236MPD1     N 3588   3.856   3.458  10.061 -0.0369  0.3442 -0.2810
  236MPD1    H5 3589   3.849   3.364  10.098  0.7253  0.0482 -0.8875
  236MPD1    N1 3590   3.619   3.789   9.784  0.4829 -0.9495 -0.0238
  236MPD1    H6 3591   3.531   3.827   9.751  0.1223 -1.8325 -0.0650
  236MPD1    H7 3592   3.685   3.866   9.800  0.5248 -0.8613 -0.6340
  237MPD1     C 3593   4.068   1.875  14.804 -0.3647  0.6421  0.0251
  237MPD1    C1 3594   4.081   1.749  14.849  0.0852  0.4373  0.0736
  237MPD1    C2 3595   3.964   1.682  14.868  0.4947 -0.2761  0.4475
  237MPD1    C3 3596   3.840   1.729  14.828  0.7025  0.6715  0.4610
  237MPD1    C4 3597   3.837   1.848  14.758  0.0852 -0.0926  0.5435
  237MPD1    C5 3598   3.948   1.931  14.752  0.3171 -0.5021 -0.1672
  237MPD1     H 3599   3.964   1.590  14.925  0.6710 -0.6188 -0.1054
  237MPD1    H1 3600   3.746   1.887  14.714  0.9425  0.2857 -0.9227
  237MPD1    H2 3601   4.163   1.925  14.793 -0.3977  0.5984 -0.4508
  237MPD1    H3 3602   3.948   2.032  14.713  2.9381 -0.1933  0.6387
  237MPD1     N 3603   3.718   1.657  14.853 -0.3099 -0.4244 -0.2254
  237MPD1    H5 3604   3.629   1.693  14.819 -0.0052  1.8547  1.4146
  237MPD1    N1 3605   4.208   1.702  14.890 -0.1874 -0.2853 -0.1821
  237MPD1    H6 3606   4.269   1.739  14.817  1.5487  0.9351  1.9316
  237MPD1    H7 3607   4.218   1.600  14.890  0.5172 -0.2188  0.2052
  238MPD1     C 3608   1.128   0.321  14.447  0.4482  0.0900  0.9078
  238MPD1    C1 3609   1.118   0.233  14.553  0.3378  0.2731 -0.3012
  238MPD1    C2 3610   0.997   0.169  14.576  0.3476 -0.3185  0.2968
  238MPD1    C3 3611   0.873   0.217  14.517 -0.6107 -0.0127  0.2497
  238MPD1    C4 3612   0.886   0.317  14.421  0.0408 -0.1237 -0.6479
  238MPD1    C5 3613   1.016   0.368  14.391  0.2190  0.3031  0.1617
  238MPD1     H 3614   0.989   0.092  14.652  3.0577 -1.2407 -0.3795
  238MPD1    H1 3615   0.799   0.353  14.367 -0.8402 -0.9882  0.2090
  238MPD1    H2 3616   1.227   0.352  14.415 -0.5629  1.9695 -0.3587
  238MPD1    H3 3617   1.031   0.446  14.318  2.1811 -1.5774 -1.4233
  238MPD1     N 3618   0.747   0.163  14.544 -0.0706  0.2265 -0.4544
  238MPD1    H5 3619   0.670   0.214  14.502 -0.3805  0.5321  0.4920
  238MPD1    N1 3620   1.232   0.182  14.615 -0.5361 -0.7682 -0.2591
  238MPD1    H6 3621   1.300   0.256  14.628  0.3346 -1.7655  0.8344
  238MPD1    H7 3622   1.222   0.157  14.714 -3.3274 -2.9176 -1.0817
  239MPD1     C 3623   0.888   0.968  14.807 -0.1507  0.7643  0.3272
  239MPD1    C1 3624   0.961   1.033  14.718  0.1984  0.4527  0.0139
  239MPD1    C2 3625   0.903   1.119  14.626 -0.0861 -0.3707 -0.1565
  239MPD1    C3 3626   0.765   1.128  14.616 -0.3085  0.5875  0.4707
  239MPD1    C4 3627   0.699   1.052  14.709  0.0401  1.0807 -0.3211
  239MPD1    C5 3628   0.753   0.973  14.798 -0.5281  0.0154 -0.2723
  239MPD1     H 3629   0.968   1.176  14.561 -1.7384  0.0971 -1.3984
  239MPD1    H1 3630   0.591   1.045  14.701  0.1565 -1.1224 -0.0714
  239MPD1    H2 3631   0.933   0.915  14.890 -0.2962 -0.7188 -0.5421
  239MPD1    H3 3632   0.682   0.923  14.863  0.2640 -1.2493 -0.3637
  239MPD1     N 3633   0.690   1.211  14.531 -0.0094  0.0971  0.2977
  239MPD1    H5 3634   0.589   1.218  14.540 -0.0116 -2.1566  2.1331
  239MPD1    N1 3635   1.103   1.041  14.739 -0.3767 -0.8696  0.3657
  239MPD1    H6 3636   1.158   1.059  14.655 -1.8854 -0.7564 -0.5761
  239MPD1    H7 3637   1.130   0.959  14.793  0.7268 -0.5152  0.3649
  240MPD1     C 3638   4.445   1.058  14.319  0.1186  0.1453  0.1354
  240MPD1    C1 3639   4.391   0.936  14.289  0.0115  0.0130 -0.4670
  240MPD1    C2 3640   4.434   0.820  14.354 -0.8916  0.3710 -0.2063
  240MPD1    C3 3641   4.534   0.833  14.451  0.4695 -0.5167  0.0770
  240MPD1    C4 3642   4.582   0.961  14.477  1.2809  0.0356 -0.4969
  240MPD1    C5 3643   4.545   1.072  14.408  0.8984  0.7562  0.1097
  240MPD1     H 3644   4.388   0.726  14.325 -0.5720 -0.7260  2.7963
  240MPD1    H1 3645   4.646   0.970  14.564 -1.3138 -1.6974  1.6525
  240MPD1    H2 3646   4.407   1.148  14.273 -1.3681 -1.0653 -1.0188
  240MPD1    H3 3647   4.577   1.174  14.424  2.0421  0.2450  1.1044
  240MPD1     N 3648   4.586   0.719  14.517  0.4405 -0.5187 -0.3016
  240MPD1    H5 3649   4.544   0.628  14.500 -0.4705 -0.2900  0.7034
  240MPD1    N1 3650   4.286   0.925  14.197 -0.2999  0.5434 -0.6261
  240MPD1    H6 3651   4.271   0.986  14.116  2.5528  1.7484 -0.2521
  240MPD1    H7 3652   4.289   0.831  14.161  0.1795  0.2275  0.2313
  241MPD1     C 3653   0.590   0.076  15.051  0.2462 -0.1925 -0.5022
  241MPD1    C1 3654   0.623   0.163  14.952 -0.0275 -0.5399 -0.3908
  241MPD1    C2 3655   0.514   0.237  14.902 -0.1957  0.0674 -0.0416
  241MPD1    C3 3656   0.381   0.210  14.942  0.0976 -0.4683 -0.1779
  241MPD1    C4 3657   0.356   0.111  15.036 -0.1211 -0.3516 -0.5422
  241MPD1    C5 3658   0.462   0.052  15.100  0.2690  0.3638  0.0829
  241MPD1     H 3659   0.530   0.317  14.831 -3.4346 -0.2608 -1.1516
  241MPD1    H1 3660   0.254   0.077  15.047 -0.4657  1.1813  0.8867
  241MPD1    H2 3661   0.667   0.008  15.085  1.6152  2.2009  1.2196
  241MPD1    H3 3662   0.443   4.690  15.165  0.3208  0.8180  0.6965
  241MPD1     N 3663   0.259   0.270  14.883 -0.4570  0.0490 -0.5480
  241MPD1    H5 3664   0.171   0.241  14.925 -1.2932  0.3792 -2.0533
  241MPD1    N1 3665   0.752   0.205  14.929 -0.2715 -1.4402  0.2137
  241MPD1    H6 3666   0.824   0.137  14.953  1.6887 -0.1544 -2.0368
  241MPD1    H7 3667   0.770   0.245  14.837 -0.9484 -2.7581 -0.4831
  242MPD1     C 3668   4.321   3.426  16.027 -0.9632 -0.1038 -0.3362
  242MPD1    C1 3669   4.330   3.566  16.019 -0.4526  0.5378  0.6391
  242MPD1    C2 3670   4.302   3.620  15.904  0.4714 -0.2066 -0.4496
  242MPD1    C3 3671   4.288   3.542  15.785 -0.4173 -0.4334  0.7636
  242MPD1    C4 3672   4.265   3.407  15.796  0.1648 -0.7518  0.3732
  242MPD1    C5 3673   4.294   3.355  15.916 -0.3751 -0.6067 -0.9423
  242MPD1     H 3674   4.297   3.728  15.896  0.6173 -0.2345 -0.9240
  242MPD1    H1 3675   4.253   3.346  15.708  1.5771 -0.5094  0.0243
  242MPD1    H2 3676   4.311   3.376  16.123 -1.6200 -0.0882 -0.3921
  242MPD1    H3 3677   4.281   3.247  15.920 -2.6577 -0.2907  0.1985
  242MPD1     N 3678   4.304   3.604  15.656  0.2915  0.1911 -0.9814
  242MPD1    H5 3679   4.285   3.552  15.571 -0.1074 -2.1393  0.5634
  242MPD1    N1 3680   4.328   3.650  16.139 -0.0761 -0.2081 -0.0304
  242MPD1    H6 3681   4.351   3.748  16.120 -1.5058  0.2568  0.6893
  242MPD1    H7 3682   4.385   3.615  16.215  1.1741 -0.5505 -1.1311
  243MPD1     C 3683   1.628   2.775   0.569  0.3278  0.9971 -0.0013
  243MPD1    C1 3684   1.537   2.868   0.530  0.0108 -0.4293 -0.7244
  243MPD1    C2 3685   1.467   2.842   0.418 -0.5208  0.2423  0.3093
  243MPD1    C3 3686   1.485   2.730   0.343  0.6536  0.3508  0.2612
  243MPD1    C4 3687   1.573   2.632   0.381 -0.9710 -0.3213 -0.3128
  243MPD1    C5 3688   1.649   2.668   0.490 -0.0061 -0.8939  0.2383
  243MPD1     H 3689   1.391   2.916   0.397 -2.5827 -1.0613  3.2638
  243MPD1    H1 3690   1.581   2.534   0.338  0.9825 -1.0867  1.7849
  243MPD1    H2 3691   1.688   2.788   0.659  1.2162  1.3816 -0.6479
  243MPD1    H3 3692   1.723   2.603   0.535  1.0025 -0.3156 -0.5722
  243MPD1     N 3693   1.393   2.714   0.235 -0.7510 -0.1531 -0.0835
  243MPD1    H5 3694   1.328   2.787   0.209  1.1651  0.4119 -3.3143
  243MPD1    N1 3695   1.531   2.996   0.591 -0.2175 -0.3939  0.3559
  243MPD1    H6 3696   1.551   2.997   0.691  1.4405  2.0985  0.0062
  243MPD1    H7 3697   1.438   3.034   0.573 -0.0095 -0.0666 -0.0288
  244MPD1     C 3698   0.778   3.197  17.334 -0.0077 -0.5999 -0.1373
  244MPD1    C1 3699   0.862   3.126  17.251 -0.3333  0.2325 -0.5172
  244MPD1    C2 3700   0.949   3.029  17.306  0.0710  0.8841  0.3013
  244MPD1    C3 3701   0.949   3.018  17.442  0.1631 -0.2263  0.0068
  244MPD1    C4 3702   0.867   3.090  17.519  0.1055  0.2324  0.2216
  244MPD1    C5 3703   0.787   3.183  17.464  0.0698  0.9521 -0.5688
  244MPD1     H 3704   1.018   2.968  17.248  0.3675  1.8863 -0.4037
  244MPD1    H1 3705   0.866   3.088  17.627  1.2494  0.7045  0.2457
  244MPD1    H2 3706   0.718   3.278  17.294  0.4099  0.5190  1.4934
  244MPD1    H3 3707   0.711   3.228  17.526  1.7492  2.7855  0.1792
  244MPD1     N 3708   1.040   2.923  17.487  0.1518 -0.0580  0.1304
  244MPD1    H5 3709   1.088   2.873  17.414 -1.6475 -1.5540 -0.0431
  244MPD1    N1 3710   0.845   3.138  17.110 -0.3399 -0.0473  0.3616
  244MPD1    H6 3711   0.807   3.230  17.089 -4.3220 -1.4043  1.7234
  244MPD1    H7 3712   0.938   3.135  17.068 -0.5040  0.7706 -0.0750
  245MPD1     C 3713   2.723   3.066  13.233  0.0691  0.3226  0.1473
  245MPD1    C1 3714   2.686   3.115  13.357 -0.0259 -0.3906 -0.5064
  245MPD1    C2 3715   2.781   3.197  13.420  0.0798 -0.2226 -0.2616
  245MPD1    C3 3716   2.903   3.216  13.372  0.0922 -0.0484  0.2590
  245MPD1    C4 3717   2.937   3.178  13.245  0.0751  0.9179 -0.2631
  245MPD1    C5 3718   2.854   3.089  13.187 -0.0175 -0.9152  0.4438
  245MPD1     H 3719   2.753   3.241  13.515  2.1963  1.7722 -0.5735
  245MPD1    H1 3720   3.033   3.198  13.199  0.6627 -1.4521 -0.0827
  245MPD1    H2 3721   2.661   2.998  13.176  0.7046 -1.0230  1.0474
  245MPD1    H3 3722   2.878   3.048  13.090 -0.6802 -1.3420  0.4638
  245MPD1     N 3723   2.991   3.283  13.459 -0.1269 -0.2280 -0.2459
  245MPD1    H5 3724   2.963   3.297  13.555 -3.7615  0.0928 -1.3442
  245MPD1    N1 3725   2.560   3.102  13.407  0.1786 -0.3560  0.2647
  245MPD1    H6 3726   2.552   3.115  13.507 -0.6478 -0.5481  0.2207
  245MPD1    H7 3727   2.527   3.006  13.401  3.2728 -1.3684 -0.7450
  246MPD1     C 3728   4.628   4.695   9.843 -0.5819  0.1816  0.1109
  246MPD1    C1 3729   4.614   0.076   9.768 -0.0519  0.4021 -0.6146
  246MPD1    C2 3730   4.629   0.074   9.633 -0.0836  0.8460  0.6323
  246MPD1    C3 3731   4.636   4.672   9.568  0.5435  0.5104  0.3800
  246MPD1    C4 3732   4.653   4.557   9.642  0.1381  0.6364  0.1143
  246MPD1    C5 3733   4.645   4.570   9.781 -0.2647 -0.7378 -0.2116
  246MPD1     H 3734   4.622   0.165   9.574  3.9008  0.1670 -0.9377
  246MPD1    H1 3735   4.670   4.460   9.597  1.0764  0.2471  1.3130
  246MPD1    H2 3736   4.648   4.687   9.949  0.1600 -1.8695 -0.1770
  246MPD1    H3 3737   4.673   4.484   9.840  1.6714  0.0314 -0.0066
  246MPD1     N 3738   4.605   4.662   9.426 -0.4973  0.8328 -0.4217
  246MPD1    H5 3739   4.603   0.025   9.373 -0.6181  2.6875  2.5707
  246MPD1    N1 3740   4.629   0.197   9.838  0.7295  1.0040  0.7725
  246MPD1    H6 3741   4.578   0.203   9.926 -1.8028  3.5942 -0.8654
  246MPD1    H7 3742   4.594   0.273   9.779 -0.6258  0.1286  0.4613
  247MPD1     C 3743   2.299   3.430  16.900 -0.8738  0.8352  0.6373
  247MPD1    C1 3744   2.384   3.473  16.796  0.0854 -0.1135 -0.5827
  247MPD1    C2 3745   2.397   3.386  16.681  0.5828  0.2791  0.0354
  247MPD1    C3 3746   2.315   3.277  16.666 -0.0669  0.4678 -0.2735
  247MPD1    C4 3747   2.238   3.245  16.773  0.4829 -0.0939  0.4900
  247MPD1    C5 3748   2.221   3.323  16.886  0.5095 -0.5208  0.3792
  247MPD1     H 3749   2.464   3.416  16.602 -0.0741 -0.6038 -0.8670
  247MPD1    H1 3750   2.190   3.148  16.780  1.1484 -0.4856 -0.2988
  247MPD1    H2 3751   2.295   3.480  16.996 -0.0342 -0.9479  1.5854
  247MPD1    H3 3752   2.151   3.297  16.964  1.2339  1.6558  1.7591
  247MPD1     N 3753   2.323   3.193  16.552 -0.2048  0.5794 -0.5607
  247MPD1    H5 3754   2.270   3.106  16.555  2.9645 -1.3688 -1.3845
  247MPD1    N1 3755   2.484   3.566  16.810 -0.4722 -0.0077 -0.3946
  247MPD1    H6 3756   2.445   3.624  16.884 -1.0800  2.3944 -2.6212
  247MPD1    H7 3757   2.499   3.614  16.722 -0.7674 -0.1002 -0.4942
  248MPD1     C 3758   3.733   3.870   0.101  0.0484  0.1970 -0.3317
  248MPD1    C1 3759   3.665   3.888   0.215 -0.3369 -0.2502 -0.0743
  248MPD1    C2 3760   3.559   3.802   0.235  0.4459 -0.1121  0.5298
  248MPD1    C3 3761   3.534   3.693   0.160 -0.0926  0.0158 -0.0724
  248MPD1    C4 3762   3.610   3.677   0.048  0.2341 -0.3474  0.8159
  248MPD1    C5 3763   3.715   3.760   0.023 -0.0956 -0.2506 -0.3249
  248MPD1     H 3764   3.496   3.818   0.322  2.2055  0.0226  1.7833
  248MPD1    H1 3765   3.613   3.584  17.688 -0.0232 -0.0528  0.3120
  248MPD1    H2 3766   3.817   3.932   0.072  0.7745 -0.7552 -0.2672
  248MPD1    H3 3767   3.767   3.748  17.624  2.9845 -0.3912  1.3586
  248MPD1     N 3768   3.425   3.605   0.190 -0.0574  0.1055 -0.4677
  248MPD1    H5 3769   3.370   3.625   0.273  1.4397  2.4161 -0.0408
  248MPD1    N1 3770   3.669   4.002   0.298  0.1954  0.5763  0.3594
  248MPD1    H6 3771   3.751   4.062   0.290  0.6121 -0.0480  0.0105
  248MPD1    H7 3772   3.651   3.987   0.398 -1.5361 -1.5211 -0.2763
  249MPD1     C 3773   4.356   1.111   9.910 -0.6891 -0.1373  0.0048
  249MPD1    C1 3774   4.391   1.132   9.781  0.0216 -0.2357 -0.1241
  249MPD1    C2 3775   4.520   1.176   9.751  0.0953  0.3722 -0.5513
  249MPD1    C3 3776   4.615   1.204   9.848 -0.1341  0.3719 -0.5926
  249MPD1    C4 3777   4.583   1.180   9.979  0.6893 -1.0108 -0.7065
  249MPD1    C5 3778   4.456   1.132  10.007  0.6227 -0.0713 -0.4442
  249MPD1     H 3779   4.549   1.189   9.647  1.3806 -0.0719 -0.2472
  249MPD1    H1 3780   4.659   1.206  10.052  0.9539 -1.7409 -0.7240
  249MPD1    H2 3781   4.256   1.076   9.936 -1.4498  1.0497 -1.2879
  249MPD1    H3 3782   4.420   1.134  10.109  0.6106  0.0416 -0.4502
  249MPD1     N 3783   0.016   1.260   9.806 -0.1883 -0.6109  0.3631
  249MPD1    H5 3784   0.017   1.272   9.705  2.0940 -1.8412  0.2495
  249MPD1    N1 3785   4.302   1.134   9.673 -0.5813 -0.0955 -0.1604
  249MPD1    H6 3786   4.223   1.070   9.677 -0.9638  0.4397  0.9426
  249MPD1    H7 3787   4.356   1.117   9.589  1.5692 -1.2820  1.4853
  250MPD2     C 3788   1.904   1.678  12.792  0.2959 -0.6756 -0.9072
  250MPD2    C1 3789   1.791   1.726  12.859 -0.2437 -0.1942 -0.2994
  250MPD2    C2 3790   1.682   1.648  12.842  0.2463  1.3144 -0.3368
  250MPD2    C3 3791   1.679   1.520  12.782 -0.0776  0.5665  0.4343
  250MPD2    C4 3792   1.792   1.472  12.720 -0.5688  0.1165  0.7974
  250MPD2    C5 3793   1.900   1.559  12.723 -0.4002 -0.3283  0.5665
  250MPD2     H 3794   1.588   1.680  12.885 -0.9816  0.6601 -2.5127
  250MPD2    H1 3795   1.795   1.372  12.680  0.4384  0.7178 -0.6094
  250MPD2    H2 3796   1.998   1.723  12.822  0.3345 -2.1161  1.0789
  250MPD2    H3 3797   1.996   1.524  12.686 -0.6767  0.3460 -0.7837
  250MPD2     N 3798   1.568   1.432  12.769 -0.4844  0.0162  0.5544
  250MPD2    H5 3799   1.574   1.352  12.707  1.9714  0.1633  0.5884
  250MPD2    N1 3800   1.812   1.849  12.925 -0.1275  0.2936  0.5600
  250MPD2    H7 3801   1.905   1.884  12.905  0.4119 -0.2419  2.1559
  251TMC3    C1 3802   1.781   2.034  13.068 -0.7532 -1.1487 -0.2847
  251TMC3    C2 3803   1.701   2.141  13.077 -0.3206 -0.2432 -0.6617
  251TMC3    C3 3804   1.760   2.269  13.091 -0.9030 -0.4536 -0.4607
  251TMC3    C4 3805   1.919   2.041  13.087 -0.0127  0.0881  0.7911
  251TMC3    C5 3806   1.976   2.168  13.097 -0.2488 -0.0766  0.8949
  251TMC3    C6 3807   1.898   2.282  13.092  0.3774  0.5498 -0.5838
  251TMC3     C 3808   1.724   1.914  13.005 -0.8802 -0.4815 -0.1972
  251TMC3     O 3809   1.605   1.896  13.013  0.0393 -0.3153 -0.1854
  251TMC3     H 3810   1.593   2.134  13.069 -0.2238 -1.6294 -0.6956
  251TMC3    H1 3811   1.976   1.949  13.089 -1.7152 -1.0041 -0.4620
  251TMC3    H2 3812   1.948   2.376  13.112 -1.7977  1.8456 -1.1733
  251TMC3    C7 3813   2.123   2.170  13.071 -1.1273  0.1459 -0.2789
  251TMC3    C8 3814   1.675   2.380  13.137 -0.6313  0.0220 -0.2183
  251TMC3    O1 3815   2.182   2.063  13.091 -0.4189 -0.2122  0.6884
  251TMC3    O2 3816   1.573   2.354  13.192 -0.2400  0.2040 -0.1946
  252TMC3    C1 3817   2.010   2.828   9.595  0.2688 -0.3042  0.0346
  252TMC3    C2 3818   2.138   2.881   9.586  0.1916 -0.0094  0.1972
  252TMC3    C3 3819   2.225   2.826   9.497 -0.0728  0.2062  0.3487
  252TMC3    C4 3820   1.968   2.733   9.504 -0.1295  0.1692 -0.2911
  252TMC3    C5 3821   2.050   2.687   9.412  0.1097 -0.3256  0.4386
  252TMC3    C6 3822   2.180   2.733   9.410 -0.3310 -0.0110  0.3216
  252TMC3     C 3823   1.914   2.892   9.683 -0.3629  0.6408 -1.2561
  252TMC3     O 3824   1.951   2.990   9.747  0.0272 -0.2344  0.3567
  252TMC3     H 3825   2.161   2.963   9.654 -0.5042 -0.7523  1.3276
  252TMC3    H1 3826   1.868   2.692   9.505 -0.5697  1.2563  0.1596
  252TMC3    H2 3827   2.231   2.712   9.317  1.8820  3.3945  0.7871
  252TMC3    C7 3828   2.012   2.551   9.383 -0.1199  0.0068  0.5693
  252TMC3    C8 3829   2.351   2.887   9.465 -0.1083  0.0096 -1.0974
  252TMC3    O1 3830   1.900   2.529   9.330 -0.1901 -0.7221  0.5089
  252TMC3    O2 3831   2.386   2.888   9.348 -0.0384 -0.3479  0.4652
  253MPD2     C 3832   3.006   1.615  14.926  0.5417 -0.1160 -0.3328
  253MPD2    C1 3833   2.874   1.582  14.933  0.1059 -0.1208 -0.7362
  253MPD2    C2 3834   2.815   1.601  15.065 -0.1736  0.1798  0.2763
  253MPD2    C3 3835   2.880   1.669  15.166 -0.3044  0.1561  0.0073
  253MPD2    C4 3836   3.015   1.697  15.154  0.4068 -1.1162  0.2481
  253MPD2    C5 3837   3.079   1.662  15.037  0.3028  0.5604 -0.0431
  253MPD2     H 3838   2.717   1.558  15.083 -0.6194  0.7315 -0.8843
  253MPD2    H1 3839   3.078   1.742  15.230 -0.3738 -0.9675  0.8076
  253MPD2    H2 3840   3.052   1.571  14.838  1.2369 -0.6727  0.2985
  253MPD2    H3 3841   3.187   1.667  15.029  0.0814  1.0314 -2.7859
  253MPD2     N 3842   2.816   1.698  15.288 -0.1118  0.7655  0.3151
  253MPD2    H5 3843   2.872   1.748  15.355  0.9100  0.6842 -0.4818
  253MPD2    N1 3844   2.798   1.538  14.822 -0.4428  0.4347  0.7385
  253MPD2    H7 3845   2.831   1.556  14.728 -0.6846 -1.0124  0.3775
  254TMC3    C1 3846   2.651   1.737  15.438  0.3887 -0.0271 -0.9803
  254TMC3    C2 3847   2.536   1.813  15.451 -0.7538  0.4720 -0.5018
  254TMC3    C3 3848   2.497   1.833  15.572 -0.0148  0.1914 -0.8419
  254TMC3    C4 3849   2.729   1.705  15.541 -0.0978  0.7119 -0.4463
  254TMC3    C5 3850   2.682   1.734  15.666 -0.3100  0.6447 -0.9055
  254TMC3    C6 3851   2.568   1.797  15.686 -0.0940  0.1894 -0.4036
  254TMC3     C 3852   2.684   1.687  15.313 -0.1718  0.1406  0.4811
  254TMC3     O 3853   2.581   1.668  15.244  0.3388 -0.3661  0.5852
  254TMC3     H 3854   2.482   1.856  15.367  1.5988  0.1034 -2.1924
  254TMC3    H1 3855   2.819   1.647  15.528 -0.5622 -0.3703  1.1087
  254TMC3    H2 3856   2.550   1.842  15.783  0.4052 -1.1228  0.2969
  254TMC3    C7 3857   2.769   1.725  15.779 -0.7985 -0.2085  0.1994
  254TMC3    C8 3858   2.397   1.939  15.593  0.4373 -0.3232 -1.1350
  254TMC3    O1 3859   2.709   1.705  15.888  0.2321  0.2845  0.1162
  254TMC3    O2 3860   2.396   2.029  15.517 -0.0561  0.3413  0.0727
  255MPD2     C 3861   1.193   0.252  10.692 -0.1287 -0.0203 -0.5645
  255MPD2    C1 3862   1.211   0.266  10.560 -0.7692  0.3511  0.0632
  255MPD2    C2 3863   1.310   0.190  10.498  0.2816  0.2953  0.5169
  255MPD2    C3 3864   1.386   0.098  10.567 -0.2393 -0.2856  0.3773
  255MPD2    C4 3865   1.360   0.080  10.703 -0.3784 -0.0152  0.4115
  255MPD2    C5 3866   1.270   0.168  10.764  0.1040 -0.2935 -0.0115
  255MPD2     H 3867   1.331   0.194  10.392 -0.9262 -2.2604  0.1832
  255MPD2    H1 3868   1.408   0.015  10.775  1.5118  1.0223  0.0727
  255MPD2    H2 3869   1.111   0.304  10.741  1.7547  2.0147  0.4538
  255MPD2    H3 3870   1.254   0.145  10.869 -0.4636  0.6223  0.0945
  255MPD2     N 3871   1.487   0.030  10.496 -0.1339  0.0775 -0.8583
  255MPD2    H5 3872   1.491   0.039  10.395  1.7018  3.1543 -0.5033
  255MPD2    N1 3873   1.129   0.358  10.496 -0.9773  0.2763  0.4305
  255MPD2    H7 3874   1.050   0.408  10.535 -1.8871  0.0786 -1.1312
  256TMC3    C1 3875   1.070   0.506  10.318  0.2462  0.4477  0.0957
  256TMC3    C2 3876   1.151   0.604  10.270 -0.1625 -1.1436  1.4787
  256TMC3    C3 3877   1.147   0.640  10.136 -0.7953  0.4287 -0.0904
  256TMC3    C4 3878   0.974   0.450  10.237 -0.2681  0.7808 -0.0186
  256TMC3    C5 3879   0.958   0.511  10.113 -0.4781 -0.5841  0.0315
  256TMC3    C6 3880   1.047   0.598  10.056 -1.0381 -0.1738 -0.3531
  256TMC3     C 3881   1.166   0.415  10.379 -0.8331 -0.7568  0.0049
  256TMC3     O 3882   1.269   0.400  10.308  0.5864 -0.0988  0.0842
  256TMC3     H 3883   1.224   0.641  10.341  1.6402 -2.0336  0.0715
  256TMC3    H1 3884   0.924   0.361  10.271  3.1078 -0.6530  1.2083
  256TMC3    H2 3885   1.041   0.627   9.952 -0.9715  0.2527 -0.2380
  256TMC3    C7 3886   0.864   0.452  10.017  0.6659  0.2660 -0.0638
  256TMC3    C8 3887   1.264   0.714  10.089  0.2992 -0.1698  0.3227
  256TMC3    O1 3888   0.896   0.459   9.900 -0.0712 -0.3295 -0.9480
  256TMC3    O2 3889   1.331   0.772  10.169 -0.2262 -0.4335 -0.1285
  257MPD2     C 3890   0.256   1.995  13.028 -0.5233  0.6606  0.0659
  257MPD2    C1 3891   0.210   1.883  12.975 -0.3898 -0.0410  0.1197
  257MPD2    C2 3892   0.215   1.773  13.056 -0.2904  0.2199 -0.1563
  257MPD2    C3 3893   0.248   1.783  13.191 -0.2856 -0.2509 -0.1220
  257MPD2    C4 3894   0.278   1.903  13.245 -0.3578 -0.1168 -0.5235
  257MPD2    C5 3895   0.289   2.015  13.163 -0.5357  0.2919  0.2385
  257MPD2     H 3896   0.211   1.669  13.024 -0.5175  0.3907 -0.6743
  257MPD2    H1 3897   0.313   1.914  13.347  0.5507 -0.8671 -0.7508
  257MPD2    H2 3898   0.254   2.077  12.957  0.3652 -0.7652 -1.6017
  257MPD2    H3 3899   0.318   2.111  13.204  2.1156 -0.8442  1.0307
  257MPD2     N 3900   0.245   1.658  13.268  0.2096 -0.5336 -0.2809
  257MPD2    H5 3901   0.231   1.574  13.213  0.8704 -1.9232  1.6686
  257MPD2    N1 3902   0.173   1.887  12.833  0.1467  0.6607  0.2736
  257MPD2    H7 3903   0.177   1.972  12.779  2.3269  0.4835  0.1708
  258TMC3    C1 3904   0.267   1.515  13.447 -1.0397  0.1385  0.6438
  258TMC3    C2 3905   0.337   1.429  13.360  0.3979  0.1583 -0.2515
  258TMC3    C3 3906   0.357   1.302  13.397 -0.6822  0.4371 -0.0230
  258TMC3    C4 3907   0.218   1.475  13.570 -0.2155 -0.4258 -0.5263
  258TMC3    C5 3908   0.223   1.345  13.592 -0.2603  0.8618  0.1757
  258TMC3    C6 3909   0.307   1.263  13.518 -0.6688 -0.3078  0.6211
  258TMC3     C 3910   0.259   1.648  13.405  0.4508 -0.2149  0.2503
  258TMC3     O 3911   0.237   1.734  13.490  0.1685 -0.1944 -0.3012
  258TMC3     H 3912   0.393   1.462  13.273  1.9451 -2.1862 -0.1343
  258TMC3    H1 3913   0.157   1.547  13.624  1.8447  1.3901 -0.6149
  258TMC3    H2 3914   0.313   1.157  13.539 -1.8206 -0.4292  0.3389
  258TMC3    C7 3915   0.205   1.316  13.731  0.2700 -0.0826  0.2882
  258TMC3    C8 3916   0.359   1.206  13.280  0.0727 -0.0515  0.6617
  258TMC3    O1 3917   0.117   1.378  13.790  0.4918  0.6367  0.1781
  258TMC3    O2 3918   0.339   1.248  13.167  0.4889  0.3897 -0.0021
  259MPD2     C 3919   3.744   3.556   0.568  0.0226  0.1348 -0.4303
  259MPD2    C1 3920   3.785   3.427   0.572 -0.6881  0.4571  0.1310
  259MPD2    C2 3921   3.833   3.366   0.460 -0.1603 -0.4878 -0.5706
  259MPD2    C3 3922   3.833   3.423   0.336 -0.2512 -0.4835 -0.3735
  259MPD2    C4 3923   3.819   3.560   0.331  0.3429 -0.5972 -0.2311
  259MPD2    C5 3924   3.766   3.617   0.444 -0.3990  0.5161  0.1554
  259MPD2     H 3925   3.843   3.259   0.471 -1.9393 -0.3157  2.6769
  259MPD2    H1 3926   3.822   3.614   0.238  1.6170 -2.6454 -1.3747
  259MPD2    H2 3927   3.711   3.618   0.650 -3.2143  0.1869 -1.7926
  259MPD2    H3 3928   3.745   3.724   0.444 -0.5334  0.4929 -0.8527
  259MPD2     N 3929   3.870   3.334   0.228  0.3309 -0.1125 -0.1709
  259MPD2    H5 3930   3.900   3.242   0.258  1.1373 -0.0827 -0.8921
  259MPD2    N1 3931   3.764   3.356   0.686 -0.2459  0.1725 -0.3646
  259MPD2    H7 3932   3.696   3.396   0.749 -1.8746 -3.1853 -0.0202
  260TMC3    C1 3933   3.958   3.279   0.006 -0.2138  0.0566  0.6423
  260TMC3    C2 3934   3.984   3.331  17.576 -0.2452 -0.5396  0.0312
  260TMC3    C3 3935   4.044   3.256  17.481 -0.4604 -0.0704 -0.3485
  260TMC3    C4 3936   4.005   3.153   0.040  0.0765 -0.3455  0.4365
  260TMC3    C5 3937   4.061   3.076  17.641 -0.2037 -0.3990 -0.5605
  260TMC3    C6 3938   4.069   3.124  17.510  0.3541 -0.0315  0.5838
  260TMC3     C 3939   3.889   3.374   0.099 -0.2659 -0.0052  0.5212
  260TMC3     O 3940   3.859   3.479   0.044  0.1278 -0.6901 -0.2081
  260TMC3     H 3941   3.946   3.426  17.541 -0.8092 -1.0422 -0.7227
  260TMC3    H1 3942   3.975   3.117   0.137  0.9096  0.7858  1.1084
  260TMC3    H2 3943   4.117   3.066  17.433  0.8656  1.1847 -0.0245
  260TMC3    C7 3944   4.110   2.936  17.655 -0.1395 -0.4421 -0.2411
  260TMC3    C8 3945   4.062   3.308  17.347  0.0736 -0.4952  0.5389
  260TMC3    O1 3946   4.169   2.878  17.564 -0.2663  0.3926 -0.2009
  260TMC3    O2 3947   4.016   3.233  17.257 -0.5216 -0.3408  0.0405
  261MPD2     C 3948   0.830   1.697  12.542  0.1730  0.2416  0.4898
  261MPD2    C1 3949   0.928   1.640  12.457  0.2949  0.3275  0.1169
  261MPD2    C2 3950   0.921   1.676  12.322 -0.7157 -0.6019 -0.6552
  261MPD2    C3 3951   0.825   1.762  12.271  0.1283  0.3494  0.0331
  261MPD2    C4 3952   0.748   1.839  12.352 -0.0953  0.2331  0.0164
  261MPD2    C5 3953   0.757   1.801  12.487  0.2349  0.5517  0.0714
  261MPD2     H 3954   0.998   1.635  12.256 -0.3918 -0.3638 -0.4242
  261MPD2    H1 3955   0.686   1.922  12.321 -0.5044 -0.8375 -2.0543
  261MPD2    H2 3956   0.824   1.672  12.647 -1.3921  0.1652  0.3849
  261MPD2    H3 3957   0.695   1.863  12.550 -0.4377 -0.9765  0.9161
  261MPD2     N 3958   0.822   1.774  12.137  0.0557  0.4306 -0.3549
  261MPD2    H5 3959   0.899   1.731  12.086 -0.0123 -0.8589  0.6291
  261MPD2    N1 3960   1.026   1.544  12.500 -0.1523  0.2016  0.4134
  261MPD2    H7 3961   1.092   1.503  12.434 -1.7092 -0.1649 -0.8911
  262TMC3    C1 3962   0.771   1.877  11.930  0.7374  0.3224  0.2490
  262TMC3    C2 3963   0.716   1.995  11.893  0.5363  0.1513  0.4188
  262TMC3    C3 3964   0.784   2.065  11.795 -0.1677 -0.1393  0.0423
  262TMC3    C4 3965   0.868   1.812  11.855  0.6045  0.8154  0.6130
  262TMC3    C5 3966   0.923   1.886  11.753 -0.1637 -0.0301  0.5802
  262TMC3    C6 3967   0.884   2.015  11.722  0.0571  0.5037  0.4592
  262TMC3     C 3968   0.723   1.835  12.063 -0.1728  0.3632  0.2661
  262TMC3     O 3969   0.606   1.862  12.095 -0.1205 -0.3006  0.2085
  262TMC3     H 3970   0.643   2.040  11.959  0.7584  0.4568  0.4556
  262TMC3    H1 3971   0.908   1.717  11.889  0.1768  0.5052  0.2537
  262TMC3    H2 3972   0.942   2.077  11.655 -0.2723 -1.2679 -1.4716
  262TMC3    C7 3973   1.036   1.829  11.685 -0.4893 -0.5365 -0.1988
  262TMC3    C8 3974   0.748   2.204  11.781 -0.0308  0.2099  0.2166
  262TMC3    O1 3975   1.068   1.722  11.732  0.3638 -0.3601 -0.0608
  262TMC3    O2 3976   0.705   2.264  11.878 -0.5196 -0.1908  0.0233
  263MPD2     C 3977   2.094   0.847  11.576  0.4246 -0.4167  0.4634
  263MPD2    C1 3978   2.201   0.835  11.490 -0.6394  0.3615  0.3498
  263MPD2    C2 3979   2.178   0.869  11.360  0.1866  0.3272  0.4063
  263MPD2    C3 3980   2.063   0.928  11.317 -0.2614  0.6662  0.4212
  263MPD2    C4 3981   1.954   0.942  11.400  0.1710 -0.1829  0.2837
  263MPD2    C5 3982   1.971   0.892  11.531  0.1094 -0.0894  0.8152
  263MPD2     H 3983   2.265   0.866  11.295 -0.6127  1.2713 -0.7090
  263MPD2    H1 3984   1.867   1.003  11.378 -0.2940 -0.6718  0.7293
  263MPD2    H2 3985   2.092   0.820  11.681 -2.5197 -2.0793 -0.0156
  263MPD2    H3 3986   1.888   0.892  11.601 -1.7655 -0.3486 -1.4232
  263MPD2     N 3987   2.076   1.009  11.207  0.0831  0.6787  0.2855
  263MPD2    H5 3988   2.156   0.998  11.146 -1.5335  1.6335 -2.0352
  263MPD2    N1 3989   2.327   0.794  11.538  0.2511  0.1030  0.3779
  263MPD2    H7 3990   2.338   0.793  11.639 -0.2186  1.0150  0.4405
  264TMC3    C1 3991   2.075   1.215  11.100  0.2608 -0.1601  0.0865
  264TMC3    C2 3992   2.066   1.344  11.127 -0.0481 -0.2257  0.0936
  264TMC3    C3 3993   2.143   1.429  11.058  0.5836 -0.1255  0.8686
  264TMC3    C4 3994   2.128   1.165  10.990 -0.1989  0.0210 -0.5675
  264TMC3    C5 3995   2.214   1.249  10.924  0.0142  0.0386 -0.1066
  264TMC3    C6 3996   2.218   1.383  10.956 -0.2777 -0.4461  0.1613
  264TMC3     C 3997   2.006   1.128  11.191  0.3211 -0.0175  0.0099
  264TMC3     O 3998   1.913   1.173  11.253  0.0845  0.6190  0.1469
  264TMC3     H 3999   2.028   1.380  11.222  2.6043  0.8615  0.7568
  264TMC3    H1 4000   2.111   1.063  10.958 -0.1426 -0.5679  1.2408
  264TMC3    H2 4001   2.281   1.448  10.896  0.6874  1.5817  3.3304
  264TMC3    C7 4002   2.288   1.202  10.811  0.4408 -0.0352  0.6361
  264TMC3    C8 4003   2.143   1.578  11.070  0.6364  0.6470 -0.2356
  264TMC3    O1 4004   2.336   1.287  10.736  0.1600  0.5957 -0.3576
  264TMC3    O2 4005   2.227   1.626  10.999 -0.3450  0.7350 -0.7085
  265MPD2     C 4006   4.340   1.623  15.519  0.4026  0.1405 -0.2392
  265MPD2    C1 4007   4.262   1.508  15.504  0.3434  0.5397  0.4546
  265MPD2    C2 4008   4.281   1.416  15.403  0.4719 -0.0822  0.6406
  265MPD2    C3 4009   4.384   1.442  15.314  0.8855  0.4210 -0.3485
  265MPD2    C4 4010   4.462   1.552  15.327  0.5401  0.4763 -0.1186
  265MPD2    C5 4011   4.441   1.643  15.427 -0.3396  0.0161  0.1251
  265MPD2     H 4012   4.220   1.326  15.405  0.7046 -0.2735 -2.1510
  265MPD2    H1 4013   4.546   1.572  15.261  1.8516  0.0336  1.4247
  265MPD2    H2 4014   4.317   1.693  15.598 -1.1746 -1.3962  0.6425
  265MPD2    H3 4015   4.507   1.729  15.434 -0.2764  0.1305 -1.9669
  265MPD2     N 4016   4.420   1.370  15.195  0.1283 -0.1474 -0.1772
  265MPD2    H5 4017   4.507   1.400  15.152 -0.7465  0.5342 -1.4961
  265MPD2    N1 4018   4.156   1.483  15.598  0.1635 -0.6186  0.0363
  265MPD2    H7 4019   4.093   1.406  15.580  1.5732 -0.8727 -3.6624
  266TMC3    C1 4020   4.009   1.522  15.785 -0.0879  0.8268  0.2585
  266TMC3    C2 4021   4.009   1.530  15.918  1.0308  0.0890  0.1136
  266TMC3    C3 4022   3.893   1.577  15.973  0.0630 -0.0251 -0.0696
  266TMC3    C4 4023   3.903   1.550  15.705 -0.1618  0.2586 -0.2679
  266TMC3    C5 4024   3.788   1.594  15.759  0.5789 -0.3717  0.7326
  266TMC3    C6 4025   3.782   1.622  15.895  0.3614 -0.4531 -0.3341
  266TMC3     C 4026   4.147   1.539  15.723  0.8490  0.3261 -0.0981
  266TMC3     O 4027   4.235   1.593  15.788  0.2712  0.2336 -0.0771
  266TMC3     H 4028   4.099   1.503  15.971  1.6848 -0.9521 -1.5265
  266TMC3    H1 4029   3.913   1.534  15.598  0.3182 -0.1800 -0.1599
  266TMC3    H2 4030   3.700   1.673  15.944  0.3161  1.0580 -1.9824
  266TMC3    C7 4031   3.678   1.636  15.674 -0.3575 -0.2460  0.0585
  266TMC3    C8 4032   3.907   1.656  16.100 -0.7241  0.5009 -0.0769
  266TMC3    O1 4033   3.679   1.600  15.558  0.1228  0.1511 -0.1723
  266TMC3    O2 4034   3.830   1.747  16.122 -0.0146 -0.1153 -0.5386
  267MPD2     C 4035   0.807   3.626   0.800  0.5584  0.1583 -0.3851
  267MPD2    C1 4036   0.863   3.510   0.765  0.0432  0.3179  0.4103
  267MPD2    C2 4037   0.797   3.397   0.810  0.3960 -0.9514  0.4269
  267MPD2    C3 4038   0.678   3.399   0.873  0.0493 -0.7458 -0.1367
  267MPD2    C4 4039   0.619   3.520   0.893 -0.0536 -0.0907 -0.0383
  267MPD2    C5 4040   0.687   3.638   0.855 -0.1490 -0.3951 -0.1413
  267MPD2     H 4041   0.847   3.303   0.788 -2.4656 -1.7764 -2.6087
  267MPD2    H1 4042   0.524   3.530   0.944 -0.4520  0.5777 -0.9079
  267MPD2    H2 4043   0.845   3.724   0.773  1.4972  0.3061  1.4913
  267MPD2    H3 4044   0.654   3.740   0.875  1.1009 -0.4813  2.3789
  267MPD2     N 4045   0.621   3.286   0.926  0.2383 -0.1105  0.9281
  267MPD2    H5 4046   0.528   3.294   0.966 -0.1559  0.4419 -0.1099
  267MPD2    N1 4047   0.974   3.510   0.677 -0.6284 -0.1801  0.1160
  267MPD2    H7 4048   1.004   3.599   0.638  0.8346  0.0733  1.8203
  268TMC3    C1 4049   1.101   3.426   0.489  0.4546 -0.5123 -0.2954
  268TMC3    C2 4050   1.083   3.548   0.421 -0.3342 -0.4759  0.1518
  268TMC3    C3 4051   1.137   3.564   0.295  0.7217 -0.1469 -0.0753
  268TMC3    C4 4052   1.179   3.322   0.434  0.3550 -0.2684  0.0181
  268TMC3    C5 4053   1.236   3.347   0.311 -0.3540  0.1284  0.2112
  268TMC3    C6 4054   1.222   3.466   0.243  0.1548  0.6233  1.1038
  268TMC3     C 4055   1.022   3.397   0.613 -0.1448  0.0783  0.7698
  268TMC3     O 4056   1.011   3.284   0.644 -0.4366 -0.1592 -0.3164
  268TMC3     H 4057   1.003   3.613   0.455  0.6808  0.5704  0.5444
  268TMC3    H1 4058   1.182   3.221   0.476  1.7563 -0.1856  0.1232
  268TMC3    H2 4059   1.293   3.489   0.164  1.1937 -2.1572  1.2208
  268TMC3    C7 4060   1.313   3.235   0.249  0.4467  0.0026  0.2021
  268TMC3    C8 4061   1.157   3.698   0.243  0.4248 -0.3042  0.7568
  268TMC3    O1 4062   1.345   3.145   0.322  0.9674  0.1277 -0.2212
  268TMC3    O2 4063   1.099   3.785   0.303 -0.3463  0.0942 -0.1626
  269MPD2     C 4064   2.070   2.236  15.389 -0.1473 -0.2149  0.0325
  269MPD2    C1 4065   2.003   2.269  15.507  0.1177  0.2392  0.1155
  269MPD2    C2 4066   1.968   2.398  15.525 -0.1909 -0.2311  0.6483
  269MPD2    C3 4067   1.973   2.495  15.424 -0.8296  0.3763 -0.7911
  269MPD2    C4 4068   2.045   2.464  15.305  0.0761  0.1387  0.6914
  269MPD2    C5 4069   2.096   2.337  15.294  0.2864  0.7027 -0.4280
  269MPD2     H 4070   1.930   2.438  15.618  3.3904  1.6329  1.3006
  269MPD2    H1 4071   2.073   2.531  15.225 -0.3670 -0.7789 -0.2356
  269MPD2    H2 4072   2.108   2.136  15.368  0.2326  0.2482 -1.4526
  269MPD2    H3 4073   2.157   2.306  15.210  0.2913 -1.7002  0.4627
  269MPD2     N 4074   1.906   2.616  15.446  0.4034  0.1312 -0.2669
  269MPD2    H5 4075   1.863   2.625  15.538  4.2102  2.1029  1.3315
  269MPD2    N1 4076   1.959   2.165  15.594 -0.2886  0.1556  0.9202
  269MPD2    H7 4077   1.991   2.073  15.565  1.0987  1.0440 -0.3601
  270TMC3    C1 4078   1.843   2.053  15.763  0.4283 -0.7645  0.4887
  270TMC3    C2 4079   1.715   2.041  15.815 -0.0871 -0.2611  0.3699
  270TMC3    C3 4080   1.669   1.917  15.851 -0.4646  0.2949 -0.2800
  270TMC3    C4 4081   1.940   1.948  15.763  0.5069 -0.3504 -0.0425
  270TMC3    C5 4082   1.896   1.827  15.811  0.5711  0.1166 -0.3272
  270TMC3    C6 4083   1.757   1.810  15.849 -0.3499  0.2937 -0.1004
  270TMC3     C 4084   1.873   2.180  15.704  1.0074  0.8056 -0.0232
  270TMC3     O 4085   1.813   2.277  15.743  0.0212  0.0748 -0.1006
  270TMC3     H 4086   1.645   2.124  15.812 -0.4209 -0.5896 -1.3327
  270TMC3    H1 4087   2.042   1.970  15.734 -0.2373 -1.2488 -3.3348
  270TMC3    H2 4088   1.721   1.715  15.887 -1.0929  0.4276 -0.4710
  270TMC3    C7 4089   1.967   1.716  15.758  0.5015 -0.3256  0.0292
  270TMC3    C8 4090   1.550   1.862  15.778 -0.0174  0.4000  0.3960
  270TMC3    O1 4091   2.086   1.726  15.729  0.6280 -0.0512  0.1197
  270TMC3    O2 4092   1.447   1.927  15.787  0.4766 -0.1014 -0.0434
  271MPD2     C 4093   0.940   1.651  14.055  0.9486  0.1646 -0.0528
  271MPD2    C1 4094   0.898   1.643  14.183  0.7210 -0.5169  0.5977
  271MPD2    C2 4095   0.772   1.697  14.215 -0.1556  0.4218  0.1877
  271MPD2    C3 4096   0.689   1.744  14.116 -0.1435 -0.4926  0.0808
  271MPD2    C4 4097   0.741   1.744  13.987  0.6191  0.0008 -0.6995
  271MPD2    C5 4098   0.863   1.698  13.957 -0.7686  0.0819 -0.2647
  271MPD2     H 4099   0.741   1.692  14.319  1.0654 -0.2704  0.5147
  271MPD2    H1 4100   0.690   1.783  13.900 -0.6434 -2.1291 -0.8953
  271MPD2    H2 4101   1.037   1.611  14.029  0.6330 -1.5770  1.4360
  271MPD2    H3 4102   0.900   1.697  13.854  1.3012 -0.8184  0.4876
  271MPD2     N 4103   0.555   1.780  14.125  0.0117  0.0150 -0.4001
  271MPD2    H5 4104   0.507   1.813  14.042 -1.9064  1.3029  1.2181
  271MPD2    N1 4105   0.974   1.587  14.284  0.1523 -0.0030  0.1373
  271MPD2    H7 4106   0.928   1.575  14.374 -0.5547  0.3839 -0.1745
  272TMC3    C1 4107   1.152   1.444  14.378  0.1025 -0.5481 -0.0867
  272TMC3    C2 4108   1.257   1.354  14.351  0.1874 -0.2913 -0.0188
  272TMC3    C3 4109   1.313   1.292  14.459 -0.6277  0.2326  0.2070
  272TMC3    C4 4110   1.094   1.456  14.495 -0.0959  0.0217 -0.3286
  272TMC3    C5 4111   1.164   1.400  14.604 -0.3552 -0.4172  0.4976
  272TMC3    C6 4112   1.282   1.326  14.591  0.3203  0.9014 -0.2924
  272TMC3     C 4113   1.100   1.524  14.265  0.1091  0.2143  0.4757
  272TMC3     O 4114   1.179   1.536  14.171 -0.6855 -0.6877 -0.2950
  272TMC3     H 4115   1.288   1.366  14.248  0.7754 -0.4307  0.1385
  272TMC3    H1 4116   1.023   1.534  14.519 -2.0577 -1.9583  0.2780
  272TMC3    H2 4117   1.329   1.278  14.676 -1.7767 -1.0388 -0.2392
  272TMC3    C7 4118   1.123   1.450  14.730 -0.4771 -0.2522  0.7002
  272TMC3    C8 4119   1.431   1.227  14.436  0.5931  0.7019 -0.3565
  272TMC3    O1 4120   0.999   1.460  14.745 -0.2843  0.3255 -0.1284
  272TMC3    O2 4121   1.448   1.187  14.323 -0.0967 -0.2551 -0.6769
  273MPD2     C 4122   3.073   4.376  11.744  0.1515 -0.2207  0.9210
  273MPD2    C1 4123   3.130   4.498  11.716  0.0030  0.4221  0.3583
  273MPD2    C2 4124   3.160   4.537  11.590  0.3244  0.1129 -0.2147
  273MPD2    C3 4125   3.136   4.460  11.478  0.3049 -0.8430 -0.6361
  273MPD2    C4 4126   3.074   4.340  11.499 -0.9525 -0.0602 -0.2423
  273MPD2    C5 4127   3.048   4.299  11.629  0.0524  0.1337  0.6897
  273MPD2     H 4128   3.212   4.632  11.592  1.0393 -0.2771 -0.1222
  273MPD2    H1 4129   3.046   4.274  11.417 -0.7369  2.0494 -2.0005
  273MPD2    H2 4130   3.037   4.328  11.834  0.4045 -1.0890  0.5586
  273MPD2    H3 4131   2.999   4.204  11.645  1.9808 -1.0335 -0.3652
  273MPD2     N 4132   3.156   4.505  11.344 -0.0457 -0.5900 -0.1324
  273MPD2    H5 4133   3.116   4.451  11.268  2.1137 -3.1975  0.5694
  273MPD2    N1 4134   3.148   4.594  11.817 -0.0779 -0.0245 -0.4853
  273MPD2    H7 4135   3.188   4.683  11.788  2.7652 -0.5248  1.9188
  274TMC3    C1 4136   3.237   4.659  11.182 -0.1725  0.2865 -0.0412
  274TMC3    C2 4137   3.124   4.641  11.104 -0.6002 -0.0625 -0.4979
  274TMC3    C3 4138   3.081   0.026  11.032  0.4640  0.3099  0.9652
  274TMC3    C4 4139   3.294   0.063  11.179  0.4113  0.4126  0.2753
  274TMC3    C5 4140   3.236   0.169  11.130 -0.1315  0.1279 -1.1673
  274TMC3    C6 4141   3.136   0.148  11.039 -0.0277  0.3330  0.1351
  274TMC3     C 4142   3.241   4.610  11.318  0.5901  0.3921  0.3009
  274TMC3     O 4143   3.303   4.678  11.398 -0.1116  0.3281  0.5090
  274TMC3     H 4144   3.069   4.548  11.100  0.6882 -1.0376  4.7064
  274TMC3    H1 4145   3.381   0.084  11.240 -0.6932  2.5115  1.1254
  274TMC3    H2 4146   3.074   0.229  11.002  0.2869  0.5566  0.1065
  274TMC3    C7 4147   3.197   0.276  11.218 -0.5339 -0.2930  0.3208
  274TMC3    C8 4148   2.970   0.001  10.946  0.2463  0.8395 -0.1870
  274TMC3    O1 4149   3.087   0.324  11.196  0.5863 -0.4247 -0.0027
  274TMC3    O2 4150   2.886   4.642  10.980  0.4219  0.5727 -0.0830
  275MPD2     C 4151   2.341   2.764  14.685 -0.3355 -0.9191 -0.9413
  275MPD2    C1 4152   2.405   2.653  14.627  0.0203  0.0022 -0.1558
  275MPD2    C2 4153   2.332   2.555  14.556 -0.2129 -0.1578 -0.2629
  275MPD2    C3 4154   2.192   2.574  14.548  0.2776  0.2313  0.2932
  275MPD2    C4 4155   2.134   2.683  14.607  0.1584  0.0315 -0.0229
  275MPD2    C5 4156   2.209   2.779  14.670 -0.2543 -0.2696 -0.3133
  275MPD2     H 4157   2.372   2.461  14.518  0.8807 -0.3209  1.2962
  275MPD2    H1 4158   2.027   2.695  14.596 -0.0027 -0.4642  0.9349
  275MPD2    H2 4159   2.383   2.844  14.746  1.5785 -0.1045 -3.3657
  275MPD2    H3 4160   2.160   2.861  14.720 -2.1768 -2.3616  1.2575
  275MPD2     N 4161   2.105   2.487  14.481  0.8403  0.4616  0.3558
  275MPD2    H5 4162   2.012   2.528  14.476  0.7324 -0.1672 -2.8612
  275MPD2    N1 4163   2.551   2.644  14.624  0.0622  0.2023  0.5716
  275MPD2    H7 4164   2.587   2.562  14.576  0.9001  1.0828 -0.3091
  276TMC3    C1 4165   2.778   2.710  14.689  0.0583  0.1059 -0.1125
  276TMC3    C2 4166   2.814   2.578  14.663 -0.1896 -0.1973 -0.1344
  276TMC3    C3 4167   2.936   2.536  14.707 -0.1887  0.0854 -0.0575
  276TMC3    C4 4168   2.849   2.788  14.772 -0.0712  0.1057  0.5291
  276TMC3    C5 4169   2.968   2.742  14.819 -0.0896 -0.0587  0.3701
  276TMC3    C6 4170   3.016   2.611  14.791  0.1609  0.2437 -0.9750
  276TMC3     C 4171   2.635   2.746  14.665  0.2411  0.0298 -0.8822
  276TMC3     O 4172   2.598   2.858  14.709 -0.0577 -0.1544 -0.4275
  276TMC3     H 4173   2.766   2.524  14.582  0.1540  1.7704 -1.6567
  276TMC3    H1 4174   2.826   2.893  14.783 -1.3003  0.1355 -2.5533
  276TMC3    H2 4175   3.107   2.575  14.838 -0.5309  0.6617  0.6771
  276TMC3    C7 4176   3.031   2.811  14.933 -0.0451 -0.0030 -0.3831
  276TMC3    C8 4177   2.983   2.406  14.659 -0.1075 -0.1051  0.6707
  276TMC3    O1 4178   2.961   2.889  14.997 -0.7199 -0.0756 -0.1872
  276TMC3    O2 4179   3.103   2.389  14.638  0.0861  0.3421 -0.0245
  277MPD2     C 4180   4.232   1.779  13.112 -0.1935 -0.1357  0.1047
  277MPD2    C1 4181   4.104   1.736  13.071 -0.4965 -0.1140  0.0101
  277MPD2    C2 4182   4.020   1.677  13.165  0.5028  0.4770 -0.0115
  277MPD2    C3 4183   4.060   1.651  13.293  0.1955  0.6270  0.1834
  277MPD2    C4 4184   4.182   1.688  13.330  0.3526 -0.2134  0.5992
  277MPD2    C5 4185   4.271   1.746  13.242 -0.0110 -0.0248 -0.8558
  277MPD2     H 4186   3.915   1.656  13.146  0.3985 -0.0658  1.1479
  277MPD2    H1 4187   4.221   1.675  13.430  1.7323  2.5066  0.4184
  277MPD2    H2 4188   4.305   1.820  13.044 -0.2910  0.2023  0.1999
  277MPD2    H3 4189   4.374   1.770  13.267 -0.0203  0.4212 -1.2498
  277MPD2     N 4190   3.968   1.590  13.371 -0.7533 -0.0900 -0.1237
  277MPD2    H5 4191   3.871   1.581  13.341 -0.4891 -1.6894 -0.5050
  277MPD2    N1 4192   4.068   1.767  12.942  0.2215  0.0407  0.6122
  277MPD2    H7 4193   4.136   1.821  12.888  1.1144 -1.1093  0.5946
  278TMC3    C1 4194   3.872   1.477  13.545  1.0646 -0.6566 -0.4459
  278TMC3    C2 4195   3.890   1.377  13.636  1.0256 -0.2512  0.1205
  278TMC3    C3 4196   3.772   1.328  13.697 -0.4889 -0.4778 -0.1246
  278TMC3    C4 4197   3.750   1.536  13.521 -0.5440  0.7969 -0.2675
  278TMC3    C5 4198   3.638   1.488  13.591  0.2494 -0.2430  0.1893
  278TMC3    C6 4199   3.643   1.384  13.685  0.6116  0.0152 -0.4959
  278TMC3     C 4200   3.991   1.526  13.482  0.1684 -0.8043 -0.3416
  278TMC3     O 4201   4.090   1.509  13.545  1.3064 -0.4560 -0.2051
  278TMC3     H 4202   3.982   1.325  13.659  0.6041 -0.1330  2.0584
  278TMC3    H1 4203   3.737   1.631  13.472 -0.4521  0.8467 -0.1949
  278TMC3    H2 4204   3.559   1.337  13.735 -0.3676  0.7978 -1.3921
  278TMC3    C7 4205   3.507   1.556  13.560 -0.1473  0.0201 -0.0319
  278TMC3    C8 4206   3.779   1.200  13.756  0.6999  0.0036  0.0035
  278TMC3    O1 4207   3.506   1.635  13.473 -0.0242  0.9375  0.4811
  278TMC3    O2 4208   3.885   1.168  13.806  0.4033 -0.3614  1.0331
  279MPD2     C 4209   2.839   1.281   0.009  0.0835 -0.6274 -0.2273
  279MPD2    C1 4210   2.886   1.390   0.087 -0.0850  0.0943 -0.5139
  279MPD2    C2 4211   2.913   1.512   0.023 -0.2131 -0.2551 -0.2413
  279MPD2    C3 4212   2.898   1.513  17.577 -0.3543  0.8993  0.5392
  279MPD2    C4 4213   2.850   1.407  17.509  0.8464  0.1737  0.5481
  279MPD2    C5 4214   2.816   1.293  17.576  0.6133  0.1051 -0.6242
  279MPD2     H 4215   2.947   1.600   0.078 -0.5550 -0.4107  0.2181
  279MPD2    H1 4216   2.824   1.410  17.404  0.4055 -1.2728  0.6167
  279MPD2    H2 4217   2.819   1.186   0.057  0.4599 -1.4378 -1.6849
  279MPD2    H3 4218   2.764   1.215  17.521 -2.2143  1.2551  0.3992
  279MPD2     N 4219   2.925   1.627  17.498  0.2141  0.0050  0.1841
  279MPD2    H5 4220   2.886   1.615  17.406  0.2353 -2.9016  0.5554
  279MPD2    N1 4221   2.907   1.372   0.222  1.2584  0.0250 -0.0281
  279MPD2    H7 4222   2.905   1.275   0.251 -0.3805 -0.4170 -1.6002
  280TMC3    C1 4223   2.981   1.422   0.438  0.7221 -0.2386 -0.2289
  280TMC3    C2 4224   3.103   1.360   0.422  0.1403  0.3881 -0.9582
  280TMC3    C3 4225   3.215   1.401   0.494 -0.1013 -0.2201  0.1708
  280TMC3    C4 4226   2.968   1.513   0.537  0.1374 -0.2649  0.3538
  280TMC3    C5 4227   3.080   1.564   0.593 -0.7106  0.1034 -0.7971
  280TMC3    C6 4228   3.210   1.511   0.584 -0.0356 -0.1998 -0.1274
  280TMC3     C 4229   2.922   1.468   0.319  0.6152 -0.5725 -0.0655
  280TMC3     O 4230   2.899   1.589   0.310  0.1333 -0.6266  0.0068
  280TMC3     H 4231   3.111   1.285   0.344  0.0809 -0.8748  0.2503
  280TMC3    H1 4232   2.870   1.550   0.566  0.0813 -1.1217  1.2575
  280TMC3    H2 4233   3.296   1.551   0.636 -2.2779 -0.8581  4.1260
  280TMC3    C7 4234   3.084   1.708   0.613  0.6375 -0.0129 -0.3513
  280TMC3    C8 4235   3.337   1.330   0.468 -0.6967  0.1937  0.1559
  280TMC3    O1 4236   3.191   1.756   0.647 -0.5395  0.4129 -0.5375
  280TMC3    O2 4237   3.335   1.216   0.423 -0.0014 -0.1174  0.7360
  281TMC3    C1 4238   2.468   1.871  13.254 -0.0602 -0.3245 -0.1776
  281TMC3    C2 4239   2.516   1.976  13.181 -0.4226 -0.0459  0.0297
  281TMC3    C3 4240   2.538   1.960  13.044  0.1218  0.7698 -0.4867
  281TMC3    C4 4241   2.442   1.747  13.210  0.3983 -0.2014 -0.1781
  281TMC3    C5 4242   2.482   1.725  13.076 -0.5633  0.7209  0.1200
  281TMC3    C6 4243   2.522   1.831  12.997  0.7042 -0.0520  0.3210
  281TMC3     C 4244   2.381   1.910  13.370  0.3164  0.4341 -0.1379
  281TMC3     O 4245   2.376   1.827  13.460  0.0900  0.2011  0.1788
  281TMC3     H 4246   2.538   2.067  13.236  0.4598  0.3322 -0.9526
  281TMC3    H1 4247   2.423   1.672  13.286  0.4658  0.2050  0.2364
  281TMC3    H2 4248   2.556   1.826  12.894  3.5017 -2.8760  1.3612
  281TMC3    C7 4249   2.388   1.646  13.004  0.2128  0.0753 -0.3501
  281TMC3    C8 4250   2.653   2.017  12.987 -0.3813  0.7216  0.1330
  281TMC3    O1 4251   2.396   1.630  12.882 -0.1178  0.2964 -0.4697
  281TMC3    O2 4252   2.744   1.939  12.971 -0.3876 -0.0873 -0.2919
  282MPD2     C 4253   3.978   3.311  15.315 -0.0729  0.3698 -0.7065
  282MPD2    C1 4254   3.858   3.353  15.361 -0.3086 -0.0517  0.3265
  282MPD2    C2 4255   3.752   3.355  15.277 -0.2402 -0.4728 -0.7579
  282MPD2    C3 4256   3.769   3.329  15.145 -0.0085  0.2341 -0.4941
  282MPD2    C4 4257   3.890   3.286  15.092 -0.3833 -1.1389  0.4159
  282MPD2    C5 4258   3.995   3.288  15.183 -0.3836  0.5794  0.7128
  282MPD2     H 4259   3.654   3.371  15.321 -0.1161  0.2758 -0.7499
  282MPD2    H1 4260   3.912   3.262  14.988 -0.1649  0.4200  0.1013
  282MPD2    H2 4261   4.064   3.303  15.381 -0.6526 -0.4192 -0.0375
  282MPD2    H3 4262   4.091   3.259  15.142 -0.7620 -3.1086  2.4361
  282MPD2     N 4263   3.653   3.355  15.065  0.4038 -0.0244  0.1801
  282MPD2    H5 4264   3.568   3.389  15.107 -0.6880  1.8785 -3.6222
  282MPD2    N1 4265   3.824   3.388  15.496  0.2682  0.5741  0.0036
  282MPD2    H7 4266   3.731   3.424  15.517  0.4714  0.9789  0.1909
  283TMC3    C1 4267   3.853   3.457  15.720 -0.7263  0.8416  0.3808
  283TMC3    C2 4268   3.932   3.540  15.796  0.9381  0.6994 -0.1448
  283TMC3    C3 4269   3.874   3.599  15.908 -0.1971  0.9075 -0.1067
  283TMC3    C4 4270   3.724   3.424  15.752 -0.1701  0.1387 -0.4974
  283TMC3    C5 4271   3.682   3.476  15.873 -0.0704  0.1620 -0.2396
  283TMC3    C6 4272   3.751   3.561  15.952  1.2443  0.4832  0.6236
  283TMC3     C 4273   3.908   3.394  15.600  0.0059  0.1261  0.0681
  283TMC3     O 4274   4.030   3.384  15.594 -0.3870 -0.0399 -0.0291
  283TMC3     H 4275   4.038   3.548  15.777  1.7702 -1.3019  3.7360
  283TMC3    H1 4276   3.664   3.373  15.678 -1.9919  0.8166  0.5198
  283TMC3    H2 4277   3.705   3.607  16.039 -0.6787  0.1301 -0.2035
  283TMC3    C7 4278   3.579   3.395  15.938 -0.0318 -0.0197  0.6782
  283TMC3    C8 4279   3.925   3.726  15.940 -0.4697 -0.3070  0.2478
  283TMC3    O1 4280   3.527   3.438  16.042 -0.7359 -0.0416  0.1997
  283TMC3    O2 4281   3.901   3.766  16.052 -0.6187 -0.2381 -0.7721
  284MPD2     C 4282   2.750   2.573  12.199 -0.2358 -0.3159 -0.1641
  284MPD2    C1 4283   2.629   2.594  12.137  0.0538 -0.1105 -0.9831
  284MPD2    C2 4284   2.523   2.501  12.153  0.5953  0.2018 -0.0944
  284MPD2    C3 4285   2.555   2.382  12.215  0.1871 -0.5145 -0.2978
  284MPD2    C4 4286   2.682   2.351  12.262  0.3856  0.6736  0.6528
  284MPD2    C5 4287   2.781   2.445  12.242 -0.1711 -0.2070  0.2434
  284MPD2     H 4288   2.420   2.512  12.122  0.8739  2.6220 -0.2265
  284MPD2    H1 4289   2.702   2.264  12.323 -1.5465 -0.8597 -0.9115
  284MPD2    H2 4290   2.831   2.643  12.210  0.3214 -0.9838 -0.0151
  284MPD2    H3 4291   2.885   2.432  12.273 -0.0991 -1.2909 -0.4311
  284MPD2     N 4292   2.469   2.269  12.228 -0.0093 -0.0767 -0.3066
  284MPD2    H5 4293   2.511   2.178  12.245  1.7164  0.4191 -1.7795
  284MPD2    N1 4294   2.607   2.704  12.052 -0.0681 -0.6144  0.0977
  284MPD2    H7 4295   2.521   2.691  12.001  0.6951 -1.1137 -1.0419
  285TMC3    C1 4296   2.660   2.890  11.910 -0.0985 -0.4973  0.2872
  285TMC3    C2 4297   2.598   2.834  11.802 -0.1686 -0.1659  0.5818
  285TMC3    C3 4298   2.609   2.906  11.682  0.1495 -0.6032 -0.8634
  285TMC3    C4 4299   2.702   3.018  11.914  0.0631 -0.1426  0.0624
  285TMC3    C5 4300   2.701   3.084  11.794 -0.3752  0.4672 -0.1725
  285TMC3    C6 4301   2.668   3.025  11.677  0.0454 -0.0580 -0.7945
  285TMC3     C 4302   2.691   2.807  12.027 -0.3266  0.0165  0.1025
  285TMC3     O 4303   2.782   2.852  12.094 -0.2748  0.3369 -0.5426
  285TMC3     H 4304   2.565   2.731  11.805  0.0928 -0.2103  1.9640
  285TMC3    H1 4305   2.744   3.065  12.003  2.0866 -0.4332 -0.7367
  285TMC3    H2 4306   2.653   3.086  11.589 -2.0523  1.3995  0.5682
  285TMC3    C7 4307   2.792   3.197  11.786 -0.6084 -1.6561  0.2712
  285TMC3    C8 4308   2.626   2.815  11.571  0.2004  0.5598 -0.8313
  285TMC3    O1 4309   2.797   3.256  11.679  0.6341 -0.5868 -0.8320
  285TMC3    O2 4310   2.562   2.713  11.562 -0.2061 -0.4109  0.2222
  286MPD2     C 4311   2.053   1.483   1.711 -0.3928  0.3033 -0.2654
  286MPD2    C1 4312   2.046   1.483   1.570 -0.5332 -0.3865  1.3077
  286MPD2    C2 4313   2.115   1.382   1.505 -0.1629  0.0447  0.1138
  286MPD2    C3 4314   2.182   1.278   1.570  0.3593  0.0696  0.1986
  286MPD2    C4 4315   2.184   1.285   1.708 -0.6440 -0.6103 -0.7332
  286MPD2    C5 4316   2.120   1.383   1.773 -0.4350 -0.1844  0.8001
  286MPD2     H 4317   2.128   1.386   1.397  1.1093 -0.0069  0.2636
  286MPD2    H1 4318   2.243   1.211   1.761 -0.1659  0.4099  0.1542
  286MPD2    H2 4319   1.997   1.546   1.780  1.4342  1.3569  0.2606
  286MPD2    H3 4320   2.123   1.376   1.881  1.4727 -0.3269  0.7398
  286MPD2     N 4321   2.242   1.167   1.503  0.3189 -0.0921 -0.1542
  286MPD2    H5 4322   2.303   1.106   1.555 -0.8781 -0.4303  0.8589
  286MPD2    N1 4323   1.988   1.595   1.507 -0.3144  0.5984 -0.0454
  286MPD2    H7 4324   1.969   1.583   1.408  0.8772 -1.1692 -0.0540
  287TMC3    C1 4325   2.329   1.056   1.317  0.1485 -0.2489 -0.0751
  287TMC3    C2 4326   2.305   0.990   1.198  0.2159 -0.3092  0.2928
  287TMC3    C3 4327   2.409   0.918   1.141 -0.1970  0.2789  0.1107
  287TMC3    C4 4328   2.448   1.040   1.387  0.5547  0.2124  0.4395
  287TMC3    C5 4329   2.541   0.961   1.331  0.3030  0.1756 -0.8405
  287TMC3    C6 4330   2.527   0.904   1.205 -0.2341  0.2657  0.2079
  287TMC3     C 4331   2.221   1.140   1.370 -0.0720 -0.0790  0.6340
  287TMC3     O 4332   2.128   1.175   1.298  0.2194 -0.1990  0.1173
  287TMC3     H 4333   2.201   0.990   1.167  0.3386 -0.5608 -0.1183
  287TMC3    H1 4334   2.473   1.092   1.479  1.9845  2.5481 -1.2911
  287TMC3    H2 4335   2.615   0.857   1.161  0.2574  0.2601  1.2009
  287TMC3    C7 4336   2.673   0.952   1.400 -0.0200 -0.2062  0.2605
  287TMC3    C8 4337   2.378   0.856   1.010 -0.2118  0.2747 -0.4384
  287TMC3    O1 4338   2.747   0.864   1.354 -0.6907 -0.4851  0.0749
  287TMC3    O2 4339   2.271   0.812   0.989  0.1442  0.2349  0.2295
  288TMC3    C1 4340   4.108   0.816  14.612 -0.1180 -0.6489 -0.0055
  288TMC3    C2 4341   4.073   0.799  14.742 -0.3175  0.7499  0.4946
  288TMC3    C3 4342   4.077   0.906  14.823  0.0537  0.3121  0.3084
  288TMC3    C4 4343   4.139   0.940  14.556  0.7735 -0.3154  0.0399
  288TMC3    C5 4344   4.143   1.050  14.638  0.8422  0.2869  0.1591
  288TMC3    C6 4345   4.116   1.031  14.775 -0.2751  0.3541  0.0847
  288TMC3     C 4346   4.090   0.693  14.533 -0.3717 -0.6585  0.7528
  288TMC3     O 4347   4.100   0.585  14.584 -0.2306  0.1414 -0.4164
  288TMC3     H 4348   4.035   0.703  14.773  1.4681  0.0965  0.6366
  288TMC3    H1 4349   4.181   0.951  14.457 -0.6955 -0.2031 -0.5685
  288TMC3    H2 4350   4.130   1.118  14.839  0.3407 -0.5791  1.2182
  288TMC3    C7 4351   4.223   1.170  14.603  0.1248  0.5164 -0.7071
  288TMC3    C8 4352   4.039   0.901  14.967  0.0348  0.1675  0.0787
  288TMC3    O1 4353   4.281   1.235  14.693  0.1436 -0.2209 -0.2601
  288TMC3    O2 4354   4.109   0.972  15.041 -0.3480  0.1070 -0.4108
  289MPD2     C 4355   4.370   0.074  14.959 -1.0060 -0.2390 -0.2122
  289MPD2    C1 4356   4.374   0.133  14.836 -0.1474  0.0296  0.0806
  289MPD2    C2 4357   4.259   0.124  14.757 -0.9013 -0.5421  0.6237
  289MPD2    C3 4358   4.144   0.072  14.803  0.6828 -0.7773  0.5733
  289MPD2    C4 4359   4.145   0.014  14.928 -0.1668 -0.3014  0.6520
  289MPD2    C5 4360   4.261   0.006  15.009 -0.1283 -0.3614  0.1679
  289MPD2     H 4361   4.273   0.157  14.655 -1.7943 -2.0266  0.0313
  289MPD2    H1 4362   4.056   4.686  14.961  0.6684 -0.8145  2.0861
  289MPD2    H2 4363   4.461   0.083  15.017 -0.2510 -0.1772 -1.3964
  289MPD2    H3 4364   4.255   4.689  15.110  2.5142 -2.0724 -0.3876
  289MPD2     N 4365   4.025   0.084  14.733 -0.4285  0.1176 -0.7498
  289MPD2    H5 4366   3.941   0.058  14.783 -1.2259  2.3398 -0.9074
  289MPD2    N1 4367   4.499   0.199  14.801 -0.3848  0.3436 -0.2429
  289MPD2    H7 4368   4.574   0.192  14.868  0.6011  2.0531 -1.1544
  290TMC3    C1 4369   3.856   0.169  14.600  0.6419  0.0702 -0.2330
  290TMC3    C2 4370   3.823   0.282  14.531  0.0490  0.1233 -0.4704
  290TMC3    C3 4371   3.689   0.292  14.504  0.6749  0.2422  0.4427
  290TMC3    C4 4372   3.764   0.085  14.655 -0.1691  1.2925  1.0214
  290TMC3    C5 4373   3.638   0.097  14.612 -0.0060 -0.2566  0.1750
  290TMC3    C6 4374   3.596   0.202  14.536 -0.0333  0.1520  0.4583
  290TMC3     C 4375   4.002   0.152  14.616  0.0112 -0.2040 -0.2513
  290TMC3     O 4376   4.081   0.201  14.538  0.3945 -0.3435 -0.0062
  290TMC3     H 4377   3.895   0.354  14.494  1.4747 -0.0396  1.9794
  290TMC3    H1 4378   3.801   0.004  14.717  0.5590  0.6631 -0.2393
  290TMC3    H2 4379   3.492   0.212  14.507  0.4820 -1.5971 -2.0003
  290TMC3    C7 4380   3.550   4.718  14.647 -0.0339  0.2268  0.3364
  290TMC3    C8 4381   3.638   0.403  14.425 -0.3500  0.6161 -0.2705
  290TMC3    O1 4382   3.432   0.015  14.610 -0.3003 -0.1571  0.2271
  290TMC3    O2 4383   3.533   0.396  14.358 -0.4739 -0.2027 -0.0638
  291MPD2     C 4384   3.593   0.171   0.205 -0.7565  0.3563 -0.6103
  291MPD2    C1 4385   3.591   0.141   0.337 -0.4200  0.0855  0.3858
  291MPD2    C2 4386   3.698   0.140   0.418 -0.4399 -0.2251 -0.0316
  291MPD2    C3 4387   3.812   0.185   0.369 -0.2707  0.3001 -0.3030
  291MPD2    C4 4388   3.819   0.226   0.240 -0.9279  0.1286 -0.3827
  291MPD2    C5 4389   3.710   0.223   0.154  0.0950  0.0450 -0.3204
  291MPD2     H 4390   3.685   0.119   0.523  1.5861  2.1315  0.7061
  291MPD2    H1 4391   3.912   0.271   0.209 -0.6736  1.0805  1.7716
  291MPD2    H2 4392   3.504   0.180   0.143 -2.3534  1.2957  1.8391
  291MPD2    H3 4393   3.725   0.261   0.054 -1.4507  2.5353  0.4026
  291MPD2     N 4394   3.935   0.167   0.437  0.0766  0.6127 -0.9216
  291MPD2    H5 4395   4.014   0.172   0.374  0.8218  1.6065  0.0954
  291MPD2    N1 4396   3.470   0.102   0.396 -0.4441  0.1620 -0.9392
  291MPD2    H7 4397   3.477   0.080   0.495 -2.0372 -1.3142 -1.1500
  292TMC3    C1 4398   3.256   0.022   0.428 -0.2008  0.1224 -0.3490
  292TMC3    C2 4399   3.228   0.104   0.534  0.2905  0.4875 -0.4946
  292TMC3    C3 4400   3.121   0.078   0.619  0.1308 -0.2315  0.6657
  292TMC3    C4 4401   3.193   4.625   0.415 -0.6290 -0.0305  0.6072
  292TMC3    C5 4402   3.094   4.594   0.508 -0.3380 -0.6873  0.3473
  292TMC3    C6 4403   3.054   4.683   0.607 -0.0261  0.7244 -0.0814
  292TMC3     C 4404   3.347   0.077   0.337  0.1306 -0.5052  0.2213
  292TMC3     O 4405   3.324   0.056   0.218  0.5198  0.1521 -0.1651
  292TMC3     H 4406   3.279   0.198   0.544  1.4600 -0.1222 -0.7524
  292TMC3    H1 4407   3.238   4.560   0.341 -2.4058 -1.7738  1.0639
  292TMC3    H2 4408   2.980   4.655   0.681  2.2495 -1.1364  1.4911
  292TMC3    C7 4409   3.054   4.457   0.532  0.6454 -0.5490  0.5791
  292TMC3    C8 4410   3.113   0.147   0.745  0.2060  0.3072  0.2621
  292TMC3    O1 4411   2.992   4.445   0.634 -0.1855 -0.8056 -0.6195
  292TMC3    O2 4412   3.219   0.199   0.784  0.0959  0.4911 -0.3243
  293MPD2     C 4413   0.397   1.886  12.518 -0.6982  0.0738 -0.3670
  293MPD2    C1 4414   0.395   1.773  12.591 -0.3288  0.6054  0.5863
  293MPD2    C2 4415   0.465   1.777  12.708 -0.2173  0.0202 -0.3285
  293MPD2    C3 4416   0.508   1.896  12.761 -0.7329 -0.0795 -0.0537
  293MPD2    C4 4417   0.497   2.012  12.693 -0.5725  0.6787  0.1046
  293MPD2    C5 4418   0.452   2.004  12.565 -0.3063 -0.2300 -0.2115
  293MPD2     H 4419   0.475   1.690  12.773  1.6662  0.0953 -0.5169
  293MPD2    H1 4420   0.543   2.105  12.724 -0.4303  0.6991 -0.1648
  293MPD2    H2 4421   0.355   1.877  12.418 -1.0513  1.9347 -0.3758
  293MPD2    H3 4422   0.455   2.088  12.498 -3.3686 -0.2062 -0.2926
  293MPD2     N 4423   0.561   1.894  12.892  0.1036 -0.1175  0.3836
  293MPD2    H5 4424   0.576   1.807  12.942 -0.9538 -1.4052 -1.5531
  293MPD2    N1 4425   0.334   1.660  12.534 -0.2972  0.2117  0.1627
  293MPD2    H7 4426   0.273   1.669  12.454 -0.6091 -2.5019  0.1039
  294TMC3    C1 4427   0.256   1.443  12.525  0.1232 -0.6549  0.3302
  294TMC3    C2 4428   0.199   1.342  12.595  0.5018 -0.4959 -0.1034
  294TMC3    C3 4429   0.202   1.213  12.539  0.0580 -0.4036  0.4557
  294TMC3    C4 4430   0.317   1.417  12.399  0.2688 -0.2486 -0.2726
  294TMC3    C5 4431   0.312   1.292  12.343 -0.2411  0.2053  1.2294
  294TMC3    C6 4432   0.252   1.184  12.410 -0.2201  0.2703 -0.5700
  294TMC3     C 4433   0.324   1.539  12.602 -0.1667  0.0496  0.5349
  294TMC3     O 4434   0.362   1.505  12.714 -0.0445  0.3774 -0.1939
  294TMC3     H 4435   0.167   1.352  12.698  1.6241 -1.4888  0.3440
  294TMC3    H1 4436   0.364   1.505  12.356 -0.6439 -0.1306 -1.0293
  294TMC3    H2 4437   0.249   1.083  12.373  0.5462  0.6547 -1.7100
  294TMC3    C7 4438   0.389   1.248  12.223 -0.1729  0.2949  0.5354
  294TMC3    C8 4439   0.148   1.108  12.630 -0.4530  0.1022  0.1962
  294TMC3    O1 4440   0.411   1.130  12.217  0.5049 -0.2396  0.3786
  294TMC3    O2 4441   0.184   1.117  12.747  0.7217  0.5671  0.2170
  295MPD2     C 4442   0.128   4.426   0.409 -0.0934  0.3976  0.1783
  295MPD2    C1 4443   0.220   4.528   0.403  0.0090 -0.0661 -0.1692
  295MPD2    C2 4444   0.213   4.629   0.499 -0.8615 -0.2927 -0.3599
  295MPD2    C3 4445   0.116   4.625   0.604 -0.5775 -0.1700  0.3153
  295MPD2    C4 4446   0.038   4.509   0.616  0.1152 -0.3660  0.1695
  295MPD2    C5 4447   0.042   4.409   0.516 -0.6894  0.4213  0.1869
  295MPD2     H 4448   0.283   4.710   0.483 -1.6221  0.3956 -0.2037
  295MPD2    H1 4449   4.697   4.495   0.701 -0.0162 -0.5103  0.0463
  295MPD2    H2 4450   0.116   4.358   0.325 -1.3554  1.6872 -0.6931
  295MPD2    H3 4451   4.701   4.322   0.519 -0.2052  0.0012 -1.7831
  295MPD2     N 4452   0.099   0.005   0.696 -0.3240 -0.2828  0.5129
  295MPD2    H5 4453   0.031   0.003   0.771  0.9570  0.1382  1.6858
  295MPD2    N1 4454   0.328   4.539   0.311 -0.2687  0.4925 -0.2185
  295MPD2    H7 4455   0.383   4.624   0.314 -0.9365  0.8060  3.0335
  296TMC3    C1 4456   0.133   0.217   0.784  0.0910  0.0727 -0.5686
  296TMC3    C2 4457   0.097   0.344   0.751 -0.1604  0.4267  0.3473
  296TMC3    C3 4458   0.042   0.423   0.846  0.1551  0.1393 -0.1551
  296TMC3    C4 4459   0.103   0.163   0.913 -0.3270 -0.1837  0.5077
  296TMC3    C5 4460   0.057   0.254   1.010  0.6058  0.3502 -0.1877
  296TMC3    C6 4461   0.022   0.384   0.976 -0.0957 -0.0330  0.4802
  296TMC3     C 4462   0.155   0.131   0.674 -0.0052  0.4713 -0.4614
  296TMC3     O 4463   0.194   0.173   0.563 -0.5474  0.6120  0.0013
  296TMC3     H 4464   0.122   0.384   0.653 -3.5836  0.6635 -0.4445
  296TMC3    H1 4465   0.107   0.057   0.938 -0.1675 -0.2367  0.2641
  296TMC3    H2 4466   4.700   0.451   1.049 -1.8799 -0.9473  0.1856
  296TMC3    C7 4467   4.697   0.191   1.115  0.3134  0.3433 -0.6584
  296TMC3    C8 4468   0.042   0.563   0.816 -0.2546  0.6418 -0.0089
  296TMC3    O1 4469   4.598   0.248   1.156  0.2166 -0.0614 -0.2926
  296TMC3    O2 4470   0.019   0.606   0.704 -0.2887  0.3035 -0.3476
  297MPD2     C 4471   2.926   2.653  16.915  0.2872  0.6525  0.4408
  297MPD2    C1 4472   2.886   2.631  16.779  0.7661 -0.4430 -0.0969
  297MPD2    C2 4473   2.969   2.686  16.679 -0.0881  0.3557 -0.2736
  297MPD2    C3 4474   3.069   2.780  16.716 -0.2283 -0.1612  0.5045
  297MPD2    C4 4475   3.079   2.818  16.843 -0.1213  0.1914  0.0249
  297MPD2    C5 4476   3.012   2.758  16.944 -0.3632 -0.4456  0.7085
  297MPD2     H 4477   2.945   2.659  16.577 -1.8266  0.9660 -0.0239
  297MPD2    H1 4478   3.152   2.892  16.872 -1.5633  1.4967  0.3052
  297MPD2    H2 4479   2.887   2.607  17.006  2.8618 -1.7013  0.3587
  297MPD2    H3 4480   3.026   2.793  17.045  1.6394  0.7773 -0.0017
  297MPD2     N 4481   3.137   2.852  16.621  0.3509 -0.1614 -0.5151
  297MPD2    H5 4482   3.192   2.928  16.660 -1.0717 -1.1776  3.4283
  297MPD2    N1 4483   2.788   2.538  16.740 -0.3352 -0.4235 -0.2654
  297MPD2    H7 4484   2.758   2.524  16.644 -0.3992  0.6290 -0.3951
  298TMC3    C1 4485   2.579   2.449  16.746  0.4629  0.8217 -1.3161
  298TMC3    C2 4486   2.586   2.375  16.634  0.0650 -0.2578 -0.5433
  298TMC3    C3 4487   2.475   2.354  16.558  0.5448 -0.4119 -0.2051
  298TMC3    C4 4488   2.465   2.509  16.787 -0.5963  0.3145  0.2283
  298TMC3    C5 4489   2.353   2.483  16.711  0.2416 -0.1352 -0.1538
  298TMC3    C6 4490   2.355   2.402  16.604  0.7493 -0.0650  0.3476
  298TMC3     C 4491   2.704   2.477  16.827  0.4356  0.0083 -0.6330
  298TMC3     O 4492   2.686   2.497  16.947 -0.3931  0.2399  0.3555
  298TMC3     H 4493   2.679   2.322  16.613  0.9143  0.3984  1.5041
  298TMC3    H1 4494   2.467   2.569  16.877  2.3266  0.1667  0.2564
  298TMC3    H2 4495   2.264   2.378  16.551  1.4931 -3.1017  0.4912
  298TMC3    C7 4496   2.231   2.531  16.770 -0.3738  0.6036  0.4999
  298TMC3    C8 4497   2.486   2.280  16.435 -0.2894 -0.0965 -0.1293
  298TMC3    O1 4498   2.227   2.561  16.889  0.3437 -0.3408  0.2320
  298TMC3    O2 4499   2.382   2.253  16.376  0.0207 -0.2786  0.5242
  299MPD2     C 4500   4.187   1.779  10.726 -0.4184 -0.1587 -1.2973
  299MPD2    C1 4501   4.186   1.881  10.636 -0.2602  0.0144 -0.2042
  299MPD2    C2 4502   4.067   1.914  10.574  0.4706  0.3161 -0.6870
  299MPD2    C3 4503   3.949   1.847  10.608 -0.4861 -0.1334  0.1774
  299MPD2    C4 4504   3.956   1.750  10.698  0.5583  0.2651 -0.2747
  299MPD2    C5 4505   4.073   1.717  10.763  0.8042  0.0854 -0.0125
  299MPD2     H 4506   4.072   1.994  10.500  0.0212  0.3793 -0.6497
  299MPD2    H1 4507   3.877   1.691  10.743  0.8408  0.2598  0.2180
  299MPD2    H2 4508   4.272   1.750  10.786 -0.8739 -1.7178 -1.4074
  299MPD2    H3 4509   4.064   1.640  10.839  0.6504 -0.8087 -0.9319
  299MPD2     N 4510   3.822   1.878  10.548  0.0035  0.1255  0.2295
  299MPD2    H5 4511   3.750   1.819  10.589  0.4437 -0.9544 -0.5473
  299MPD2    N1 4512   4.315   1.938  10.619 -0.0642 -0.0581  0.1662
  299MPD2    H7 4513   4.376   1.901  10.691 -0.2953 -2.3005 -0.7905
  300TMC3    C1 4514   3.661   1.934  10.395 -0.0239  0.3069  0.4295
  300TMC3    C2 4515   3.610   2.056  10.350  0.3869 -0.2476 -0.0771
  300TMC3    C3 4516   3.478   2.072  10.328 -0.5945  0.1992  0.3390
  300TMC3    C4 4517   3.573   1.840  10.451  0.5274 -0.4002  0.2992
  300TMC3    C5 4518   3.436   1.864  10.436  0.0803 -0.4023 -0.4300
  300TMC3    C6 4519   3.385   1.973  10.369  0.1187  0.5474 -0.1233
  300TMC3     C 4520   3.801   1.940  10.430  0.0985  0.2522 -1.2032
  300TMC3     O 4521   3.883   2.015  10.375  0.4367  0.1633  0.5403
  300TMC3     H 4522   3.677   2.137  10.324  0.5160  0.1199  1.3678
  300TMC3    H1 4523   3.602   1.741  10.483  0.5085 -0.6771 -0.5472
  300TMC3    H2 4524   3.278   1.987  10.372  0.1854  1.8376 -4.3953
  300TMC3    C7 4525   3.353   1.789  10.524  0.1796 -0.2232 -0.0973
  300TMC3    C8 4526   3.427   2.202  10.324 -0.2303 -0.3216 -0.4307
  300TMC3    O1 4527   3.403   1.679  10.547 -0.2452 -0.0198  0.1693
  300TMC3    O2 4528   3.469   2.283  10.400 -0.1226 -0.7035 -0.3504
  301MPD2     C 4529   0.735   3.496   1.211  0.3228 -0.3473 -0.4315
  301MPD2    C1 4530   0.613   3.439   1.233 -0.5834  0.0431  0.1073
  301MPD2    C2 4531   0.593   3.305   1.270  0.1376 -0.1338  0.2136
  301MPD2    C3 4532   0.712   3.232   1.285  0.6643  0.0865 -0.2707
  301MPD2    C4 4533   0.836   3.281   1.251  0.3292  0.2675  0.6157
  301MPD2    C5 4534   0.846   3.417   1.219 -0.6380 -1.3674 -0.6157
  301MPD2     H 4535   0.498   3.256   1.286  0.1985 -0.6033 -0.8895
  301MPD2    H1 4536   0.925   3.219   1.247  0.3025  0.3105 -0.5630
  301MPD2    H2 4537   0.741   3.598   1.175 -0.5332 -0.3896 -0.6960
  301MPD2    H3 4538   0.940   3.450   1.175 -0.9698  1.8163  1.1508
  301MPD2     N 4539   0.708   3.089   1.322 -0.0228  0.1785 -0.0350
  301MPD2    H5 4540   0.799   3.044   1.333  0.4377  0.7961 -1.2742
  301MPD2    N1 4541   0.498   3.521   1.230  0.0045  0.4743  0.3524
  301MPD2    H7 4542   0.413   3.468   1.246 -0.0338  1.3497  2.8920
  302TMC3    C1 4543   0.615   2.866   1.359  0.5059 -0.1203  0.0184
  302TMC3    C2 4544   0.744   2.815   1.353 -0.4013  0.0057  0.5552
  302TMC3    C3 4545   0.756   2.680   1.347 -0.2156 -0.4397  0.3216
  302TMC3    C4 4546   0.503   2.789   1.365  0.4529 -0.2868 -0.1178
  302TMC3    C5 4547   0.524   2.654   1.368  0.6050 -0.7052 -0.3258
  302TMC3    C6 4548   0.644   2.598   1.347 -0.4100  0.1626 -0.2017
  302TMC3     C 4549   0.593   3.017   1.350 -0.4038 -0.1193 -0.0382
  302TMC3     O 4550   0.473   3.052   1.340  0.2019  0.3408 -0.4407
  302TMC3     H 4551   0.829   2.881   1.367  1.3624 -1.7706 -1.8011
  302TMC3    H1 4552   0.406   2.830   1.388  0.1286 -1.1729  0.0864
  302TMC3    H2 4553   0.650   2.490   1.335 -0.4344  0.0536  0.7598
  302TMC3    C7 4554   0.419   2.562   1.328 -0.3487 -0.1006 -0.0186
  302TMC3    C8 4555   0.888   2.618   1.324  0.1740  0.3695  0.0278
  302TMC3    O1 4556   0.444   2.446   1.295 -0.0882 -0.2142  0.1870
  302TMC3    O2 4557   0.892   2.515   1.255 -0.2219 -0.1348 -0.2090
  303MPD2     C 4558   1.749   1.711  10.495  0.1174 -0.4563 -0.0782
  303MPD2    C1 4559   1.661   1.603  10.486 -0.4253  0.0584 -0.3074
  303MPD2    C2 4560   1.640   1.544  10.366  0.0964  0.4735  0.6353
  303MPD2    C3 4561   1.691   1.593  10.252  0.8059  0.1187  0.3657
  303MPD2    C4 4562   1.781   1.699  10.252  0.8475  0.3197  0.0129
  303MPD2    C5 4563   1.807   1.757  10.373 -0.0795  0.3884 -0.1222
  303MPD2     H 4564   1.574   1.458  10.366 -0.6866  1.0721 -1.2983
  303MPD2    H1 4565   1.841   1.730  10.167  0.0375  1.5508 -0.1104
  303MPD2    H2 4566   1.792   1.760  10.582  0.9937  0.9595 -1.3050
  303MPD2    H3 4567   1.885   1.831  10.382  0.3367 -0.1278  0.4918
  303MPD2     N 4568   1.666   1.544  10.126 -0.3178  0.1074  0.1984
  303MPD2    H5 4569   1.719   1.576  10.045  0.1976  0.7543  0.7859
  303MPD2    N1 4570   1.619   1.539  10.610  0.0914  0.5678  0.2664
  303MPD2    H7 4571   1.635   1.580  10.702  0.6054  1.2475 -0.1265
  304TMC3    C1 4572   1.504   1.395  10.750  0.0758 -0.2339  0.1411
  304TMC3    C2 4573   1.424   1.493  10.800 -0.5617  0.5144  0.0821
  304TMC3    C3 4574   1.313   1.463  10.875  0.1922 -0.7105 -0.7089
  304TMC3    C4 4575   1.468   1.264  10.771 -0.3763  0.3733  0.2655
  304TMC3    C5 4576   1.364   1.238  10.863  0.4288  0.2631  0.3625
  304TMC3    C6 4577   1.296   1.340  10.919  0.1266 -0.4283 -0.2401
  304TMC3     C 4578   1.565   1.414  10.623 -0.3911  0.1356 -0.1673
  304TMC3     O 4579   1.548   1.322  10.546  0.0694 -0.3670 -0.5136
  304TMC3     H 4580   1.441   1.587  10.749 -1.7890  0.9615  0.4919
  304TMC3    H1 4581   1.524   1.176  10.740  0.8716  1.7180 -1.3472
  304TMC3    H2 4582   1.214   1.332  10.989  0.7564 -0.9799  0.4358
  304TMC3    C7 4583   1.281   1.126  10.860  0.5193  0.2313  0.7883
  304TMC3    C8 4584   1.192   1.525  10.825  0.0605  0.1239 -0.0786
  304TMC3    O1 4585   1.157   1.146  10.856  0.1335 -0.5841  0.1614
  304TMC3    O2 4586   1.203   1.636  10.777  0.4101  0.5949  0.3319
  305MPD2     C 4587   3.575   2.924  14.155  1.2023  0.1257 -0.1874
  305MPD2    C1 4588   3.639   3.047  14.155  0.7150 -0.7909  0.2384
  305MPD2    C2 4589   3.678   3.107  14.036  0.3078 -0.1519  0.1920
  305MPD2    C3 4590   3.658   3.039  13.919 -0.6820 -0.5585 -0.4838
  305MPD2    C4 4591   3.604   2.909  13.916  0.5336  0.3977  0.0937
  305MPD2    C5 4592   3.568   2.859  14.039 -0.6653 -0.1924 -0.3191
  305MPD2     H 4593   3.734   3.200  14.036 -1.6819  1.0588  3.0276
  305MPD2    H1 4594   3.588   2.856  13.823  2.1818  0.7637 -0.4032
  305MPD2    H2 4595   3.540   2.873  14.244  1.8122 -2.1283 -1.2468
  305MPD2    H3 4596   3.534   2.756  14.042  0.8483 -0.6112  1.5404
  305MPD2     N 4597   3.688   3.085  13.790 -0.1683  0.6438 -0.4961
  305MPD2    H5 4598   3.651   3.021  13.720 -1.3510 -0.4812  1.1493
  305MPD2    N1 4599   3.684   3.095  14.282  0.0756  0.2125  0.0802
  305MPD2    H7 4600   3.664   3.035  14.362  3.5111  0.9677  1.5305
  306TMC3    C1 4601   3.776   3.239  14.440 -0.1778 -0.0767 -0.0507
  306TMC3    C2 4602   3.850   3.134  14.489 -0.1428  0.8769  0.0104
  306TMC3    C3 4603   3.914   3.147  14.608  0.5767 -0.4104 -0.0981
  306TMC3    C4 4604   3.765   3.358  14.501 -0.4326  0.8934  0.0835
  306TMC3    C5 4605   3.826   3.364  14.623 -0.4668  0.2889 -0.7624
  306TMC3    C6 4606   3.903   3.264  14.670  0.5372  0.0400  0.0560
  306TMC3     C 4607   3.715   3.222  14.314  0.0127  0.0387  0.7062
  306TMC3     O 4608   3.709   3.322  14.246  0.4131  0.4681 -0.1609
  306TMC3     H 4609   3.844   3.039  14.437 -0.0800  1.4116 -0.9719
  306TMC3    H1 4610   3.690   3.431  14.473  0.7732  2.0702 -0.1027
  306TMC3    H2 4611   3.944   3.268  14.770 -0.3497  1.6943  0.3648
  306TMC3    C7 4612   3.799   3.478  14.710  0.1461  0.1523  0.2484
  306TMC3    C8 4613   3.965   3.029  14.672 -0.0215 -0.0255 -0.3778
  306TMC3    O1 4614   3.692   3.530  14.681 -0.4053 -0.1607  0.0807
  306TMC3    O2 4615   4.041   2.951  14.614  0.2379 -0.1652  0.3129
  307MPD2     C 4616   1.750   1.166   0.178  0.8750 -0.4533  0.3045
  307MPD2    C1 4617   1.701   1.295   0.171 -0.3298 -0.3636  0.1597
  307MPD2    C2 4618   1.646   1.351   0.289 -0.8468 -0.6552 -0.3169
  307MPD2    C3 4619   1.623   1.276   0.402  0.1972 -0.1673 -0.8322
  307MPD2    C4 4620   1.667   1.143   0.401  0.4565 -0.4962 -0.4066
  307MPD2    C5 4621   1.732   1.094   0.290 -0.4184 -0.2766 -0.3145
  307MPD2     H 4622   1.640   1.459   0.297  1.5938 -0.7464  2.7142
  307MPD2    H1 4623   1.667   1.077   0.487 -0.7095 -3.4441 -2.6685
  307MPD2    H2 4624   1.803   1.115   0.099 -1.1014 -1.3753 -0.4344
  307MPD2    H3 4625   1.761   0.990   0.281  1.7005  0.4162 -1.3662
  307MPD2     N 4626   1.561   1.333   0.520 -0.0374  0.1985  0.3869
  307MPD2    H5 4627   1.557   1.272   0.602  3.4720  0.2011  0.5364
  307MPD2    N1 4628   1.712   1.375   0.056 -0.3824  0.5727  0.8096
  307MPD2    H7 4629   1.681   1.471   0.060  0.9444  0.9776  1.5325
  308TMC3    C1 4630   1.202   1.451   0.704  0.4102 -0.3586 -0.3350
  308TMC3    C2 4631   1.181   1.585   0.725 -0.4101  0.4399 -0.2097
  308TMC3    C3 4632   1.293   1.660   0.707  0.2825  0.4810  0.1012
  308TMC3    C4 4633   1.329   1.403   0.676  0.1305  0.7598 -0.5892
  308TMC3    C5 4634   1.424   1.487   0.641 -1.0285  0.3045 -0.1368
  308TMC3    C6 4635   1.412   1.621   0.663  0.5959  0.6151  1.0721
  308TMC3     C 4636   1.089   1.379   0.657  0.2748  0.0141  0.1837
  308TMC3     O 4637   1.104   1.258   0.640 -0.2466 -0.2303  0.7020
  308TMC3     H 4638   1.087   1.634   0.748 -0.3808  0.3167  0.1643
  308TMC3    H1 4639   1.345   1.297   0.657  0.6005  0.8083 -0.4606
  308TMC3    H2 4640   1.495   1.690   0.647  1.1018 -0.1110  0.5361
  308TMC3    C7 4641   1.517   1.466   0.533  0.5080 -0.2214 -0.4687
  308TMC3    C8 4642   1.267   1.802   0.684 -0.2918  0.2891  0.2411
  308TMC3    O1 4643   1.517   1.560   0.455  0.2981 -0.1325  0.2590
  308TMC3    O2 4644   1.365   1.875   0.700  0.1877  0.1611 -0.1252
  309MPD2     C 4645   1.009   2.210  17.088 -0.5359  0.4492  0.2188
  309MPD2    C1 4646   0.934   2.189  16.971 -0.2252 -0.3581  0.2130
  309MPD2    C2 4647   0.792   2.191  16.971  0.0626 -0.4992  0.0190
  309MPD2    C3 4648   0.731   2.226  17.092  0.5520  0.5108  0.0883
  309MPD2    C4 4649   0.810   2.250  17.206 -0.6287 -0.7133  0.1556
  309MPD2    C5 4650   0.941   2.241  17.202  0.2730  0.7532  0.0709
  309MPD2     H 4651   0.738   2.165  16.881 -1.4689 -2.1890  1.3982
  309MPD2    H1 4652   0.756   2.262  17.299 -0.0113  3.5275 -0.0402
  309MPD2    H2 4653   1.117   2.207  17.077 -0.9165 -1.1573 -3.0617
  309MPD2    H3 4654   0.995   2.262  17.294  0.1197  0.8526  0.1379
  309MPD2     N 4655   0.595   2.243  17.107  0.0419 -0.2136 -0.4557
  309MPD2    H5 4656   0.572   2.283  17.197 -1.9770 -1.7434 -0.2877
  309MPD2    N1 4657   1.005   2.182  16.848  0.2174 -0.7480 -0.2020
  309MPD2    H7 4658   0.954   2.174  16.761  2.2565 -0.3556 -1.4434
  310TMC3    C1 4659   1.181   2.173  16.691 -0.4388  0.1383 -0.3597
  310TMC3    C2 4660   1.094   2.227  16.591 -0.5416 -0.8049  0.0644
  310TMC3    C3 4661   1.134   2.234  16.458 -0.0081  0.2053  0.3549
  310TMC3    C4 4662   1.306   2.141  16.647  0.6370  0.9252 -0.8986
  310TMC3    C5 4663   1.345   2.154  16.516 -0.1055 -0.7459  0.2239
  310TMC3    C6 4664   1.260   2.194  16.415 -0.2937 -0.5447  0.2821
  310TMC3     C 4665   1.139   2.158  16.827  0.0268 -0.8104  0.2783
  310TMC3     O 4666   1.227   2.126  16.908  0.5839 -0.0836  0.0214
  310TMC3     H 4667   0.999   2.266  16.625 -0.5159 -1.6098  1.0692
  310TMC3    H1 4668   1.384   2.094  16.706 -0.5864 -2.1965 -1.7663
  310TMC3    H2 4669   1.294   2.197  16.312  0.5952 -0.4269  0.5811
  310TMC3    C7 4670   1.453   2.067  16.469 -0.0878  0.3737 -0.1131
  310TMC3    C8 4671   1.055   2.297  16.361 -0.8345  0.0783  0.9023
  310TMC3    O1 4672   1.477   1.962  16.533  0.6402  0.1877 -0.3794
  310TMC3    O2 4673   1.108   2.318  16.251  0.1431  0.6688 -0.3279
  311MPD2     C 4674   3.137   3.021  12.686  0.0200  0.1165  0.1065
  311MPD2    C1 4675   3.137   3.148  12.730  0.1257 -0.8018  0.3580
  311MPD2    C2 4676   3.014   3.202  12.783 -0.0695  0.4967 -0.1063
  311MPD2    C3 4677   2.905   3.120  12.800 -0.0268  0.1485 -0.4170
  311MPD2    C4 4678   2.919   2.987  12.759  0.0142  0.2535  0.4696
  311MPD2    C5 4679   3.028   2.941  12.705  0.4075 -0.4804 -0.0644
  311MPD2     H 4680   3.009   3.306  12.812 -2.1947  0.7469 -1.3644
  311MPD2    H1 4681   2.846   2.910  12.781 -1.0302  0.9013 -0.6510
  311MPD2    H2 4682   3.218   2.958  12.650 -1.7431 -0.8362 -2.1447
  311MPD2    H3 4683   3.047   2.835  12.690 -2.2739 -1.2785  2.1399
  311MPD2     N 4684   2.783   3.166  12.853  0.0838  0.2089  0.1674
  311MPD2    H5 4685   2.774   3.265  12.871  2.2264  0.4138  0.1081
  311MPD2    N1 4686   3.255   3.225  12.720 -0.8075 -0.5746 -0.6037
  311MPD2    H7 4687   3.250   3.317  12.762 -0.9043 -1.3285  1.0303
  312TMC3    C1 4688   2.564   3.155  12.928 -0.1003  0.0495 -1.0776
  312TMC3    C2 4689   2.435   3.107  12.928  0.0867 -0.2477  0.6771
  312TMC3    C3 4690   2.340   3.157  13.010 -0.2504  0.2827  0.3825
  312TMC3    C4 4691   2.596   3.253  13.018 -0.3774  0.4574  0.0781
  312TMC3    C5 4692   2.499   3.299  13.102  0.0094  0.2930  0.2520
  312TMC3    C6 4693   2.367   3.257  13.103 -0.4205 -0.4666  0.5727
  312TMC3     C 4694   2.671   3.083  12.867  0.0580 -0.1121 -0.2077
  312TMC3     O 4695   2.646   2.967  12.838 -0.2980  0.1876 -0.1447
  312TMC3     H 4696   2.411   3.037  12.849  2.3124  0.0613 -0.2740
  312TMC3    H1 4697   2.698   3.280  13.041  0.3950  0.9596 -3.9331
  312TMC3    H2 4698   2.302   3.294  13.181  1.8892 -1.1011  2.7695
  312TMC3    C7 4699   2.529   3.423  13.160 -0.0839 -0.4495  0.1175
  312TMC3    C8 4700   2.212   3.111  13.008 -0.1150  0.3662  0.4558
  312TMC3    O1 4701   2.600   3.499  13.089 -0.1109  0.3789  0.0693
  312TMC3    O2 4702   2.196   3.007  12.941 -0.2484  0.1471 -0.1004
  313MPD2     C 4703   2.404   2.336  10.915  0.8652  0.2166 -0.0730
  313MPD2    C1 4704   2.500   2.439  10.885  0.2188 -0.1902 -1.0208
  313MPD2    C2 4705   2.615   2.395  10.811  0.4579 -0.2824  0.6404
  313MPD2    C3 4706   2.622   2.267  10.760 -0.2626  0.3120  0.9113
  313MPD2    C4 4707   2.520   2.176  10.780  0.2053  0.1939 -0.5649
  313MPD2    C5 4708   2.414   2.205  10.864  0.9299 -0.2744 -1.1097
  313MPD2     H 4709   2.691   2.471  10.796 -1.3842  1.1201 -1.5987
  313MPD2    H1 4710   2.516   2.077  10.735  3.0376 -0.3282  0.3355
  313MPD2    H2 4711   2.318   2.357  10.977 -0.7226 -0.9044 -1.8779
  313MPD2    H3 4712   2.338   2.131  10.886  0.3049 -0.0061 -2.3619
  313MPD2     N 4713   2.720   2.216  10.673 -0.5325 -0.2592  0.1458
  313MPD2    H5 4714   2.706   2.122  10.636 -0.5449  0.4296 -1.5863
  313MPD2    N1 4715   2.494   2.568  10.936  0.2855  0.3016 -0.8216
  313MPD2    H7 4716   2.578   2.625  10.928  0.0473  1.1580  2.5429
  314TMC3    C1 4717   2.381   2.765  11.001 -0.2710 -0.1980  0.0761
  314TMC3    C2 4718   2.502   2.810  11.047  0.0628  0.0222 -0.2069
  314TMC3    C3 4719   2.518   2.944  11.034 -0.1610 -0.1561  0.2731
  314TMC3    C4 4720   2.271   2.835  10.962  0.9331  0.3034  0.0118
  314TMC3    C5 4721   2.296   2.966  10.942 -0.1848 -0.0550 -0.6752
  314TMC3    C6 4722   2.417   3.021  10.974  0.2712  0.6550 -0.2900
  314TMC3     C 4723   2.377   2.623  10.985  0.2544 -0.0646  0.3698
  314TMC3     O 4724   2.262   2.583  10.956  0.3179  0.0369 -0.1819
  314TMC3     H 4725   2.585   2.747  11.075  0.2926  0.2365 -0.4060
  314TMC3    H1 4726   2.179   2.787  10.930  0.9609  0.4079 -0.2189
  314TMC3    H2 4727   2.441   3.126  10.959  1.6995  0.4688  0.6394
  314TMC3    C7 4728   2.234   3.020  10.826 -0.4872  0.2901  0.2538
  314TMC3    C8 4729   2.647   3.020  11.055  0.7725 -0.0302  0.2419
  314TMC3    O1 4730   2.113   2.999  10.806 -0.0561  0.2498 -0.1168
  314TMC3    O2 4731   2.746   2.973  10.999  0.5210 -0.4686 -0.4389
  315MPD2     C 4732   2.183   1.661  17.597 -0.2712 -0.6553  0.3316
  315MPD2    C1 4733   2.212   1.667   0.034 -0.2025  0.5011  0.1614
  315MPD2    C2 4734   2.287   1.784   0.084 -0.0542 -0.3904  0.0153
  315MPD2    C3 4735   2.334   1.874  17.690  0.0490  0.1261  0.2500
  315MPD2    C4 4736   2.301   1.867  17.560  0.2804 -0.9036 -0.3977
  315MPD2    C5 4737   2.218   1.764  17.512  0.5398 -0.0675 -0.1214
  315MPD2     H 4738   2.300   1.791   0.191  0.1526  1.1949 -0.1029
  315MPD2    H1 4739   2.333   1.940  17.487 -2.8748 -1.2494 -2.1602
  315MPD2    H2 4740   2.113   1.587  17.560 -0.8855  0.0991  0.0085
  315MPD2    H3 4741   2.172   1.769  17.414 -0.9702 -1.4638  0.5381
  315MPD2     N 4742   2.396   1.994   0.034  0.2387 -0.3421  0.1847
  315MPD2    H5 4743   2.424   1.989   0.131  0.1504 -0.6596  0.1924
  315MPD2    N1 4744   2.155   1.576   0.128 -0.1049 -0.9026  0.5221
  315MPD2    H7 4745   2.180   1.591   0.225 -0.6035  0.4837  0.4443
  316TMC3    C1 4746   2.438   2.221   0.071 -0.3633  0.3493  0.4510
  316TMC3    C2 4747   2.557   2.200   0.141 -0.2882 -0.2774 -0.4868
  316TMC3    C3 4748   2.622   2.303   0.195 -0.1932 -0.8017 -0.4630
  316TMC3    C4 4749   2.397   2.344   0.049 -0.8175  0.4869  0.0678
  316TMC3    C5 4750   2.473   2.446   0.094  0.3050  0.1877 -0.2224
  316TMC3    C6 4751   2.581   2.429   0.175  0.2529  0.0186 -0.5928
  316TMC3     C 4752   2.397   2.118  17.675 -0.2562 -0.5021  0.2415
  316TMC3     O 4753   2.347   2.158  17.574 -0.4393 -0.2579  0.0079
  316TMC3     H 4754   2.591   2.098   0.146  0.4465 -0.0476 -0.8179
  316TMC3    H1 4755   2.318   2.361  17.672 -0.9705  0.2566  0.1789
  316TMC3    H2 4756   2.635   2.511   0.223 -0.1338  0.2551 -0.5597
  316TMC3    C7 4757   2.407   2.573   0.107  0.0113  0.3094  0.7894
  316TMC3    C8 4758   2.711   2.280   0.305  0.1154 -0.1487 -0.2393
  316TMC3    O1 4759   2.431   2.637   0.209  0.5010 -0.6786  0.2825
  316TMC3    O2 4760   2.782   2.373   0.328 -0.1302 -0.5369 -0.4929
  317MPD2     C 4761   3.743   0.506  13.403 -0.4690 -1.1983 -0.3403
  317MPD2    C1 4762   3.766   0.395  13.320  0.1947  0.2137  0.8808
  317MPD2    C2 4763   3.886   0.319  13.336 -0.0968 -0.0161 -0.1731
  317MPD2    C3 4764   3.964   0.350  13.443 -0.1194  1.2070 -0.4540
  317MPD2    C4 4765   3.930   0.447  13.535  0.8062 -0.7380  0.1894
  317MPD2    C5 4766   3.821   0.532  13.510 -0.2865  0.1608 -0.2147
  317MPD2     H 4767   3.907   0.239  13.265 -0.0984 -0.9919  0.9296
  317MPD2    H1 4768   3.990   0.458  13.624 -2.4667 -0.1473  2.3397
  317MPD2    H2 4769   3.647   0.557  13.406 -0.4837 -1.2013 -0.7271
  317MPD2    H3 4770   3.792   0.606  13.583 -1.5961 -0.4542 -0.1172
  317MPD2     N 4771   4.071   0.259  13.460  0.3227  0.6492 -0.1163
  317MPD2    H5 4772   4.076   0.192  13.384  0.7133  1.0359 -0.4339
  317MPD2    N1 4773   3.683   0.360  13.206 -0.0299  0.2547  0.1347
  317MPD2    H7 4774   3.715   0.284  13.147  1.2475  1.0385 -0.1661
  318TMC3    C1 4775   4.285   0.185  13.509  0.4812 -0.3526 -0.3137
  318TMC3    C2 4776   4.251   0.059  13.473  0.4424 -0.4389  0.3834
  318TMC3    C3 4777   4.351   4.700  13.423 -0.4926  0.6967  0.4391
  318TMC3    C4 4778   4.417   0.232  13.483 -0.2807  0.2619 -1.1883
  318TMC3    C5 4779   4.508   0.150  13.430 -0.7730  0.6696  0.0099
  318TMC3    C6 4780   4.480   0.019  13.400 -0.0502 -0.0336 -0.1173
  318TMC3     C 4781   4.183   0.279  13.537 -1.0132  0.0428  0.5493
  318TMC3     O 4782   4.204   0.364  13.622 -0.4185 -0.1178 -0.4232
  318TMC3     H 4783   4.155   0.016  13.498  0.9732 -2.4846 -1.0910
  318TMC3    H1 4784   4.435   0.338  13.491 -0.3160  0.1879 -0.1179
  318TMC3    H2 4785   4.540   4.676  13.338  1.3710  1.1746 -0.0529
  318TMC3    C7 4786   4.638   0.206  13.395 -0.3710 -0.1139  0.2585
  318TMC3    C8 4787   4.326   4.560  13.394  0.7026  0.4298 -0.2582
  318TMC3    O1 4788   4.645   0.329  13.372 -0.1722  0.2124 -0.4799
  318TMC3    O2 4789   4.420   4.485  13.397 -0.5193  0.2098 -0.3064
  319MPD2     C 4790   0.636   1.643  16.503 -0.5033 -0.5086 -0.8216
  319MPD2    C1 4791   0.538   1.607  16.587 -0.4731 -0.4309  0.0176
  319MPD2    C2 4792   0.407   1.634  16.558 -0.0796 -0.5100  0.0089
  319MPD2    C3 4793   0.366   1.695  16.435 -0.6629 -0.1660 -0.8491
  319MPD2    C4 4794   0.468   1.737  16.353  0.3931  0.3372  0.1275
  319MPD2    C5 4795   0.605   1.705  16.380  0.1884 -0.5332  0.7358
  319MPD2     H 4796   0.337   1.603  16.634 -1.8221  0.6074 -1.1175
  319MPD2    H1 4797   0.435   1.789  16.264 -1.9396 -1.7875 -0.2501
  319MPD2    H2 4798   0.741   1.615  16.516 -0.4755 -0.3501 -0.7082
  319MPD2    H3 4799   0.687   1.729  16.312  0.0711 -2.5104 -0.1037
  319MPD2     N 4800   0.232   1.717  16.394  0.1172 -0.6722  0.7933
  319MPD2    H5 4801   0.205   1.749  16.301 -0.1955 -1.4375  0.6250
  319MPD2    N1 4802   0.556   1.559  16.719  0.3832  0.2872  0.2986
  319MPD2    H7 4803   0.469   1.539  16.768 -0.2993 -0.5927 -1.2541
  320TMC3    C1 4804   0.001   1.668  16.423  0.5796  0.0762  0.3452
  320TMC3    C2 4805   4.688   1.743  16.318  0.3895 -0.3950  0.4752
  320TMC3    C3 4806   4.551   1.740  16.288 -0.2345  0.4577 -0.1908
  320TMC3    C4 4807   4.643   1.580  16.497 -0.0067  0.6363 -0.1750
  320TMC3    C5 4808   4.518   1.582  16.458  0.5403  0.2351 -0.0987
  320TMC3    C6 4809   4.467   1.659  16.360  0.1426 -0.2552  0.4639
  320TMC3     C 4810   0.129   1.686  16.481 -0.0136 -0.3892 -0.6542
  320TMC3     O 4811   0.124   1.681  16.606 -0.1909 -0.1073 -0.3410
  320TMC3     H 4812   0.026   1.821  16.275 -0.4737 -1.1808 -2.1847
  320TMC3    H1 4813   4.682   1.533  16.586 -2.4655 -1.3415 -0.1568
  320TMC3    H2 4814   4.361   1.651  16.335 -0.3898 -0.2477  2.7341
  320TMC3    C7 4815   4.451   1.454  16.467  0.3188 -0.2197 -0.1256
  320TMC3    C8 4816   4.489   1.855  16.216  0.5245  0.0015 -0.5468
  320TMC3    O1 4817   4.411   1.395  16.366 -0.3665  0.0178  0.0791
  320TMC3    O2 4818   4.504   1.969  16.261 -0.3238  0.2429 -0.0701
  321TMC3    C1 4819   0.671   1.482  16.912  0.0225  0.6186  0.4445
  321TMC3    C2 4820   0.551   1.434  16.942  0.6412 -0.3257  0.2500
  321TMC3    C3 4821   0.520   1.423  17.074  0.1105 -0.1719  0.0272
  321TMC3    C4 4822   0.761   1.529  17.001  0.2588  0.5784 -0.2076
  321TMC3    C5 4823   0.727   1.512  17.133 -0.4199 -0.4277  0.1242
  321TMC3    C6 4824   0.605   1.466  17.167 -0.4893  0.0745  0.1214
  321TMC3     C 4825   0.678   1.547  16.784  0.6382  0.0525 -0.5675
  321TMC3     O 4826   0.787   1.540  16.734 -0.1898 -0.4231 -0.0728
  321TMC3     H 4827   0.492   1.383  16.867 -0.2463  1.0585  0.0086
  321TMC3    H1 4828   0.853   1.572  16.964 -0.3434  0.8922 -1.3287
  321TMC3    H2 4829   0.583   1.450  17.272 -1.6948 -0.3107 -0.1880
  321TMC3    C7 4830   0.823   1.433  17.214  0.5493 -0.2065  0.9124
  321TMC3    C8 4831   0.443   1.309  17.117 -0.0813 -0.4127 -0.0320
  321TMC3    O1 4832   0.783   1.314  17.224 -0.0159  0.6233 -0.3028
  321TMC3    O2 4833   0.334   1.295  17.062  0.1989  0.0479  0.1658
  322MPD2     C 4834   3.819   2.468  13.601 -0.1765 -0.5036 -0.0819
  322MPD2    C1 4835   3.819   2.418  13.731 -0.1876 -0.1723 -0.4525
  322MPD2    C2 4836   3.837   2.282  13.748  0.3241 -0.1253 -0.0403
  322MPD2    C3 4837   3.854   2.198  13.636  0.2591  1.2397  0.0569
  322MPD2    C4 4838   3.853   2.246  13.508  0.3222 -0.4080 -0.0723
  322MPD2    C5 4839   3.833   2.381  13.494 -0.2303 -0.2735 -0.3989
  322MPD2     H 4840   3.820   2.240  13.846 -0.7260  0.1575 -0.0974
  322MPD2    H1 4841   3.869   2.191  13.416 -3.2291 -1.6254  0.0301
  322MPD2    H2 4842   3.825   2.575  13.585 -0.8410 -0.1685  1.8214
  322MPD2    H3 4843   3.833   2.420  13.393 -0.1109 -0.6385 -0.5371
  322MPD2     N 4844   3.871   2.066  13.660  0.1572 -0.4527 -0.4059
  322MPD2    H5 4845   3.843   2.034  13.752  0.2016  0.7486  0.0182
  322MPD2    N1 4846   3.803   2.511  13.832  0.1939  0.1945  0.2898
  322MPD2    H7 4847   3.813   2.609  13.807 -0.0067  0.5792  1.7088
  323TMC3    C1 4848   3.817   2.590  14.052  0.0234  0.3389  0.2898
  323TMC3    C2 4849   3.877   2.708  14.011  0.1921 -0.1018 -0.2737
  323TMC3    C3 4850   3.914   2.796  14.106 -0.0864  0.0968 -0.2263
  323TMC3    C4 4851   3.825   2.551  14.185  0.1088 -0.1716  0.2022
  323TMC3    C5 4852   3.875   2.633  14.277  0.2906 -0.0878 -0.4254
  323TMC3    C6 4853   3.907   2.761  14.243 -1.1312  0.1237  0.1731
  323TMC3     C 4854   3.786   2.479  13.962  0.2677  0.1250  0.1367
  323TMC3     O 4855   3.735   2.384  14.017  0.3226  0.2188  0.4306
  323TMC3     H 4856   3.869   2.737  13.907 -0.3176  0.0413 -0.1947
  323TMC3    H1 4857   3.827   2.445  14.208 -2.2237  0.1482  1.8946
  323TMC3    H2 4858   3.919   2.829  14.326  1.6872  1.2690 -1.1660
  323TMC3    C7 4859   3.967   2.586  14.379 -0.2891 -0.2263 -0.2079
  323TMC3    C8 4860   4.032   2.871  14.084 -0.1462 -0.5775 -0.0849
  323TMC3    O1 4861   3.967   2.465  14.393 -0.0413  0.3225  0.1196
  323TMC3    O2 4862   4.103   2.871  14.183 -0.0523  0.4173 -0.1127
  324MPD2     C 4863   0.602   4.035  13.945  0.5937 -0.1720  0.4096
  324MPD2    C1 4864   0.668   4.057  14.069 -0.5720 -0.0564  0.1031
  324MPD2    C2 4865   0.626   3.981  14.174  0.1497  0.9964  0.8126
  324MPD2    C3 4866   0.522   3.888  14.162 -0.4350  0.3970  0.1575
  324MPD2    C4 4867   0.461   3.864  14.042  0.3468 -0.7541 -0.8431
  324MPD2    C5 4868   0.507   3.939  13.935  0.1945  0.7237 -0.4617
  324MPD2     H 4869   0.680   3.991  14.267  0.7462 -3.0550  0.9039
  324MPD2    H1 4870   0.384   3.790  14.023  0.2798 -1.2899  1.5560
  324MPD2    H2 4871   0.610   4.093  13.854 -0.5654 -0.9338 -0.1873
  324MPD2    H3 4872   0.464   3.919  13.838 -0.0612 -2.1782  0.2550
  324MPD2     N 4873   0.463   3.820  14.274  0.4688 -0.4008 -0.5421
  324MPD2    H5 4874   0.394   3.750  14.247  0.4037 -0.9853  1.1645
  324MPD2    N1 4875   0.769   4.154  14.090  0.3415  0.1653  0.1678
  324MPD2    H7 4876   0.824   4.156  14.175  0.0126  0.8154  0.3632
  325TMC3    C1 4877   0.427   3.738  14.479 -0.4702  0.1735  0.2159
  325TMC3    C2 4878   0.383   3.631  14.406  0.3499  0.4802  0.9943
  325TMC3    C3 4879   0.257   3.593  14.425 -0.3474 -0.3635 -0.8565
  325TMC3    C4 4880   0.349   3.798  14.576  0.2742  0.2220 -0.2895
  325TMC3    C5 4881   0.219   3.760  14.598 -0.3533 -0.3382 -0.0511
  325TMC3    C6 4882   0.178   3.653  14.524  0.5726 -0.9264 -0.8674
  325TMC3     C 4883   0.499   3.838  14.403  0.4504 -0.2045  0.3998
  325TMC3     O 4884   0.556   3.928  14.459  0.1713  0.6924 -0.0462
  325TMC3     H 4885   0.441   3.579  14.330  0.4777  0.6640  0.9646
  325TMC3    H1 4886   0.375   3.898  14.608  1.8530 -0.1939 -0.2540
  325TMC3    H2 4887   0.072   3.634  14.512  1.1467 -5.4757  1.2883
  325TMC3    C7 4888   0.116   3.868  14.584  0.6322  0.2688  0.7400
  325TMC3    C8 4889   0.192   3.574  14.295 -0.7719 -0.0210 -0.2995
  325TMC3    O1 4890   0.010   3.848  14.645 -0.0885 -0.6712 -0.8408
  325TMC3    O2 4891   0.245   3.628  14.200  0.3174 -0.1135 -0.2946
  326MPD2     C 4892   2.401   0.264  11.221  0.2881  0.1913  0.0192
  326MPD2    C1 4893   2.446   0.238  11.097  0.6503 -0.2011  0.0470
  326MPD2    C2 4894   2.569   0.285  11.054  0.2507  0.0996  0.8102
  326MPD2    C3 4895   2.649   0.363  11.139 -0.3133  0.8247 -0.3970
  326MPD2    C4 4896   2.606   0.385  11.269 -0.4606  0.5887 -0.2205
  326MPD2    C5 4897   2.484   0.334  11.306  0.1421  0.1187 -0.1799
  326MPD2     H 4898   2.602   0.260  10.954 -0.7129 -1.5321  0.8925
  326MPD2    H1 4899   2.663   0.432  11.348  2.1664 -1.8655 -0.6418
  326MPD2    H2 4900   2.312   0.219  11.265 -1.2010  1.6603 -1.5141
  326MPD2    H3 4901   2.454   0.345  11.409  0.8653  0.4092 -0.0022
  326MPD2     N 4902   2.776   0.414  11.106  0.2011  0.0483 -0.2805
  326MPD2    H5 4903   2.816   0.484  11.168  1.5062 -0.1015 -0.9703
  326MPD2    N1 4904   2.379   0.163  11.000  0.3413  0.4985  0.0326
  326MPD2    H7 4905   2.432   0.132  10.919 -0.7158 -0.1505 -0.4176
  327TMC3    C1 4906   2.215   0.041  10.886  0.0266  0.4341 -0.1711
  327TMC3    C2 4907   2.100   0.095  10.835  0.3793 -0.7305 -0.8093
  327TMC3    C3 4908   2.085   0.106  10.700 -0.2016  0.1363 -0.1487
  327TMC3    C4 4909   2.312   4.722  10.802  0.1332 -0.0589 -0.4064
  327TMC3    C5 4910   2.303   0.028  10.664 -0.1335  0.4704  0.1410
  327TMC3    C6 4911   2.187   0.087  10.615  0.0353  0.2887 -0.0404
  327TMC3     C 4912   2.254   0.109  11.013  0.2572  0.2492  0.2242
  327TMC3     O 4913   2.183   0.122  11.111 -0.3547 -0.2758  0.4739
  327TMC3     H 4914   2.020   0.119  10.905  1.4250  1.3010 -0.3022
  327TMC3    H1 4915   2.403   4.673  10.834 -1.1873 -3.5740 -2.0180
  327TMC3    H2 4916   2.189   0.111  10.509 -1.7051  0.3152 -0.0598
  327TMC3    C7 4917   2.420   0.072  10.594 -0.7395  0.6162  0.4467
  327TMC3    C8 4918   2.006   0.213  10.656 -0.1367 -0.8675 -0.1960
  327TMC3    O1 4919   2.390   0.169  10.529  0.2311 -0.5254  0.0854
  327TMC3    O2 4920   2.070   0.288  10.587 -0.7581  0.0340  0.3167
  328MPD2     C 4921   4.652   0.686  17.141  0.1347 -0.1876 -0.1205
  328MPD2    C1 4922   4.566   0.584  17.122  0.4940  0.2743  0.8669
  328MPD2    C2 4923   4.431   0.601  17.090 -0.4274 -0.0971 -0.3195
  328MPD2    C3 4924   4.389   0.731  17.073 -0.5451 -0.1763  0.4914
  328MPD2    C4 4925   4.466   0.840  17.096 -0.6401 -0.2703 -0.2603
  328MPD2    C5 4926   4.598   0.815  17.119  0.6087  0.3962 -0.2540
  328MPD2     H 4927   4.367   0.513  17.091  0.8992 -1.0341  1.1019
  328MPD2    H1 4928   4.447   0.945  17.076  1.7702 -0.0247 -1.2535
  328MPD2    H2 4929   0.026   0.673  17.186  0.5142  0.4893 -0.7401
  328MPD2    H3 4930   4.665   0.899  17.120  0.0604  0.7833  2.6885
  328MPD2     N 4931   4.249   0.755  17.045 -0.1318 -0.1937  0.3738
  328MPD2    H5 4932   4.215   0.850  17.033  0.4155  0.1464  1.4961
  328MPD2    N1 4933   4.615   0.453  17.127 -0.1101  0.1249  0.1418
  328MPD2    H7 4934   4.705   0.423  17.163 -0.9662 -3.8366 -1.0372
  329TMC3    C1 4935   4.563   0.231  17.195  0.5521  0.1120  0.1665
  329TMC3    C2 4936   4.605   0.269  17.321  0.0790 -0.0870 -0.5795
  329TMC3    C3 4937   4.566   0.181  17.421 -0.5666 -0.2298 -0.4486
  329TMC3    C4 4938   4.489   0.118  17.170 -0.5558 -0.0452  0.0837
  329TMC3    C5 4939   4.464   0.037  17.276 -0.3607 -0.6353  0.2989
  329TMC3    C6 4940   4.502   0.060  17.406  0.3432  0.6978  0.0862
  329TMC3     C 4941   4.538   0.342  17.102 -0.2225  0.2181  0.2905
  329TMC3     O 4942   4.445   0.320  17.023 -1.1426 -0.2998 -0.0559
  329TMC3     H 4943   4.650   0.362  17.354 -2.8231  1.7171 -1.7098
  329TMC3    H1 4944   4.452   0.101  17.070 -0.7142  1.2406 -0.0769
  329TMC3    H2 4945   4.463   4.719  17.484  2.8568 -0.0682  0.7049
  329TMC3    C7 4946   4.375   4.647  17.249  1.0482 -0.7625  0.0084
  329TMC3    C8 4947   4.636   0.198  17.550 -0.3268 -0.2634 -0.0350
  329TMC3    O1 4948   4.292   4.613  17.337 -0.0332 -0.3100  0.2155
  329TMC3    O2 4949   0.030   0.230  17.544 -0.3238  0.4178 -0.4559
  330TMC3    C1 4950   3.052   4.605   9.456  0.5424 -0.6950 -0.3564
  330TMC3    C2 4951   3.136   4.536   9.544 -0.0971  0.1283 -0.3514
  330TMC3    C3 4952   3.095   4.407   9.580 -0.1082  0.6815  0.2633
  330TMC3    C4 4953   2.945   4.551   9.393  1.3451  0.1230 -0.2598
  330TMC3    C5 4954   2.906   4.426   9.446 -0.6620 -0.3426  0.2032
  330TMC3    C6 4955   2.982   4.348   9.531 -0.1704  1.1476  0.6957
  330TMC3     C 4956   3.054   0.032   9.461  0.5138  0.1872 -0.6606
  330TMC3     O 4957   3.148   0.081   9.517 -0.2323  0.2061  0.1906
  330TMC3     H 4958   3.224   4.586   9.584 -0.1139 -0.4761  0.4237
  330TMC3    H1 4959   2.888   4.603   9.318  0.3417  0.2177  0.5679
  330TMC3    H2 4960   2.951   4.247   9.552  0.6844  0.3393 -1.9394
  330TMC3    C7 4961   2.774   4.385   9.405 -0.3974 -0.3465 -0.3338
  330TMC3    C8 4962   3.179   4.345   9.677 -0.4383  0.1951  0.3216
  330TMC3    O1 4963   2.714   4.458   9.330 -0.1062  0.2525  0.1170
  330TMC3    O2 4964   3.279   4.401   9.714 -0.5401  0.4793  0.2357
  331MPD2     C 4965   4.663   3.221  12.725 -0.5822  0.0657 -0.2100
  331MPD2    C1 4966   0.061   3.267  12.670 -0.0057 -0.1321  0.1529
  331MPD2    C2 4967   0.158   3.179  12.630  0.6545  0.1496 -0.1218
  331MPD2    C3 4968   0.141   3.045  12.636 -0.3561 -0.0050  0.1080
  331MPD2    C4 4969   0.034   3.000  12.712  0.1562 -0.2637  0.2002
  331MPD2    C5 4970   4.656   3.085  12.754 -0.2752  0.2471  0.1643
  331MPD2     H 4971   0.242   3.225  12.580  1.3012 -1.1712 -0.2444
  331MPD2    H1 4972   0.007   2.896  12.724  3.0468 -1.4181 -3.2489
  331MPD2    H2 4973   4.594   3.296  12.763  1.3977  1.2065  1.1217
  331MPD2    H3 4974   4.567   3.041  12.799 -0.4873 -1.7729 -2.2080
  331MPD2     N 4975   0.230   2.949  12.579  0.1886  0.6099 -0.5254
  331MPD2    H5 4976   0.303   3.000  12.530  0.1090  0.1719 -1.1032
  331MPD2    N1 4977   0.090   3.398  12.644  0.0785 -0.3681  0.3306
  331MPD2    H7 4978   0.188   3.421  12.631  0.1455 -0.1647  1.1711
  332TMC3    C1 4979   0.350   2.755  12.539  0.3426  0.0760  0.0757
  332TMC3    C2 4980   0.402   2.815  12.423  0.5440 -0.2138  0.1769
  332TMC3    C3 4981   0.533   2.778  12.407  0.0820  0.7889  0.1948
  332TMC3    C4 4982   0.414   2.662  12.616 -0.2617  0.2756  0.0447
  332TMC3    C5 4983   0.541   2.630  12.586 -0.2509  0.2198  0.1478
  332TMC3    C6 4984   0.609   2.687  12.482 -0.0913 -0.2141  0.5525
  332TMC3     C 4985   0.231   2.812  12.601 -0.4905  0.3783  0.2063
  332TMC3     O 4986   0.171   2.745  12.684  0.0421  0.1497 -0.2789
  332TMC3     H 4987   0.355   2.898  12.370  0.2013 -0.2023  0.5043
  332TMC3    H1 4988   0.366   2.625  12.706 -1.4060 -2.0701 -1.5160
  332TMC3    H2 4989   0.711   2.658  12.456 -0.5192 -2.0891  0.9761
  332TMC3    C7 4990   0.606   2.517  12.647 -0.3188  0.3072 -0.8845
  332TMC3    C8 4991   0.611   2.857  12.314  0.0042  0.4258  0.0573
  332TMC3    O1 4992   0.535   2.434  12.697 -0.6489 -0.5633  0.0738
  332TMC3    O2 4993   0.727   2.873  12.340 -0.2738 -0.5889 -0.9298
  333MPD2     C 4994   1.187   3.446  11.518 -0.0097 -0.1750  0.1809
  333MPD2    C1 4995   1.188   3.371  11.402  0.6872 -0.5674 -0.3370
  333MPD2    C2 4996   1.091   3.281  11.386 -0.5407  0.6262 -0.5049
  333MPD2    C3 4997   0.980   3.271  11.463  0.1905  0.0948  0.4584
  333MPD2    C4 4998   0.979   3.347  11.582 -0.2269  0.1415 -0.3783
  333MPD2    C5 4999   1.083   3.434  11.611 -0.6636  0.3403  0.0895
  333MPD2     H 5000   1.097   3.206  11.308 -3.0163  0.0696 -0.1553
  333MPD2    H1 5001   0.902   3.331  11.656 -0.6405  2.0894 -0.3919
  333MPD2    H2 5002   1.267   3.511  11.551  0.8407 -2.5983  2.8510
  333MPD2    H3 5003   1.086   3.483  11.708  1.0168 -2.2016  1.3192
  333MPD2     N 5004   0.888   3.178  11.427  0.0852  0.3440  0.1740
  333MPD2    H5 5005   0.901   3.122  11.344 -0.4628 -0.6619  0.7670
  333MPD2    N1 5006   1.291   3.390  11.309 -0.0458  0.0379  0.2722
  333MPD2    H7 5007   1.366   3.449  11.345  2.0315 -1.3499 -1.8499
  334TMC3    C1 5008   1.389   3.387  11.098 -0.6201 -0.0994 -0.2617
  334TMC3    C2 5009   1.517   3.340  11.127 -0.4345 -0.3574 -0.6428
  334TMC3    C3 5010   1.614   3.369  11.038 -0.3914 -1.1473 -0.0906
  334TMC3    C4 5011   1.368   3.446  10.979  0.1629  1.0391 -0.2769
  334TMC3    C5 5012   1.461   3.469  10.892  0.7550  0.5283  0.0150
  334TMC3    C6 5013   1.590   3.431  10.921 -0.2064 -0.1565  0.4043
  334TMC3     C 5014   1.274   3.352  11.175 -0.1982  0.5139 -0.4826
  334TMC3     O 5015   1.181   3.300  11.118 -0.4161  0.2579 -0.4461
  334TMC3     H 5016   1.549   3.303  11.223  3.1463  2.9729 -0.5373
  334TMC3    H1 5017   1.275   3.484  10.938 -1.3409 -1.4354  0.8046
  334TMC3    H2 5018   1.662   3.453  10.843 -1.6835  1.8998 -0.3563
  334TMC3    C7 5019   1.446   3.582  10.808  0.1400  0.2373 -0.5417
  334TMC3    C8 5020   1.749   3.357  11.086 -0.7659 -0.4685  1.2550
  334TMC3    O1 5021   1.359   3.666  10.835  0.7595  0.3063  0.3620
  334TMC3    O2 5022   1.770   3.308  11.193  0.2077  0.5801  0.2665
  335TMC3    C1 5023   0.289   0.543  17.502  0.1385  0.3048 -0.2032
  335TMC3    C2 5024   0.227   0.489  17.390 -0.4270 -0.2591 -0.7888
  335TMC3    C3 5025   0.293   0.386  17.325 -0.7894  0.6482 -0.0352
  335TMC3    C4 5026   0.417   0.507  17.537  0.6667 -0.4359  0.4253
  335TMC3    C5 5027   0.476   0.401  17.466  0.0018  0.0098  0.3882
  335TMC3    C6 5028   0.411   0.326  17.366  0.2220  0.8716 -1.0268
  335TMC3     C 5029   0.195   0.600  17.600 -0.2382  0.2339  0.0990
  335TMC3     O 5030   0.105   0.664  17.549  0.2866  0.1627  0.0847
  335TMC3     H 5031   0.128   0.515  17.355  0.5904  0.9480 -2.7294
  335TMC3    H1 5032   0.475   0.551  17.619  0.4451  0.4620  0.0997
  335TMC3    H2 5033   0.454   0.238  17.318 -0.5644 -0.7656  1.2959
  335TMC3    C7 5034   0.614   0.366  17.489 -1.3573  0.0824 -0.6814
  335TMC3    C8 5035   0.221   0.325  17.221  0.6751  0.2713 -0.9613
  335TMC3    O1 5036   0.656   0.267  17.437 -0.2175  0.0372  0.2902
  335TMC3    O2 5037   0.138   0.394  17.165 -0.2269  0.1771 -0.0200
  336MPD2     C 5038   4.579   2.819  16.187  0.0257  0.3051 -0.5831
  336MPD2    C1 5039   4.683   2.751  16.118 -0.7443  0.1087 -0.1824
  336MPD2    C2 5040   0.026   2.642  16.176  1.0151  0.3794  0.0178
  336MPD2    C3 5041   4.715   2.597  16.299 -0.0372 -0.4191 -0.7719
  336MPD2    C4 5042   4.610   2.658  16.365 -0.8189  0.5421 -0.0608
  336MPD2    C5 5043   4.539   2.762  16.305 -0.1470  0.9912  0.3381
  336MPD2     H 5044   0.092   2.591  16.107  0.4044  1.3635 -1.3073
  336MPD2    H1 5045   4.578   2.635  16.466 -0.2553  3.5905  0.8214
  336MPD2    H2 5046   4.519   2.903  16.153 -0.5699  1.2436  2.7736
  336MPD2    H3 5047   4.469   2.815  16.369  0.7829  2.3054  0.2759
  336MPD2     N 5048   0.045   2.483  16.363 -0.0028 -0.2676  0.8126
  336MPD2    H5 5049   4.718   2.443  16.442 -0.3449  0.1470  0.7990
  336MPD2    N1 5050   4.711   2.786  15.980 -0.1698  0.3652  0.2132
  336MPD2    H7 5051   0.062   2.735  15.934 -1.6984 -1.4158 -0.2939
  337TMC3    C1 5052   4.678   2.863  15.759 -0.0846 -0.1645  0.2508
  337TMC3    C2 5053   4.574   2.867  15.671  0.3022 -0.1127 -0.5640
  337TMC3    C3 5054   4.581   2.953  15.561 -0.0754 -0.2301  0.4967
  337TMC3    C4 5055   0.070   2.931  15.730  0.0734  0.3153  0.0996
  337TMC3    C5 5056   0.076   3.019  15.623  0.7126 -0.2736 -0.1483
  337TMC3    C6 5057   4.689   3.035  15.539 -0.1403 -0.1061  0.3954
  337TMC3     C 5058   4.628   2.858  15.895  0.5069  0.1363 -0.5104
  337TMC3     O 5059   4.512   2.902  15.906  0.1648  0.0851 -0.8357
  337TMC3     H 5060   4.486   2.810  15.697 -0.9703  1.6981 -0.8470
  337TMC3    H1 5061   0.139   2.946  15.812  1.5517 -2.3221 -0.6430
  337TMC3    H2 5062   4.692   3.112  15.462 -0.0892 -0.3908  0.1100
  337TMC3    C7 5063   0.195   3.104  15.603 -0.7922 -0.0710 -0.5133
  337TMC3    C8 5064   4.451   3.008  15.530  0.0567  0.8781  0.3079
  337TMC3    O1 5065   0.185   3.202  15.528  0.2381 -0.2413  0.2882
  337TMC3    O2 5066   4.449   3.130  15.535  0.1787  0.3201 -0.0423
  338MPD2     C 5067   0.121   1.959   0.864  0.1145 -0.5262  0.1600
  338MPD2    C1 5068   0.077   2.004   0.745 -0.1663 -0.9691 -0.0112
  338MPD2    C2 5069   4.690   2.088   0.746 -1.2461 -0.1649  0.3061
  338MPD2    C3 5070   4.620   2.104   0.864  0.0863  0.3172  0.3669
  338MPD2    C4 5071   4.663   2.055   0.981  0.0364 -0.7713  0.0514
  338MPD2    C5 5072   0.057   1.991   0.983 -0.0348  0.0314  0.1312
  338MPD2     H 5073   4.659   2.136   0.653  1.7828 -0.7929 -1.0156
  338MPD2    H1 5074   4.618   2.082   1.076  0.9755  0.1534  0.2365
  338MPD2    H2 5075   0.208   1.897   0.883  0.1682 -1.1219 -2.0602
  338MPD2    H3 5076   0.095   1.969   1.082 -0.8099  2.6150  0.9971
  338MPD2     N 5077   4.495   2.183   0.861  0.4296  0.2581  0.0816
  338MPD2    H5 5078   4.454   2.201   0.771 -1.5514 -0.4901  0.8335
  338MPD2    N1 5079   0.133   1.971   0.620 -0.6179  0.2288 -0.1296
  338MPD2    H7 5080   0.105   2.021   0.537 -0.2280 -3.1721 -2.2998
  339TMC3    C1 5081   4.328   2.334   0.936  0.3924 -0.0884 -0.7914
  339TMC3    C2 5082   4.228   2.355   1.024  0.7497 -0.3058 -0.0346
  339TMC3    C3 5083   4.136   2.452   0.997 -0.3091  0.9064 -0.6302
  339TMC3    C4 5084   4.353   2.411   0.826 -0.3201 -0.1660  0.7073
  339TMC3    C5 5085   4.257   2.502   0.803 -0.1703 -0.7380  0.0289
  339TMC3    C6 5086   4.145   2.532   0.880 -0.2565  0.7731  0.5012
  339TMC3     C 5087   4.423   2.231   0.971 -0.3446  1.0091 -0.5640
  339TMC3     O 5088   4.442   2.210   1.091  0.5630 -0.1209  0.1705
  339TMC3     H 5089   4.217   2.283   1.104 -1.3515  0.5482  0.4464
  339TMC3    H1 5090   4.442   2.395   0.766 -0.3327 -0.8781  0.8854
  339TMC3    H2 5091   4.070   2.601   0.844  2.7305  2.9670 -1.5158
  339TMC3    C7 5092   4.253   2.559   0.669 -0.4022 -0.1676 -0.2817
  339TMC3    C8 5093   3.999   2.454   1.048 -0.5483 -0.9203 -0.3115
  339TMC3    O1 5094   4.193   2.662   0.657 -0.0274  0.0768  0.0317
  339TMC3    O2 5095   3.923   2.540   0.999 -0.2677  0.8795  0.1716
  340MPD2     C 5096   0.557   0.050   9.912 -0.2529 -0.1238 -0.1756
  340MPD2    C1 5097   0.646   0.120   9.829 -0.1725  0.1544 -0.6828
  340MPD2    C2 5098   0.705   0.235   9.874  0.1938 -0.0140  0.1605
  340MPD2    C3 5099   0.694   0.265  10.007 -0.4958  0.2250 -0.2767
  340MPD2    C4 5100   0.606   0.192  10.092 -0.3477 -1.3067 -0.1629
  340MPD2    C5 5101   0.528   0.094  10.041 -0.5497 -0.0682  0.2516
  340MPD2     H 5102   0.786   0.282   9.820  0.9459 -0.7004  0.7042
  340MPD2    H1 5103   0.605   0.207  10.199  3.1315  1.2694 -0.4974
  340MPD2    H2 5104   0.505   4.688   9.871  0.0392 -1.5203  2.3842
  340MPD2    H3 5105   0.447   0.055  10.102  0.4205 -1.9884  0.3066
  340MPD2     N 5106   0.769   0.370  10.074 -0.3832  0.3770  0.8039
  340MPD2    H5 5107   0.744   0.396  10.169  1.1394  3.2657  0.4255
  340MPD2    N1 5108   0.688   0.054   9.707  0.8792 -0.4063  0.8630
  340MPD2    H7 5109   0.643   4.690   9.681  0.6621 -0.7532  2.4164
  341TMC3    C1 5110   0.780   0.021   9.495  0.3502  0.6765 -0.3153
  341TMC3    C2 5111   0.676   4.661   9.459  0.5486  0.0406  0.1620
  341TMC3    C3 5112   0.691   4.582   9.348  0.2584  0.1790 -0.5332
  341TMC3    C4 5113   0.893   0.023   9.420  0.5268  1.0448 -0.8495
  341TMC3    C5 5114   0.902   4.671   9.313 -0.1523  0.5173  0.2240
  341TMC3    C6 5115   0.802   4.589   9.270  1.2196 -0.6975  0.0078
  341TMC3     C 5116   0.782   0.105   9.616 -0.0651 -0.0704  0.0906
  341TMC3     O 5117   0.845   0.208   9.616 -0.0992 -0.4642 -0.0467
  341TMC3     H 5118   0.588   4.652   9.521  1.5692  0.7245  1.6927
  341TMC3    H1 5119   0.976   0.078   9.461 -1.9732  2.9467  1.6632
  341TMC3    H2 5120   0.819   4.521   9.187  0.3431 -0.0893 -0.6766
  341TMC3    C7 5121   1.024   4.695   9.246  0.6655  0.1267 -0.2999
  341TMC3    C8 5122   0.610   4.461   9.342  0.0451 -0.6547  0.5530
  341TMC3    O1 5123   1.106   0.045   9.300  0.1588  0.3541  0.0355
  341TMC3    O2 5124   0.542   4.428   9.438 -0.3227  0.1777  0.0532
  342MPD2     C 5125   2.702   3.044  17.685 -0.5311  0.0215  0.0211
  342MPD2    C1 5126   2.801   3.058  17.594  0.0339 -0.3420 -0.6119
  342MPD2    C2 5127   2.849   3.191  17.575 -0.2474 -0.1713 -0.4310
  342MPD2    C3 5128   2.799   3.301  17.645 -0.3803  0.6642 -0.3354
  342MPD2    C4 5129   2.692   3.280   0.031 -0.4420  0.0598  0.2856
  342MPD2    C5 5130   2.644   3.155   0.049 -0.5610  0.4010 -1.0809
  342MPD2     H 5131   2.930   3.197  17.503 -0.5095 -0.0158 -0.7089
  342MPD2    H1 5132   2.655   3.361   0.094 -1.5418 -1.2295  1.2985
  342MPD2    H2 5133   2.664   2.950   0.027  1.0677  0.3174  2.3608
  342MPD2    H3 5134   2.573   3.141   0.130  0.9448  0.0725  0.1898
  342MPD2     N 5135   2.866   3.427  17.650  0.0373 -0.1206  0.3120
  342MPD2    H5 5136   2.823   3.498   0.012 -0.6585  0.9453 -1.4960
  342MPD2    N1 5137   2.855   2.949  17.522 -0.0671  0.6591 -0.1742
  342MPD2    H7 5138   2.934   2.974  17.463  1.6243 -0.2757  1.7032
  343TMC3    C1 5139   2.900   2.725  17.462  0.5837 -0.0964 -0.4176
  343TMC3    C2 5140   3.031   2.754  17.454 -0.0439  0.2579 -0.4178
  343TMC3    C3 5141   3.106   2.643  17.413 -0.2024  0.3755  0.6486
  343TMC3    C4 5142   2.853   2.599  17.448  0.8491  0.3843  0.1994
  343TMC3    C5 5143   2.927   2.504  17.386 -0.5599 -0.0883 -0.0112
  343TMC3    C6 5144   3.059   2.518  17.370 -1.1692  0.0415 -0.8620
  343TMC3     C 5145   2.810   2.818  17.524 -0.0761  0.3268  0.4871
  343TMC3     O 5146   2.717   2.776  17.587 -0.0782  0.1078 -0.1369
  343TMC3     H 5147   3.080   2.847  17.481 -1.5824  0.8822  0.2651
  343TMC3    H1 5148   2.751   2.580  17.479  0.7347  2.7417  1.2994
  343TMC3    H2 5149   3.124   2.432  17.358 -0.9191 -0.5217  4.2982
  343TMC3    C7 5150   2.887   2.370  17.414  0.4079  0.4720  0.0111
  343TMC3    C8 5151   3.250   2.666  17.413 -0.0145 -0.2126 -0.2462
  343TMC3    O1 5152   2.895   2.280  17.329  0.3450 -0.1236  0.2462
  343TMC3    O2 5153   3.281   2.760  17.479  0.2875 -0.8180  0.2029
  344MPD2     C 5154   4.395   2.699  10.661 -0.0420 -0.0896  0.3101
  344MPD2    C1 5155   4.477   2.632  10.572 -0.0443 -0.5965  0.3837
  344MPD2    C2 5156   4.528   2.707  10.466 -0.0694  1.1843 -0.1740
  344MPD2    C3 5157   4.511   2.842  10.454 -0.7639  0.1671  0.0103
  344MPD2    C4 5158   4.423   2.906  10.541 -0.2905  0.1556 -0.2932
  344MPD2    C5 5159   4.369   2.834  10.646  0.4509  0.2785  0.0216
  344MPD2     H 5160   4.603   2.660  10.403  1.7187  1.1795  1.9327
  344MPD2    H1 5161   4.405   3.012  10.529 -0.3408 -0.3816 -5.2759
  344MPD2    H2 5162   4.363   2.654  10.754 -0.5842 -1.1294 -0.3901
  344MPD2    H3 5163   4.296   2.884  10.710 -2.8215 -1.0187 -2.7015
  344MPD2     N 5164   4.566   2.913  10.347  0.4208  0.1433  0.5558
  344MPD2    H5 5165   4.599   2.860  10.267 -2.1424 -0.7055  0.0576
  344MPD2    N1 5166   4.515   2.493  10.581 -0.0323  0.0579  0.1444
  344MPD2    H7 5167   4.561   2.447  10.503 -1.4766  0.3742 -0.8903
  345TMC3    C1 5168   4.614   3.098  10.216 -0.0704 -0.0749  0.3913
  345TMC3    C2 5169   4.698   3.205  10.215  0.2990  0.2590 -0.1072
  345TMC3    C3 5170   0.025   3.239  10.091 -0.8768  0.5032  0.8416
  345TMC3    C4 5171   4.568   3.036  10.101  0.1667 -0.3987  0.7612
  345TMC3    C5 5172   4.607   3.088   9.985 -1.3613 -0.3657 -0.3050
  345TMC3    C6 5173   4.702   3.183   9.974 -1.2174  0.1524 -0.4626
  345TMC3     C 5174   4.591   3.047  10.348 -0.4307  1.1589 -0.2110
  345TMC3     O 5175   4.564   3.126  10.434  0.1406  0.5987  0.5153
  345TMC3     H 5176   0.004   3.264  10.301 -1.1443  0.2989  0.3642
  345TMC3    H1 5177   4.512   2.944  10.110  2.3347 -1.9035 -1.2054
  345TMC3    H2 5178   0.004   3.228   9.879 -1.4550 -0.3698 -0.7725
  345TMC3    C7 5179   4.496   3.137   9.900  0.3562 -0.1323  0.0643
  345TMC3    C8 5180   0.085   3.371  10.086 -0.4942  0.9318  0.5724
  345TMC3    O1 5181   4.529   3.202   9.806 -0.0620  0.3097  0.4658
  345TMC3    O2 5182   0.067   3.449  10.178 -0.2324 -0.0197 -0.1414
  346MPD2     C 5183   3.726   3.988  14.177 -0.2201  0.4031 -0.4189
  346MPD2    C1 5184   3.862   3.993  14.145 -0.3220  0.5720 -0.1295
  346MPD2    C2 5185   3.948   4.046  14.235 -0.5353 -0.2920  0.3473
  346MPD2    C3 5186   3.897   4.096  14.353  0.8709  1.3086  0.2041
  346MPD2    C4 5187   3.763   4.089  14.385  0.4106  0.2319  0.0857
  346MPD2    C5 5188   3.677   4.026  14.299 -0.4387  0.3512  0.0542
  346MPD2     H 5189   4.056   4.038  14.224 -0.5416 -0.5940  0.4863
  346MPD2    H1 5190   3.721   4.137  14.472  1.5691 -1.3594  1.5284
  346MPD2    H2 5191   3.659   3.939  14.107  1.2465 -0.7415 -0.9953
  346MPD2    H3 5192   3.571   4.011  14.319 -0.3226  1.2901  1.4164
  346MPD2     N 5193   3.992   4.167  14.438 -0.4440 -0.1258  0.3992
  346MPD2    H5 5194   4.081   4.185  14.393 -0.6357  0.3901  0.2231
  346MPD2    N1 5195   3.913   3.960  14.016 -0.8834  0.4261  0.5968
  346MPD2    H7 5196   4.014   3.967  14.012 -1.0863  2.0582 -1.7190
  347TMC3    C1 5197   4.089   4.265  14.625 -0.3322 -0.3149  0.0056
  347TMC3    C2 5198   4.207   4.240  14.561 -0.1297  0.7486  0.1160
  347TMC3    C3 5199   4.315   4.277  14.635  0.3937 -0.0557 -0.1954
  347TMC3    C4 5200   4.079   4.338  14.745  0.2737 -0.0814  0.0545
  347TMC3    C5 5201   4.189   4.367  14.814 -0.0154  0.0634 -0.6652
  347TMC3    C6 5202   4.312   4.344  14.755 -0.5850  0.1644  0.3942
  347TMC3     C 5203   3.971   4.213  14.563  0.6290  0.1261  0.2580
  347TMC3     O 5204   3.868   4.198  14.626  0.3596  0.6039  1.0663
  347TMC3     H 5205   4.213   4.171  14.477  1.9060 -0.4081  1.2289
  347TMC3    H1 5206   3.982   4.356  14.791  0.9111  0.9224  0.9916
  347TMC3    H2 5207   4.407   4.351  14.807 -0.3869  0.4624 -0.0095
  347TMC3    C7 5208   4.179   4.380  14.959  1.4412 -0.4348 -0.3749
  347TMC3    C8 5209   4.446   4.219  14.597  0.3223 -0.3500 -0.1543
  347TMC3    O1 5210   4.072   4.359  15.010  0.3847 -0.2313  0.2079
  347TMC3    O2 5211   4.528   4.225  14.686  0.3502  0.0311  0.1702
  348MPD2     C 5212   3.200   3.864  11.894  0.7632  0.5222  0.0771
  348MPD2    C1 5213   3.331   3.891  11.908  0.3539  0.3252 -0.0934
  348MPD2    C2 5214   3.385   3.958  11.800  0.1016  0.5519  0.5506
  348MPD2    C3 5215   3.318   3.986  11.686 -0.5177  0.2257  0.0670
  348MPD2    C4 5216   3.181   3.972  11.688  1.0529 -0.0128 -0.3547
  348MPD2    C5 5217   3.120   3.912  11.791  0.5539 -0.5420  0.5738
  348MPD2     H 5218   3.491   3.983  11.800  0.4021 -0.7566  3.4299
  348MPD2    H1 5219   3.112   4.005  11.611  0.1615  2.0388  1.2980
  348MPD2    H2 5220   3.144   3.802  11.962  0.1078 -0.4860 -1.3678
  348MPD2    H3 5221   3.014   3.889  11.788  0.1583  1.0648  2.0242
  348MPD2     N 5222   3.383   4.057  11.579 -0.8127  0.0933 -0.0357
  348MPD2    H5 5223   3.480   4.085  11.583  0.2132 -3.3433 -0.5225
  348MPD2    N1 5224   3.411   3.844  12.014 -0.4285  0.5327 -0.2641
  348MPD2    H7 5225   3.503   3.887  12.019  0.5025 -1.6587  1.7732
  349TMC3    C1 5226   3.484   3.693  12.190 -0.3377  0.4537 -0.0256
  349TMC3    C2 5227   3.462   3.562  12.235  0.1842 -0.3674  0.3131
  349TMC3    C3 5228   3.574   3.485  12.251 -1.1627 -0.8882 -0.1774
  349TMC3    C4 5229   3.612   3.737  12.154  0.1615  0.1391 -0.0020
  349TMC3    C5 5230   3.726   3.668  12.192  0.1294  0.6336 -0.1319
  349TMC3    C6 5231   3.704   3.538  12.241 -0.4996  0.1539  0.8096
  349TMC3     C 5232   3.372   3.746  12.105 -0.1110 -0.5956 -0.2253
  349TMC3     O 5233   3.258   3.710  12.122 -0.0548  0.4786 -0.0682
  349TMC3     H 5234   3.360   3.532  12.256 -1.0526  3.1508 -0.6484
  349TMC3    H1 5235   3.627   3.838  12.116 -0.6038  0.4949  0.6478
  349TMC3    H2 5236   3.781   3.464  12.263  0.6954  1.3954  0.7988
  349TMC3    C7 5237   3.819   3.666  12.079 -1.6595 -0.2892  0.2900
  349TMC3    C8 5238   3.549   3.352  12.274  0.3110  1.0592  0.1612
  349TMC3    O1 5239   3.825   3.561  12.017  0.3976 -0.0304  0.4773
  349TMC3    O2 5240   3.437   3.317  12.317 -0.2681  0.5632 -0.5385
  350MPD2     C 5241   2.385   2.008   9.984 -0.2614  0.0693  0.6592
  350MPD2    C1 5242   2.434   1.918  10.073 -0.0176 -0.2506  0.4960
  350MPD2    C2 5243   2.542   1.959  10.146 -0.6760 -0.5644 -0.0265
  350MPD2    C3 5244   2.612   2.078  10.128  0.2798 -0.5892 -0.2292
  350MPD2    C4 5245   2.557   2.172  10.045 -0.3077  0.0252  0.1386
  350MPD2    C5 5246   2.448   2.127   9.972  0.1076 -0.5833 -0.5534
  350MPD2     H 5247   2.569   1.897  10.232 -0.2525 -2.0654 -1.2390
  350MPD2    H1 5248   2.588   2.273  10.022 -0.4790  0.3205  1.2119
  350MPD2    H2 5249   2.301   1.989   9.919  2.6723 -1.1303 -2.7539
  350MPD2    H3 5250   2.398   2.192   9.902 -0.5295 -0.1131  0.3346
  350MPD2     N 5251   2.732   2.097  10.207  0.6983  0.7720 -0.0224
  350MPD2    H5 5252   2.755   2.020  10.269 -2.3307  1.2437  1.7004
  350MPD2    N1 5253   2.393   1.789  10.092  0.0649 -0.3510 -0.4514
  350MPD2    H7 5254   2.445   1.731  10.157 -0.0419  0.0788  0.0191
  351TMC3    C1 5255   2.273   1.587  10.062  0.0045 -0.3427  0.4891
  351TMC3    C2 5256   2.389   1.509  10.062 -0.4391  0.4872  0.7808
  351TMC3    C3 5257   2.378   1.371  10.055  0.0633 -0.4922 -0.2569
  351TMC3    C4 5258   2.151   1.525  10.052 -0.1458 -0.2177  0.2270
  351TMC3    C5 5259   2.148   1.385  10.057 -0.8510 -0.4613  0.0443
  351TMC3    C6 5260   2.263   1.307  10.057  0.0146  0.7038  0.0395
  351TMC3     C 5261   2.290   1.727  10.034 -0.1787  0.1613  0.0137
  351TMC3     O 5262   2.203   1.773   9.966  0.4566 -0.2544  0.6537
  351TMC3     H 5263   2.488   1.554  10.060 -1.1380  1.9070 -1.1586
  351TMC3    H1 5264   2.065   1.590  10.057  1.3692  1.7923  0.0529
  351TMC3    H2 5265   2.267   1.199  10.054 -0.2408  0.7221 -0.8169
  351TMC3    C7 5266   2.044   1.327  10.136 -0.3427 -1.1569  0.7189
  351TMC3    C8 5267   2.490   1.310   9.988  0.3467 -0.4006  0.3287
  351TMC3    O1 5268   1.958   1.402  10.172 -0.0508 -0.0209  0.5728
  351TMC3    O2 5269   2.599   1.365  10.005  0.5000  0.4633  0.2490
  352MPD2     C 5270   0.124   4.462   1.003 -0.4755  0.0438  0.1228
  352MPD2    C1 5271   0.017   4.387   1.040 -0.6720  0.5039 -0.7625
  352MPD2    C2 5272   0.046   4.254   1.090 -0.1422  0.0179 -1.0361
  352MPD2    C3 5273   0.176   4.201   1.108 -0.9196 -1.1487  0.1382
  352MPD2    C4 5274   0.276   4.282   1.065  0.0481  0.2501 -0.3019
  352MPD2    C5 5275   0.253   4.411   1.016  0.2443  0.4518  0.4380
  352MPD2     H 5276   4.686   4.193   1.121 -0.4650  1.0501  0.1750
  352MPD2    H1 5277   0.379   4.255   1.081  0.3491  2.1655  0.9645
  352MPD2    H2 5278   0.115   4.563   0.965 -0.7580  0.0626  0.2445
  352MPD2    H3 5279   0.327   4.483   0.982 -0.4262 -0.5435 -3.1808
  352MPD2     N 5280   0.214   4.073   1.155 -0.4264  0.1346  0.1169
  352MPD2    H5 5281   0.314   4.054   1.161 -0.8964 -2.5534 -0.5683
  352MPD2    N1 5282   4.609   4.434   1.015  0.3197 -0.4339 -0.3460
  352MPD2    H7 5283   4.596   4.513   0.953  2.0206 -0.2990 -0.5416
  353TMC3    C1 5284   0.179   3.846   1.248  0.0971 -0.1980 -0.0361
  353TMC3    C2 5285   0.305   3.813   1.209 -0.0587  0.0186 -0.1648
  353TMC3    C3 5286   0.332   3.680   1.201 -0.3475 -0.0871 -0.6313
  353TMC3    C4 5287   0.082   3.756   1.279 -0.1837 -0.1508 -0.2838
  353TMC3    C5 5288   0.112   3.624   1.258  0.2722 -0.5112 -0.6435
  353TMC3    C6 5289   0.239   3.581   1.222 -0.2834  0.1816 -0.4909
  353TMC3     C 5290   0.127   3.979   1.202 -0.2033  0.9679 -0.4989
  353TMC3     O 5291   0.007   3.979   1.198 -0.0635 -0.5505 -0.4753
  353TMC3     H 5292   0.383   3.885   1.187  0.2943  0.3661  2.2195
  353TMC3    H1 5293   4.702   3.781   1.297  0.0221 -1.3351  2.6435
  353TMC3    H2 5294   0.259   3.480   1.187 -0.5911 -0.3792  0.9764
  353TMC3    C7 5295   0.016   3.516   1.282 -0.1059 -0.1292  0.1139
  353TMC3    C8 5296   0.470   3.650   1.196  0.0019  0.8012  0.1789
  353TMC3    O1 5297   0.065   3.410   1.255  0.0188  0.4143 -0.2257
  353TMC3    O2 5298   0.545   3.744   1.183  0.6056  0.3476 -0.0046
  354TMC3    C1 5299   1.934   0.794  13.391 -0.2076  0.5232  0.1217
  354TMC3    C2 5300   1.957   0.915  13.443 -0.2756 -0.3644  0.3638
  354TMC3    C3 5301   1.966   1.020  13.351  0.1470 -0.3165 -0.1799
  354TMC3    C4 5302   1.904   0.773  13.259  0.9532  0.0929  0.4969
  354TMC3    C5 5303   1.901   0.884  13.169 -0.4443 -0.1481  0.2772
  354TMC3    C6 5304   1.932   1.008  13.218  0.3187  0.2994 -0.6663
  354TMC3     C 5305   1.935   0.674  13.476  0.3832  0.2520  0.2947
  354TMC3     O 5306   1.950   0.566  13.420 -0.1433  0.0172 -0.1054
  354TMC3     H 5307   1.992   0.924  13.545  0.3230 -1.0525  0.2201
  354TMC3    H1 5308   1.899   0.674  13.214  0.2930 -0.1302  1.0620
  354TMC3    H2 5309   1.936   1.090  13.147  1.4447 -0.5394 -1.5595
  354TMC3    C7 5310   1.970   0.857  13.048  0.1890 -0.3933 -0.5049
  354TMC3    C8 5311   2.084   1.104  13.362 -0.3710  0.0144  0.5622
  354TMC3    O1 5312   2.080   0.804  13.063  0.0750 -0.0325 -0.4981
  354TMC3    O2 5313   2.094   1.173  13.461 -0.5042 -0.6698  0.3483
  355MPD2     C 5314   2.290   1.186  11.661 -0.1880 -0.3098 -0.0154
  355MPD2    C1 5315   2.371   1.192  11.555 -0.0495  0.0767 -0.2616
  355MPD2    C2 5316   2.498   1.245  11.559 -0.2112  0.4114  0.1355
  355MPD2    C3 5317   2.538   1.310  11.673  0.5135 -0.3475 -0.2847
  355MPD2    C4 5318   2.450   1.303  11.789  0.6130 -0.1844  0.1472
  355MPD2    C5 5319   2.332   1.233  11.782 -0.5496  0.2471  0.4911
  355MPD2     H 5320   2.560   1.233  11.471 -0.4995 -0.7750  0.0951
  355MPD2    H1 5321   2.476   1.341  11.888  2.8705 -0.7873 -0.2171
  355MPD2    H2 5322   2.192   1.142  11.650 -1.0942  1.0994  2.5557
  355MPD2    H3 5323   2.269   1.220  11.869 -0.0048  0.2934  0.8872
  355MPD2     N 5324   2.657   1.388  11.682 -0.2796 -0.3007  0.7652
  355MPD2    H5 5325   2.683   1.438  11.766 -0.9051  2.3718 -0.6485
  355MPD2    N1 5326   2.327   1.133  11.433 -0.3154  0.0603 -0.6135
  355MPD2    H7 5327   2.263   1.055  11.440 -0.8466  0.4333 -1.2933
  356TMC3    C1 5328   2.839   1.516  11.598 -0.2725  0.6750  0.5577
  356TMC3    C2 5329   2.912   1.553  11.490  0.0802  0.4431 -0.0927
  356TMC3    C3 5330   2.987   1.669  11.493  0.7050 -0.6671 -0.2876
  356TMC3    C4 5331   2.840   1.588  11.713  0.0050  0.3397 -0.4301
  356TMC3    C5 5332   2.918   1.699  11.706 -0.9352 -0.7816  0.2934
  356TMC3    C6 5333   2.997   1.740  11.598 -0.1343 -0.4280  0.2498
  356TMC3     C 5334   2.744   1.413  11.573 -0.4175 -0.5459  0.7068
  356TMC3     O 5335   2.734   1.369  11.458 -0.4509  0.3109  0.2503
  356TMC3     H 5336   2.917   1.491  11.401  1.3051 -1.1872  1.1034
  356TMC3    H1 5337   2.782   1.557  11.799  1.1892  1.7653  0.8633
  356TMC3    H2 5338   3.073   1.816  11.603 -1.5244  0.9575  0.1528
  356TMC3    C7 5339   2.901   1.793  11.823  0.1244 -0.8449 -0.4939
  356TMC3    C8 5340   3.074   1.690  11.378 -0.2941  0.4440 -0.1496
  356TMC3    O1 5341   2.818   1.770  11.909  0.2788  0.1826 -0.3483
  356TMC3    O2 5342   3.052   1.640  11.271 -0.5387  0.0281  0.5601
  357MPD2     C 5343   0.679   1.516   0.862 -0.0373  0.0057 -0.0293
  357MPD2    C1 5344   0.719   1.386   0.886  0.9198  0.0429 -0.0641
  357MPD2    C2 5345   0.631   1.287   0.853 -0.3577  0.1995  0.1045
  357MPD2    C3 5346   0.508   1.309   0.798 -0.3126 -0.1572 -0.0460
  357MPD2    C4 5347   0.471   1.440   0.774  0.4556  0.0859 -0.0326
  357MPD2    C5 5348   0.555   1.543   0.811  0.2309  0.0771 -0.7544
  357MPD2     H 5349   0.667   1.190   0.885 -0.2455 -0.5385 -2.2492
  357MPD2    H1 5350   0.379   1.477   0.728 -1.3802  0.3330  3.8079
  357MPD2    H2 5351   0.750   1.595   0.884 -1.3874  1.1933  0.0430
  357MPD2    H3 5352   0.525   1.645   0.790 -2.4037 -0.9301 -1.9468
  357MPD2     N 5353   0.424   1.203   0.742 -0.0136 -0.0972  0.5116
  357MPD2    H5 5354   0.324   1.217   0.728 -0.1857 -0.3160  1.5172
  357MPD2    N1 5355   0.842   1.349   0.935  0.1028 -0.4113 -0.4199
  357MPD2    H7 5356   0.872   1.253   0.917 -1.0118 -0.8927  0.2775
  358TMC3    C1 5357   1.032   1.335   1.044 -0.6633  0.3963 -0.4495
  358TMC3    C2 5358   1.076   1.229   0.969  0.4849  0.1040 -0.4597
  358TMC3    C3 5359   1.177   1.156   1.022 -0.9583  0.1832  0.0973
  358TMC3    C4 5360   1.094   1.376   1.160  0.4182  0.3826 -0.2727
  358TMC3    C5 5361   1.198   1.302   1.205 -0.0374 -0.4793  0.2129
  358TMC3    C6 5362   1.246   1.191   1.132  0.0492 -0.9376 -0.7407
  358TMC3     C 5363   0.929   1.426   0.997  0.6666 -0.0079 -0.1284
  358TMC3     O 5364   0.921   1.537   1.050  0.5546 -0.7548 -0.0817
  358TMC3     H 5365   1.042   1.225   0.866  0.4810 -1.5735 -0.3977
  358TMC3    H1 5366   1.066   1.466   1.214  0.2505  0.2823 -0.1899
  358TMC3    H2 5367   1.305   1.116   1.184  0.9069  0.7513  0.7387
  358TMC3    C7 5368   1.262   1.346   1.326  0.3865  0.4913 -0.7701
  358TMC3    C8 5369   1.254   1.061   0.937 -0.3069 -0.4620  0.1323
  358TMC3    O1 5370   1.214   1.436   1.389 -0.1487 -0.4237  0.1430
  358TMC3    O2 5371   1.364   1.028   0.974 -0.1941  0.0259 -0.3344
  359MPD2     C 5372   2.674   0.437  12.043  0.4822  0.2176  0.8744
  359MPD2    C1 5373   2.678   0.311  12.102  0.0013 -0.0681  0.7628
  359MPD2    C2 5374   2.559   0.260  12.161  0.0247  0.0383 -0.1797
  359MPD2    C3 5375   2.438   0.333  12.154 -0.1927 -0.5830 -0.9475
  359MPD2    C4 5376   2.445   0.465  12.099  0.5771  0.0951 -0.0432
  359MPD2    C5 5377   2.558   0.514  12.056 -0.6254 -0.0098  0.2685
  359MPD2     H 5378   2.554   0.163  12.208  0.1537  1.3878  2.6138
  359MPD2    H1 5379   2.356   0.521  12.074 -0.4984 -1.7095 -0.2807
  359MPD2    H2 5380   2.761   0.487  12.001 -0.1834 -1.7862 -2.9474
  359MPD2    H3 5381   2.556   0.616  12.018 -1.1978 -0.3186 -0.5486
  359MPD2     N 5382   2.310   0.278  12.170 -0.7600  0.6831 -0.3296
  359MPD2    H5 5383   2.236   0.344  12.149 -0.5697  0.9575 -0.1376
  359MPD2    N1 5384   2.793   0.226  12.116 -0.3235 -0.1476 -0.0093
  359MPD2    H7 5385   2.783   0.132  12.153 -1.1529  0.4937  1.4266
  360TMC3    C1 5386   3.027   0.179  12.118  0.3186  0.1375 -0.4043
  360TMC3    C2 5387   3.148   0.244  12.107 -0.0704 -0.3860  0.5308
  360TMC3    C3 5388   3.246   0.182  12.023  0.9195 -0.2898 -0.3967
  360TMC3    C4 5389   3.007   0.051  12.066  0.4018 -0.5335 -0.3101
  360TMC3    C5 5390   3.116   4.711  12.012  0.7099 -0.1956 -0.2866
  360TMC3    C6 5391   3.231   0.050  11.987  0.0586 -0.4121 -0.6132
  360TMC3     C 5392   2.918   0.271  12.084 -0.3228 -0.8902 -0.5940
  360TMC3     O 5393   2.955   0.386  12.051 -0.0619 -0.2936  0.2675
  360TMC3     H 5394   3.168   0.344  12.141 -1.6942 -0.2530  1.0942
  360TMC3    H1 5395   2.916   4.717  12.082 -1.5087  2.5699  0.1243
  360TMC3    H2 5396   3.309   4.717  11.935  0.7296 -1.2436  1.2926
  360TMC3    C7 5397   3.088   4.592  11.935  0.1335  0.1287  0.1087
  360TMC3    C8 5398   3.353   0.274  11.973  0.0721 -0.0222 -0.3530
  360TMC3    O1 5399   2.989   4.522  11.969 -0.5405  0.1934 -0.6507
  360TMC3    O2 5400   3.349   0.386  12.020  0.1090 -0.6870 -0.1180
  361MPD2     C 5401   4.127   3.988  17.175  0.4480  0.4433 -0.9066
  361MPD2    C1 5402   4.093   3.909  17.066  0.5271  0.4385  0.3145
  361MPD2    C2 5403   4.177   3.797  17.040 -0.4509 -0.1990 -0.2512
  361MPD2    C3 5404   4.289   3.774  17.120  0.4123  0.6869  0.0008
  361MPD2    C4 5405   4.328   3.872  17.210  0.5381  0.0496 -0.4503
  361MPD2    C5 5406   4.252   3.981  17.240 -0.6394  0.3582  0.0048
  361MPD2     H 5407   4.159   3.726  16.959 -2.3042 -3.4975  3.0291
  361MPD2    H1 5408   4.416   3.859  17.272 -1.4510 -0.2552  2.3184
  361MPD2    H2 5409   4.053   4.062  17.203  2.7548  2.0486  1.0374
  361MPD2    H3 5410   4.280   4.060  17.309  0.0642  0.7368 -0.7205
  361MPD2     N 5411   4.375   3.663  17.111 -0.2560  0.5329 -0.2395
  361MPD2    H5 5412   4.450   3.651  17.178 -0.2143  0.6829 -0.2601
  361MPD2    N1 5413   3.974   3.913  16.980 -0.0631 -0.3569  0.5371
  361MPD2    H7 5414   3.955   3.840  16.913 -3.5829  2.0543 -1.0857
  362TMC3    C1 5415   3.753   3.948  16.921  0.3883 -0.5998 -0.4790
  362TMC3    C2 5416   3.628   3.994  16.950 -0.1815 -0.0903  0.5955
  362TMC3    C3 5417   3.523   3.956  16.872 -0.4948 -0.8703 -0.1758
  362TMC3    C4 5418   3.789   3.876  16.808 -0.9640  0.5081 -0.1555
  362TMC3    C5 5419   3.682   3.857  16.718 -0.5277 -0.1742  1.0775
  362TMC3    C6 5420   3.552   3.895  16.749 -1.0116 -0.8123 -0.6056
  362TMC3     C 5421   3.860   3.993  17.003  0.4449 -0.0703 -0.5629
  362TMC3     O 5422   3.853   4.087  17.086 -0.6054 -0.1116 -0.3006
  362TMC3     H 5423   3.607   4.043  17.044 -1.4732  1.1436 -0.3464
  362TMC3    H1 5424   3.888   3.851  16.772 -1.9764  0.1246 -2.7123
  362TMC3    H2 5425   3.471   3.867  16.683 -2.6521  0.6563  0.7811
  362TMC3    C7 5426   3.711   3.879  16.575 -0.4109  0.2981  0.1877
  362TMC3    C8 5427   3.419   4.063  16.854 -0.2539 -0.0756 -0.3296
  362TMC3    O1 5428   3.620   3.916  16.502  0.3927 -0.0512 -0.0289
  362TMC3    O2 5429   3.395   4.100  16.738 -0.4344 -0.0980 -0.3591
  363TMC3    C1 5430   3.441   1.747   9.740 -0.6699  0.4964  0.2856
  363TMC3    C2 5431   3.458   1.642   9.825  0.1162  0.2148 -0.4380
  363TMC3    C3 5432   3.352   1.581   9.877 -0.4279  0.9963  0.1744
  363TMC3    C4 5433   3.311   1.787   9.703  0.0778 -0.7976 -0.1281
  363TMC3    C5 5434   3.206   1.721   9.761 -0.1773  1.0442 -0.0325
  363TMC3    C6 5435   3.223   1.619   9.848 -0.0467  1.1813  0.0354
  363TMC3     C 5436   3.555   1.824   9.692  0.1967  0.0747  0.2967
  363TMC3     O 5437   3.527   1.928   9.634  0.1663 -0.1448  0.6371
  363TMC3     H 5438   3.557   1.604   9.843  1.1492  2.5412 -1.2470
  363TMC3    H1 5439   3.300   1.867   9.630  0.8695  0.9472  1.6729
  363TMC3    H2 5440   3.140   1.582   9.907  1.0871 -1.5782 -0.1244
  363TMC3    C7 5441   3.074   1.722   9.696  0.4329  0.5537 -0.9897
  363TMC3    C8 5442   3.369   1.454   9.963  0.0289 -0.5963  0.1267
  363TMC3    O1 5443   3.012   1.621   9.696  0.0980 -0.2787  0.6391
  363TMC3    O2 5444   3.288   1.444  10.050 -0.0760  0.6356 -0.1333
  364MPD2     C 5445   1.637   0.553  10.661 -0.9318 -0.8759  0.3966
  364MPD2    C1 5446   1.773   0.567  10.639 -0.0915  0.4019  0.5615
  364MPD2    C2 5447   1.855   0.455  10.661  0.2070 -0.0858  0.2160
  364MPD2    C3 5448   1.805   0.335  10.701 -0.4302  0.2458 -0.0991
  364MPD2    C4 5449   1.668   0.331  10.736  0.1479  0.5538  0.4784
  364MPD2    C5 5450   1.588   0.442  10.720 -0.5546  0.7890  0.8726
  364MPD2     H 5451   1.962   0.469  10.654  0.6229 -2.5563  1.5654
  364MPD2    H1 5452   1.619   0.245  10.779 -0.1741  0.3177 -0.3500
  364MPD2    H2 5453   1.568   0.635  10.644 -0.8543 -0.6516  1.1509
  364MPD2    H3 5454   1.481   0.435  10.737 -0.7153  1.7018  0.2416
  364MPD2     N 5455   1.885   0.221  10.720 -0.3033  0.1909  0.1764
  364MPD2    H5 5456   1.853   0.139  10.770 -1.3589 -0.0979 -0.9691
  364MPD2    N1 5457   1.829   0.687  10.596 -0.2143  0.3133  0.1431
  364MPD2    H7 5458   1.765   0.762  10.569 -1.8841 -1.1753 -0.0683
  365TMC3    C1 5459   1.980   0.860  10.538  0.1802 -0.5229 -0.0138
  365TMC3    C2 5460   2.096   0.882  10.467 -0.0064 -0.0031 -0.2844
  365TMC3    C3 5461   2.126   1.013  10.438 -0.6667 -0.5445 -0.0208
  365TMC3    C4 5462   1.909   0.959  10.598  0.4698  0.0629 -0.0808
  365TMC3    C5 5463   1.955   1.086  10.577 -0.6007  0.1446  0.0369
  365TMC3    C6 5464   2.054   1.117  10.489 -0.6289  0.3954  0.1316
  365TMC3     C 5465   1.960   0.719  10.572 -0.3768  0.1260  1.0832
  365TMC3     O 5466   2.063   0.655  10.572  0.1248 -0.0520  0.2098
  365TMC3     H 5467   2.155   0.797  10.436 -2.1559 -1.3867 -0.5868
  365TMC3    H1 5468   1.823   0.935  10.660  1.6516  0.0768  1.5651
  365TMC3    H2 5469   2.095   1.215  10.468  0.9613 -0.1179  0.8444
  365TMC3    C7 5470   1.916   1.198  10.663  0.4639 -0.4718  0.7006
  365TMC3    C8 5471   2.243   1.037  10.356  0.1803  0.1244 -1.3816
  365TMC3    O1 5472   1.934   1.305  10.605  0.3787 -0.4870 -0.2592
  365TMC3    O2 5473   2.292   1.148  10.352 -0.4782  0.4414 -0.6878
  366MPD2     C 5474   0.092   1.509  15.731  0.0944 -0.2712 -0.4148
  366MPD2    C1 5475   0.101   1.637  15.672  1.0676 -0.1066 -0.0614
  366MPD2    C2 5476   0.211   1.667  15.597  0.5195 -0.0500  0.6092
  366MPD2    C3 5477   0.331   1.588  15.593  0.5816  0.0706  0.1226
  366MPD2    C4 5478   0.324   1.466  15.660  0.4596  0.7732  0.4528
  366MPD2    C5 5479   0.204   1.431  15.721  0.1477  0.1415 -0.7595
  366MPD2     H 5480   0.215   1.763  15.546  0.5561  0.2433  1.1617
  366MPD2    H1 5481   0.400   1.390  15.648 -0.3009  0.1508 -0.4080
  366MPD2    H2 5482   0.012   1.478  15.797 -0.8037 -0.0487 -1.4025
  366MPD2    H3 5483   0.193   1.333  15.764 -1.1510  0.6512  0.0623
  366MPD2     N 5484   0.442   1.639  15.522 -0.0871 -0.2606 -0.7035
  366MPD2    H5 5485   0.420   1.723  15.469 -0.6237  0.7496  1.1439
  366MPD2    N1 5486   0.005   1.740  15.696 -0.5763 -0.5403  0.0746
  366MPD2    H7 5487   0.015   1.825  15.643  0.7454 -0.6570  0.1431
  367TMC3    C1 5488   4.582   1.866  15.823 -0.3986  0.1383  0.0514
  367TMC3    C2 5489   4.685   1.961  15.803  0.0834 -0.1041 -0.0345
  367TMC3    C3 5490   4.652   2.079  15.749  0.5886 -0.2696  0.0491
  367TMC3    C4 5491   4.457   1.891  15.778  0.4430 -0.4051 -0.1560
  367TMC3    C5 5492   4.434   2.016  15.721 -0.6181 -0.0159 -0.0614
  367TMC3    C6 5493   4.526   2.113  15.703 -0.5922  0.6826  0.4807
  367TMC3     C 5494   4.637   1.734  15.805  1.0816 -0.8193 -0.9761
  367TMC3     O 5495   4.608   1.641  15.881 -0.4306  0.0873  0.0187
  367TMC3     H 5496   0.062   1.928  15.829 -0.0807 -1.7010 -1.3805
  367TMC3    H1 5497   4.390   1.806  15.780  0.5705 -0.4707  0.9870
  367TMC3    H2 5498   4.490   2.209  15.671  0.2354  0.0943 -2.2465
  367TMC3    C7 5499   4.301   2.053  15.670 -0.5806  0.8132 -0.1694
  367TMC3    C8 5500   0.045   2.150  15.701 -0.1823 -0.4290  0.3724
  367TMC3    O1 5501   4.278   2.172  15.645 -0.4296 -0.2998  0.0229
  367TMC3    O2 5502   0.147   2.127  15.765 -0.0526  0.1460  0.1079
  368MPD2     C 5503   0.710   4.117  13.046  0.6347 -0.0648  0.2683
  368MPD2    C1 5504   0.688   4.243  12.997  0.0276  0.4472 -0.8913
  368MPD2    C2 5505   0.797   4.326  12.962 -0.2550 -0.1652  0.8857
  368MPD2    C3 5506   0.928   4.279  12.973  0.4268 -0.5525  0.0931
  368MPD2    C4 5507   0.941   4.157  13.026 -0.3019  0.9531 -0.1344
  368MPD2    C5 5508   0.839   4.070  13.063  0.9614 -0.0827 -0.1564
  368MPD2     H 5509   0.779   4.423  12.918  1.1020 -1.1697 -1.8415
  368MPD2    H1 5510   1.042   4.121  13.037 -1.0689 -1.6341 -1.6202
  368MPD2    H2 5511   0.627   4.053  13.074  0.2916  0.8358  1.3098
  368MPD2    H3 5512   0.856   3.968  13.097 -0.9593 -0.1895  0.5347
  368MPD2     N 5513   1.046   4.343  12.928  0.6445  0.3771  0.2485
  368MPD2    H5 5514   1.137   4.306  12.955  0.3102  1.3935  2.7523
  368MPD2    N1 5515   0.551   4.280  12.975 -0.4119 -0.1097 -0.0151
  368MPD2    H7 5516   0.492   4.201  12.998  2.9721 -3.0960 -1.5264
  369TMC3    C1 5517   0.367   4.392  12.893  0.4024  0.3322 -0.2610
  369TMC3    C2 5518   0.318   4.471  12.799 -0.3072  1.2255  0.1423
  369TMC3    C3 5519   0.187   4.453  12.755  0.6745 -0.8160  0.2876
  369TMC3    C4 5520   0.289   4.298  12.957 -0.7396  0.4112 -0.4853
  369TMC3    C5 5521   0.164   4.278  12.914  0.2935 -0.5744 -0.1964
  369TMC3    C6 5522   0.106   4.356  12.814 -0.2516  0.0085  0.0529
  369TMC3     C 5523   0.502   4.397  12.925 -0.3554  0.3280  0.4303
  369TMC3     O 5524   0.568   4.495  12.888  0.2891  0.3730 -0.3101
  369TMC3     H 5525   0.389   4.543  12.760 -0.8169  0.3590 -2.3639
  369TMC3    H1 5526   0.325   4.226  13.030  2.5272  2.7612  0.2204
  369TMC3    H2 5527   4.723   4.346  12.794  0.0922  0.7419 -2.0678
  369TMC3    C7 5528   0.100   4.175  12.987  0.3268 -0.1340  0.1746
  369TMC3    C8 5529   0.140   4.523  12.633  0.4012  0.7403 -0.5702
  369TMC3    O1 5530   0.126   4.172  13.109 -0.9164 -0.4030  0.3843
  369TMC3    O2 5531   0.030   4.495  12.584  0.2391 -0.2959 -0.0384
  370TMC3    C1 5532   0.419   4.520  16.296 -0.1229  0.1298  0.4806
  370TMC3    C2 5533   0.387   4.467  16.419  0.8149 -0.7253  0.2486
  370TMC3    C3 5534   0.365   4.332  16.431 -0.0401  0.3219 -0.1159
  370TMC3    C4 5535   0.423   4.451  16.180  0.2379 -0.2884  0.4050
  370TMC3    C5 5536   0.395   4.315  16.191  1.1834 -0.1165  1.0826
  370TMC3    C6 5537   0.365   4.252  16.316  0.5038  0.0104 -0.1156
  370TMC3     C 5538   0.384   4.650  16.282  0.7069  0.3917 -0.6773
  370TMC3     O 5539   0.286   4.679  16.349 -0.0383 -0.3278  0.4903
  370TMC3     H 5540   0.366   4.530  16.505 -1.0160  0.4587 -1.0784
  370TMC3    H1 5541   0.440   4.488  16.079 -1.4668  2.4708  1.1378
  370TMC3    H2 5542   0.349   4.145  16.321 -0.0070  0.1396  1.0174
  370TMC3    C7 5543   0.415   4.241  16.064  0.6413 -0.1905 -1.1493
  370TMC3    C8 5544   0.354   4.253  16.554  0.7024 -0.2936  0.1943
  370TMC3    O1 5545   0.446   4.299  15.960 -0.4690  0.1693  0.2507
  370TMC3    O2 5546   0.349   4.132  16.548  0.0541 -0.2325 -0.6109
  371TMC3    C1 5547   1.840   2.833  15.408  0.7245  0.1189  0.3207
  371TMC3    C2 5548   1.719   2.810  15.477  0.0979  0.6354 -0.2285
  371TMC3    C3 5549   1.647   2.930  15.504 -0.9876 -0.4884  0.3583
  371TMC3    C4 5550   1.887   2.952  15.356  0.2298  0.1886  0.5737
  371TMC3    C5 5551   1.814   3.061  15.389  0.0735 -0.2100  1.4493
  371TMC3    C6 5552   1.695   3.054  15.455 -0.5173 -1.4372  0.5095
  371TMC3     C 5553   1.909   2.716  15.359  0.7708  0.6317 -0.7204
  371TMC3     O 5554   1.979   2.728  15.263 -0.0198  0.1255  0.5871
  371TMC3     H 5555   1.678   2.713  15.501  2.4984 -0.5397 -0.9571
  371TMC3    H1 5556   1.970   2.956  15.286 -2.1018  1.5329 -2.1044
  371TMC3    H2 5557   1.642   3.148  15.463 -1.1476 -1.6310 -1.3674
  371TMC3    C7 5558   1.826   3.182  15.307  0.2688  0.0426 -0.1996
  371TMC3    C8 5559   1.502   2.918  15.543  0.3453  0.2984 -0.5219
  371TMC3    O1 5560   1.721   3.239  15.287  0.1110 -0.0776  0.0288
  371TMC3    O2 5561   1.454   2.803  15.527 -0.1321  0.5033  0.0844
  372MPD2     C 5562   1.272   3.932  13.059 -0.1197  0.6231  0.1777
  372MPD2    C1 5563   1.369   3.916  13.162 -0.0003 -0.5325  0.2793
  372MPD2    C2 5564   1.339   3.820  13.252  0.5008  0.8883  0.1535
  372MPD2    C3 5565   1.222   3.748  13.246  0.4643 -0.5949  0.0822
  372MPD2    C4 5566   1.127   3.772  13.145 -0.5646  0.0584  0.2766
  372MPD2    C5 5567   1.157   3.869  13.053  0.1603 -0.4045 -0.0996
  372MPD2     H 5568   1.401   3.802  13.340 -0.2392 -2.0557  0.0726
  372MPD2    H1 5569   1.037   3.713  13.138 -1.6123  1.6222  0.4078
  372MPD2    H2 5570   1.296   4.003  12.980 -0.0202 -2.9805 -2.9937
  372MPD2    H3 5571   1.088   3.886  12.971 -0.7644  0.9601  0.9774
  372MPD2     N 5572   1.198   3.654  13.349 -0.4910 -0.0541  0.9586
  372MPD2    H5 5573   1.275   3.634  13.412  1.1821 -1.1222 -1.4004
  372MPD2    N1 5574   1.491   3.980  13.163 -0.4788  0.2031  0.8042
  372MPD2    H7 5575   1.565   3.940  13.219  0.6288 -2.3521 -2.4931
  373TMC3    C1 5576   1.100   3.490  13.476 -0.3308  0.3871  0.5220
  373TMC3    C2 5577   0.990   3.453  13.553  0.0220 -0.1111 -0.3223
  373TMC3    C3 5578   1.012   3.368  13.661 -0.0404 -0.3795 -0.3026
  373TMC3    C4 5579   1.232   3.439  13.506 -0.0631  0.1392  0.6922
  373TMC3    C5 5580   1.241   3.350  13.605  0.8880 -0.6372 -0.1632
  373TMC3    C6 5581   1.138   3.311  13.687 -0.5149 -0.6607 -0.5141
  373TMC3     C 5582   1.081   3.591  13.376 -0.5196 -0.1854 -0.5217
  373TMC3     O 5583   0.969   3.625  13.339 -0.3461 -0.1142  0.2017
  373TMC3     H 5584   0.888   3.476  13.526  1.4099  2.3125 -3.4132
  373TMC3    H1 5585   1.315   3.455  13.438 -0.6685 -0.0938 -0.1059
  373TMC3    H2 5586   1.145   3.233  13.763 -1.7819  0.1279  0.4061
  373TMC3    C7 5587   1.370   3.278  13.609  0.3350  0.0293 -0.3377
  373TMC3    C8 5588   0.933   3.402  13.775 -0.7687 -0.1129 -0.2441
  373TMC3    O1 5589   1.431   3.262  13.503  0.2634 -0.2659 -0.4890
  373TMC3    O2 5590   0.813   3.419  13.769 -0.0284  0.1910 -0.3278
  374TMC3    C1 5591   2.189   4.382   9.820 -0.6383  0.1834 -0.0376
  374TMC3    C2 5592   2.312   4.439   9.792 -0.6678  0.3468 -0.0439
  374TMC3    C3 5593   2.348   4.454   9.662 -0.7335 -0.4812 -0.1292
  374TMC3    C4 5594   2.098   4.361   9.715  0.4225 -0.8022 -0.0459
  374TMC3    C5 5595   2.137   4.374   9.584  0.5875 -0.0512  0.4821
  374TMC3    C6 5596   2.266   4.419   9.556 -0.2990 -0.6121  0.7186
  374TMC3     C 5597   2.173   4.325   9.953 -0.4070 -0.0042  0.7725
  374TMC3     O 5598   2.269   4.315  10.027  0.1597 -0.6972  0.1483
  374TMC3     H 5599   2.380   4.461   9.874  0.7396 -2.0088 -0.5696
  374TMC3    H1 5600   1.995   4.338   9.740 -1.0014  1.0827 -4.3188
  374TMC3    H2 5601   2.301   4.413   9.454 -1.5237  0.1398  0.2543
  374TMC3    C7 5602   2.068   4.303   9.480 -0.1626  0.4213  0.2817
  374TMC3    C8 5603   2.475   4.527   9.628 -0.2083 -0.7942 -0.4053
  374TMC3    O1 5604   1.988   4.219   9.515 -0.5064  0.1334 -0.2947
  374TMC3    O2 5605   2.463   4.617   9.546  0.2630  0.4318  0.3530
  375MPD2     C 5606   1.899   4.585  17.613 -0.9675 -0.7677  0.3863
  375MPD2    C1 5607   1.830   4.614  17.499 -0.8190  0.6083  0.2745
  375MPD2    C2 5608   1.887   4.597  17.375  0.3774  0.3345  0.1573
  375MPD2    C3 5609   2.013   4.558  17.359 -0.0186  0.0746  1.0340
  375MPD2    C4 5610   2.083   4.540  17.479 -0.4371 -0.2232  0.5767
  375MPD2    C5 5611   2.028   4.548  17.606 -0.2309  0.6006 -0.4487
  375MPD2     H 5612   1.826   4.623  17.290  0.2192 -3.1919 -0.7998
  375MPD2    H1 5613   2.189   4.520  17.488 -0.7025 -0.2067  4.0623
  375MPD2    H2 5614   1.864   4.609   0.017 -0.2618  1.1725  0.1589
  375MPD2    H3 5615   2.088   4.539  17.695 -0.7189  1.4256 -0.0340
  375MPD2     N 5616   2.084   4.531  17.242  0.0665 -0.2240 -0.1479
  375MPD2    H5 5617   2.184   4.514  17.255  0.3785  0.7178 -1.3261
  375MPD2    N1 5618   1.692   4.647  17.496 -0.0466 -0.1045  0.1980
  375MPD2    H7 5619   1.655   4.681  17.408  1.1379 -1.9942 -1.0086
  376TMC3    C1 5620   2.123   4.535  17.009 -0.0197 -0.3129 -0.4882
  376TMC3    C2 5621   2.256   4.521  17.024  0.6558 -0.2090  0.0507
  376TMC3    C3 5622   2.339   4.568  16.926 -0.3588  0.8846 -0.2218
  376TMC3    C4 5623   2.067   4.579  16.888  0.2201 -0.0154 -0.7763
  376TMC3    C5 5624   2.154   4.633  16.797 -0.3082 -0.0124  0.0841
  376TMC3    C6 5625   2.292   4.628  16.815  0.4316 -0.2858 -0.5219
  376TMC3     C 5626   2.027   4.522  17.118 -0.2504  0.3811  0.4115
  376TMC3     O 5627   1.911   4.535  17.087  0.1766  0.0393 -0.3207
  376TMC3     H 5628   2.291   4.462  17.107  1.7450  1.2736  0.6545
  376TMC3    H1 5629   1.960   4.592  16.879  0.2709  1.4155  0.6456
  376TMC3    H2 5630   2.349   4.679  16.738  1.9338  1.5180  1.7850
  376TMC3    C7 5631   2.101   4.722  16.700 -0.3298 -0.4624  0.0361
  376TMC3    C8 5632   2.475   4.600  16.965  0.2294 -0.2958  0.2067
  376TMC3    O1 5633   2.183   0.065  16.638  0.4919 -0.1360 -0.0514
  376TMC3    O2 5634   2.490   4.581  17.083  0.4924 -0.0166  0.5621
  377MPD2     C 5635   4.510   4.271  12.264 -0.0376  0.3021  0.2889
  377MPD2    C1 5636   4.565   4.207  12.380 -0.3945 -0.3809 -0.0964
  377MPD2    C2 5637   4.485   4.139  12.471 -0.9013 -0.4198 -0.4007
  377MPD2    C3 5638   4.350   4.138  12.447  0.2496 -0.6162 -0.3338
  377MPD2    C4 5639   4.298   4.187  12.327 -0.8008  0.2496 -0.4612
  377MPD2    C5 5640   4.379   4.255  12.239 -0.2773  0.5240  0.3422
  377MPD2     H 5641   4.521   4.092  12.561 -3.6095  2.8185  2.3864
  377MPD2    H1 5642   4.194   4.177  12.299 -1.0491  2.1344 -0.1700
  377MPD2    H2 5643   4.580   4.319  12.198 -0.7874 -0.4475 -1.0514
  377MPD2    H3 5644   4.325   4.305  12.160  2.9869  0.8509 -1.6635
  377MPD2     N 5645   4.262   4.075  12.534  0.0851 -1.2750  0.0921
  377MPD2    H5 5646   4.175   4.047  12.489 -1.1930  2.2459  0.2930
  377MPD2    N1 5647   4.698   4.227  12.400  0.4187  0.8397 -0.0605
  377MPD2    H7 5648   0.039   4.258  12.327  0.0328  0.6409 -0.4902
  378TMC3    C1 5649   0.368   4.299  12.377  0.4780  0.5308  0.2949
  378TMC3    C2 5650   0.235   4.296  12.394 -0.2155 -0.2442  0.4056
  378TMC3    C3 5651   0.183   4.218  12.496  0.0636 -0.1641  0.2540
  378TMC3    C4 5652   0.461   4.235  12.454 -0.0916  0.2510  0.4594
  378TMC3    C5 5653   0.407   4.161  12.554 -0.0267  0.0280 -0.7779
  378TMC3    C6 5654   0.270   4.164  12.581 -0.1649 -0.2281  0.3003
  378TMC3     C 5655   0.417   4.341  12.250 -0.3239 -0.2715  0.3529
  378TMC3     O 5656   0.341   4.319  12.156 -0.1937 -0.5591 -0.4438
  378TMC3     H 5657   0.174   4.355  12.326  0.9920 -0.0244 -0.4846
  378TMC3    H1 5658   0.566   4.237  12.427 -0.5162  1.1544 -1.1072
  378TMC3    H2 5659   0.231   4.117  12.671 -1.4687  0.3324  0.0387
  378TMC3    C7 5660   0.499   4.093  12.642  0.0903  0.6166 -0.2078
  378TMC3    C8 5661   0.044   4.193  12.512  0.1127 -0.1344  0.1700
  378TMC3    O1 5662   0.449   4.062  12.749  0.3497 -0.4730  0.3121
  378TMC3    O2 5663   0.009   4.148  12.620 -0.0579 -0.7465 -0.2855
  379MPD2     C 5664   0.598   2.420  16.144  1.1551  0.8185 -0.1275
  379MPD2    C1 5665   0.723   2.400  16.083  0.1363 -0.0903  0.6880
  379MPD2    C2 5666   0.828   2.363  16.164  0.2005  0.1100  0.2835
  379MPD2    C3 5667   0.812   2.356  16.306  0.9629 -0.1150 -0.5099
  379MPD2    C4 5668   0.686   2.379  16.359  0.2327 -0.2538  0.2054
  379MPD2    C5 5669   0.580   2.400  16.272 -0.2777 -0.3219 -0.2713
  379MPD2     H 5670   0.918   2.334  16.111  0.3094 -0.5384  0.8340
  379MPD2    H1 5671   0.663   2.368  16.465 -1.6673  2.4234  0.0565
  379MPD2    H2 5672   0.505   2.424  16.087 -0.5610 -0.1643  2.5985
  379MPD2    H3 5673   0.482   2.414  16.317 -0.0307  0.1834  0.1097
  379MPD2     N 5674   0.919   2.309  16.394 -0.0686  0.2148 -0.3188
  379MPD2    H5 5675   0.890   2.294  16.490 -4.0058 -2.2467 -1.9212
  379MPD2    N1 5676   0.739   2.404  15.946  0.2562 -0.8892  0.4408
  379MPD2    H7 5677   0.657   2.398  15.886 -0.1829 -3.1407  1.2410
  380TMC3    C1 5678   0.833   2.359  15.744 -0.5835  0.5033 -0.9961
  380TMC3    C2 5679   0.941   2.308  15.681 -0.2144 -0.8572 -0.6092
  380TMC3    C3 5680   0.930   2.289  15.546 -0.4836 -0.0656 -0.5875
  380TMC3    C4 5681   0.725   2.407  15.673 -0.3554 -0.1540 -0.3976
  380TMC3    C5 5682   0.724   2.385  15.534  0.2138  0.1430 -0.4376
  380TMC3    C6 5683   0.828   2.336  15.468  0.3341 -1.2994 -0.4902
  380TMC3     C 5684   0.853   2.411  15.875  0.4198  0.6524 -0.2096
  380TMC3     O 5685   0.964   2.428  15.917 -0.5548  0.2514 -0.0377
  380TMC3     H 5686   1.016   2.266  15.748  1.4027  1.3819 -1.0323
  380TMC3    H1 5687   0.643   2.460  15.720 -0.9070  1.0221 -2.6724
  380TMC3    H2 5688   0.833   2.334  15.360 -0.9429  0.9431 -0.5805
  380TMC3    C7 5689   0.600   2.400  15.467  0.0114 -0.5497  0.1188
  380TMC3    C8 5690   1.044   2.249  15.467 -0.7044  0.9161 -0.4175
  380TMC3    O1 5691   0.616   2.415  15.346 -0.3044 -0.3576 -0.3243
  380TMC3    O2 5692   1.034   2.242  15.346 -0.2085  0.0099 -0.4181
  381TMC3    C1 5693   0.510   3.384  16.461  0.8303  0.2105 -0.2172
  381TMC3    C2 5694   0.577   3.489  16.404  0.1356  0.4018  0.5646
  381TMC3    C3 5695   0.569   3.609  16.477  0.2615  0.7537 -0.8100
  381TMC3    C4 5696   0.432   3.391  16.574  0.3198 -0.2750  0.6120
  381TMC3    C5 5697   0.425   3.520  16.640  0.0687  0.7203  0.6913
  381TMC3    C6 5698   0.487   3.635  16.582 -0.1403 -0.3274  0.0872
  381TMC3     C 5699   0.509   3.261  16.386 -0.9636 -0.2154  0.1504
  381TMC3     O 5700   0.590   3.262  16.292  0.7291  0.1959 -0.2839
  381TMC3     H 5701   0.629   3.483  16.309 -0.2032 -1.6717  0.5166
  381TMC3    H1 5702   0.382   3.305  16.617 -0.8916  0.4084  0.5651
  381TMC3    H2 5703   0.491   3.728  16.637  4.0608 -0.7560  0.5328
  381TMC3    C7 5704   0.383   3.511  16.779 -0.0524 -0.0887  0.4002
  381TMC3    C8 5705   0.664   3.709  16.439  0.6247 -0.3816  0.0434
  381TMC3    O1 5706   0.403   3.407  16.841 -0.1766  0.4091  0.2170
  381TMC3    O2 5707   0.755   3.674  16.365  0.0207 -0.3728  0.0513
  382MPD2     C 5708   4.640   1.059  17.342  0.0839  1.1800 -0.7635
  382MPD2    C1 5709   4.563   1.164  17.296  0.0213 -0.5625 -0.0878
  382MPD2    C2 5710   4.425   1.162  17.310 -0.2592 -0.4184 -0.5264
  382MPD2    C3 5711   4.369   1.068  17.393  0.0305 -0.0331  0.3929
  382MPD2    C4 5712   4.441   0.958  17.438  0.2236 -0.5444 -0.7313
  382MPD2    C5 5713   4.580   0.955  17.410 -0.5103  0.2419  0.2037
  382MPD2     H 5714   4.369   1.241  17.262  0.2026 -0.4335 -1.0853
  382MPD2    H1 5715   4.403   0.875  17.496  2.4006 -0.8272  0.2865
  382MPD2    H2 5716   0.023   1.062  17.321  0.1494 -1.3261 -0.7795
  382MPD2    H3 5717   4.635   0.870  17.449  1.5635  1.5391  0.1357
  382MPD2     N 5718   4.234   1.070  17.418  0.2134 -0.3780  0.3413
  382MPD2    H5 5719   4.179   0.992  17.453  0.2347 -1.4970 -2.0923
  382MPD2    N1 5720   4.635   1.258  17.220  0.3267  0.1954 -0.7704
  382MPD2    H7 5721   0.010   1.275  17.240  1.0168 -1.2907 -2.8250
  383TMC3    C1 5722   4.020   1.145  17.455 -0.8842 -0.4141  0.2236
  383TMC3    C2 5723   3.972   1.023  17.422  0.5169 -0.0390  0.5848
  383TMC3    C3 5724   3.834   1.013  17.434 -0.0210 -0.1668  0.5127
  383TMC3    C4 5725   3.939   1.248  17.508 -0.4328  0.1265  0.3700
  383TMC3    C5 5726   3.809   1.219  17.530  0.5146 -0.5037 -0.6778
  383TMC3    C6 5727   3.747   1.100  17.497  0.5124 -0.4179 -0.1423
  383TMC3     C 5728   4.154   1.177  17.406 -0.2554 -0.3275 -0.2860
  383TMC3     O 5729   4.180   1.298  17.391  0.1520 -0.5051 -0.8553
  383TMC3     H 5730   4.033   0.966  17.353  0.5332  0.5309  0.1259
  383TMC3    H1 5731   3.978   1.347  17.522 -1.4462  0.4964  0.5750
  383TMC3    H2 5732   3.641   1.079  17.505  0.6867 -0.6360  1.5018
  383TMC3    C7 5733   3.736   1.313  17.610 -0.0035 -0.0013  0.0283
  383TMC3    C8 5734   3.773   0.891  17.385 -0.8097  0.2567  0.0522
  383TMC3    O1 5735   3.789   1.415  17.650 -0.0004 -0.3202  0.4299
  383TMC3    O2 5736   3.653   0.903  17.387 -0.5932 -0.9544 -0.0191
  384MPD2     C 5737   1.147   2.366  11.841  0.2214  0.4532 -0.2057
  384MPD2    C1 5738   1.084   2.294  11.932  0.1533  0.3070 -0.4068
  384MPD2    C2 5739   1.097   2.157  11.930  0.2138  0.3649  0.8224
  384MPD2    C3 5740   1.209   2.106  11.874 -0.1413 -0.0637  0.5058
  384MPD2    C4 5741   1.290   2.181  11.792  0.0242 -0.1381  0.0536
  384MPD2    C5 5742   1.255   2.311  11.773 -0.0936  0.1595 -0.3353
  384MPD2     H 5743   1.028   2.096  11.988  0.9387 -2.5262 -1.3528
  384MPD2    H1 5744   1.370   2.134  11.735  0.3944  0.6404 -0.0719
  384MPD2    H2 5745   1.119   2.467  11.813 -1.7827 -0.5950 -2.0034
  384MPD2    H3 5746   1.315   2.376  11.710 -0.6406 -0.0233 -1.0544
  384MPD2     N 5747   1.265   1.979  11.907  0.0799 -0.3099  0.0610
  384MPD2    H5 5748   1.358   1.960  11.872 -0.2621  0.2738 -1.1952
  384MPD2    N1 5749   0.987   2.342  12.017  0.2365  0.1100 -0.3459
  384MPD2    H7 5750   0.923   2.277  12.063  0.1313  1.3225  1.2408
  385TMC3    C1 5751   1.305   1.791  12.035 -0.1674  0.1344 -0.4138
  385TMC3    C2 5752   1.258   1.663  12.058 -0.3339 -0.2443  0.4521
  385TMC3    C3 5753   1.274   1.615  12.180  0.0550  0.3935 -0.0464
  385TMC3    C4 5754   1.371   1.855  12.137  1.1812  0.6016  0.5273
  385TMC3    C5 5755   1.372   1.810  12.264 -0.6082  0.0721  0.2372
  385TMC3    C6 5756   1.329   1.685  12.287  0.3379 -0.0420 -0.4918
  385TMC3     C 5757   1.204   1.885  11.983 -0.0438  0.1253  0.2806
  385TMC3     O 5758   1.099   1.889  12.042 -0.3699 -0.1130  0.2463
  385TMC3     H 5759   1.188   1.624  11.985  1.9244 -0.4729 -1.5970
  385TMC3    H1 5760   1.427   1.945  12.114  1.9837  0.0046  0.1422
  385TMC3    H2 5761   1.327   1.639  12.385  0.4812 -1.4559 -1.1564
  385TMC3    C7 5762   1.326   1.910  12.358  0.3465 -0.2745 -0.0582
  385TMC3    C8 5763   1.245   1.473  12.189  0.1557  0.4100 -0.4512
  385TMC3    O1 5764   1.314   2.023  12.317  0.5724 -0.1049  0.2204
  385TMC3    O2 5765   1.211   1.423  12.291  0.1871  0.0209 -0.3664
  386TMC3    C1 5766   0.913   0.059  11.600 -0.3755  0.3644  0.5287
  386TMC3    C2 5767   1.004   0.015  11.509  0.1526  0.0013  0.4892
  386TMC3    C3 5768   0.958   4.715  11.383  0.2072  0.0679 -0.0548
  386TMC3    C4 5769   0.781   0.077  11.574 -0.0818  0.0006 -0.2888
  386TMC3    C5 5770   0.735   0.045  11.449 -0.4095  0.3448  0.5966
  386TMC3    C6 5771   0.824   0.001  11.352 -1.0993  0.2270 -0.2324
  386TMC3     C 5772   0.964   0.105  11.729 -0.3458  0.5021 -0.6846
  386TMC3     O 5773   0.904   0.197  11.785 -0.2066  0.5878  0.3743
  386TMC3     H 5774   1.111   0.015  11.529  0.0434  2.3310  1.1300
  386TMC3    H1 5775   0.711   0.110  11.650  0.0792  1.6703 -0.8841
  386TMC3    H2 5776   0.787   4.694  11.255  1.6310 -1.6041 -0.6714
  386TMC3    C7 5777   0.603   4.714  11.450  0.2237 -0.1198 -0.3344
  386TMC3    C8 5778   1.051   4.662  11.283  0.0952 -0.5078  0.4780
  386TMC3    O1 5779   0.560   4.683  11.563 -0.4369 -0.7242  0.0276
  386TMC3    O2 5780   0.999   4.633  11.176  0.5301  0.4088  0.4638
  387MPD2     C 5781   4.142   4.482   9.231  0.3787 -0.3095  0.0649
  387MPD2    C1 5782   4.210   4.484   9.352 -0.3154  0.3824  0.3382
  387MPD2    C2 5783   4.229   4.359   9.420  0.6174  0.4600 -0.4349
  387MPD2    C3 5784   4.176   4.240   9.382  0.0386 -0.2052  0.1677
  387MPD2    C4 5785   4.099   4.243   9.266 -0.4300 -0.5543  0.6287
  387MPD2    C5 5786   4.091   4.360   9.195 -0.1568  1.1121  0.5807
  387MPD2     H 5787   4.303   4.352   9.499  0.4115  1.4296 -0.1524
  387MPD2    H1 5788   4.046   4.155   9.231  0.0305 -0.3216 -0.6581
  387MPD2    H2 5789   4.122   4.567   9.167 -0.8685 -0.1469  0.6708
  387MPD2    H3 5790   4.045   4.355   9.097 -2.0312 -0.1030  1.5048
  387MPD2     N 5791   4.203   4.131   9.467 -0.0390  0.4422 -0.5599
  387MPD2    H5 5792   4.277   4.151   9.534  1.2820 -2.8875 -1.0054
  387MPD2    N1 5793   4.260   4.602   9.416  0.2408 -0.1579 -0.1465
  387MPD2    H7 5794   4.326   4.582   9.491 -0.4737 -4.3250 -0.6237
  388TMC3    C1 5795   4.250   0.089   9.538  0.0818  0.6036  0.4899
  388TMC3    C2 5796   4.204   0.218   9.546 -0.2460  0.2238 -0.8457
  388TMC3    C3 5797   4.182   0.279   9.667  0.2239 -0.4148  0.0192
  388TMC3    C4 5798   4.290   0.022   9.650 -0.4993 -0.2011  0.7855
  388TMC3    C5 5799   4.254   0.075   9.769 -0.0718 -0.3744 -0.1899
  388TMC3    C6 5800   4.210   0.205   9.779 -0.0766 -0.7273 -0.3863
  388TMC3     C 5801   4.215   0.012   9.410 -0.0711  0.8135  0.5895
  388TMC3     O 5802   4.146   0.061   9.328  0.6667 -0.5192  0.0988
  388TMC3     H 5803   4.172   0.270   9.457 -1.6340 -1.0825 -1.1198
  388TMC3    H1 5804   4.351   4.656   9.642 -0.1698  0.2515 -1.8426
  388TMC3    H2 5805   4.185   0.241   9.879 -0.8845 -2.3764  0.0016
  388TMC3    C7 5806   4.290   4.718   9.891  0.6636  0.5436  0.1225
  388TMC3    C8 5807   4.152   0.426   9.671  0.2928 -0.4841  0.2408
  388TMC3    O1 5808   4.325   0.054   9.993 -0.6585  0.1260 -0.1549
  388TMC3    O2 5809   4.124   0.472   9.557 -0.2480 -0.3845  0.1115
  389MPD2     C 5810   3.399   2.865  11.126 -0.2354 -0.5846 -0.4014
  389MPD2    C1 5811   3.336   2.767  11.056  0.2696 -0.2659  0.1081
  389MPD2    C2 5812   3.261   2.678  11.136 -0.3418  0.3278  0.3353
  389MPD2    C3 5813   3.247   2.693  11.273  0.2614  0.2066  0.4947
  389MPD2    C4 5814   3.318   2.788  11.341  0.2684 -0.0850 -0.0419
  389MPD2    C5 5815   3.389   2.873  11.262  0.2658 -0.1819  0.2708
  389MPD2     H 5816   3.206   2.605  11.078 -1.1642  0.5490  0.8398
  389MPD2    H1 5817   3.322   2.805  11.448  0.0562  0.4592 -0.1255
  389MPD2    H2 5818   3.471   2.931  11.079 -0.2995 -0.6387 -0.5764
  389MPD2    H3 5819   3.452   2.944  11.314  0.6664  0.1850 -0.7060
  389MPD2     N 5820   3.163   2.605  11.347  0.2642  0.3552  0.4656
  389MPD2    H5 5821   3.161   2.618  11.447 -0.1542  2.0177  0.2407
  389MPD2    N1 5822   3.339   2.777  10.914  0.3861 -0.0777 -0.2597
  389MPD2    H7 5823   3.409   2.840  10.877 -0.1627  0.7807  0.1599
  390TMC3    C1 5824   3.021   2.438  11.418 -0.1004  0.8359 -0.9962
  390TMC3    C2 5825   2.999   2.301  11.414 -0.0534  0.3258  0.0258
  390TMC3    C3 5826   2.927   2.249  11.514 -0.2868 -0.2232  0.0219
  390TMC3    C4 5827   2.972   2.509  11.527 -0.2447  0.0146 -0.3305
  390TMC3    C5 5828   2.915   2.447  11.634  0.0546  0.1505  0.0612
  390TMC3    C6 5829   2.902   2.309  11.628  0.6336 -0.5382 -0.4668
  390TMC3     C 5830   3.092   2.495  11.305 -0.0626  0.3825 -0.5081
  390TMC3     O 5831   3.109   2.427  11.201  0.3209  0.3499  0.5040
  390TMC3     H 5832   3.041   2.241  11.333  0.6340  0.0245  0.6117
  390TMC3    H1 5833   2.975   2.617  11.526  1.7579 -0.0099  1.9049
  390TMC3    H2 5834   2.872   2.264  11.722  0.0357  0.2575 -0.2792
  390TMC3    C7 5835   2.841   2.532  11.724 -0.3772  0.4435  0.2326
  390TMC3    C8 5836   2.888   2.113  11.488 -0.0498  0.8927 -0.4598
  390TMC3    O1 5837   2.891   2.634  11.756 -0.3833  0.2001 -0.4321
  390TMC3    O2 5838   2.885   2.069  11.375 -0.3307 -0.6499  0.5475
  391MPD2     C 5839   3.189   3.933  10.827  0.1595 -0.2379  0.1335
  391MPD2    C1 5840   3.264   4.044  10.843  0.4032  0.2233 -0.2365
  391MPD2    C2 5841   3.262   4.132  10.738 -0.4855 -0.0911 -0.1270
  391MPD2    C3 5842   3.194   4.110  10.616  0.0117 -0.8376 -0.4057
  391MPD2    C4 5843   3.107   4.002  10.603 -0.6555  0.2347 -0.1908
  391MPD2    C5 5844   3.114   3.916  10.711 -0.0595  0.1348 -0.3467
  391MPD2     H 5845   3.324   4.220  10.737  1.0616 -1.1854 -1.9840
  391MPD2    H1 5846   3.059   3.959  10.517  0.3964 -1.6539  0.1528
  391MPD2    H2 5847   3.187   3.858  10.905 -1.4271  2.3954  2.6030
  391MPD2    H3 5848   3.059   3.822  10.706  3.1601 -1.7157 -1.0693
  391MPD2     N 5849   3.203   4.205  10.517 -0.1528 -0.1435 -0.2560
  391MPD2    H5 5850   3.291   4.254  10.521 -0.3027  0.2832 -1.9980
  391MPD2    N1 5851   3.343   4.058  10.956  0.5202 -0.1627 -0.3206
  391MPD2    H7 5852   3.353   3.980  11.020 -2.0461  0.5926  1.0313
  392TMC3    C1 5853   3.188   4.266  10.280 -0.5423 -0.0660 -0.0703
  392TMC3    C2 5854   3.105   4.280  10.171  0.2089 -0.3603 -0.3975
  392TMC3    C3 5855   3.127   4.385  10.084 -0.2166  0.2286 -0.7420
  392TMC3    C4 5856   3.303   4.344  10.285 -0.2265 -0.5602 -0.1608
  392TMC3    C5 5857   3.327   4.445  10.189 -0.2406  0.6462  0.3763
  392TMC3    C6 5858   3.241   4.464  10.080 -0.2575 -0.0084  0.0617
  392TMC3     C 5859   3.129   4.202  10.400 -0.5933  0.4496 -0.4630
  392TMC3     O 5860   3.020   4.150  10.370  0.0976 -0.0466 -0.3476
  392TMC3     H 5861   3.011   4.226  10.162 -0.6379  0.7666  1.8454
  392TMC3    H1 5862   3.378   4.323  10.360  1.7388  2.3684 -1.3054
  392TMC3    H2 5863   3.256   4.538  10.002  1.4252 -1.5082 -1.0543
  392TMC3    C7 5864   3.414   4.556  10.236 -0.5798  0.6557  0.1628
  392TMC3    C8 5865   3.011   4.411   9.997 -0.3750  0.1602 -0.0846
  392TMC3    O1 5866   3.461   4.547  10.349 -0.3357  0.4325 -0.0563
  392TMC3    O2 5867   2.927   4.326   9.986  0.6981  0.2577  0.5601
  393TMC3    C1 5868   2.048   2.171  10.421  0.0573 -0.4824  0.0082
  393TMC3    C2 5869   1.951   2.135  10.508  0.4923 -0.5535  0.5425
  393TMC3    C3 5870   1.977   2.034  10.602 -0.4177  0.1011 -0.2164
  393TMC3    C4 5871   2.163   2.103  10.419  0.1867  0.0238  0.9507
  393TMC3    C5 5872   2.186   1.998  10.501 -0.0912 -0.5953  0.3518
  393TMC3    C6 5873   2.097   1.962  10.603 -0.3415 -0.3123  0.1954
  393TMC3     C 5874   2.028   2.281  10.320 -0.6031 -0.2865 -0.0302
  393TMC3     O 5875   1.937   2.357  10.347 -0.2563  0.3975 -0.4796
  393TMC3     H 5876   1.860   2.194  10.503 -0.3543 -1.8038  1.6096
  393TMC3    H1 5877   2.242   2.128  10.349 -2.0289 -3.7634 -2.9069
  393TMC3    H2 5878   2.108   1.888  10.682  2.2418  0.4298  0.5318
  393TMC3    C7 5879   2.328   1.960  10.514  0.3187  0.3749 -0.4813
  393TMC3    C8 5880   1.872   2.007  10.703 -0.7209  0.5478  0.4971
  393TMC3    O1 5881   2.412   2.039  10.473  0.2102  0.0707 -0.2866
  393TMC3    O2 5882   1.768   2.068  10.682  0.4622  0.6616 -0.4142
  394TMC3    C1 5883   3.272   2.751  10.683  0.0724 -0.0742 -0.3064
  394TMC3    C2 5884   3.165   2.748  10.602  0.2760 -0.0990  0.1038
  394TMC3    C3 5885   3.183   2.812  10.482  0.1974  0.1514 -0.8313
  394TMC3    C4 5886   3.398   2.803  10.648  0.4418  0.6277 -0.0284
  394TMC3    C5 5887   3.409   2.852  10.521 -0.3794  0.8801 -0.0377
  394TMC3    C6 5888   3.299   2.873  10.444 -0.1332 -0.4707 -0.4290
  394TMC3     C 5889   3.245   2.723  10.824  0.0255  0.0583 -0.4665
  394TMC3     O 5890   3.149   2.649  10.838 -0.0126  0.3471  0.1401
  394TMC3     H 5891   3.065   2.725  10.635  0.4793 -0.2883  0.5872
  394TMC3    H1 5892   3.477   2.798  10.721  1.3622  0.3917 -1.0350
  394TMC3    H2 5893   3.312   2.918  10.346  0.4703  1.6065  0.6082
  394TMC3    C7 5894   3.538   2.883  10.462  0.2128  0.9802  0.0937
  394TMC3    C8 5895   3.127   2.744  10.370  0.2575  0.8565 -0.8629
  394TMC3    O1 5896   3.536   2.966  10.376 -0.3070 -0.5601 -0.0739
  394TMC3    O2 5897   3.121   2.804  10.266 -0.2148  0.1864  0.5108
  395TMC3    C1 5898   2.405   0.454  15.123 -0.4138 -0.7005  0.3489
  395TMC3    C2 5899   2.330   0.451  15.006 -0.4993  0.0625 -0.2855
  395TMC3    C3 5900   2.384   0.392  14.896  0.2215 -0.7378 -0.7309
  395TMC3    C4 5901   2.540   0.415  15.122 -0.5178 -0.1717  0.1696
  395TMC3    C5 5902   2.587   0.358  15.014  0.2273  1.1897 -0.2357
  395TMC3    C6 5903   2.511   0.341  14.901  0.1290 -0.2597  0.4488
  395TMC3     C 5904   2.339   0.444  15.248 -0.4555 -0.3333 -0.3898
  395TMC3     O 5905   2.414   0.411  15.343  0.0790 -0.4084  0.4850
  395TMC3     H 5906   2.230   0.491  15.000 -0.1876  0.9672  0.6889
  395TMC3    H1 5907   2.598   0.409  15.213 -0.9164 -1.1230  0.3592
  395TMC3    H2 5908   2.560   0.308  14.810 -0.8146  0.1017 -0.1848
  395TMC3    C7 5909   2.720   0.303  15.016  0.2782  0.0333 -0.5274
  395TMC3    C8 5910   2.289   0.345  14.799 -0.0850 -0.1082  0.7486
  395TMC3    O1 5911   2.786   0.328  15.115  0.2351  0.1118  0.0356
  395TMC3    O2 5912   2.208   0.431  14.768 -0.1558  0.6449  0.3057
  396MPD2     C 5913   2.395   0.889  16.726  0.2316 -0.0792 -0.0966
  396MPD2    C1 5914   2.471   0.935  16.828  0.9605 -0.7863  0.2461
  396MPD2    C2 5915   2.577   1.014  16.790 -0.2418 -0.2283 -0.2748
  396MPD2    C3 5916   2.606   1.035  16.649  0.3344  1.2300 -0.5541
  396MPD2    C4 5917   2.518   0.993  16.555  0.3826 -0.3021 -0.2473
  396MPD2    C5 5918   2.411   0.925  16.595 -0.5820 -0.4527  0.3739
  396MPD2     H 5919   2.654   1.046  16.860 -0.3755 -1.0048  0.2255
  396MPD2    H1 5920   2.527   1.011  16.449 -0.3100 -0.3043 -0.3092
  396MPD2    H2 5921   2.319   0.817  16.751  0.5563 -1.1180 -2.1403
  396MPD2    H3 5922   2.340   0.881  16.527 -1.6818  1.6764  0.1434
  396MPD2     N 5923   2.726   1.109  16.618  0.2663  0.3718  0.1126
  396MPD2    H5 5924   2.792   1.134  16.690  0.0886 -1.9822  1.0921
  396MPD2    N1 5925   2.441   0.895  16.957  0.0697  0.1520  0.2064
  396MPD2    H7 5926   2.380   0.814  16.970  2.0820 -1.4168 -0.1927
  397TMC3    C1 5927   2.474   0.871  17.190  0.2391 -0.5153 -0.3475
  397TMC3    C2 5928   2.592   0.852  17.252  0.8688  0.6346  0.4807
  397TMC3    C3 5929   2.638   0.728  17.283  0.6539  1.1186  0.2462
  397TMC3    C4 5930   2.385   0.768  17.194 -0.4064  0.6906 -0.3004
  397TMC3    C5 5931   2.417   0.651  17.251 -0.0845  0.0865  0.5691
  397TMC3    C6 5932   2.545   0.632  17.300 -0.3685 -0.3184  0.1402
  397TMC3     C 5933   2.482   0.953  17.069  0.4132 -0.6060  0.1962
  397TMC3     O 5934   2.559   1.047  17.085  0.3701  0.4219 -0.2048
  397TMC3     H 5935   2.668   0.922  17.219 -0.4081  1.5174 -0.5980
  397TMC3    H1 5936   2.297   0.778  17.133 -1.3633  0.1266  0.9884
  397TMC3    H2 5937   2.572   0.546  17.360 -1.7204 -2.1370 -1.8756
  397TMC3    C7 5938   2.308   0.556  17.277  0.6706 -0.8946 -0.3233
  397TMC3    C8 5939   2.731   0.684  17.176  0.3095 -0.7207  0.3106
  397TMC3    O1 5940   2.213   0.555  17.198  0.6130  0.4634 -0.0274
  397TMC3    O2 5941   2.700   0.579  17.125  0.3621  0.4029  0.0328
  398MPD2     C 5942   0.305   1.532  17.335 -0.2019 -0.0384  0.2987
  398MPD2    C1 5943   0.362   1.482  17.449 -0.2128 -0.3107 -0.5552
  398MPD2    C2 5944   0.469   1.545  17.508  0.4837  0.2044  0.1570
  398MPD2    C3 5945   0.524   1.662  17.455 -0.2040 -0.2124 -0.0362
  398MPD2    C4 5946   0.463   1.713  17.346 -0.5448 -0.2811 -0.3259
  398MPD2    C5 5947   0.357   1.647  17.287 -0.2730 -0.0971  0.5641
  398MPD2     H 5948   0.517   1.507  17.597  0.2004  0.6335  0.4940
  398MPD2    H1 5949   0.501   1.793  17.283  1.3707 -1.3340 -0.5313
  398MPD2    H2 5950   0.226   1.481  17.281 -1.8225  3.4177 -0.6245
  398MPD2    H3 5951   0.323   1.683  17.191 -0.2915 -0.8772  0.2779
  398MPD2     N 5952   0.643   1.723  17.517  0.1767  0.2019  0.0361
  398MPD2    H5 5953   0.683   1.669  17.593 -0.9124 -1.8597 -0.8610
  398MPD2    N1 5954   0.320   1.360  17.512 -0.1442  0.5625 -0.1969
  398MPD2    H7 5955   0.380   1.322  17.584 -0.8951  2.4133  1.4168
  399TMC3    C1 5956   0.187   1.181  17.583  0.6314  0.7067  0.2413
  399TMC3    C2 5957   0.287   1.129  17.661 -0.4497 -0.4375 -0.5810
  399TMC3    C3 5958   0.247   1.044   0.061 -0.1466 -0.4859 -0.4133
  399TMC3    C4 5959   0.052   1.167  17.612  0.3282  0.4860 -0.0064
  399TMC3    C5 5960   0.023   1.069   0.010 -0.0800 -0.2127 -0.7691
  399TMC3    C6 5961   0.118   1.007   0.087  0.3966  0.0116  0.8553
  399TMC3     C 5962   0.215   1.284  17.479 -1.0277 -0.1555 -0.6368
  399TMC3     O 5963   0.138   1.299  17.387 -0.3308  0.0763  0.2673
  399TMC3     H 5964   0.392   1.133  17.635 -0.6223  3.7301 -0.6042
  399TMC3    H1 5965   4.701   1.225  17.558 -0.8017  0.8699  1.9737
  399TMC3    H2 5966   0.088   0.941   0.167 -0.0167 -1.3473 -0.4130
  399TMC3    C7 5967   4.608   1.040   0.043 -0.1855  0.0660 -0.4021
  399TMC3    C8 5968   0.344   1.028   0.171 -0.1885  0.4235  0.3557
  399TMC3    O1 5969   4.591   0.926   0.070 -0.6551  0.6986 -0.0695
  399TMC3    O2 5970   0.419   1.121   0.205  0.7662 -0.2032  0.5372
  400TMC3    C1 5971   4.030   0.716  16.975  0.2813 -0.3161  0.5403
  400TMC3    C2 5972   3.940   0.648  16.905 -0.0330 -0.2338  0.1018
  400TMC3    C3 5973   3.816   0.706  16.888  0.4595 -0.1857 -0.1807
  400TMC3    C4 5974   3.985   0.829  17.042  0.5304  0.9135 -0.1126
  400TMC3    C5 5975   3.860   0.883  17.036 -0.3577  0.6249  0.3010
  400TMC3    C6 5976   3.771   0.824  16.948  0.0770  0.3999  0.3383
  400TMC3     C 5977   4.163   0.659  16.996  0.1783  0.3382  0.6931
  400TMC3     O 5978   4.178   0.542  16.965 -0.1265  0.0829  0.4210
  400TMC3     H 5979   3.977   0.568  16.842 -1.9085 -0.2887 -0.9310
  400TMC3    H1 5980   4.053   0.871  17.116  2.6945 -1.8748 -0.5176
  400TMC3    H2 5981   3.670   0.862  16.934 -1.3101 -2.9583  1.1096
  400TMC3    C7 5982   3.853   1.026  17.062  0.4094  0.3556  0.7675
  400TMC3    C8 5983   3.712   0.619  16.826  0.2171  0.1249  0.1050
  400TMC3    O1 5984   3.959   1.073  17.089  0.2427  0.1375  0.4333
  400TMC3    O2 5985   3.601   0.666  16.825 -0.3481  0.9445 -0.0321
  401MPD2     C 5986   2.024   4.418   0.973 -0.0547  0.6475  0.1441
  401MPD2    C1 5987   2.145   4.403   1.040  0.1647 -0.3053 -0.1455
  401MPD2    C2 5988   2.225   4.298   1.009 -0.4386  0.6628 -0.3929
  401MPD2    C3 5989   2.177   4.200   0.920 -0.5977  0.1292  1.1450
  401MPD2    C4 5990   2.048   4.219   0.854 -0.6696  0.9558  0.3038
  401MPD2    C5 5991   1.972   4.326   0.883  0.1418 -0.3868  0.5521
  401MPD2     H 5992   2.325   4.296   1.052 -1.0895  2.0180  1.1738
  401MPD2    H1 5993   2.012   4.156   0.774  1.8015 -1.4352  1.0906
  401MPD2    H2 5994   1.965   4.508   0.979  0.2940  0.8290  0.8615
  401MPD2    H3 5995   1.880   4.347   0.829  2.2222  0.3428 -2.7336
  401MPD2     N 5996   2.262   4.090   0.893  0.5056  0.2130  0.5526
  401MPD2    H5 5997   2.337   4.068   0.957 -1.1830 -1.5318  1.9537
  401MPD2    N1 5998   2.207   4.502   1.116  0.1011  0.3917 -1.1617
  401MPD2    H7 5999   2.293   4.473   1.162 -0.2398  2.1243  0.5379
  402TMC3    C1 6000   2.343   3.887   0.808 -0.3303 -0.6194 -0.5746
  402TMC3    C2 6001   2.301   3.754   0.784 -0.2656 -0.1288 -0.1735
  402TMC3    C3 6002   2.369   3.649   0.842 -0.0714 -0.2074 -0.7417
  402TMC3    C4 6003   2.454   3.917   0.875  0.1078  0.0890  0.5948
  402TMC3    C5 6004   2.526   3.811   0.919 -0.6940  0.2953 -0.2570
  402TMC3    C6 6005   2.489   3.676   0.907  0.0800 -0.0877  0.1817
  402TMC3     C 6006   2.237   3.991   0.801 -0.2113  1.0140  0.8139
  402TMC3     O 6007   2.149   3.978   0.719 -0.2834  0.1093 -0.4244
  402TMC3     H 6008   2.203   3.746   0.739 -1.4141  1.0107  2.1074
  402TMC3    H1 6009   2.488   4.020   0.880 -3.7448  1.2713  2.0189
  402TMC3    H2 6010   2.551   3.601   0.955  0.4048 -0.3346 -0.6177
  402TMC3    C7 6011   2.661   3.834   0.891  0.2298  0.6207 -0.1972
  402TMC3    C8 6012   2.336   3.517   0.812  0.0004 -0.4789  0.1068
  402TMC3    O1 6013   2.702   3.944   0.925  0.3548  0.0579  0.0986
  402TMC3    O2 6014   2.386   3.427   0.881  0.5207 -0.6223 -0.0783
  403MPD2     C 6015   1.025   2.408  13.228 -0.5860  0.3659  0.6272
  403MPD2    C1 6016   1.005   2.301  13.309 -0.2142 -0.0205 -0.4751
  403MPD2    C2 6017   1.092   2.278  13.410  0.0128 -0.5196  0.0981
  403MPD2    C3 6018   1.196   2.366  13.439 -0.2938 -0.4819  0.0041
  403MPD2    C4 6019   1.211   2.484  13.357 -0.7881 -0.3859 -0.2459
  403MPD2    C5 6020   1.131   2.493  13.247  0.4258  0.6818 -0.0073
  403MPD2     H 6021   1.091   2.192  13.477 -0.2377  0.1241  0.9249
  403MPD2    H1 6022   1.290   2.555  13.373 -2.3431  1.0399  1.0948
  403MPD2    H2 6023   0.954   2.430  13.150  0.7287 -2.6135 -1.4312
  403MPD2    H3 6024   1.149   2.567  13.170  0.3620 -0.3043 -0.9651
  403MPD2     N 6025   1.273   2.332  13.548 -0.2834 -0.6289 -0.3203
  403MPD2    H5 6026   1.258   2.238  13.584 -1.6133 -0.8224 -1.3919
  403MPD2    N1 6027   0.891   2.212  13.287  0.3261  0.0922  0.6663
  403MPD2    H7 6028   0.819   2.240  13.221  1.2242 -2.3295 -1.3149
  404TMC3    C1 6029   0.752   2.025  13.292 -0.4830  0.0263  0.1354
  404TMC3    C2 6030   0.705   1.917  13.355 -0.4112 -0.3562 -0.0798
  404TMC3    C3 6031   0.622   1.829  13.287 -0.0975 -0.0945  0.1217
  404TMC3    C4 6032   0.719   2.056  13.164  0.5955  0.3367 -0.6224
  404TMC3    C5 6033   0.642   1.964  13.099  0.1729 -0.0103  0.2079
  404TMC3    C6 6034   0.591   1.857  13.158  0.0969 -0.1411 -0.2983
  404TMC3     C 6035   0.853   2.102  13.359 -0.1822  0.8647 -0.4331
  404TMC3     O 6036   0.900   2.062  13.467  0.3472 -0.2335 -0.3959
  404TMC3     H 6037   0.754   1.890  13.448  2.5926  0.0866 -1.5303
  404TMC3    H1 6038   0.756   2.138  13.104  3.1718  1.6172  2.7173
  404TMC3    H2 6039   0.511   1.801  13.111  0.3972  0.4953 -1.5711
  404TMC3    C7 6040   0.591   2.002  12.972  0.0591  0.3971  0.2642
  404TMC3    C8 6041   0.607   1.692  13.329 -0.1429  0.1311 -0.6607
  404TMC3    O1 6042   0.593   2.121  12.940 -0.3793  0.1944 -0.9522
  404TMC3    O2 6043   0.606   1.613  13.234  0.6657 -0.0511 -0.2536
  405MPD2     C 6044   1.379   2.622  14.492 -0.8671 -0.3552 -0.4739
  405MPD2    C1 6045   1.307   2.505  14.480  0.1670 -0.5403 -0.1403
  405MPD2    C2 6046   1.170   2.511  14.466  0.1458 -0.0744  0.7053
  405MPD2    C3 6047   1.108   2.623  14.445 -0.0396 -0.4525 -0.6717
  405MPD2    C4 6048   1.175   2.748  14.465  0.1607 -0.6283 -0.1161
  405MPD2    C5 6049   1.303   2.736  14.496  1.1384  0.5272 -0.0919
  405MPD2     H 6050   1.120   2.416  14.448 -1.1175  0.6692  0.3659
  405MPD2    H1 6051   1.123   2.843  14.470 -0.9513 -1.1826 -1.2461
  405MPD2    H2 6052   1.487   2.622  14.498 -0.7322 -2.1608 -2.7539
  405MPD2    H3 6053   1.359   2.828  14.509 -0.6695  1.4524  1.2095
  405MPD2     N 6054   0.971   2.619  14.410 -0.2303  0.5270  0.6595
  405MPD2    H5 6055   0.936   2.525  14.425 -0.6244  0.2699 -1.9694
  405MPD2    N1 6056   1.375   2.382  14.480 -0.1519 -0.2510  0.0201
  405MPD2    H7 6057   1.470   2.386  14.443 -0.8978  1.3525 -1.7401
  406TMC3    C1 6058   0.547   2.689  14.444  0.3397  0.0402  0.1151
  406TMC3    C2 6059   0.525   2.552  14.429  0.4139 -0.4616 -0.1063
  406TMC3    C3 6060   0.630   2.480  14.372  0.2155  0.3384  0.5740
  406TMC3    C4 6061   0.665   2.752  14.397 -0.4107  0.9076 -0.5381
  406TMC3    C5 6062   0.765   2.673  14.351 -0.5332  0.4177 -0.8165
  406TMC3    C6 6063   0.750   2.537  14.340  0.0649 -0.1327  0.3654
  406TMC3     C 6064   0.438   2.776  14.470  0.6891  0.3804  0.1356
  406TMC3     O 6065   0.443   2.889  14.419 -0.1410 -0.1251 -0.3185
  406TMC3     H 6066   0.438   2.496  14.461  0.3663  0.4659  1.3700
  406TMC3    H1 6067   0.675   2.860  14.406  0.7979  0.8381 -1.1647
  406TMC3    H2 6068   0.824   2.492  14.274 -1.2718 -1.8932  0.0577
  406TMC3    C7 6069   0.895   2.726  14.370 -0.3356 -0.2751  0.2104
  406TMC3    C8 6070   0.631   2.340  14.399  0.0061 -0.5495 -0.2992
  406TMC3    O1 6071   0.918   2.849  14.369 -0.4634 -0.1966  0.4286
  406TMC3    O2 6072   0.551   2.301  14.480  0.0948  0.9339 -0.4146
  407MPD2     C 6073   3.576   4.001   9.485 -0.2783 -0.7183 -0.7317
  407MPD2    C1 6074   3.708   3.971   9.494 -0.4659 -0.6219 -0.5686
  407MPD2    C2 6075   3.783   4.002   9.608  0.1457 -0.3085 -0.2158
  407MPD2    C3 6076   3.720   4.074   9.705 -0.3888 -0.5744 -0.3755
  407MPD2    C4 6077   3.586   4.108   9.690 -0.2692  0.3852 -0.3984
  407MPD2    C5 6078   3.515   4.067   9.584  0.1226 -0.2957  0.9328
  407MPD2     H 6079   3.889   3.981   9.603  0.4847  0.8427  2.2568
  407MPD2    H1 6080   3.535   4.154   9.774 -1.3667 -2.2063  0.3645
  407MPD2    H2 6081   3.525   3.971   9.394  0.1055 -1.6285 -0.6456
  407MPD2    H3 6082   3.413   4.099   9.567  0.7927 -0.1480 -2.7932
  407MPD2     N 6083   3.782   4.126   9.818 -0.2944  0.3894  0.4826
  407MPD2    H5 6084   3.718   4.168   9.885 -0.5820 -0.1485  0.5508
  407MPD2    N1 6085   3.784   3.908   9.392  0.3528  0.3345 -0.1994
  407MPD2    H7 6086   3.881   3.891   9.416 -0.2909 -2.7279  0.2394
  408TMC3    C1 6087   3.853   3.820   9.183  0.2479  0.7933  0.3212
  408TMC3    C2 6088   3.924   3.722   9.242  0.5221  0.2177 -0.2256
  408TMC3    C3 6089   4.023   3.679   9.151  0.4469  0.0213 -0.1694
  408TMC3    C4 6090   3.881   3.892   9.073 -0.1858 -0.3152  0.0512
  408TMC3    C5 6091   3.984   3.848   8.992 -0.2050  0.4504  0.2645
  408TMC3    C6 6092   4.053   3.739   9.030 -0.1769  0.1952 -0.1198
  408TMC3     C 6093   3.752   3.885   9.257 -0.6757 -0.5974 -0.2292
  408TMC3     O 6094   3.657   3.930   9.193 -0.1445 -0.5737 -0.1622
  408TMC3     H 6095   3.895   3.664   9.329 -0.4302 -0.2063 -0.8186
  408TMC3    H1 6096   3.832   3.987   9.053  2.2320  1.0492  0.6416
  408TMC3    H2 6097   4.129   3.698   8.965 -0.9761 -1.0496 -0.2656
  408TMC3    C7 6098   4.078   3.953   8.945  0.3441 -0.1261 -0.0221
  408TMC3    C8 6099   4.148   3.663   9.229 -0.1159 -1.4185  0.3782
  408TMC3    O1 6100   4.200   3.942   8.954 -0.3166 -0.3468  0.2105
  408TMC3    O2 6101   4.137   3.621   9.343  0.0129  0.7217  0.5230
  409MPD2     C 6102   2.584   0.080  17.424  0.2171 -0.1043  0.2417
  409MPD2    C1 6103   2.713   0.051  17.420 -0.5466 -0.3208 -0.0431
  409MPD2    C2 6104   2.806   0.142  17.377 -0.4010  0.0316 -0.0522
  409MPD2    C3 6105   2.765   0.264  17.329  0.2733  0.1540 -0.4538
  409MPD2    C4 6106   2.633   0.286  17.307  0.3835  0.1433 -0.2527
  409MPD2    C5 6107   2.540   0.199  17.366  0.0177 -0.5037 -0.1626
  409MPD2     H 6108   2.911   0.119  17.373 -0.0746  1.2285  1.8728
  409MPD2    H1 6109   2.592   0.371  17.254  2.2830  0.2043 -1.5994
  409MPD2    H2 6110   2.510   0.007  17.454 -0.6616  0.2934 -0.9732
  409MPD2    H3 6111   2.433   0.214  17.356  0.4480  2.0194 -0.9419
  409MPD2     N 6112   2.854   0.361  17.275  0.3562  0.2760 -0.8123
  409MPD2    H5 6113   2.813   0.437  17.222  1.9999  0.8921 -1.2166
  409MPD2    N1 6114   2.757   4.652  17.472 -0.3633  0.0836 -0.1687
  409MPD2    H7 6115   2.858   4.639  17.464 -0.1556  0.4760  1.7613
  410TMC3    C1 6116   3.061   0.451  17.200 -0.3824 -0.4906 -0.0615
  410TMC3    C2 6117   3.184   0.474  17.254 -0.0210 -0.2927 -0.0558
  410TMC3    C3 6118   3.297   0.469  17.174 -0.5932 -0.2919  0.1700
  410TMC3    C4 6119   3.051   0.422  17.059  0.1616 -0.2922 -0.3612
  410TMC3    C5 6120   3.169   0.418  16.983 -0.1715  0.9199  0.6586
  410TMC3    C6 6121   3.292   0.445  17.040  0.7996  0.8294  0.1577
  410TMC3     C 6122   2.992   0.353  17.276  0.9378 -0.0548  0.0359
  410TMC3     O 6123   3.063   0.273  17.331  0.8108  0.4798 -0.0254
  410TMC3     H 6124   3.190   0.485  17.362  3.0166  1.1712 -0.3822
  410TMC3    H1 6125   2.955   0.405  17.012  0.1990 -2.5326  0.3765
  410TMC3    H2 6126   3.382   0.466  16.985  1.2900 -1.8419 -0.0972
  410TMC3    C7 6127   3.145   0.406  16.843  0.3025  0.4747 -0.4208
  410TMC3    C8 6128   3.421   0.515  17.234 -0.1538 -0.2975  0.2492
  410TMC3    O1 6129   3.071   0.320  16.800 -0.0714 -0.4911  0.0874
  410TMC3    O2 6130   3.421   0.580  17.339  0.2102 -0.1469  0.3729
  411MPD2     C 6131   3.589   0.415  14.831  0.5086  0.4533 -0.4404
  411MPD2    C1 6132   3.489   0.477  14.751 -0.2918 -0.4667  0.2345
  411MPD2    C2 6133   3.378   0.412  14.713 -0.3116 -0.3684  0.4673
  411MPD2    C3 6134   3.352   0.282  14.754 -0.7155 -0.2855 -0.6280
  411MPD2    C4 6135   3.445   0.229  14.840  0.1893  0.2617  0.5572
  411MPD2    C5 6136   3.563   0.292  14.879  0.3656 -0.7482 -0.4934
  411MPD2     H 6137   3.300   0.454  14.652  2.5023  1.9413 -1.5191
  411MPD2    H1 6138   3.424   0.132  14.882 -1.9766 -0.3277 -1.8924
  411MPD2    H2 6139   3.681   0.469  14.849  0.4114 -0.1903  1.9992
  411MPD2    H3 6140   3.631   0.231  14.938 -1.8147 -2.8081 -0.1250
  411MPD2     N 6141   3.246   0.198  14.717 -0.2830  0.4841  0.1476
  411MPD2    H5 6142   3.247   0.099  14.739 -1.1000  0.1293 -1.4094
  411MPD2    N1 6143   3.486   0.616  14.716  0.2120  0.0384  0.5785
  411MPD2    H7 6144   3.419   0.648  14.647 -0.0647  1.0528  1.3212
  412TMC3    C1 6145   3.050   0.135  14.610  0.7041 -0.3433 -0.0459
  412TMC3    C2 6146   2.917   0.172  14.598  0.6009 -0.1487 -0.4513
  412TMC3    C3 6147   2.841   0.123  14.496  0.1029  0.4246 -0.1022
  412TMC3    C4 6148   3.111   0.064  14.508  0.2161 -0.0280 -0.6031
  412TMC3    C5 6149   3.038   0.035  14.402 -0.2187 -1.0070  0.0186
  412TMC3    C6 6150   2.904   0.050  14.398  0.1019  0.2360  0.7713
  412TMC3     C 6151   3.135   0.239  14.650 -0.2195  0.0911 -0.4147
  412TMC3     O 6152   3.098   0.357  14.628  0.8657 -0.2434  0.5336
  412TMC3     H 6153   2.873   0.237  14.673  1.4516 -1.0720  0.8431
  412TMC3    H1 6154   3.217   0.079  14.492  0.3747 -0.9929 -0.4269
  412TMC3    H2 6155   2.852   0.037  14.303 -0.8184 -0.1348  1.3244
  412TMC3    C7 6156   3.105   0.043  14.272  0.3138  0.5659 -0.2808
  412TMC3    C8 6157   2.780   0.230  14.427 -0.1526 -0.0960  0.1558
  412TMC3    O1 6158   3.207   4.704  14.253  0.2159 -0.4462  0.6716
  412TMC3    O2 6159   2.852   0.288  14.343 -0.0272 -0.4840 -0.0221
  413MPD2     C 6160   0.311   3.822  15.371  0.1961 -0.2307 -0.8695
  413MPD2    C1 6161   0.213   3.739  15.329  0.9522 -0.6013 -0.1199
  413MPD2    C2 6162   0.259   3.613  15.293 -0.9782  0.4785 -0.7048
  413MPD2    C3 6163   0.396   3.581  15.272  0.1204 -0.0887 -0.2860
  413MPD2    C4 6164   0.488   3.678  15.301 -0.4818 -0.6378 -0.6794
  413MPD2    C5 6165   0.443   3.795  15.359 -0.1625 -0.0850 -0.5207
  413MPD2     H 6166   0.195   3.528  15.273  0.1335 -0.8207  1.2525
  413MPD2    H1 6167   0.594   3.658  15.292 -0.3282 -0.3088  0.4376
  413MPD2    H2 6168   0.286   3.920  15.409  1.5583  0.5190 -1.9229
  413MPD2    H3 6169   0.514   3.873  15.383 -1.1109  1.1407 -1.6659
  413MPD2     N 6170   0.431   3.449  15.229 -0.4263 -0.1754 -0.9285
  413MPD2    H5 6171   0.363   3.374  15.239 -1.1369  0.5057 -0.6558
  413MPD2    N1 6172   0.076   3.773  15.358 -0.0451 -0.1046  0.1625
  413MPD2    H7 6173   0.055   3.846  15.425  1.1348  1.1329 -0.8242
  414TMC3    C1 6174   0.566   3.272  15.165  0.1993  0.3065  0.0132
  414TMC3    C2 6175   0.686   3.215  15.197  0.5176  0.1875  0.7915
  414TMC3    C3 6176   0.706   3.086  15.153 -0.8647  0.5538 -0.0008
  414TMC3    C4 6177   0.471   3.213  15.088  0.4456 -0.4931  0.3695
  414TMC3    C5 6178   0.495   3.084  15.048 -0.0974 -0.4332  0.3705
  414TMC3    C6 6179   0.612   3.015  15.088  0.1275  0.8097 -0.7751
  414TMC3     C 6180   0.560   3.419  15.186 -0.1346 -0.0696  0.3940
  414TMC3     O 6181   0.661   3.485  15.207  0.2079  0.4825  0.0510
  414TMC3     H 6182   0.759   3.272  15.253 -0.1360  1.7476  0.0883
  414TMC3    H1 6183   0.388   3.261  15.039  0.2566  1.4144  2.5381
  414TMC3    H2 6184   0.621   2.909  15.070 -1.9307  0.1060  2.3458
  414TMC3    C7 6185   0.426   3.024  14.934 -0.3452 -0.0162 -0.4718
  414TMC3    C8 6186   0.838   3.032  15.141 -0.6662  0.9209 -0.2809
  414TMC3    O1 6187   0.308   3.039  14.934  0.0467 -0.2446 -0.1160
  414TMC3    O2 6188   0.841   2.924  15.086 -0.7454 -0.3881  0.0569
  415TMC3    C1 6189   1.582   1.379   9.967  0.2407  0.5409  0.5885
  415TMC3    C2 6190   1.699   1.393   9.897  0.1807 -0.1092 -0.7930
  415TMC3    C3 6191   1.702   1.315   9.788  0.3761 -0.6782 -0.1582
  415TMC3    C4 6192   1.470   1.310   9.930 -0.2160  0.1334  0.1793
  415TMC3    C5 6193   1.482   1.238   9.810  0.1318  0.3909  0.2323
  415TMC3    C6 6194   1.596   1.247   9.739 -0.0461  0.1866 -0.5466
  415TMC3     C 6195   1.562   1.458  10.094 -0.0804  0.4652 -0.0908
  415TMC3     O 6196   1.469   1.418  10.164  0.2577  0.3955  0.5261
  415TMC3     H 6197   1.783   1.452   9.929 -1.4718  0.3431  2.6749
  415TMC3    H1 6198   1.383   1.315   9.995 -1.9222  0.5927 -2.1571
  415TMC3    H2 6199   1.622   1.192   9.650 -0.3343 -0.9403  0.0686
  415TMC3    C7 6200   1.372   1.158   9.770 -0.0139 -0.4723  0.3139
  415TMC3    C8 6201   1.830   1.284   9.733  0.2960  0.4961  0.4502
  415TMC3    O1 6202   1.374   1.107   9.657 -0.0419 -0.0002  0.1459
  415TMC3    O2 6203   1.843   1.167   9.698  0.8278 -0.6551 -0.1121
  416MPD2     C 6204   3.220   0.522  11.667  0.5031  0.0203  0.0937
  416MPD2    C1 6205   3.117   0.520  11.573  0.4918 -0.1905  0.4550
  416MPD2    C2 6206   3.147   0.452  11.456 -0.7768 -0.2576 -0.0306
  416MPD2    C3 6207   3.260   0.379  11.433 -0.7442 -0.6987 -0.3485
  416MPD2    C4 6208   3.358   0.389  11.529  0.8008  0.3387 -0.2568
  416MPD2    C5 6209   3.344   0.475  11.636 -0.4787 -0.1383  0.1450
  416MPD2     H 6210   3.082   0.467  11.371  1.1220  2.6523 -0.9789
  416MPD2    H1 6211   3.448   0.328  11.533  1.5798  1.4268 -1.4708
  416MPD2    H2 6212   3.211   0.573  11.762  0.5242  1.0646 -0.4625
  416MPD2    H3 6213   3.426   0.490  11.706 -0.7032  0.1424  0.3505
  416MPD2     N 6214   3.286   0.292  11.321 -0.6669 -0.2247  0.0029
  416MPD2    H5 6215   3.379   0.252  11.313 -0.3297  0.0936  2.2424
  416MPD2    N1 6216   3.001   0.596  11.601  0.2519 -0.0987 -0.3913
  416MPD2    H7 6217   3.007   0.649  11.688 -0.4671 -2.5148  1.1356
  417TMC3    C1 6218   2.800   0.702  11.558  0.1159  0.6266  0.6174
  417TMC3    C2 6219   2.806   0.762  11.684 -0.4496 -0.2070  0.6942
  417TMC3    C3 6220   2.692   0.826  11.730  0.1999 -0.0424  0.0828
  417TMC3    C4 6221   2.676   0.703  11.490  0.1225  0.6579 -0.3519
  417TMC3    C5 6222   2.566   0.766  11.540 -0.7752 -0.1362  0.2754
  417TMC3    C6 6223   2.569   0.834  11.666 -0.1799  0.2994  0.5976
  417TMC3     C 6224   2.896   0.610  11.511  0.1265  0.0421 -0.2576
  417TMC3     O 6225   2.881   0.554  11.402  0.5454 -0.3579  0.4239
  417TMC3     H 6226   2.899   0.783  11.735  1.6248 -2.3637 -2.1777
  417TMC3    H1 6227   2.669   0.660  11.390  0.8330  1.6038 -0.8015
  417TMC3    H2 6228   2.483   0.886  11.708  0.4398  0.3303  1.8407
  417TMC3    C7 6229   2.439   0.759  11.463  0.1669  0.6539 -0.1522
  417TMC3    C8 6230   2.696   0.876  11.865 -0.2622  0.4110 -0.0643
  417TMC3    O1 6231   2.440   0.719  11.348 -0.2640  0.2636 -0.2888
  417TMC3    O2 6232   2.620   0.969  11.887 -0.0058  0.0889 -0.2857
  418TMC3    C1 6233   0.924   2.084  17.578 -0.6066  0.5249  0.0613
  418TMC3    C2 6234   0.875   1.982  17.505  0.4358  0.4041 -0.1244
  418TMC3    C3 6235   0.792   1.892  17.567  0.3505 -0.5361  1.2217
  418TMC3    C4 6236   0.910   2.094   0.013  0.3755 -0.3621 -0.0327
  418TMC3    C5 6237   0.835   1.992   0.072  0.0601  0.4261  0.3725
  418TMC3    C6 6238   0.768   1.890   0.008 -0.1146 -0.2620  0.6029
  418TMC3     C 6239   1.043   2.141  17.524  0.4328 -0.1064 -0.2374
  418TMC3     O 6240   1.064   2.260  17.534  0.3233 -0.2402  0.3116
  418TMC3     H 6241   0.893   1.973  17.399 -0.3585 -0.8774 -0.1545
  418TMC3    H1 6242   0.963   2.172   0.064  1.8746 -1.1247 -0.4158
  418TMC3    H2 6243   0.699   1.826   0.060 -1.6349  0.4076 -0.5818
  418TMC3    C7 6244   0.856   1.971   0.208 -0.7017 -0.1672 -0.0766
  418TMC3    C8 6245   0.697   1.837  17.473 -0.3297 -0.2660 -0.4509
  418TMC3    O1 6246   0.841   1.860   0.261  0.1865  0.7245  0.2372
  418TMC3    O2 6247   0.675   1.907  17.375 -0.0622  0.0876  0.3382
  419MPD2     C 6248   4.154   0.117  12.571  0.5313 -0.5274 -0.3917
  419MPD2    C1 6249   4.194   0.249  12.551 -0.2268  0.0813  0.0582
  419MPD2    C2 6250   4.148   0.341  12.643  0.5197 -0.0825 -0.7721
  419MPD2    C3 6251   4.061   0.305  12.745 -0.3253 -0.4894 -0.6112
  419MPD2    C4 6252   4.026   0.168  12.762  0.8355 -0.1882  0.0306
  419MPD2    C5 6253   4.074   0.078  12.673  0.7901 -0.2100 -0.3411
  419MPD2     H 6254   4.175   0.446  12.635  0.6546 -0.1877 -1.6949
  419MPD2    H1 6255   3.971   0.131  12.848  0.3142  3.3352  1.2014
  419MPD2    H2 6256   4.188   0.030  12.516  1.0057 -1.5476  1.4878
  419MPD2    H3 6257   4.052   4.697  12.687  2.2897 -0.7370 -1.8715
  419MPD2     N 6258   4.026   0.397  12.841 -0.2168 -0.0446 -0.7488
  419MPD2    H5 6259   4.067   0.488  12.826 -0.6387  0.2856  0.0849
  419MPD2    N1 6260   4.286   0.299  12.462 -0.0177  0.6401 -0.6070
  419MPD2    H7 6261   4.309   0.398  12.464 -2.0885  1.1396 -1.8077
  420TMC3    C1 6262   3.923   0.518  13.006 -0.5689 -0.2349 -0.2406
  420TMC3    C2 6263   3.878   0.626  12.932  0.4768 -0.5971 -0.2679
  420TMC3    C3 6264   3.891   0.751  12.986 -0.2269 -0.7605 -0.0544
  420TMC3    C4 6265   3.985   0.540  13.128 -0.0941 -0.6778 -0.0082
  420TMC3    C5 6266   4.001   0.671  13.177 -0.1778 -0.1394  0.4804
  420TMC3    C6 6267   3.957   0.780  13.104 -0.1182 -0.0801 -0.0533
  420TMC3     C 6268   3.943   0.388  12.946  0.4686 -0.1318 -0.0091
  420TMC3     O 6269   3.898   0.292  13.001  0.0977  0.4332 -0.0490
  420TMC3     H 6270   3.853   0.609  12.828 -0.1990  0.2377 -0.2368
  420TMC3    H1 6271   4.037   0.453  13.165  1.4745 -0.1836 -1.0363
  420TMC3    H2 6272   3.982   0.880  13.135 -1.9167  0.2976  0.1744
  420TMC3    C7 6273   4.084   0.685  13.293 -0.0909  0.4008 -0.0590
  420TMC3    C8 6274   3.849   0.866  12.900 -0.2673 -0.4682  0.2044
  420TMC3    O1 6275   4.154   0.587  13.317 -0.6303 -0.1021  0.4131
  420TMC3    O2 6276   3.931   0.955  12.897 -0.2160 -0.5237  0.1801
  421TMC3    C1 6277   1.474   2.359  13.689 -0.2335  0.0718  0.1200
  421TMC3    C2 6278   1.537   2.447  13.776  0.2759 -0.0407 -0.2721
  421TMC3    C3 6279   1.620   2.392  13.871  0.6180  0.5268 -0.3754
  421TMC3    C4 6280   1.509   2.228  13.684 -0.4002  0.2876 -0.0244
  421TMC3    C5 6281   1.603   2.184  13.768 -0.0827  0.1870 -0.3171
  421TMC3    C6 6282   1.653   2.262  13.871  0.3369  0.6297 -0.1221
  421TMC3     C 6283   1.375   2.412  13.593 -0.4886  0.7090  0.5162
  421TMC3     O 6284   1.386   2.534  13.568  0.4882  0.0525  0.4151
  421TMC3     H 6285   1.546   2.550  13.743 -0.4508  0.1034 -0.0208
  421TMC3    H1 6286   1.456   2.159  13.619  1.0411 -0.5843 -0.2680
  421TMC3    H2 6287   1.723   2.230  13.947 -1.0127 -1.7729  0.0902
  421TMC3    C7 6288   1.674   2.065  13.734 -0.8141  0.4487  0.5537
  421TMC3    C8 6289   1.684   2.480  13.959  0.5368 -0.0326 -0.1075
  421TMC3    O1 6290   1.755   2.036  13.821 -0.4852  0.1978 -0.3345
  421TMC3    O2 6291   1.800   2.461  13.979  0.8570  0.1267 -0.4630
  422TMC3    C1 6292   3.719   3.305  12.603 -0.2211  0.5122  0.1735
  422TMC3    C2 6293   3.695   3.437  12.579  0.0099  0.4496  0.2985
  422TMC3    C3 6294   3.570   3.488  12.595 -0.0920 -0.1541 -0.4682
  422TMC3    C4 6295   3.616   3.221  12.637  0.2976  0.4474  0.0817
  422TMC3    C5 6296   3.488   3.269  12.666 -0.5691  1.0936  0.5707
  422TMC3    C6 6297   3.465   3.405  12.642  0.5203  0.0345 -0.0802
  422TMC3     C 6298   3.821   3.250  12.517 -0.5570 -0.5988  0.8681
  422TMC3     O 6299   3.869   3.338  12.444 -0.0366 -0.2465  0.1275
  422TMC3     H 6300   3.780   3.499  12.554  0.9108 -0.4437  1.1569
  422TMC3    H1 6301   3.628   3.113  12.644  1.6284  0.5095 -1.3045
  422TMC3    H2 6302   3.363   3.438  12.660  1.5272  2.8854  0.4203
  422TMC3    C7 6303   3.373   3.180  12.659 -0.5772  0.1382  0.5182
  422TMC3    C8 6304   3.536   3.628  12.576  0.3152 -0.3753  0.4189
  422TMC3    O1 6305   3.396   3.073  12.608 -0.0303 -0.6386  0.1324
  422TMC3    O2 6306   3.630   3.700  12.560  0.3113  0.0325  0.4803
  423MPD2     C 6307   4.196   4.434   0.430 -0.7156  0.1392  0.3852
  423MPD2    C1 6308   4.290   4.367   0.509 -0.5443  0.9336  0.3815
  423MPD2    C2 6309   4.396   4.306   0.446  0.3118 -0.4292 -0.4630
  423MPD2    C3 6310   4.413   4.305   0.309  0.5812 -0.4914 -0.7441
  423MPD2    C4 6311   4.317   4.378   0.237 -0.3045 -0.4010 -0.1761
  423MPD2    C5 6312   4.212   4.441   0.293 -1.2290  0.0278  0.0846
  423MPD2     H 6313   4.477   4.256   0.498  0.8601  1.3213  0.3677
  423MPD2    H1 6314   4.321   4.380   0.129  1.4501 -3.9602 -0.1761
  423MPD2    H2 6315   4.105   4.473   0.475 -1.2046 -5.6655  4.3949
  423MPD2    H3 6316   4.152   4.494   0.219  0.6879 -1.0043 -2.1996
  423MPD2     N 6317   4.515   4.238   0.231 -0.4904 -0.7432 -0.1601
  423MPD2    H5 6318   4.497   4.254   0.133  1.7866 -1.0537 -0.6102
  423MPD2    N1 6319   4.290   4.372   0.650 -0.6910 -0.2307  0.1512
  423MPD2    H7 6320   4.377   4.344   0.694 -0.0111 -1.0147 -1.6988
  424TMC3    C1 6321   4.215   4.424   0.866  0.2491 -0.2666  1.1599
  424TMC3    C2 6322   4.346   4.440   0.910  0.2317 -0.5423  0.6462
  424TMC3    C3 6323   4.365   4.439   1.048 -0.9074  0.2879  0.3866
  424TMC3    C4 6324   4.110   4.411   0.953 -0.1710  0.7092 -0.3932
  424TMC3    C5 6325   4.131   4.422   1.089  0.9137 -0.7468  0.2681
  424TMC3    C6 6326   4.258   4.423   1.141  0.1161  0.1470 -0.2031
  424TMC3     C 6327   4.180   4.402   0.728  0.1348 -0.0726 -0.0551
  424TMC3     O 6328   4.064   4.396   0.691  0.2989 -0.3316 -0.2675
  424TMC3     H 6329   4.427   4.459   0.841  1.1136  1.0765  2.1460
  424TMC3    H1 6330   4.010   4.416   0.911 -0.3127 -2.1163 -0.3711
  424TMC3    H2 6331   4.283   4.427   1.246  0.2587  2.1240 -0.3063
  424TMC3    C7 6332   4.017   4.457   1.160 -0.4375 -0.0274 -0.2794
  424TMC3    C8 6333   4.500   4.381   1.088  0.8559  0.0352  0.0677
  424TMC3    O1 6334   3.910   4.488   1.109  0.2861 -0.0779 -1.8798
  424TMC3    O2 6335   4.498   4.322   1.195  0.2015 -0.1120  0.3410
  425MPD2     C 6336   3.740   3.620  17.251 -0.1294  0.4402 -0.4019
  425MPD2    C1 6337   3.634   3.531  17.228 -0.1277 -0.5635 -0.3196
  425MPD2    C2 6338   3.508   3.561  17.285 -0.4060  0.1673  0.2033
  425MPD2    C3 6339   3.491   3.670  17.366  0.2880 -0.2434  0.4502
  425MPD2    C4 6340   3.598   3.754  17.387 -0.2365  0.2391 -0.4726
  425MPD2    C5 6341   3.716   3.732  17.317 -0.1825 -0.7634 -0.2047
  425MPD2     H 6342   3.414   3.512  17.261  0.5245 -1.6025  0.1509
  425MPD2    H1 6343   3.589   3.842  17.449 -0.4232 -1.6675  2.1827
  425MPD2    H2 6344   3.835   3.604  17.201 -0.6876 -0.0425 -1.2957
  425MPD2    H3 6345   3.804   3.796  17.321 -2.5883  2.6432 -1.4539
  425MPD2     N 6346   3.369   3.674  17.432 -0.1017 -0.1363 -0.6430
  425MPD2    H5 6347   3.305   3.597  17.417 -2.8713  2.1707 -0.7220
  425MPD2    N1 6348   3.657   3.405  17.166 -0.4600  0.1711 -1.0220
  425MPD2    H7 6349   3.751   3.367  17.173 -0.6108 -0.1478 -0.7365
  426TMC3    C1 6350   3.601   3.180  17.167 -0.0696 -0.7813  0.4471
  426TMC3    C2 6351   3.556   3.079  17.083 -0.6606  0.2720  0.4243
  426TMC3    C3 6352   3.596   2.955  17.115  0.5111  0.4775 -0.0643
  426TMC3    C4 6353   3.669   3.155  17.282 -0.0940 -0.4146  0.0132
  426TMC3    C5 6354   3.715   3.026  17.296 -0.6233  0.1089  0.0831
  426TMC3    C6 6355   3.678   2.922  17.215 -0.5663  0.7548 -0.6775
  426TMC3     C 6356   3.556   3.313  17.141  0.6525 -0.4158 -0.1663
  426TMC3     O 6357   3.436   3.326  17.124 -0.2195 -0.1478  0.8675
  426TMC3     H 6358   3.509   3.102  16.988  2.6213  1.4005 -0.9074
  426TMC3    H1 6359   3.712   3.231  17.345 -0.3846 -0.6445  0.4858
  426TMC3    H2 6360   3.711   2.820  17.230 -0.0330  0.8908 -0.9406
  426TMC3    C7 6361   3.763   2.989  17.426 -0.3092  0.4602  0.1362
  426TMC3    C8 6362   3.516   2.851  17.048  0.0477  0.7163  0.4231
  426TMC3    O1 6363   3.845   2.892  17.431  0.1503 -0.1336 -0.3652
  426TMC3    O2 6364   3.409   2.886  17.000 -0.4793  0.2214 -0.3234
  427MPD2     C 6365   2.704   0.759  14.904  0.0511  0.0997 -0.1189
  427MPD2    C1 6366   2.654   0.735  15.035 -0.3802  0.0905  0.3775
  427MPD2    C2 6367   2.518   0.765  15.058 -0.1021  0.1805  0.6439
  427MPD2    C3 6368   2.432   0.799  14.954  0.1113 -0.3497  0.2461
  427MPD2    C4 6369   2.481   0.809  14.829  0.1749  1.0555  0.8789
  427MPD2    C5 6370   2.612   0.795  14.807 -0.1126  0.1115 -0.0916
  427MPD2     H 6371   2.480   0.744  15.158  0.0105 -1.8224  0.2703
  427MPD2    H1 6372   2.415   0.837  14.747  1.1586 -2.5427 -1.1318
  427MPD2    H2 6373   2.807   0.735  14.880  0.2239 -0.9841  1.7386
  427MPD2    H3 6374   2.653   0.808  14.707 -0.0944 -1.6909 -0.3174
  427MPD2     N 6375   2.296   0.832  14.966  0.3426  0.4993 -0.7156
  427MPD2    H5 6376   2.253   0.850  14.876  2.8024  0.4296 -1.9268
  427MPD2    N1 6377   2.736   0.697  15.146  0.2954 -0.0822  0.5388
  427MPD2    H7 6378   2.703   0.714  15.241  1.0453 -1.4324  1.0496
  428TMC3    C1 6379   2.933   0.644  15.264  0.5086 -0.3901 -0.0863
  428TMC3    C2 6380   2.866   0.582  15.366  0.2214  0.0304 -0.1370
  428TMC3    C3 6381   2.936   0.508  15.459  0.7490 -0.8772  0.0263
  428TMC3    C4 6382   3.070   0.641  15.264  0.2102  0.2016 -0.0878
  428TMC3    C5 6383   3.140   0.561  15.351 -0.1370  0.1939  0.2851
  428TMC3    C6 6384   3.074   0.502  15.456 -0.2777 -0.9050 -0.0713
  428TMC3     C 6385   2.875   0.670  15.134 -0.5575 -0.3467 -0.3406
  428TMC3     O 6386   2.947   0.671  15.033 -0.0903  0.6455  0.0714
  428TMC3     H 6387   2.758   0.576  15.361  0.2189 -1.0511  1.2849
  428TMC3    H1 6388   3.117   0.692  15.181  2.0891  1.3140  1.6745
  428TMC3    H2 6389   3.137   0.432  15.509 -1.0007 -0.5094  1.3258
  428TMC3    C7 6390   3.282   0.605  15.386  0.1154  0.0705 -0.0456
  428TMC3    C8 6391   2.863   0.413  15.541  0.7547 -0.2721  0.3048
  428TMC3    O1 6392   3.308   0.598  15.505  0.1664  0.1859 -0.4844
  428TMC3    O2 6393   2.749   0.384  15.511  0.1009  0.6826  0.1132
  429MPD2     C 6394   2.812   0.646  17.637  0.0460 -0.1812 -0.2292
  429MPD2    C1 6395   2.945   0.622  17.615  0.6425  0.1666  0.5393
  429MPD2    C2 6396   3.023   0.720  17.550  0.5836 -0.0592  0.3859
  429MPD2    C3 6397   2.958   0.836  17.512  0.5502 -0.3750  0.1525
  429MPD2    C4 6398   2.830   0.860  17.539 -0.0881 -0.2914 -0.6226
  429MPD2    C5 6399   2.754   0.771  17.598  0.0820 -0.3928  0.0476
  429MPD2     H 6400   3.127   0.706  17.524  0.1685  1.2576 -2.0165
  429MPD2    H1 6401   2.783   0.948  17.497  0.5227  0.0791 -0.5234
  429MPD2    H2 6402   2.743   0.578  17.686  0.3770 -0.5449 -0.2676
  429MPD2    H3 6403   2.646   0.782  17.604 -0.2871 -2.6681 -2.1222
  429MPD2     N 6404   3.030   0.928  17.432 -0.5007 -0.1493  0.2443
  429MPD2    H5 6405   3.131   0.920  17.440 -0.4005  0.9881  0.1670
  429MPD2    N1 6406   3.010   0.499  17.644  0.1006  0.3022  0.3933
  429MPD2    H7 6407   3.108   0.501  17.619 -0.6330 -0.9319 -2.5771
  430TMC3    C1 6408   3.051   1.140  17.319  0.1794 -0.4328  0.0711
  430TMC3    C2 6409   3.025   1.211  17.205  0.1691 -0.7133 -0.7724
  430TMC3    C3 6410   3.092   1.328  17.185  0.8131  0.1944  0.2706
  430TMC3    C4 6411   3.147   1.184  17.408  0.4361 -0.6719 -0.2396
  430TMC3    C5 6412   3.220   1.298  17.380 -0.2150 -0.1050  0.2891
  430TMC3    C6 6413   3.190   1.369  17.270 -0.3969 -0.0407 -0.2996
  430TMC3     C 6414   2.973   1.030  17.354  0.4787  0.6202  0.9871
  430TMC3     O 6415   2.866   1.014  17.289  0.4379  0.6091  0.5412
  430TMC3     H 6416   2.941   1.183  17.142 -2.6282 -0.8175  3.0176
  430TMC3    H1 6417   3.178   1.130  17.497 -2.0941  1.3778  1.8982
  430TMC3    H2 6418   3.246   1.459  17.249 -0.5275 -0.2496 -1.5828
  430TMC3    C7 6419   3.356   1.273  17.403  0.0260  0.1442  0.0298
  430TMC3    C8 6420   3.113   1.357  17.044 -0.1863  0.9856 -0.0333
  430TMC3    O1 6421   3.389   1.160  17.441 -0.2066  0.8166 -0.0155
  430TMC3    O2 6422   3.090   1.260  16.976 -0.3183  0.0367 -0.6152
  431MPD2     C 6423   0.064   0.860  12.760  0.2319  0.0011  0.4372
  431MPD2    C1 6424   0.057   0.883  12.627 -0.2869  0.2407 -0.2894
  431MPD2    C2 6425   0.029   0.776  12.537  0.2062  0.0303  0.9993
  431MPD2    C3 6426   0.023   0.650  12.578 -1.1795  0.0373 -0.1060
  431MPD2    C4 6427   0.027   0.625  12.716  0.0272 -0.2218 -0.3233
  431MPD2    C5 6428   0.056   0.729  12.796 -0.5532  0.0826  0.4903
  431MPD2     H 6429   0.017   0.816  12.437 -0.9877  1.3069  1.6486
  431MPD2    H1 6430   0.015   0.526  12.759 -0.8212  0.6951  1.5572
  431MPD2    H2 6431   0.075   0.946  12.826  0.5909 -0.6559  1.2345
  431MPD2    H3 6432   0.060   0.699  12.900 -0.0359  3.1377  1.3603
  431MPD2     N 6433   4.720   0.545  12.490  0.1196 -0.0045  0.1646
  431MPD2    H5 6434   4.688   0.457  12.531 -0.8308 -0.5379 -1.7446
  431MPD2    N1 6435   0.087   1.001  12.565 -0.3434 -0.4709 -0.6802
  431MPD2    H7 6436   0.069   1.011  12.466 -0.5851 -1.8411 -0.7646
  432TMC3    C1 6437   4.638   0.431  12.308 -0.1700 -0.4189  0.6231
  432TMC3    C2 6438   4.684   0.372  12.193  0.5835  0.1464 -0.2498
  432TMC3    C3 6439   4.611   0.274  12.128 -0.6285  0.4468  0.3875
  432TMC3    C4 6440   4.522   0.389  12.362  0.6238  0.6669  0.2626
  432TMC3    C5 6441   4.453   0.299  12.292  0.5659  0.5890  0.6328
  432TMC3    C6 6442   4.492   0.236  12.182 -0.3139  0.0191  0.6343
  432TMC3     C 6443   4.709   0.547  12.357 -0.1446 -0.3509  0.2610
  432TMC3     O 6444   0.045   0.618  12.282 -0.4604 -0.5341  0.5161
  432TMC3     H 6445   0.055   0.409  12.156 -0.5253  0.2031 -3.0391
  432TMC3    H1 6446   4.479   0.429  12.453  0.1696 -1.9340  1.2042
  432TMC3    H2 6447   4.428   0.168  12.126 -1.3626  2.2507 -0.8958
  432TMC3    C7 6448   4.344   0.228  12.361  0.3897 -0.1210  0.3796
  432TMC3    C8 6449   4.631   0.256  11.996  0.4723  0.5773 -0.0351
  432TMC3    O1 6450   4.325   0.110  12.336 -0.0087  0.1656 -0.0806
  432TMC3    O2 6451   4.534   0.208  11.934  0.2277 -1.0545  0.8628
  433MPD2     C 6452   3.826   4.664  10.757  0.0590 -0.0390  0.7087
  433MPD2    C1 6453   3.849   4.538  10.820  0.8170 -0.0764  0.0434
  433MPD2    C2 6454   3.921   4.538  10.938  0.2652 -0.7219 -0.3826
  433MPD2    C3 6455   3.952   4.658  10.999  0.2692 -0.7219  0.6610
  433MPD2    C4 6456   3.932   0.057  10.935 -0.2497  0.1837 -0.2626
  433MPD2    C5 6457   3.867   0.056  10.815 -0.3158  0.0317 -0.5004
  433MPD2     H 6458   3.940   4.442  10.984 -1.5889 -1.6872 -1.6384
  433MPD2    H1 6459   3.968   0.152  10.973 -0.9393  0.3332  0.0125
  433MPD2    H2 6460   3.769   4.672  10.666 -0.0134 -1.5144  0.6274
  433MPD2    H3 6461   3.848   0.150  10.764 -2.3812 -1.2453 -2.0570
  433MPD2     N 6462   4.009   4.650  11.133 -0.5097  0.5925 -0.0451
  433MPD2    H5 6463   4.018   4.559  11.177 -2.1325 -0.3732 -1.6534
  433MPD2    N1 6464   3.806   4.416  10.756  0.0472 -0.1269  0.0907
  433MPD2    H7 6465   3.767   4.433  10.664  0.0573  1.0870  0.3059
  434TMC3    C1 6466   3.827   4.176  10.720  0.1015 -0.7576  0.3475
  434TMC3    C2 6467   3.859   4.058  10.782 -0.2258  0.0244  0.5232
  434TMC3    C3 6468   3.917   3.958  10.710 -0.0658  0.2496  0.2085
  434TMC3    C4 6469   3.855   4.188  10.588  0.6082 -0.0872  0.5400
  434TMC3    C5 6470   3.909   4.080  10.519  0.8921 -0.4334  0.5253
  434TMC3    C6 6471   3.957   3.969  10.582 -0.2632  1.2448 -0.2083
  434TMC3     C 6472   3.814   4.290  10.812 -0.0857 -0.7151 -0.3549
  434TMC3     O 6473   3.808   4.267  10.934  0.4831  0.0812 -0.3325
  434TMC3     H 6474   3.835   4.047  10.887 -1.3331  0.2552  0.2986
  434TMC3    H1 6475   3.834   4.281  10.535  2.2990  0.9166  1.6546
  434TMC3    H2 6476   4.001   3.885  10.529 -1.0013  1.4277 -1.1002
  434TMC3    C7 6477   3.832   4.042  10.400  0.0322  0.0850  0.3721
  434TMC3    C8 6478   3.978   3.856  10.791  0.2050  0.7729  0.1412
  434TMC3    O1 6479   3.727   4.105  10.390  0.5659  0.1089  0.1070
  434TMC3    O2 6480   3.966   3.866  10.913  0.3181 -0.0808 -0.2901
  435MPD2     C 6481   0.524   4.451  15.434 -0.5593  1.1744 -0.5048
  435MPD2    C1 6482   0.490   4.425  15.569 -0.4113  0.4181  1.1835
  435MPD2    C2 6483   0.568   4.335  15.640  0.4071  0.2258 -0.5356
  435MPD2    C3 6484   0.679   4.279  15.588 -0.1298  0.5196  0.1736
  435MPD2    C4 6485   0.720   4.321  15.463 -0.5011 -0.3964  0.4333
  435MPD2    C5 6486   0.639   4.404  15.385 -0.5435  0.3128 -0.3152
  435MPD2     H 6487   0.541   4.303  15.740 -1.8419  2.8529 -0.2983
  435MPD2    H1 6488   0.815   4.303  15.413 -0.1475  0.3313  0.8449
  435MPD2    H2 6489   0.448   4.500  15.374  0.2333  1.6768 -1.0896
  435MPD2    H3 6490   0.661   4.420  15.280  1.0256 -0.3898 -0.0908
  435MPD2     N 6491   0.756   4.200  15.678  0.6500  1.0830 -0.5374
  435MPD2    H5 6492   0.729   4.189  15.775 -1.5474  0.6864 -1.1990
  435MPD2    N1 6493   0.370   4.466  15.632 -0.6096 -0.0629  0.2096
  435MPD2    H7 6494   0.363   4.434  15.728  2.6675 -0.8327  0.2192
  436TMC3    C1 6495   0.089   4.551  15.892 -0.6137  0.0820  0.3280
  436TMC3    C2 6496   0.195   4.530  15.812 -0.3623  1.3238  0.2463
  436TMC3    C3 6497   0.207   4.604  15.700 -0.1764  0.8114 -0.6126
  436TMC3    C4 6498   4.723   4.645  15.853  0.8738 -0.1122  0.1045
  436TMC3    C5 6499   0.011   4.718  15.740  0.3949  0.4662 -0.3333
  436TMC3    C6 6500   0.122   4.703  15.663 -0.4846 -0.7082 -0.0364
  436TMC3     C 6501   0.076   4.488  16.015 -0.5469  0.8275 -0.1645
  436TMC3     O 6502   0.132   4.384  16.035  0.1962 -0.3598  0.0603
  436TMC3     H 6503   0.268   4.458  15.846 -0.8634 -0.6532 -2.8480
  436TMC3    H1 6504   4.632   4.658  15.911 -1.1610 -3.0768 -2.3662
  436TMC3    H2 6505   0.133   0.047  15.579  3.1241 -0.9956  0.2191
  436TMC3    C7 6506   4.607   0.008  15.665 -0.1437  0.6543  0.9243
  436TMC3    C8 6507   0.290   4.563  15.590 -0.3503  0.5518  0.5684
  436TMC3    O1 6508   4.536   4.632  15.670  0.1314  0.1503 -0.1632
  436TMC3    O2 6509   0.273   4.612  15.479 -0.2498  0.8551 -0.2990
  437TMC3    C1 6510   3.771   1.351  12.795  0.4430  0.5540  0.0970
  437TMC3    C2 6511   3.644   1.309  12.772 -0.3648  0.6308  0.4796
  437TMC3    C3 6512   3.582   1.364  12.659  0.2858 -1.1737  0.0849
  437TMC3    C4 6513   3.833   1.457  12.730 -0.4038 -0.8407 -0.3246
  437TMC3    C5 6514   3.758   1.511  12.629  0.5124  0.7049  0.2836
  437TMC3    C6 6515   3.636   1.466  12.591  0.3811 -0.1618 -0.1161
  437TMC3     C 6516   3.801   1.330  12.938 -0.3554 -0.2946  0.0910
  437TMC3     O 6517   3.712   1.291  13.012  0.6679  0.3529 -1.0420
  437TMC3     H 6518   3.600   1.230  12.832  1.5458 -1.2951 -0.6612
  437TMC3    H1 6519   3.937   1.480  12.753 -0.6671 -0.6167  0.6208
  437TMC3    H2 6520   3.579   1.518  12.515 -0.3282  0.2789  0.7117
  437TMC3    C7 6521   3.810   1.639  12.570  0.0780 -0.3963  0.3783
  437TMC3    C8 6522   3.456   1.312  12.594  0.2960 -0.8747  0.2782
  437TMC3    O1 6523   3.720   1.715  12.531 -0.1214  0.2068 -0.0552
  437TMC3    O2 6524   3.446   1.333  12.474  0.1189 -0.0561  0.0771
  438MPD2     C 6525   1.698   2.258  16.725 -0.2872  0.1315  0.2858
  438MPD2    C1 6526   1.728   2.123  16.724 -0.6922 -0.2497 -0.5135
  438MPD2    C2 6527   1.656   2.047  16.812  0.5019 -0.1047  0.4442
  438MPD2    C3 6528   1.562   2.100  16.893 -0.0982  0.5808 -0.0117
  438MPD2    C4 6529   1.528   2.233  16.894  0.5007 -0.5719 -0.0203
  438MPD2    C5 6530   1.606   2.315  16.813 -0.4599  0.6443 -0.1605
  438MPD2     H 6531   1.666   1.939  16.807 -1.5402 -0.3026  0.3493
  438MPD2    H1 6532   1.449   2.267  16.960 -0.6930 -0.2448 -1.6261
  438MPD2    H2 6533   1.750   2.334  16.667  0.8952  0.5181  1.8769
  438MPD2    H3 6534   1.599   2.423  16.815  3.7083  0.9493 -0.8981
  438MPD2     N 6535   1.478   2.014  16.961  0.5845 -0.2072 -0.1880
  438MPD2    H5 6536   1.383   2.048  16.973  0.4586 -0.9641  1.0344
  438MPD2    N1 6537   1.834   2.061  16.652 -0.0866  0.3075 -0.0404
  438MPD2    H7 6538   1.836   1.960  16.658  3.7835  0.3064 -1.1152
  439TMC3    C1 6539   2.024   2.038  16.522  0.3811  0.1716 -0.3390
  439TMC3    C2 6540   2.091   2.071  16.407 -0.3399 -1.0174 -1.2179
  439TMC3    C3 6541   2.186   1.983  16.355 -0.5632 -0.5054 -0.5906
  439TMC3    C4 6542   2.057   1.913  16.585  0.4059 -0.0829  0.9054
  439TMC3    C5 6543   2.151   1.824  16.533 -0.4042  0.6133 -0.2923
  439TMC3    C6 6544   2.219   1.866  16.422  1.2332 -0.3561 -0.1338
  439TMC3     C 6545   1.930   2.126  16.580  0.4806 -0.2497  0.8158
  439TMC3     O 6546   1.945   2.249  16.569  0.0263 -0.3508 -0.4026
  439TMC3     H 6547   2.068   2.170  16.369  1.7077 -0.2070 -0.3790
  439TMC3    H1 6548   2.006   1.880  16.676 -0.9813  2.3912  1.0242
  439TMC3    H2 6549   2.294   1.800  16.381  2.0133  1.4928 -1.7040
  439TMC3    C7 6550   2.228   1.758  16.635  0.0510  0.6724 -0.7520
  439TMC3    C8 6551   2.240   1.992  16.218 -0.5194 -0.5280  0.3810
  439TMC3    O1 6552   2.216   1.813  16.742  0.3053 -0.0789 -0.3184
  439TMC3    O2 6553   2.328   1.912  16.181  0.5596  0.3371  0.3979
  440MPD2     C 6554   0.709   2.470  14.770 -0.5523  0.3650 -0.6240
  440MPD2    C1 6555   0.763   2.558  14.866  0.8244 -0.2019 -0.4243
  440MPD2    C2 6556   0.901   2.577  14.872 -0.3356 -0.0784  0.4744
  440MPD2    C3 6557   0.989   2.500  14.793  0.4085  0.0639  0.7221
  440MPD2    C4 6558   0.939   2.399  14.719  0.5022  0.5258 -0.8964
  440MPD2    C5 6559   0.801   2.388  14.707  0.4347 -0.4466 -0.6020
  440MPD2     H 6560   0.943   2.651  14.938  0.3514 -1.6945  1.8632
  440MPD2    H1 6561   1.002   2.338  14.655  0.7253  0.6234 -0.7698
  440MPD2    H2 6562   0.602   2.466  14.754 -0.7111 -0.1373  0.5677
  440MPD2    H3 6563   0.759   2.321  14.634 -2.3016 -0.6185  1.1025
  440MPD2     N 6564   1.128   2.515  14.786 -0.0393  0.9341  0.5687
  440MPD2    H5 6565   1.179   2.446  14.732 -1.8014  2.3278 -2.9033
  440MPD2    N1 6566   0.686   2.629  14.966 -0.0322 -0.3677  0.6761
  440MPD2    H7 6567   0.746   2.663  15.040  1.6044 -0.5499 -0.5550
  441TMC3    C1 6568   1.344   2.617  14.818 -0.0936 -0.6632 -0.4711
  441TMC3    C2 6569   1.409   2.728  14.860 -0.5427  0.0628  0.5084
  441TMC3    C3 6570   1.496   2.724  14.957  0.7009 -0.2008 -0.2873
  441TMC3    C4 6571   1.375   2.502  14.874 -0.7981 -0.1865  0.1215
  441TMC3    C5 6572   1.462   2.500  14.981  0.3074  0.6431  0.2878
  441TMC3    C6 6573   1.524   2.610  15.025  0.5628 -0.2705  0.6699
  441TMC3     C 6574   1.198   2.626  14.830 -0.1716 -0.1322 -0.0957
  441TMC3     O 6575   1.153   2.730  14.873 -0.7520 -0.2980 -0.2264
  441TMC3     H 6576   1.391   2.818  14.802  1.7681  2.0977  2.9531
  441TMC3    H1 6577   1.342   2.404  14.842  0.0337 -0.3591 -0.1973
  441TMC3    H2 6578   1.568   2.619  15.123 -1.5948 -1.4951  1.7408
  441TMC3    C7 6579   1.420   2.411  15.092 -0.3646 -1.0131  0.6060
  441TMC3    C8 6580   1.469   2.838  15.047  0.8599  0.6936  0.0708
  441TMC3    O1 6581   1.320   2.346  15.066 -0.6581  0.1477  0.4205
  441TMC3    O2 6582   1.552   2.851  15.136  0.1257  0.6902 -0.7618
  442MPD2     C 6583   3.463   3.608  16.884 -0.2068  0.0166  0.1213
  442MPD2    C1 6584   3.350   3.630  16.800 -0.3370  0.0436  0.0230
  442MPD2    C2 6585   3.330   3.540  16.696 -0.2529  1.4802 -0.1861
  442MPD2    C3 6586   3.431   3.446  16.662 -1.0196 -0.5347 -0.0001
  442MPD2    C4 6587   3.550   3.452  16.729 -0.9176  0.5318  0.4576
  442MPD2    C5 6588   3.563   3.523  16.840 -0.3243  1.0189  0.7537
  442MPD2     H 6589   3.237   3.543  16.640  0.3077 -1.3868 -1.2521
  442MPD2    H1 6590   3.634   3.396  16.690  1.0310  2.0700  2.4662
  442MPD2    H2 6591   3.478   3.664  16.976 -0.6921 -1.5102  1.1219
  442MPD2    H3 6592   3.656   3.521  16.896 -0.4587 -1.7630  0.8593
  442MPD2     N 6593   3.413   3.347  16.558 -0.2834 -0.2231 -0.0453
  442MPD2    H5 6594   3.489   3.285  16.532  1.5686  2.5677 -1.2537
  442MPD2    N1 6595   3.255   3.731  16.829  0.1365  0.2571 -0.0828
  442MPD2    H7 6596   3.180   3.739  16.761  0.7678 -0.9378 -0.9038
  443TMC3    C1 6597   3.119   3.882  16.946  0.0863  0.7057 -0.2231
  443TMC3    C2 6598   3.080   3.915  16.818 -0.3284  0.1288  0.3604
  443TMC3    C3 6599   2.961   3.979  16.812  0.4216  0.1423  0.0972
  443TMC3    C4 6600   3.037   3.883  17.056 -0.0347 -0.3790 -0.5455
  443TMC3    C5 6601   2.913   3.940  17.042 -0.0906 -0.5727  0.5117
  443TMC3    C6 6602   2.870   3.973  16.916 -0.1517  0.3759  0.9700
  443TMC3     C 6603   3.231   3.788  16.954 -0.5969 -0.0683  0.4345
  443TMC3     O 6604   3.284   3.771  17.062 -0.1105  0.1932 -0.1901
  443TMC3     H 6605   3.152   3.916  16.736 -0.1536  0.9804  0.5292
  443TMC3    H1 6606   3.066   3.842  17.152 -1.9355 -0.0177  0.1700
  443TMC3    H2 6607   2.765   3.997  16.905 -0.6456 -1.8276  0.8070
  443TMC3    C7 6608   2.813   3.876  17.134  0.1236 -0.3500  0.5159
  443TMC3    C8 6609   2.894   3.951  16.691 -0.1761  0.2905 -0.1063
  443TMC3    O1 6610   2.719   3.809  17.085  0.1551 -0.1415 -0.0352
  443TMC3    O2 6611   2.790   3.884  16.704  0.2228 -0.4641  0.3648
  444MPD2     C 6612   3.541   2.643  17.443 -0.1318 -0.4634  0.4923
  444MPD2    C1 6613   3.472   2.584  17.336 -0.0667 -1.0599 -0.1067
  444MPD2    C2 6614   3.551   2.514  17.248 -0.5420  0.3556  0.5293
  444MPD2    C3 6615   3.687   2.502  17.260  0.6014 -0.1594  0.7479
  444MPD2    C4 6616   3.755   2.565  17.362 -0.2479  0.7034  0.6551
  444MPD2    C5 6617   3.677   2.639  17.452 -0.4053  0.8669 -0.8607
  444MPD2     H 6618   3.498   2.475  17.162 -0.2919 -0.1081  0.5859
  444MPD2    H1 6619   3.860   2.553  17.384 -0.1304 -0.5766 -0.6168
  444MPD2    H2 6620   3.492   2.693  17.526 -0.7753  0.5914 -0.5350
  444MPD2    H3 6621   3.725   2.691  17.534 -2.0453  0.8618  0.0952
  444MPD2     N 6622   3.751   2.412  17.171 -0.0091 -0.4183 -0.3671
  444MPD2    H5 6623   3.686   2.359  17.114 -0.4039 -0.2444 -0.0801
  444MPD2    N1 6624   3.330   2.585  17.329  0.1184  0.1033 -0.7359
  444MPD2    H7 6625   3.291   2.509  17.274 -1.4748 -1.5455  2.6006
  445TMC3    C1 6626   3.909   2.293  17.036 -0.0913  0.4640 -0.1798
  445TMC3    C2 6627   3.801   2.238  16.979  0.2329  0.0274  0.0052
  445TMC3    C3 6628   3.838   2.141  16.890  0.1819  0.1907 -0.3705
  445TMC3    C4 6629   4.039   2.274  17.007  0.7111 -0.3891 -0.3978
  445TMC3    C5 6630   4.070   2.182  16.915 -0.1386  0.0706 -0.4691
  445TMC3    C6 6631   3.967   2.108  16.855 -0.1803 -0.3693 -0.2092
  445TMC3     C 6632   3.884   2.399  17.140  0.2270  0.0958 -0.2700
  445TMC3     O 6633   3.982   2.460  17.192  0.1916 -0.1458  0.0995
  445TMC3     H 6634   3.700   2.274  16.996  0.2703  0.9338 -1.6579
  445TMC3    H1 6635   4.119   2.334  17.051  0.4074  0.5132 -1.0748
  445TMC3    H2 6636   3.995   2.043  16.773 -3.3405 -0.7377 -0.9758
  445TMC3    C7 6637   4.211   2.160  16.872 -0.3256 -0.9793  0.6221
  445TMC3    C8 6638   3.745   2.063  16.812  0.5634 -0.1854  0.2596
  445TMC3    O1 6639   4.229   2.114  16.763 -0.1602  0.1256 -0.0544
  445TMC3    O2 6640   3.789   1.991  16.723  0.1664  0.3582 -0.6182
  446MPD2     C 6641   3.807   3.592  11.369  0.1116  0.9892 -0.2744
  446MPD2    C1 6642   3.799   3.618  11.233 -0.3286  0.1820 -0.3541
  446MPD2    C2 6643   3.874   3.716  11.179  0.1368  0.0718 -0.0466
  446MPD2    C3 6644   3.957   3.798  11.252  0.7108  0.4986  0.0900
  446MPD2    C4 6645   3.951   3.783  11.389  0.0502 -0.7443 -0.4197
  446MPD2    C5 6646   3.891   3.674  11.447  0.4342  0.0964 -0.5508
  446MPD2     H 6647   3.877   3.718  11.071 -1.5570 -0.8074 -0.1064
  446MPD2    H1 6648   4.002   3.847  11.461  0.9262 -0.8841 -0.9178
  446MPD2    H2 6649   3.753   3.512  11.419 -0.4063  1.2440 -0.4365
  446MPD2    H3 6650   3.887   3.657  11.554  1.3972 -1.7372 -0.8109
  446MPD2     N 6651   4.038   3.894  11.184  0.4355 -0.0016  0.2404
  446MPD2    H5 6652   4.017   3.905  11.085  1.3296  0.1400  0.0736
  446MPD2    N1 6653   3.707   3.549  11.154 -0.1359 -0.2525  0.7633
  446MPD2    H7 6654   3.687   3.584  11.061  1.2199 -1.3121  0.0888
  447TMC3    C1 6655   4.227   4.046  11.159  0.1586  0.5093 -0.0923
  447TMC3    C2 6656   4.211   4.065  11.025  0.6067  0.1148 -0.3688
  447TMC3    C3 6657   4.321   4.070  10.943 -0.4820 -0.4060 -0.1980
  447TMC3    C4 6658   4.353   4.032  11.205  0.3539  0.0111  0.0049
  447TMC3    C5 6659   4.465   4.029  11.126  0.0207  0.4494  1.0588
  447TMC3    C6 6660   4.451   4.044  10.988  0.8555  0.1802 -0.1581
  447TMC3     C 6661   4.128   3.978  11.246  0.4675  0.0948  0.0876
  447TMC3     O 6662   4.159   3.977  11.365 -0.3452  0.2051  0.5138
  447TMC3     H 6663   4.113   4.076  10.980  0.6517  1.5591 -0.0948
  447TMC3    H1 6664   4.373   4.014  11.310  2.3959  1.2199 -0.1729
  447TMC3    H2 6665   4.542   4.047  10.929 -0.8317 -0.5179 -2.7799
  447TMC3    C7 6666   4.592   3.966  11.172  0.1934  0.6015  0.0984
  447TMC3    C8 6667   4.299   4.105  10.805 -0.4153 -0.0237  0.1550
  447TMC3    O1 6668   4.638   3.881  11.103  0.1594  0.3189 -0.1750
  447TMC3    O2 6669   4.190   4.147  10.762 -0.1614 -0.1265 -0.6430
  448TMC3    C1 6670   1.345   3.961  16.980  0.2816  0.1099 -0.0745
  448TMC3    C2 6671   1.362   3.824  16.975 -0.9520  0.4279 -0.4770
  448TMC3    C3 6672   1.421   3.765  17.083 -0.7880  0.2597  0.0979
  448TMC3    C4 6673   1.366   4.027  17.094  0.0242 -0.3523 -0.3459
  448TMC3    C5 6674   1.433   3.959  17.194  0.6403 -0.2302 -1.1363
  448TMC3    C6 6675   1.466   3.828  17.195 -0.0720 -0.2838  0.3060
  448TMC3     C 6676   1.284   4.025  16.867  0.0998  0.2120 -0.3113
  448TMC3     O 6677   1.219   4.122  16.894  0.2835 -0.3975  0.1920
  448TMC3     H 6678   1.337   3.765  16.888  1.7346 -0.7946 -0.4233
  448TMC3    H1 6679   1.343   4.133  17.098  2.2586 -0.0698  5.1152
  448TMC3    H2 6680   1.531   3.785  17.270  1.3779  2.0458  0.3626
  448TMC3    C7 6681   1.399   4.013  17.322 -0.2335 -0.5683  0.0871
  448TMC3    C8 6682   1.468   3.629  17.074 -0.2638 -0.7173 -0.6529
  448TMC3    O1 6683   1.384   4.133  17.330 -0.4051  0.2305 -0.3636
  448TMC3    O2 6684   1.486   3.576  17.186  0.0731 -0.5248  0.5667
  449MPD2     C 6685   3.472   2.303  13.720 -0.1395  0.5443  0.1296
  449MPD2    C1 6686   3.345   2.306  13.671 -0.3605 -0.1335  0.6050
  449MPD2    C2 6687   3.247   2.223  13.723 -0.0066  0.2654  0.4757
  449MPD2    C3 6688   3.278   2.130  13.821  0.3460  1.4208 -0.1736
  449MPD2    C4 6689   3.407   2.132  13.869 -0.0160  0.5300  0.3467
  449MPD2    C5 6690   3.502   2.210  13.816  0.1721 -0.7166  0.3202
  449MPD2     H 6691   3.146   2.219  13.686  0.6798 -0.8417 -1.2384
  449MPD2    H1 6692   3.441   2.058  13.941 -1.5755 -0.0381  0.5051
  449MPD2    H2 6693   3.551   2.371  13.690 -2.1216  2.9102  0.3486
  449MPD2    H3 6694   3.605   2.194  13.849  0.5422  0.9658 -0.0337
  449MPD2     N 6695   3.171   2.043  13.859 -0.1715  0.1581 -0.1731
  449MPD2    H5 6696   3.079   2.060  13.820 -0.6749 -0.2958  0.8192
  449MPD2    N1 6697   3.295   2.389  13.568 -0.5713  0.2527 -0.2588
  449MPD2    H7 6698   3.194   2.385  13.572 -0.5809  1.2470  0.5242
  450TMC3    C1 6699   3.267   2.517  13.377  0.5316  0.8135  0.3144
  450TMC3    C2 6700   3.268   2.471  13.246 -0.0612 -1.6102  0.5530
  450TMC3    C3 6701   3.161   2.489  13.167 -0.1110  0.4749  0.1029
  450TMC3    C4 6702   3.149   2.566  13.429  0.5289 -0.1146  0.5393
  450TMC3    C5 6703   3.032   2.553  13.353 -0.3189  0.0972 -0.0087
  450TMC3    C6 6704   3.047   2.539  13.217  0.0758 -0.2516  0.0979
  450TMC3     C 6705   3.363   2.456  13.471  0.3429  0.4594  0.1487
  450TMC3     O 6706   3.480   2.451  13.438  0.2720  0.0387 -0.2657
  450TMC3     H 6707   3.362   2.427  13.217  1.9958  1.4220  2.5059
  450TMC3    H1 6708   3.132   2.593  13.532 -0.8842 -0.7301  0.4733
  450TMC3    H2 6709   2.965   2.544  13.146  1.5020  0.6456 -1.4617
  450TMC3    C7 6710   2.958   2.448  13.419 -0.1348 -0.3786  0.3284
  450TMC3    C8 6711   3.138   2.372  13.091  0.7062  0.4444 -0.1777
  450TMC3    O1 6712   3.008   2.412  13.528 -0.2220 -0.4349  0.2109
  450TMC3    O2 6713   3.025   2.322  13.100  0.5579 -0.0750  0.2703
  451MPD2     C 6714   3.576   0.957   1.184 -0.0689  0.7048  0.2338
  451MPD2    C1 6715   3.707   0.998   1.200 -0.0154 -0.2075 -0.4456
  451MPD2    C2 6716   3.806   0.904   1.234  0.1299  0.3074  0.2393
  451MPD2    C3 6717   3.764   0.769   1.246  0.2190 -0.0268 -0.2744
  451MPD2    C4 6718   3.634   0.734   1.221  0.5365 -0.0591  0.3484
  451MPD2    C5 6719   3.539   0.826   1.190  0.9602  0.0305 -0.3833
  451MPD2     H 6720   3.910   0.935   1.231  0.7327 -1.7234 -0.0257
  451MPD2    H1 6721   3.594   0.633   1.222 -0.6999  0.4353  1.7726
  451MPD2    H2 6722   3.506   1.030   1.144 -0.5609 -0.6563 -1.4253
  451MPD2    H3 6723   3.436   0.793   1.181  0.2116  1.8854  1.2587
  451MPD2     N 6724   3.858   0.667   1.281 -0.0964 -0.3510  0.5251
  451MPD2    H5 6725   3.829   0.571   1.263 -0.4021  0.0702 -1.2330
  451MPD2    N1 6726   3.742   1.137   1.178 -0.3277 -0.4755 -0.1998
  451MPD2    H7 6727   3.668   1.203   1.154 -0.6656 -0.5310  0.7234
  452TMC3    C1 6728   4.065   0.575   1.306 -0.4729 -0.0157 -0.3112
  452TMC3    C2 6729   4.185   0.576   1.376 -0.4079 -0.9318  0.4503
  452TMC3    C3 6730   4.293   0.503   1.326 -0.3459 -0.1340 -0.5424
  452TMC3    C4 6731   4.051   0.507   1.189  0.6378 -0.0540 -0.1011
  452TMC3    C5 6732   4.160   0.446   1.134 -0.0913  0.2915  0.8376
  452TMC3    C6 6733   4.279   0.440   1.203  0.2019  0.3570  0.1816
  452TMC3     C 6734   3.983   0.691   1.321 -0.1017 -0.4466 -0.1571
  452TMC3     O 6735   4.041   0.792   1.352  0.2354 -0.0248  0.0690
  452TMC3     H 6736   4.203   0.629   1.469  1.6980 -3.6126  1.5752
  452TMC3    H1 6737   3.960   0.510   1.130  1.8787  1.0339 -1.9511
  452TMC3    H2 6738   4.356   0.382   1.152 -0.5550 -0.0875 -0.4624
  452TMC3    C7 6739   4.148   0.422   0.987  0.4042 -0.4332  0.1641
  452TMC3    C8 6740   4.419   0.491   1.395 -0.3665 -0.2709 -0.3159
  452TMC3    O1 6741   4.035   0.418   0.933 -0.1830  0.3467  0.8464
  452TMC3    O2 6742   4.408   0.503   1.513  0.1606  0.1574  0.6184
  453TMC3    C1 6743   1.045   2.972  12.039 -0.1300  0.2455 -0.7289
  453TMC3    C2 6744   0.950   2.872  12.024  0.1562 -0.3440 -0.3163
  453TMC3    C3 6745   0.863   2.878  11.918  0.4905 -0.3016 -0.6656
  453TMC3    C4 6746   1.064   3.063  11.938  0.1001 -0.0422  0.3032
  453TMC3    C5 6747   0.992   3.056  11.826  0.0808  0.5289 -0.1411
  453TMC3    C6 6748   0.888   2.971  11.819 -0.4167 -0.1470 -0.2918
  453TMC3     C 6749   1.150   2.952  12.131 -0.6935 -0.0081  0.3746
  453TMC3     O 6750   1.219   3.051  12.142  0.0491  0.5753  0.0663
  453TMC3     H 6751   0.936   2.799  12.104  4.3542 -2.5753 -1.5924
  453TMC3    H1 6752   1.131   3.147  11.949 -0.7812  0.7310 -0.1917
  453TMC3    H2 6753   0.826   2.986  11.730 -1.4716  0.3431  0.5210
  453TMC3    C7 6754   1.077   3.041  11.705 -0.5086  0.1539 -0.0117
  453TMC3    C8 6755   0.825   2.746  11.873 -1.1412 -0.3185  0.3812
  453TMC3    O1 6756   1.048   2.944  11.638  0.0043  0.0777  0.0238
  453TMC3    O2 6757   0.770   2.672  11.954 -0.1809 -0.4986  0.1121
  454MPD2     C 6758   4.527   2.424  16.014 -0.2246 -0.1347  0.2822
  454MPD2    C1 6759   4.429   2.508  16.061  0.3957  0.2227 -0.4377
  454MPD2    C2 6760   4.377   2.478  16.184  0.1372  0.2117 -0.4534
  454MPD2    C3 6761   4.419   2.382  16.263  1.0629 -0.4333  0.2033
  454MPD2    C4 6762   4.526   2.307  16.223  0.5333 -0.1436 -0.1203
  454MPD2    C5 6763   4.581   2.329  16.100 -0.3216  0.5070 -0.0127
  454MPD2     H 6764   4.299   2.538  16.229 -0.4027 -1.1458  0.4531
  454MPD2    H1 6765   4.584   2.241  16.287  1.2170  0.7135  0.1510
  454MPD2    H2 6766   4.575   2.438  15.917 -1.4446  1.8822 -0.0258
  454MPD2    H3 6767   4.660   2.265  16.063  0.7696  1.3935  0.8125
  454MPD2     N 6768   4.389   2.356  16.397  0.0681  0.4867  0.6079
  454MPD2    H5 6769   4.431   2.275  16.441  1.2795  0.9337  0.2659
  454MPD2    N1 6770   4.356   2.597  15.977  0.1611  0.1107  0.0807
  454MPD2    H7 6771   4.278   2.642  16.022  0.2964 -0.2144  0.6481
  455TMC3    C1 6772   4.200   2.353  16.538  0.2263 -0.0559 -0.0145
  455TMC3    C2 6773   4.112   2.419  16.620  0.2456  0.0044 -0.0302
  455TMC3    C3 6774   3.986   2.365  16.631  1.0198 -0.3445  0.5089
  455TMC3    C4 6775   4.154   2.242  16.474  0.3730  0.0127  0.2454
  455TMC3    C5 6776   4.031   2.194  16.485  0.5947 -0.1015 -0.3239
  455TMC3    C6 6777   3.938   2.258  16.556  0.5533  0.0300  0.1193
  455TMC3     C 6778   4.303   2.436  16.474 -0.8735 -0.3235 -0.0175
  455TMC3     O 6779   4.288   2.557  16.476 -0.2224 -0.5229  0.7330
  455TMC3     H 6780   4.154   2.505  16.671 -1.9894  1.9511 -1.4750
  455TMC3    H1 6781   4.215   2.188  16.403  0.7227  0.8521 -0.0918
  455TMC3    H2 6782   3.838   2.216  16.555  1.1377 -1.3929  1.5125
  455TMC3    C7 6783   3.998   2.058  16.447  0.1135  0.4679  0.0626
  455TMC3    C8 6784   3.894   2.446  16.715 -0.1617  0.9638  0.6277
  455TMC3    O1 6785   3.912   2.040  16.366  0.4857 -0.9992  0.3839
  455TMC3    O2 6786   3.950   2.526  16.792  0.1389  0.9857 -0.3688
  456MPD2     C 6787   1.932   2.642  16.598  0.1510 -0.0598  0.4416
  456MPD2    C1 6788   2.000   2.600  16.709 -0.1174  0.7205  0.1512
  456MPD2    C2 6789   1.946   2.605  16.832 -0.1020 -0.5004  0.0096
  456MPD2    C3 6790   1.817   2.661  16.846  0.2656 -0.4099 -0.0141
  456MPD2    C4 6791   1.752   2.711  16.732  0.1463 -0.4726  0.2419
  456MPD2    C5 6792   1.806   2.701  16.606 -0.4124 -0.4572  0.0713
  456MPD2     H 6793   1.999   2.576  16.922 -1.5122 -0.4867  0.8476
  456MPD2    H1 6794   1.656   2.761  16.735 -0.6376 -2.1100  2.1346
  456MPD2    H2 6795   1.976   2.622  16.501 -0.2711  0.9114  0.0507
  456MPD2    H3 6796   1.765   2.739  16.513 -0.6180  1.6770  1.0329
  456MPD2     N 6797   1.772   2.676  16.979  0.2586 -0.4332 -0.1775
  456MPD2    H5 6798   1.822   2.625  17.051 -1.0621 -2.3124 -0.5980
  456MPD2    N1 6799   2.127   2.555  16.678 -0.8749 -0.1941  0.9529
  456MPD2    H7 6800   2.149   2.548  16.579 -0.5330 -0.0195  1.0132
  457TMC3    C1 6801   1.677   2.776  17.167  0.0034 -0.5041  0.2927
  457TMC3    C2 6802   1.604   2.890  17.190 -0.7193 -0.7168 -0.1544
  457TMC3    C3 6803   1.651   2.992  17.265  0.5341  0.0289 -0.2427
  457TMC3    C4 6804   1.800   2.757  17.218  0.3046  0.5308 -0.0801
  457TMC3    C5 6805   1.846   2.862  17.297 -0.3849  0.4103  0.5175
  457TMC3    C6 6806   1.776   2.979  17.322  0.8582  0.4055 -0.3979
  457TMC3     C 6807   1.667   2.741  17.026 -0.6145  0.0103  0.3347
  457TMC3     O 6808   1.579   2.801  16.962  0.3657  0.1371 -0.0151
  457TMC3     H 6809   1.507   2.904  17.143 -1.7281  0.5589  2.3380
  457TMC3    H1 6810   1.838   2.656  17.224 -1.5427 -0.1302  0.3697
  457TMC3    H2 6811   1.806   3.052  17.397  0.1352  0.9164 -0.6145
  457TMC3    C7 6812   1.928   2.804  17.407 -0.2735 -0.5520 -0.0173
  457TMC3    C8 6813   1.624   3.124  17.211 -0.7220 -0.4796 -0.3857
  457TMC3    O1 6814   1.936   2.680  17.411 -0.2002  0.2863 -0.9142
  457TMC3    O2 6815   1.602   3.218  17.289 -0.0843 -0.2348 -0.2208
  458MPD2     C 6816   4.167   1.942  12.354 -0.7926 -0.5399 -0.0998
  458MPD2    C1 6817   4.228   1.831  12.409 -0.3081  0.0877 -0.2810
  458MPD2    C2 6818   4.150   1.729  12.462  0.4560 -0.3379  0.2344
  458MPD2    C3 6819   4.009   1.743  12.467 -0.0099  0.1953 -1.0508
  458MPD2    C4 6820   3.947   1.855  12.415  0.1711 -0.2491 -0.2423
  458MPD2    C5 6821   4.025   1.950  12.356 -0.3549  0.7918 -0.2995
  458MPD2     H 6822   4.202   1.643  12.503  1.3902  0.0504 -0.1300
  458MPD2    H1 6823   3.840   1.870  12.417  0.5262  1.7916  3.6462
  458MPD2    H2 6824   4.222   2.031  12.325  0.9578 -0.9163  2.1256
  458MPD2    H3 6825   3.984   2.044  12.323  2.4559  2.0457 -0.2837
  458MPD2     N 6826   3.946   1.638  12.543  0.0166 -0.3638  0.0138
  458MPD2    H5 6827   4.007   1.562  12.573  1.5340  0.3248 -1.3079
  458MPD2    N1 6828   4.371   1.830  12.406  0.0290 -0.0897 -0.3197
  458MPD2    H7 6829   4.416   1.899  12.346 -1.0561  0.5774 -0.3626
  459TMC3    C1 6830   4.593   1.783  12.476  0.4135 -0.5698 -0.3718
  459TMC3    C2 6831   4.639   1.897  12.410 -0.1918 -0.1751  0.6795
  459TMC3    C3 6832   0.028   1.963  12.461  0.1648  0.0371  0.2836
  459TMC3    C4 6833   4.669   1.735  12.585 -0.3393 -0.2944  0.1466
  459TMC3    C5 6834   0.045   1.814  12.633 -0.3953  0.4776  1.5031
  459TMC3    C6 6835   0.094   1.929  12.569 -0.1561  0.2262  0.1984
  459TMC3     C 6836   4.448   1.761  12.495  0.8296 -0.3854  1.1155
  459TMC3     O 6837   4.411   1.692  12.589 -0.0056  0.3974  0.6465
  459TMC3     H 6838   4.579   1.945  12.333 -0.9558 -1.3952  0.5185
  459TMC3    H1 6839   4.636   1.647  12.639  2.1728  0.8250  3.4751
  459TMC3    H2 6840   0.176   1.987  12.610  0.9947 -0.8809 -0.5598
  459TMC3    C7 6841   0.102   1.785  12.771 -0.2586  0.0440  0.1595
  459TMC3    C8 6842   0.112   2.064  12.389 -0.7125 -0.6042  0.1078
  459TMC3    O1 6843   0.067   1.679  12.821 -0.1815 -0.9830 -0.5330
  459TMC3    O2 6844   0.176   2.141  12.454 -0.0868  0.3211  0.5478
  460MPD2     C 6845   4.490   3.961  10.520 -0.0496 -0.0964  0.8414
  460MPD2    C1 6846   4.395   4.046  10.582 -0.4912 -0.1137  0.2817
  460MPD2    C2 6847   4.292   4.093  10.502  0.1745 -1.1829 -0.0071
  460MPD2    C3 6848   4.296   4.070  10.366 -0.2276 -0.6093 -0.0657
  460MPD2    C4 6849   4.396   3.991  10.308  0.0767 -0.0955 -0.2228
  460MPD2    C5 6850   4.487   3.934  10.384 -1.1563 -0.3772 -0.0199
  460MPD2     H 6851   4.207   4.148  10.540  1.8576  2.3967 -1.3854
  460MPD2    H1 6852   4.404   3.969  10.202  2.9070 -1.3824  0.2598
  460MPD2    H2 6853   4.565   3.916  10.584  1.5287  0.2644 -0.7657
  460MPD2    H3 6854   4.573   3.880  10.346 -0.7650 -0.1147  0.4979
  460MPD2     N 6855   4.196   4.107  10.269  0.4654 -1.0820 -0.0666
  460MPD2    H5 6856   4.197   4.070  10.175  2.7903  0.1721 -0.5168
  460MPD2    N1 6857   4.404   4.061  10.727  0.1872  0.7715  0.0406
  460MPD2    H7 6858   4.493   4.038  10.769  1.9037  2.4680 -2.6859
  461TMC3    C1 6859   4.031   4.240  10.180  0.6037 -0.3740 -0.3816
  461TMC3    C2 6860   4.021   4.157  10.075  0.6232  0.2410 -0.1346
  461TMC3    C3 6861   3.940   4.196   9.971 -0.9216 -0.1834  0.1907
  461TMC3    C4 6862   3.984   4.369  10.178 -0.2304 -0.0845 -0.4929
  461TMC3    C5 6863   3.921   4.414  10.062  0.2151  0.0531  0.2113
  461TMC3    C6 6864   3.906   4.327   9.954  0.0317 -0.3264  0.5170
  461TMC3     C 6865   4.113   4.212  10.293 -0.6213  0.2004  0.9630
  461TMC3     O 6866   4.109   4.294  10.386 -0.1257 -0.1347  0.3813
  461TMC3     H 6867   4.056   4.055  10.065  1.4904  0.4178  1.1004
  461TMC3    H1 6868   4.004   4.441  10.255 -4.6721  0.1295  0.4842
  461TMC3    H2 6869   3.844   4.367   9.875  0.0160 -1.9920 -0.3208
  461TMC3    C7 6870   3.919   4.565  10.048 -0.7768  0.0100 -0.3919
  461TMC3    C8 6871   3.912   4.110   9.861 -0.8933  0.3306  0.2846
  461TMC3    O1 6872   3.872   4.614   9.946  0.0445 -0.5936 -0.7158
  461TMC3    O2 6873   3.998   4.040   9.813 -0.0485 -1.3185  0.4609
  462TMC3    C1 6874   4.195   0.039   0.798 -0.8146  0.6216 -0.1891
  462TMC3    C2 6875   4.285   4.700   0.720 -0.5599 -0.2280  0.5051
  462TMC3    C3 6876   4.279   4.708   0.586  0.4396 -0.0251 -0.1326
  462TMC3    C4 6877   4.090   0.100   0.745  0.0381 -0.5942  0.2324
  462TMC3    C5 6878   4.082   0.100   0.607 -0.4755  0.3131 -0.0056
  462TMC3    C6 6879   4.181   0.050   0.522  0.1323  0.3470  0.0816
  462TMC3     C 6880   4.228   0.069   0.937  0.0471  0.0299 -0.3087
  462TMC3     O 6881   4.346   0.067   0.975 -0.3181 -0.1587  0.6405
  462TMC3     H 6882   4.374   4.661   0.767 -0.1874 -0.3610 -0.3060
  462TMC3    H1 6883   4.025   0.160   0.807  0.7687 -1.0050  1.4071
  462TMC3    H2 6884   4.141   0.022   0.425  0.8724  0.3695 -0.2297
  462TMC3    C7 6885   3.949   0.135   0.563  0.0926 -0.1390  0.2443
  462TMC3    C8 6886   4.414   4.713   0.525  0.0534 -0.3668  0.4314
  462TMC3    O1 6887   3.863   0.139   0.650 -0.6558  0.6516  0.5865
  462TMC3    O2 6888   4.509   4.692   0.602 -0.1506  0.0657  0.4450
  463MPD2     C 6889   0.368   3.361   1.575  0.0060  0.0734 -0.1409
  463MPD2    C1 6890   0.257   3.439   1.587  0.6359 -0.0750 -0.8237
  463MPD2    C2 6891   0.264   3.574   1.578 -0.3350 -0.7513  0.2084
  463MPD2    C3 6892   0.383   3.640   1.564  0.4569  0.6248  0.3900
  463MPD2    C4 6893   0.500   3.564   1.564 -0.1175  0.3754 -0.7385
  463MPD2    C5 6894   0.491   3.425   1.582 -0.2333 -0.2336  0.6695
  463MPD2     H 6895   0.164   3.614   1.582  1.1634  3.1990 -1.5312
  463MPD2    H1 6896   0.600   3.606   1.560 -0.1959  0.6186 -0.1167
  463MPD2    H2 6897   0.367   3.256   1.600  0.7251 -0.2471 -1.4535
  463MPD2    H3 6898   0.575   3.358   1.569  1.3048  1.8540 -0.0462
  463MPD2     N 6899   0.398   3.781   1.562 -0.6993 -0.2142  0.4653
  463MPD2    H5 6900   0.491   3.818   1.547 -1.0713 -0.3340 -2.2151
  463MPD2    N1 6901   0.127   3.388   1.603  0.2025  0.5686  0.0168
  463MPD2    H7 6902   0.057   3.453   1.639 -1.3103 -1.6914  1.1661
  464TMC3    C1 6903   4.669   3.243   1.610 -0.1775  0.5758  0.1301
  464TMC3    C2 6904   4.588   3.337   1.674 -0.8468  0.5520 -0.1086
  464TMC3    C3 6905   4.452   3.322   1.665 -0.6549 -0.3013 -0.3879
  464TMC3    C4 6906   4.612   3.143   1.541 -0.2453  0.5311 -0.3363
  464TMC3    C5 6907   4.476   3.118   1.547  0.4864  0.7632  0.8166
  464TMC3    C6 6908   4.397   3.208   1.613 -0.4802 -0.1618 -0.1978
  464TMC3     C 6909   0.086   3.256   1.583  0.0003 -0.3218 -0.5755
  464TMC3     O 6910   0.148   3.156   1.546 -0.2560  0.2870 -0.4103
  464TMC3     H 6911   4.631   3.409   1.742  0.3107 -1.1880  0.9876
  464TMC3    H1 6912   4.673   3.076   1.483 -0.8829 -1.1758  0.9697
  464TMC3    H2 6913   4.289   3.200   1.616 -0.5146  1.4298  3.1064
  464TMC3    C7 6914   4.431   3.010   1.466  0.1308  0.0617 -0.0349
  464TMC3    C8 6915   4.362   3.438   1.699  0.2701 -0.4458  0.2258
  464TMC3    O1 6916   4.518   2.943   1.412 -0.5813 -0.5326  0.6206
  464TMC3    O2 6917   4.251   3.432   1.654  0.1189 -0.1477  0.5517
  465MPD2     C 6918   1.339   2.488  17.083 -0.4882  0.4941  0.1875
  465MPD2    C1 6919   1.221   2.511  17.146 -0.6096 -0.6577 -0.1982
  465MPD2    C2 6920   1.109   2.541  17.070  0.6795  0.1009  0.2569
  465MPD2    C3 6921   1.110   2.524  16.938 -0.0577 -0.4679 -0.4013
  465MPD2    C4 6922   1.231   2.508  16.867  0.3279 -0.0307 -0.6836
  465MPD2    C5 6923   1.347   2.496  16.947 -0.5006 -0.3644 -0.3580
  465MPD2     H 6924   1.015   2.567  17.118  0.2210  0.4257 -0.8268
  465MPD2    H1 6925   1.233   2.501  16.759 -2.3185 -0.3967 -0.7045
  465MPD2    H2 6926   1.426   2.462  17.141 -0.5502  1.0231  0.5159
  465MPD2    H3 6927   1.443   2.486  16.898 -0.3611  0.0989 -0.1770
  465MPD2     N 6928   0.985   2.532  16.879  0.4170  0.5158 -0.8844
  465MPD2    H5 6929   0.910   2.546  16.946  0.3448 -2.4108 -0.3769
  465MPD2    N1 6930   1.199   2.522  17.281  0.7315  0.0815 -0.9857
  465MPD2    H7 6931   1.111   2.563  17.311  1.8511  0.6067  1.5378
  466TMC3    C1 6932   0.648   2.643  16.837  0.1226 -0.2202 -0.7535
  466TMC3    C2 6933   0.648   2.759  16.761 -0.5971 -0.1969  0.2247
  466TMC3    C3 6934   0.733   2.765  16.657  0.2507  0.4599 -0.2849
  466TMC3    C4 6935   0.742   2.549  16.823  1.1247 -0.1714  0.4271
  466TMC3    C5 6936   0.826   2.565  16.719 -0.3430  0.2131  0.4271
  466TMC3    C6 6937   0.818   2.665  16.630  0.6257  0.7220 -0.3319
  466TMC3     C 6938   0.551   2.644  16.945  0.2548 -0.5694 -0.5282
  466TMC3     O 6939   0.586   2.591  17.057  0.0111 -0.7152 -0.4943
  466TMC3     H 6940   0.579   2.839  16.786 -0.5773  1.0140 -3.5695
  466TMC3    H1 6941   0.730   2.458  16.880  0.8211 -1.1924 -1.2948
  466TMC3    H2 6942   0.906   2.675  16.568 -0.1372 -1.3136 -1.7348
  466TMC3    C7 6943   0.967   2.533  16.745 -1.1761 -0.2844 -0.4632
  466TMC3    C8 6944   0.761   2.890  16.598 -0.3031  0.4015 -0.8434
  466TMC3    O1 6945   1.043   2.515  16.648  0.5309  0.6191  0.0639
  466TMC3    O2 6946   0.828   2.883  16.494 -0.2989 -0.2962 -0.1602
  467TMC3    C1 6947   1.811   1.371  13.684  0.8897 -0.3494  0.2088
  467TMC3    C2 6948   1.862   1.361  13.557  0.1787 -0.1147  0.3256
  467TMC3    C3 6949   1.773   1.329  13.455 -0.5711 -0.2910  0.0644
  467TMC3    C4 6950   1.682   1.343  13.712 -0.1616 -0.1402  0.0682
  467TMC3    C5 6951   1.599   1.320  13.611  0.0464  0.5730 -0.1931
  467TMC3    C6 6952   1.638   1.303  13.485  0.1590 -0.2607 -0.1398
  467TMC3     C 6953   1.917   1.358  13.788 -0.0818  0.3493  0.1696
  467TMC3     O 6954   1.954   1.459  13.842  0.1257 -0.4275  0.0313
  467TMC3     H 6955   1.969   1.370  13.545  0.5347 -3.6717  0.7896
  467TMC3    H1 6956   1.650   1.364  13.814  0.7180 -1.4687  0.6197
  467TMC3    H2 6957   1.565   1.296  13.405 -0.2710  2.8330 -0.0294
  467TMC3    C7 6958   1.457   1.346  13.628  0.3484 -0.2206 -0.0962
  467TMC3    C8 6959   1.810   1.328  13.319 -0.0700 -0.5628  0.1801
  467TMC3    O1 6960   1.398   1.371  13.525 -0.3549  0.2846  0.7346
  467TMC3    O2 6961   1.727   1.295  13.237  0.6677 -0.1723  0.0609
  468MPD2     C 6962   1.522   3.826  10.381 -0.4080 -0.2739 -0.2690
  468MPD2    C1 6963   1.489   3.879  10.499 -0.2002 -0.5231  0.4761
  468MPD2    C2 6964   1.473   3.790  10.600  0.6712 -0.9860  0.6354
  468MPD2    C3 6965   1.506   3.656  10.580 -0.9260  0.2267  0.2554
  468MPD2    C4 6966   1.548   3.607  10.460 -0.5177  0.4401  0.7956
  468MPD2    C5 6967   1.546   3.693  10.357  0.0746  0.4717 -0.3248
  468MPD2     H 6968   1.443   3.820  10.700 -0.5100  1.6987 -0.5314
  468MPD2    H1 6969   1.564   3.502  10.439 -1.0274  0.3658  0.8004
  468MPD2    H2 6970   1.533   3.889  10.294  3.6043 -0.8322 -0.1698
  468MPD2    H3 6971   1.590   3.662  10.263  1.1696 -2.3668  1.1431
  468MPD2     N 6972   1.487   3.560  10.685  0.0892  0.7429  0.1389
  468MPD2    H5 6973   1.502   3.461  10.671 -1.0925  0.5164  0.4684
  468MPD2    N1 6974   1.461   4.015  10.519 -0.0252 -0.4200 -0.1990
  468MPD2    H7 6975   1.416   4.028  10.609  3.5877  3.4874  1.0050
  469TMC3    C1 6976   1.438   4.246  10.501 -0.8685 -0.3494  0.0818
  469TMC3    C2 6977   1.471   4.275  10.631  0.4304 -0.3402  0.3022
  469TMC3    C3 6978   1.416   4.384  10.695 -0.0484 -0.6340  0.1150
  469TMC3    C4 6979   1.357   4.336  10.431 -0.0717  0.3681 -0.4596
  469TMC3    C5 6980   1.301   4.440  10.499 -0.3135  0.3693 -0.5793
  469TMC3    C6 6981   1.333   4.469  10.623  0.2883 -0.2301  0.5359
  469TMC3     C 6982   1.466   4.119  10.434  0.1127  0.3303 -0.2193
  469TMC3     O 6983   1.477   4.118  10.314 -0.2174 -0.8869  0.3753
  469TMC3     H 6984   1.535   4.207  10.687 -0.9018 -0.8796  1.1495
  469TMC3    H1 6985   1.337   4.323  10.325  2.0815 -1.3934 -0.6559
  469TMC3    H2 6986   1.286   4.550  10.677 -0.3990  0.5146 -1.1961
  469TMC3    C7 6987   1.225   4.536  10.422  0.4760 -0.5575 -0.0701
  469TMC3    C8 6988   1.445   4.401  10.833 -0.0216 -0.4560 -0.2806
  469TMC3    O1 6989   1.227   4.507  10.305  0.2121  0.1520 -0.6332
  469TMC3    O2 6990   1.548   4.339  10.868  0.3842  0.0283 -0.4602
  470TMC3    C1 6991   2.630   0.358   0.684  0.1081  0.0745 -0.3997
  470TMC3    C2 6992   2.724   0.427   0.749 -0.6431  0.0591  0.4461
  470TMC3    C3 6993   2.713   0.456   0.883  0.1202 -0.3738 -0.4499
  470TMC3    C4 6994   2.509   0.331   0.745  0.0987  0.3007 -0.3198
  470TMC3    C5 6995   2.488   0.380   0.867  0.6888  0.3916 -0.1256
  470TMC3    C6 6996   2.587   0.441   0.937 -0.1967 -0.1264 -0.0343
  470TMC3     C 6997   2.654   0.329   0.544  0.2893  0.1447 -0.6767
  470TMC3     O 6998   2.725   0.408   0.484  0.5246  0.4154 -0.4372
  470TMC3     H 6999   2.813   0.465   0.700  0.0872  0.1295  1.8193
  470TMC3    H1 7000   2.418   0.305   0.692  0.3238  1.0405 -1.0665
  470TMC3    H2 7001   2.577   0.463   1.043 -1.0009 -1.4760  0.1733
  470TMC3    C7 7002   2.361   0.349   0.922  0.5115  0.4458  0.6478
  470TMC3    C8 7003   2.787   0.572   0.935 -0.7579  0.5155  0.1827
  470TMC3    O1 7004   2.280   0.282   0.859  0.4540  0.0771  0.1426
  470TMC3    O2 7005   2.749   0.612   1.045 -0.0727 -0.0478 -0.6764
  471MPD2     C 7006   3.258   1.594  16.623 -0.5182 -0.4857  0.8349
  471MPD2    C1 7007   3.259   1.461  16.658 -0.3998 -0.4932 -0.7268
  471MPD2    C2 7008   3.239   1.426  16.789 -0.2843  0.2184  0.0396
  471MPD2    C3 7009   3.201   1.527  16.881  0.2933 -0.1975 -0.0447
  471MPD2    C4 7010   3.193   1.658  16.843  0.5398  0.0326 -0.3274
  471MPD2    C5 7011   3.230   1.698  16.717 -0.5740 -0.0617 -0.0750
  471MPD2     H 7012   3.219   1.321  16.806 -0.2976  0.1841 -0.1773
  471MPD2    H1 7013   3.150   1.730  16.911 -1.4222 -1.6884  0.2552
  471MPD2    H2 7014   3.280   1.626  16.522 -0.5950 -1.2068  0.5897
  471MPD2    H3 7015   3.240   1.802  16.688 -1.0779  0.1566  0.5436
  471MPD2     N 7016   3.151   1.489  17.011  0.3843  1.0630 -0.0100
  471MPD2    H5 7017   3.152   1.553  17.089  3.2370 -1.1128  1.7560
  471MPD2    N1 7018   3.289   1.358  16.563 -0.3476 -0.6057 -0.0648
  471MPD2    H7 7019   3.302   1.263  16.595  1.9884 -0.7468 -1.4009
  472TMC3    C1 7020   3.355   1.249  16.369  0.0246  0.2592 -0.4520
  472TMC3    C2 7021   3.338   1.245  16.236  0.0294 -0.2493  0.3831
  472TMC3    C3 7022   3.324   1.129  16.165  0.1554  0.6229 -0.1266
  472TMC3    C4 7023   3.379   1.141  16.438 -0.4012  0.7361  0.2352
  472TMC3    C5 7024   3.369   1.016  16.375 -0.0959  0.1478 -0.6594
  472TMC3    C6 7025   3.335   1.008  16.243  0.5076  0.0953  0.2686
  472TMC3     C 7026   3.309   1.374  16.428  0.4090 -0.1846  0.0749
  472TMC3     O 7027   3.285   1.474  16.358  0.0168 -0.0500  0.1676
  472TMC3     H 7028   3.343   1.337  16.179 -0.0233 -0.2373  0.3980
  472TMC3    H1 7029   3.403   1.137  16.544 -0.5597  0.1802  0.2563
  472TMC3    H2 7030   3.330   0.912  16.193  0.3165 -0.2590  0.9769
  472TMC3    C7 7031   3.348   0.903  16.468 -0.4455  0.0181  0.8361
  472TMC3    C8 7032   3.361   1.134  16.032  0.8212 -0.0728 -0.3348
  472TMC3    O1 7033   3.408   0.901  16.576  0.2553  0.7364  0.2014
  472TMC3    O2 7034   3.477   1.104  16.005  0.4759 -0.0139 -0.9223
  473MPD2     C 7035   3.068   3.572  14.181 -0.2134  0.3597  0.6393
  473MPD2    C1 7036   3.195   3.556  14.132 -0.2753 -0.3447  0.2188
  473MPD2    C2 7037   3.306   3.590  14.211  0.6844 -0.3624  0.2634
  473MPD2    C3 7038   3.285   3.637  14.339  0.8659 -0.0148 -0.3359
  473MPD2    C4 7039   3.158   3.648  14.390 -0.0094 -0.0258  0.4569
  473MPD2    C5 7040   3.046   3.613  14.314  0.1228  0.6410  0.0515
  473MPD2     H 7041   3.410   3.565  14.195  0.2027 -0.4223 -2.6365
  473MPD2    H1 7042   3.152   3.676  14.494  1.1979 -0.5616  0.6639
  473MPD2    H2 7043   2.982   3.534  14.129  0.4011 -1.0874  0.6773
  473MPD2    H3 7044   2.945   3.613  14.352  0.2082 -0.4253  0.2948
  473MPD2     N 7045   3.392   3.670  14.426  0.7891  0.6252  0.0691
  473MPD2    H5 7046   3.361   3.682  14.522  0.3528 -0.7216  0.0974
  473MPD2    N1 7047   3.227   3.501  14.004 -0.2998 -0.1705 -0.1556
  473MPD2    H7 7048   3.327   3.502  13.984  0.1149  0.3565  1.9175
  474TMC3    C1 7049   3.601   3.757  14.502  0.3400 -0.8129 -1.0258
  474TMC3    C2 7050   3.539   3.846  14.589  0.5653  0.4007  0.3858
  474TMC3    C3 7051   3.614   3.918  14.680 -0.1025 -0.2252 -0.1314
  474TMC3    C4 7052   3.739   3.756  14.494  0.0407 -0.1733  0.3807
  474TMC3    C5 7053   3.816   3.834  14.581  0.0345  0.2897  1.1565
  474TMC3    C6 7054   3.754   3.920  14.669  0.3145 -0.1836  0.4613
  474TMC3     C 7055   3.519   3.701  14.394  0.2648 -0.0411 -0.4276
  474TMC3     O 7056   3.570   3.687  14.283  0.0223 -0.1595 -0.4570
  474TMC3     H 7057   3.432   3.848  14.599  0.5294  0.8365 -0.0346
  474TMC3    H1 7058   3.793   3.701  14.419  0.1717  0.5484 -0.0601
  474TMC3    H2 7059   3.809   3.976  14.744  1.0476 -0.8824  0.4408
  474TMC3    C7 7060   3.959   3.820  14.573 -0.4271 -0.9723  1.1924
  474TMC3    C8 7061   3.545   4.010  14.761 -0.2902  0.5112  0.5026
  474TMC3    O1 7062   3.998   3.752  14.477 -0.6421  0.4333 -0.4027
  474TMC3    O2 7063   3.438   3.979  14.815 -0.7188 -0.2618  0.1466
  475MPD2     C 7064   2.698   1.693  10.751  0.2799  0.1640  0.1069
  475MPD2    C1 7065   2.702   1.770  10.636  0.6549 -0.1635 -0.1370
  475MPD2    C2 7066   2.585   1.819  10.581  0.4422 -0.0346  0.2354
  475MPD2    C3 7067   2.464   1.797  10.645  0.2144 -0.0322 -0.8847
  475MPD2    C4 7068   2.464   1.723  10.757 -0.4055  0.5392 -0.0128
  475MPD2    C5 7069   2.577   1.658  10.802 -0.4318  0.6665 -0.3872
  475MPD2     H 7070   2.587   1.875  10.489  0.0598  0.1796  0.3587
  475MPD2    H1 7071   2.371   1.709  10.812  0.1972  1.0933  1.1499
  475MPD2    H2 7072   2.785   1.646  10.795 -0.0573 -0.7773 -0.2174
  475MPD2    H3 7073   2.575   1.607  10.898 -1.0636 -0.6343 -1.0953
  475MPD2     N 7074   2.342   1.849  10.593  0.1844  0.6220  0.0238
  475MPD2    H5 7075   2.255   1.818  10.635  0.8595  1.1867  1.8529
  475MPD2    N1 7076   2.827   1.815  10.585 -0.1867  0.9531  0.3349
  475MPD2    H7 7077   2.909   1.789  10.640 -0.9976  0.9143  1.5174
  476TMC3    C1 7078   2.941   1.989  10.465  0.6039 -0.4123  0.1805
  476TMC3    C2 7079   2.957   2.045  10.336  0.4890  0.2617 -0.0320
  476TMC3    C3 7080   2.921   2.183  10.312 -0.3401 -0.3402  0.0884
  476TMC3    C4 7081   2.909   2.073  10.567 -0.2751  0.1084 -0.0007
  476TMC3    C5 7082   2.907   2.204  10.550 -0.3501  0.3481 -0.4825
  476TMC3    C6 7083   2.903   2.265  10.421 -0.0444  0.2088  0.1469
  476TMC3     C 7084   2.843   1.880  10.460  0.5781 -0.0785  0.0910
  476TMC3     O 7085   2.781   1.867  10.359  0.3078 -0.0347 -0.1351
  476TMC3     H 7086   2.970   1.966  10.263 -1.0677  0.0981 -0.1351
  476TMC3    H1 7087   2.901   2.033  10.667 -0.9010  0.0652 -0.0682
  476TMC3    H2 7088   2.883   2.370  10.402 -0.7532  0.1960  0.8263
  476TMC3    C7 7089   2.839   2.280  10.645  0.8071  0.1595  0.2223
  476TMC3    C8 7090   2.816   2.204  10.208  0.1635 -0.1064  0.1638
  476TMC3    O1 7091   2.862   2.398  10.639  0.4207  0.0936  0.0273
  476TMC3    O2 7092   2.811   2.313  10.156  0.4221  0.4070 -0.5977
  477MPD2     C 7093   4.573   3.629  11.966 -0.0089  0.0023  0.2910
  477MPD2    C1 7094   4.585   3.519  11.880 -0.3757  0.5738 -0.4775
  477MPD2    C2 7095   4.644   3.402  11.929 -0.0199  0.8257 -0.1961
  477MPD2    C3 7096   4.678   3.387  12.065 -0.2804  0.4936  0.5648
  477MPD2    C4 7097   4.653   3.491  12.151 -0.5016  0.2182 -0.0565
  477MPD2    C5 7098   4.603   3.612  12.098 -0.2760 -0.0449  0.7345
  477MPD2     H 7099   4.642   3.315  11.865  0.7145  0.9577 -0.4049
  477MPD2    H1 7100   4.676   3.492  12.257 -0.5521 -1.1798 -0.0259
  477MPD2    H2 7101   4.538   3.723  11.926 -0.3655 -0.4014 -0.3406
  477MPD2    H3 7102   4.588   3.698  12.162 -0.9536 -0.0544  0.5812
  477MPD2     N 7103   0.008   3.261  12.111  0.2758  0.3283 -0.1600
  477MPD2    H5 7104   0.025   3.183  12.048  2.7323 -0.7711  1.8542
  477MPD2    N1 7105   4.521   3.528  11.756  0.6316  0.0094 -0.9571
  477MPD2    H7 7106   4.467   3.612  11.738 -0.7243 -0.9401 -1.3204
  478TMC3    C1 7107   4.413   3.464  11.564  0.2580 -0.4849 -0.2367
  478TMC3    C2 7108   4.331   3.559  11.614 -0.1574  0.1587  0.1107
  478TMC3    C3 7109   4.300   3.678  11.550  0.4172 -0.3923 -0.3161
  478TMC3    C4 7110   4.452   3.481  11.433  0.2956 -0.5150 -0.3481
  478TMC3    C5 7111   4.413   3.590  11.365 -0.9189  0.5572 -0.8119
  478TMC3    C6 7112   4.336   3.691  11.415  0.2479 -0.5140 -0.1113
  478TMC3     C 7113   4.515   3.428  11.655 -0.8670  0.2844 -0.5744
  478TMC3     O 7114   4.592   3.339  11.631 -0.5233 -0.4589  0.5908
  478TMC3     H 7115   4.288   3.541  11.711  0.4727  2.6920  0.8532
  478TMC3    H1 7116   4.523   3.409  11.393 -0.1440 -1.3992  0.4538
  478TMC3    H2 7117   4.316   3.779  11.355 -1.9085 -0.1968  1.0768
  478TMC3    C7 7118   4.428   3.579  11.219  0.3018  0.0827 -0.4810
  478TMC3    C8 7119   4.319   3.792  11.644 -0.6167 -0.0059 -0.1110
  478TMC3    O1 7120   4.533   3.522  11.180 -0.3038 -0.3687  0.4188
  478TMC3    O2 7121   4.375   3.760  11.748  0.1330  0.6084  0.3480
  479MPD2     C 7122   3.509   0.803  15.164  0.0646 -0.4436  0.9141
  479MPD2    C1 7123   3.460   0.754  15.284  0.0111  0.5865  0.0283
  479MPD2    C2 7124   3.514   0.799  15.405  0.1054  0.4251  0.0548
  479MPD2    C3 7125   3.618   0.882  15.418 -0.2034  0.0233 -0.1053
  479MPD2    C4 7126   3.671   0.922  15.297  0.2912 -0.0319  0.4293
  479MPD2    C5 7127   3.616   0.888  15.176 -0.5660 -0.0458  0.5081
  479MPD2     H 7128   3.488   0.744  15.495 -1.2582 -0.4548 -0.8866
  479MPD2    H1 7129   3.764   0.977  15.293  0.3822 -0.1850  0.4528
  479MPD2    H2 7130   3.478   0.785  15.062  3.2859  0.0005 -0.1390
  479MPD2    H3 7131   3.674   0.922  15.090 -1.5559 -1.7913 -0.8420
  479MPD2     N 7132   3.667   0.921  15.545 -0.1113 -0.0841  0.1273
  479MPD2    H5 7133   3.755   0.971  15.545 -0.2041  0.0870  1.4765
  479MPD2    N1 7134   3.353   0.661  15.280  0.0066  0.7908 -0.3770
  479MPD2    H7 7135   3.310   0.634  15.192 -0.2223 -0.4320  0.1034
  480TMC3    C1 7136   3.295   0.846  15.836 -0.8428  0.3304 -0.1777
  480TMC3    C2 7137   3.210   0.920  15.763  0.8378 -0.2481 -0.2415
  480TMC3    C3 7138   3.261   0.991  15.656  0.1211  0.4821  0.0797
  480TMC3    C4 7139   3.425   0.830  15.798 -0.5656  0.1397  0.1644
  480TMC3    C5 7140   3.468   0.890  15.680  0.3251  0.1090 -0.0468
  480TMC3    C6 7141   3.395   0.995  15.627 -0.9390 -0.4380  0.5657
  480TMC3     C 7142   3.250   0.756  15.935 -0.3428 -0.5409  0.2031
  480TMC3     O 7143   3.315   0.717  16.032 -0.1352  0.2460  0.3100
  480TMC3     H 7144   3.109   0.939  15.798  0.8341 -1.1520  0.2314
  480TMC3    H1 7145   3.486   0.759  15.851 -0.9354  1.3240  2.1738
  480TMC3    H2 7146   3.437   1.065  15.556  2.3807 -0.5212  2.4433
  480TMC3    C7 7147   3.617   0.883  15.666  1.1246 -0.0469 -1.0635
  480TMC3    C8 7148   3.157   0.992  15.561  0.4682  0.5081 -0.6859
  480TMC3    O1 7149   3.684   0.888  15.768 -0.0543 -0.5010  0.9368
  480TMC3    O2 7150   3.052   0.933  15.593  0.0088 -0.1985 -0.2636
  481MPD2     C 7151   0.085   0.575  14.280  0.2269 -1.0768 -0.4666
  481MPD2    C1 7152   0.025   0.448  14.277 -0.4672 -0.0121 -0.3716
  481MPD2    C2 7153   0.094   0.354  14.349  0.1173  0.2017  0.3591
  481MPD2    C3 7154   0.217   0.378  14.409 -0.1182 -0.3435  1.1258
  481MPD2    C4 7155   0.271   0.503  14.409 -0.7219  0.3678 -0.0331
  481MPD2    C5 7156   0.203   0.602  14.345 -0.0377 -0.4383 -0.1995
  481MPD2     H 7157   0.051   0.254  14.360  2.7983 -0.8098  1.6596
  481MPD2    H1 7158   0.368   0.529  14.450  0.3997 -1.0522 -1.8173
  481MPD2    H2 7159   0.027   0.657  14.238  0.9638 -0.7143 -0.7912
  481MPD2    H3 7160   0.246   0.702  14.338  0.1453 -0.5012  0.0560
  481MPD2     N 7161   0.293   0.276  14.467 -0.3395 -0.1383  0.1712
  481MPD2    H5 7162   0.391   0.295  14.488 -0.5128  0.2037  0.6657
  481MPD2    N1 7163   4.620   0.439  14.221 -0.1171 -0.1389 -0.0520
  481MPD2    H7 7164   4.585   0.526  14.183  0.4675 -0.4439 -1.3055
  482TMC3    C1 7165   4.425   0.343  14.132  0.2139  0.1086 -0.6525
  482TMC3    C2 7166   4.354   0.232  14.093 -0.2088 -0.6503  0.1580
  482TMC3    C3 7167   4.264   0.240  13.989 -0.8293  0.3390  0.0759
  482TMC3    C4 7168   4.386   0.470  14.089 -0.0634 -0.1193 -0.7109
  482TMC3    C5 7169   4.291   0.479  13.993  0.0293 -0.0965 -0.0621
  482TMC3    C6 7170   4.224   0.363  13.939 -0.5139  0.1018  0.5147
  482TMC3     C 7171   4.552   0.323  14.206  0.3720  0.6040  0.1741
  482TMC3     O 7172   4.595   0.210  14.214 -0.2298 -0.0087 -1.0294
  482TMC3     H 7173   4.386   0.137  14.134  0.7674 -0.3896  0.0138
  482TMC3    H1 7174   4.436   0.564  14.111 -1.0640 -0.0271  1.1417
  482TMC3    H2 7175   4.152   0.379  13.859  0.0068 -1.6937 -0.3192
  482TMC3    C7 7176   4.274   0.610  13.928  0.3501 -0.3058  0.2734
  482TMC3    C8 7177   4.214   0.113  13.935 -0.3429 -0.0527  0.8125
  482TMC3    O1 7178   4.281   0.706  13.997 -0.3978  0.3661 -0.1332
  482TMC3    O2 7179   4.274   0.015  13.963 -1.0706  0.1830  0.6007
  483TMC3    C1 7180   2.245   4.705   1.217 -0.3349  0.1382  0.1184
  483TMC3    C2 7181   2.326   0.072   1.148  0.2940  0.4365 -0.0257
  483TMC3    C3 7182   2.460   0.075   1.189 -0.2920 -0.0878  0.8359
  483TMC3    C4 7183   2.299   4.628   1.317 -0.5816  0.0028 -0.4964
  483TMC3    C5 7184   2.428   4.625   1.340  0.3615 -1.1210  0.1907
  483TMC3    C6 7185   2.512   4.714   1.279 -0.2696 -0.1836  0.2654
  483TMC3     C 7186   2.160   4.628   1.132  0.5826  0.3780 -0.1159
  483TMC3     O 7187   2.059   4.688   1.094 -0.3901  0.5364  0.0731
  483TMC3     H 7188   2.288   0.124   1.062 -0.4434 -1.0821 -0.6075
  483TMC3    H1 7189   2.231   4.556   1.362 -0.1302 -0.8799 -1.2299
  483TMC3    H2 7190   2.619   4.713   1.297 -0.2161 -1.5849 -0.1158
  483TMC3    C7 7191   2.480   4.490   1.363  0.2095 -0.0778  0.6153
  483TMC3    C8 7192   2.550   0.126   1.087  0.0198 -0.1939 -0.3386
  483TMC3    O1 7193   2.395   4.400   1.354  0.0659  0.5949 -0.5816
  483TMC3    O2 7194   2.533   0.075   0.977 -0.5467  0.2312 -0.4492
  484MPD2     C 7195   0.157   2.125  12.035 -0.0008 -0.2400  0.3542
  484MPD2    C1 7196   0.189   2.123  12.166 -0.1320 -0.0377  0.1393
  484MPD2    C2 7197   0.308   2.186  12.199  0.3493  0.0331  0.0504
  484MPD2    C3 7198   0.393   2.243  12.101  0.5532  0.1052  0.1540
  484MPD2    C4 7199   0.360   2.222  11.972  0.6109  0.0754 -0.0345
  484MPD2    C5 7200   0.236   2.170  11.937  1.1409 -0.1442  0.8357
  484MPD2     H 7201   0.335   2.196  12.303  2.6333 -0.9879 -0.4390
  484MPD2    H1 7202   0.427   2.244  11.890 -0.3449  1.1196 -0.5282
  484MPD2    H2 7203   0.064   2.074  12.009 -1.2263  0.9710  2.4125
  484MPD2    H3 7204   0.201   2.144  11.837 -3.3781 -0.0251  2.3682
  484MPD2     N 7205   0.523   2.288  12.130 -0.1608 -0.0380 -0.3297
  484MPD2    H5 7206   0.582   2.307  12.050  1.2280  1.9796  1.1819
  484MPD2    N1 7207   0.103   2.053  12.252  0.0646 -0.0764  0.2415
  484MPD2    H7 7208   0.030   1.992  12.217 -0.1940  0.1121  0.4506
  485TMC3    C1 7209   0.703   2.348  12.256 -1.0677  0.4573  0.0402
  485TMC3    C2 7210   0.770   2.343  12.380  0.3029 -0.6797  0.1079
  485TMC3    C3 7211   0.898   2.389  12.386 -0.1579  0.0474  0.2054
  485TMC3    C4 7212   0.764   2.404  12.141  0.7562  0.3066 -0.4664
  485TMC3    C5 7213   0.884   2.477  12.160 -0.2183 -0.2507  0.2956
  485TMC3    C6 7214   0.951   2.462  12.278 -0.1388  0.7365  0.2987
  485TMC3     C 7215   0.564   2.313  12.253  0.4243 -0.1625  0.3947
  485TMC3     O 7216   0.501   2.312  12.359 -0.5418 -0.5504 -0.0280
  485TMC3     H 7217   0.717   2.295  12.462 -0.2406  0.4808  0.4416
  485TMC3    H1 7218   0.705   2.412  12.051  0.0974  1.7005  0.0722
  485TMC3    H2 7219   1.050   2.507  12.283  0.3025  0.2388 -3.4964
  485TMC3    C7 7220   0.976   2.475  12.050 -0.4061  0.3087 -0.6007
  485TMC3    C8 7221   1.003   2.310  12.461 -0.7026  0.1598  0.1249
  485TMC3    O1 7222   1.047   2.572  12.028  0.0050  0.4277 -0.5513
  485TMC3    O2 7223   1.120   2.329  12.431  0.1335 -0.7338  0.1564
  486MPD2     C 7224   2.919   1.071  13.050 -0.2910 -0.2687 -0.4162
  486MPD2    C1 7225   2.881   1.066  12.917 -0.0379 -0.5473  0.2635
  486MPD2    C2 7226   2.926   1.156  12.820 -0.7150 -0.1683  0.3916
  486MPD2    C3 7227   3.007   1.262  12.858 -0.5017 -0.1030  0.2181
  486MPD2    C4 7228   3.056   1.256  12.987 -0.6443  0.5318  0.3579
  486MPD2    C5 7229   3.008   1.163  13.081 -0.3307 -0.0161  1.0320
  486MPD2     H 7230   2.875   1.159  12.725 -0.6705 -1.6063  0.3170
  486MPD2    H1 7231   3.120   1.332  13.032  0.8331 -1.8789  2.3185
  486MPD2    H2 7232   2.878   1.002  13.123 -2.6427  1.3634 -0.1975
  486MPD2    H3 7233   3.032   1.168  13.187 -0.8194 -0.8671  1.1841
  486MPD2     N 7234   3.040   1.358  12.760 -0.1076 -0.2079  0.5848
  486MPD2    H5 7235   2.997   1.348  12.669  0.1649 -0.3116  0.4662
  486MPD2    N1 7236   2.803   0.959  12.881 -0.0085 -0.3359 -0.6305
  486MPD2    H7 7237   2.780   0.892  12.954  1.4945  0.6363  0.7305
  487TMC3    C1 7238   2.689   0.791  12.754  0.1315  0.2151 -0.5901
  487TMC3    C2 7239   2.570   0.786  12.685 -0.1991  0.3866  0.3491
  487TMC3    C3 7240   2.489   0.673  12.679  0.7658  0.4609  0.2565
  487TMC3    C4 7241   2.734   0.684  12.826  0.2795  0.0107  0.0355
  487TMC3    C5 7242   2.647   0.577  12.827  0.2008 -0.1654 -0.4867
  487TMC3    C6 7243   2.527   0.569  12.752  0.0367  0.7552  0.7979
  487TMC3     C 7244   2.758   0.918  12.753  0.5357  0.0396 -0.2852
  487TMC3     O 7245   2.746   0.985  12.653 -0.2211  0.1330  0.0754
  487TMC3     H 7246   2.534   0.880  12.646 -0.9621  0.7714  1.9982
  487TMC3    H1 7247   2.813   0.698  12.899 -0.2482  1.3926  0.3423
  487TMC3    H2 7248   2.473   0.475  12.756  0.7593  0.3497  1.1761
  487TMC3    C7 7249   2.624   0.533  12.964 -0.0821  0.1110 -0.1092
  487TMC3    C8 7250   2.342   0.694  12.705  0.2021  0.1508 -0.4196
  487TMC3    O1 7251   2.720   0.523  13.037 -0.3111  1.0028 -0.0110
  487TMC3    O2 7252   2.293   0.627  12.792 -0.1834 -0.1430 -0.0704
  488MPD2     C 7253   2.633   2.901  16.651  0.2345  0.5853  0.2440
  488MPD2    C1 7254   2.660   3.036  16.663  0.4998 -0.0057  0.3254
  488MPD2    C2 7255   2.610   3.098  16.776  0.4357  0.2294 -0.0243
  488MPD2    C3 7256   2.529   3.027  16.863 -0.0656  0.4087  0.5276
  488MPD2    C4 7257   2.495   2.896  16.842  0.4597  0.1031  0.0377
  488MPD2    C5 7258   2.561   2.833  16.739  0.0106 -0.3170  0.4555
  488MPD2     H 7259   2.629   3.203  16.791  4.2188 -0.6229  1.0484
  488MPD2    H1 7260   2.424   2.841  16.903 -1.2556  0.9867 -1.1367
  488MPD2    H2 7261   2.668   2.845  16.565  1.4370  3.1272 -0.9319
  488MPD2    H3 7262   2.546   2.729  16.711  0.0090 -0.4610  0.9890
  488MPD2     N 7263   2.488   3.101  16.979 -0.1059 -0.2185 -0.1022
  488MPD2    H5 7264   2.527   3.194  16.987 -1.4642  0.5963 -3.0264
  488MPD2    N1 7265   2.727   3.121  16.570  0.2157  0.1884 -0.1011
  488MPD2    H7 7266   2.750   3.215  16.599 -0.1599  0.5249 -0.8658
  489TMC3    C1 7267   2.376   3.154  17.182  1.0881  0.0353 -0.6511
  489TMC3    C2 7268   2.476   3.238  17.225  0.1254 -0.2006  0.5288
  489TMC3    C3 7269   2.449   3.337  17.314 -0.9764 -0.4122 -0.2797
  489TMC3    C4 7270   2.249   3.174  17.221 -0.8834  0.4852  1.0434
  489TMC3    C5 7271   2.224   3.279  17.304  0.1751 -0.1155 -0.4210
  489TMC3    C6 7272   2.322   3.361  17.357 -0.2682  0.2830 -0.0023
  489TMC3     C 7273   2.398   3.056  17.074  0.0097  0.4485  0.2410
  489TMC3     O 7274   2.329   2.955  17.072  0.0639  0.1863  0.5626
  489TMC3     H 7275   2.575   3.201  17.198  0.2637  1.9762 -1.9486
  489TMC3    H1 7276   2.182   3.088  17.221 -0.6982  0.3376 -1.6852
  489TMC3    H2 7277   2.296   3.454  17.405 -1.0719 -1.1280  2.2772
  489TMC3    C7 7278   2.096   3.274  17.376 -0.4440 -0.7814 -0.4153
  489TMC3    C8 7279   2.552   3.442  17.315 -0.7096  0.1066 -0.6794
  489TMC3    O1 7280   2.009   3.204  17.327 -0.0278  0.3314 -0.0760
  489TMC3    O2 7281   2.612   3.453  17.209  0.3994 -0.0771  0.4211
  490MPD2     C 7282   3.275   2.363  17.643 -0.2543  0.4272 -0.0343
  490MPD2    C1 7283   3.309   2.281  17.539  0.3911  0.1733  0.0849
  490MPD2    C2 7284   3.441   2.261  17.517  0.3984 -0.1169  0.1740
  490MPD2    C3 7285   3.536   2.305  17.606  0.1445 -0.0400  0.0415
  490MPD2    C4 7286   3.504   2.389   0.018  0.0451  0.6880 -1.0896
  490MPD2    C5 7287   3.372   2.429   0.021 -0.9613 -0.2325  0.1999
  490MPD2     H 7288   3.461   2.210  17.424  0.6776  1.2161 -0.4804
  490MPD2    H1 7289   3.565   2.433   0.096 -2.0063  1.6760 -0.0346
  490MPD2    H2 7290   3.172   2.379  17.671  0.9850  0.3800  4.4313
  490MPD2    H3 7291   3.340   2.499   0.097 -1.4636  1.9412 -1.9986
  490MPD2     N 7292   3.678   2.271  17.588  0.2295 -0.3492 -0.6288
  490MPD2    H5 7293   3.747   2.315  17.648  1.5260 -2.8687 -0.3013
  490MPD2    N1 7294   3.205   2.205  17.480  0.0620  0.3598  0.5765
  490MPD2    H7 7295   3.112   2.213  17.518 -0.5798 -1.0254 -0.7070
  491TMC3    C1 7296   3.108   2.035  17.352  0.0262 -0.2269  0.4328
  491TMC3    C2 7297   3.094   1.950  17.457  0.0394 -0.1147 -1.1690
  491TMC3    C3 7298   3.001   1.844  17.436  0.0675 -0.2321 -1.6392
  491TMC3    C4 7299   3.042   2.028  17.232 -0.3940 -0.4196 -0.3954
  491TMC3    C5 7300   2.955   1.923  17.217 -0.7605  0.2669  0.5364
  491TMC3    C6 7301   2.927   1.834  17.318  0.4737 -0.2890  0.1205
  491TMC3     C 7302   3.218   2.127  17.364 -0.6560  0.2059  0.8318
  491TMC3     O 7303   3.311   2.103  17.289  0.0936 -0.6885 -0.5621
  491TMC3     H 7304   3.166   1.943  17.538 -0.4698 -0.2319 -0.7258
  491TMC3    H1 7305   3.061   2.107  17.160  1.7175 -0.6053 -0.0559
  491TMC3    H2 7306   2.836   1.775  17.311  0.1831  0.2166 -0.4406
  491TMC3    C7 7307   2.910   1.877  17.081  0.8789 -0.0596 -0.6317
  491TMC3    C8 7308   2.999   1.732  17.533 -0.1963  0.1529 -0.3337
  491TMC3    O1 7309   2.890   1.759  17.067 -0.0301  0.0154  0.8163
  491TMC3    O2 7310   3.067   1.747  17.637 -0.2116  0.2659 -0.0160
  492MPD2     C 7311   4.567   2.105  11.240  0.7664 -0.4208 -0.3016
  492MPD2    C1 7312   4.507   2.051  11.127  0.3149 -0.0149 -0.6088
  492MPD2    C2 7313   4.378   2.000  11.134  0.6383 -0.1362  0.6704
  492MPD2    C3 7314   4.300   1.994  11.255 -0.2063  0.6230 -0.7800
  492MPD2    C4 7315   4.369   2.048  11.360 -0.3262 -0.0755 -0.0853
  492MPD2    C5 7316   4.494   2.112  11.358  0.4912  0.0406 -0.1288
  492MPD2     H 7317   4.329   1.960  11.046  1.3821  0.2584  0.0827
  492MPD2    H1 7318   4.316   2.054  11.455  1.3604  1.5443  0.7601
  492MPD2    H2 7319   4.671   2.136  11.240  0.5290  0.3652  0.6763
  492MPD2    H3 7320   4.531   2.149  11.453 -1.0910  2.6831 -0.5266
  492MPD2     N 7321   4.166   1.952  11.263 -0.1366 -0.1150 -0.2320
  492MPD2    H5 7322   4.125   1.966  11.354 -0.4050 -1.2102 -0.1827
  492MPD2    N1 7323   4.570   2.074  11.006  0.3847  0.4138  0.0488
  492MPD2    H7 7324   4.650   2.136  11.006  0.2310  0.6285 -1.3231
  493TMC3    C1 7325   4.586   2.078  10.770 -0.6646 -0.4091 -1.0536
  493TMC3    C2 7326   4.584   2.211  10.779 -0.3688 -0.0766  0.4184
  493TMC3    C3 7327   4.538   2.281  10.674  0.5157  0.6297 -0.3003
  493TMC3    C4 7328   4.543   2.012  10.656  0.4613  0.1027 -0.1925
  493TMC3    C5 7329   4.475   2.080  10.559  0.1885 -0.1707 -0.1912
  493TMC3    C6 7330   4.476   2.216  10.568 -0.4489 -0.2742 -0.3390
  493TMC3     C 7331   4.539   2.007  10.887 -0.1310  0.2678  0.3745
  493TMC3     O 7332   4.473   1.906  10.876 -0.1619  0.2236  0.0853
  493TMC3     H 7333   4.600   2.267  10.870  1.2310  0.7499 -0.3817
  493TMC3    H1 7334   4.569   1.907  10.642  1.4124  0.3879 -0.5775
  493TMC3    H2 7335   4.428   2.276  10.491  1.6708  0.4502 -1.0947
  493TMC3    C7 7336   4.349   2.032  10.530 -0.3718  0.3348  0.7365
  493TMC3    C8 7337   4.493   2.416  10.694 -0.0393 -0.6235 -0.9087
  493TMC3    O1 7338   4.279   2.099  10.451  0.0532  0.2913 -0.0972
  493TMC3    O2 7339   4.451   2.441  10.806 -0.2305  0.6189 -0.5865
  494TMC3    C1 7340   4.012   3.962   0.527 -0.7297 -0.5300  0.0453
  494TMC3    C2 7341   4.008   3.824   0.527 -0.0431  0.1098 -0.3522
  494TMC3    C3 7342   4.091   3.757   0.438  0.5182  0.0763 -0.1333
  494TMC3    C4 7343   4.083   4.033   0.436 -0.2631  0.6022 -0.1439
  494TMC3    C5 7344   4.136   3.954   0.332 -0.7186  0.3172 -0.5740
  494TMC3    C6 7345   4.152   3.819   0.335  0.6721  0.3766 -0.2693
  494TMC3     C 7346   4.016   4.017   0.658  0.7723  0.1288 -0.0131
  494TMC3     O 7347   3.920   3.989   0.728 -0.4861  0.0595  0.0954
  494TMC3     H 7348   3.963   3.768   0.608  0.5844  0.3890  0.1916
  494TMC3    H1 7349   4.098   4.139   0.453  2.1079  0.2041  0.2486
  494TMC3    H2 7350   4.200   3.760   0.258 -0.7582 -1.5911  0.3475
  494TMC3    C7 7351   4.193   4.024   0.227  0.4287 -0.0652 -0.0662
  494TMC3    C8 7352   4.129   3.628   0.482  0.5896 -0.1259 -0.7888
  494TMC3    O1 7353   4.310   3.995   0.194  0.3406 -0.0696  0.1080
  494TMC3    O2 7354   4.144   3.616   0.602  0.0054 -0.2099  0.2538
  495TMC3    C1 7355   3.525   0.845  14.727 -0.3507 -0.3860 -0.2557
  495TMC3    C2 7356   3.438   0.857  14.625  0.7230 -0.9814 -0.4838
  495TMC3    C3 7357   3.350   0.965  14.630 -0.6454 -0.5059  0.2254
  495TMC3    C4 7358   3.533   0.936  14.832  0.0779 -0.5983  0.5231
  495TMC3    C5 7359   3.436   1.040  14.836 -0.4662 -0.1239  0.3471
  495TMC3    C6 7360   3.343   1.050  14.735  0.1392 -0.0018 -0.5279
  495TMC3     C 7361   3.569   0.711  14.759  0.2965  0.2694 -0.0952
  495TMC3     O 7362   3.662   0.701  14.837  0.5166  0.0739  0.0530
  495TMC3     H 7363   3.452   0.792  14.540 -0.1474 -1.2288 -0.4405
  495TMC3    H1 7364   3.596   0.918  14.918  1.1292 -2.2468 -0.5829
  495TMC3    H2 7365   3.270   1.130  14.739  0.7690  0.5172  0.4677
  495TMC3    C7 7366   3.384   1.055  14.969 -0.0992 -0.3543 -0.1599
  495TMC3    C8 7367   3.253   0.978  14.523  0.2618 -0.5949  0.0627
  495TMC3    O1 7368   3.460   1.097  15.054 -0.0951 -0.1722 -0.2656
  495TMC3    O2 7369   3.149   1.032  14.570 -0.3354  0.0008 -0.0422
  496MPD2     C 7370   0.128   1.005  15.165 -0.3867 -0.3429 -0.5974
  496MPD2    C1 7371   0.162   0.918  15.264  0.3475 -0.7713  0.4924
  496MPD2    C2 7372   0.112   0.933  15.399  0.2652  0.5500 -0.1808
  496MPD2    C3 7373   0.031   1.044  15.435 -0.5488  0.4193  0.2414
  496MPD2    C4 7374   0.011   1.135  15.333  0.1639  0.0594 -0.1286
  496MPD2    C5 7375   0.060   1.116  15.205 -0.0738  0.3358  0.2321
  496MPD2     H 7376   0.140   0.868  15.481 -1.2702  1.2453  0.8876
  496MPD2    H1 7377   4.683   1.228  15.353 -0.5904 -0.3057 -0.3674
  496MPD2    H2 7378   0.174   1.005  15.067 -0.0437  0.8010 -0.4310
  496MPD2    H3 7379   0.039   1.185  15.124 -0.0963 -1.2550 -1.1023
  496MPD2     N 7380   4.698   1.068  15.563  0.6108  0.2408 -1.1950
  496MPD2    H5 7381   4.632   1.145  15.570  1.5577  0.9816 -0.3466
  496MPD2    N1 7382   0.265   0.825  15.233 -0.2105  0.4417  0.3135
  496MPD2    H7 7383   0.288   0.819  15.134 -0.4458 -1.7380  0.3856
  497TMC3    C1 7384   4.667   1.054  15.793 -0.8052 -0.3239 -0.3844
  497TMC3    C2 7385   4.543   1.111  15.779  0.7208  0.1034  0.6359
  497TMC3    C3 7386   4.479   1.163  15.892 -0.2572 -0.0707 -0.0860
  497TMC3    C4 7387   0.009   1.039  15.914 -0.1829 -0.4145 -0.3878
  497TMC3    C5 7388   4.672   1.089  16.026 -0.4754 -0.3008 -1.5179
  497TMC3    C6 7389   4.553   1.149  16.011 -0.3536  0.2363 -0.3701
  497TMC3     C 7390   4.719   0.990  15.674 -0.1545  0.2331  0.0734
  497TMC3     O 7391   0.070   0.893  15.686  0.3132  0.4479 -0.4964
  497TMC3     H 7392   4.497   1.103  15.681  0.6966  0.1975  0.6392
  497TMC3    H1 7393   0.105   0.989  15.909 -0.3025 -0.6112 -0.7258
  497TMC3    H2 7394   4.507   1.183  16.103  3.2774  1.7129  0.8967
  497TMC3    C7 7395   4.719   1.058  16.155  0.0403  0.7735  0.0196
  497TMC3    C8 7396   4.340   1.208  15.895  0.0711  0.0188 -0.8029
  497TMC3    O1 7397   4.629   1.059  16.242 -0.4888 -0.5894  0.3724
  497TMC3    O2 7398   4.297   1.257  16.002 -0.1772 -0.3009  0.2848
  498MPD2     C 7399   2.339   1.377   9.682 -0.1759  0.7263 -0.3078
  498MPD2    C1 7400   2.271   1.492   9.704  1.3266 -0.1384  0.7086
  498MPD2    C2 7401   2.135   1.488   9.722 -0.2781  0.6698 -0.7337
  498MPD2    C3 7402   2.061   1.369   9.714 -0.0740 -0.0793  0.2320
  498MPD2    C4 7403   2.128   1.252   9.690  0.6705 -0.1622 -0.9257
  498MPD2    C5 7404   2.265   1.255   9.675  0.0996 -0.4430  0.2257
  498MPD2     H 7405   2.092   1.583   9.751  0.6039  1.7753 -2.9583
  498MPD2    H1 7406   2.084   1.154   9.676 -2.0050  0.5049  2.6486
  498MPD2    H2 7407   2.446   1.365   9.683 -0.5456 -2.5181  1.5052
  498MPD2    H3 7408   2.310   1.157   9.667  1.4762  0.2610 -0.6964
  498MPD2     N 7409   1.922   1.384   9.741 -0.2310 -0.0324 -0.9374
  498MPD2    H5 7410   1.896   1.477   9.772 -1.6791 -0.6886 -0.2343
  498MPD2    N1 7411   2.341   1.619   9.711  0.2013 -0.0288 -0.0559
  498MPD2    H7 7412   2.288   1.705   9.704 -2.1047 -1.3164  1.7254
  499TMC3    C1 7413   2.514   1.778   9.741  0.5259 -0.6879 -0.8395
  499TMC3    C2 7414   2.621   1.805   9.822  0.1989 -0.5332 -0.2512
  499TMC3    C3 7415   2.684   1.930   9.798  0.3979  0.0006 -0.6727
  499TMC3    C4 7416   2.458   1.866   9.653 -0.4711  0.7642  0.1651
  499TMC3    C5 7417   2.514   1.988   9.646 -0.1803  0.0332  0.1548
  499TMC3    C6 7418   2.625   2.028   9.716  0.3591 -0.4385  0.1591
  499TMC3     C 7419   2.476   1.637   9.729  0.7125  0.2775  0.1736
  499TMC3     O 7420   2.559   1.556   9.761 -0.3934 -0.0329  0.2921
  499TMC3     H 7421   2.654   1.726   9.889 -2.5801 -1.6652 -0.2079
  499TMC3    H1 7422   2.384   1.835   9.581 -2.1544 -0.3585  2.3595
  499TMC3    H2 7423   2.681   2.119   9.696  1.0516 -1.3993 -2.2943
  499TMC3    C7 7424   2.443   2.089   9.569 -0.6381 -0.3177 -0.1549
  499TMC3    C8 7425   2.816   1.972   9.859  0.5928  0.1673  0.6858
  499TMC3    O1 7426   2.481   2.204   9.593  0.4138 -0.8253  0.4461
  499TMC3    O2 7427   2.851   2.088   9.836  0.1746  0.0069 -0.0388
  500MPD2     C 7428   3.203   3.133  10.755 -0.0607  0.0335 -0.4372
  500MPD2    C1 7429   3.265   3.172  10.637  0.5815  0.1514 -0.4724
  500MPD2    C2 7430   3.183   3.209  10.529  0.6104 -0.1177  0.2778
  500MPD2    C3 7431   3.044   3.183  10.524  0.3206  0.2742 -0.0187
  500MPD2    C4 7432   2.987   3.142  10.638  0.4239 -0.5322  0.0372
  500MPD2    C5 7433   3.066   3.117  10.746  0.1368 -0.7832  0.0872
  500MPD2     H 7434   3.226   3.258  10.443 -1.4487 -1.6159 -1.5938
  500MPD2    H1 7435   2.886   3.105  10.637  0.0039  0.5771  0.9529
  500MPD2    H2 7436   3.254   3.106  10.846 -0.9740  0.7136  0.2695
  500MPD2    H3 7437   3.011   3.076  10.829 -0.2248  1.2895  0.8439
  500MPD2     N 7438   2.962   3.226  10.414  0.0756 -0.6810 -0.2063
  500MPD2    H5 7439   2.866   3.200  10.429  0.3650  0.0234  2.8684
  500MPD2    N1 7440   3.402   3.190  10.624 -0.5586  0.2918  0.1740
  500MPD2    H7 7441   3.436   3.229  10.537 -1.1708  2.1610  0.7747
  501TMC3    C1 7442   3.628   3.193  10.677  0.8825 -0.0301 -0.5455
  501TMC3    C2 7443   3.642   3.289  10.574  0.4737 -0.2545 -0.3476
  501TMC3    C3 7444   3.775   3.313  10.536  0.1224 -0.4451  0.5567
  501TMC3    C4 7445   3.734   3.122  10.726 -1.0958 -0.4715  0.6881
  501TMC3    C5 7446   3.858   3.163  10.685 -0.1084 -0.2384 -0.4444
  501TMC3    C6 7447   3.883   3.254  10.582  0.5372 -0.0382  0.5565
  501TMC3     C 7448   3.493   3.151  10.719  0.4836 -0.1575  0.4910
  501TMC3     O 7449   3.479   3.071  10.811 -0.0075 -0.0092 -0.0279
  501TMC3     H 7450   3.559   3.355  10.553  0.6520 -1.1778 -3.9304
  501TMC3    H1 7451   3.710   3.052  10.806 -1.0070  1.4050  2.3757
  501TMC3    H2 7452   3.973   3.248  10.522 -0.4599 -0.3541 -0.9203
  501TMC3    C7 7453   3.973   3.135  10.776  0.2120 -0.0906  0.4960
  501TMC3    C8 7454   3.803   3.415  10.437  0.6303  0.5455 -1.0706
  501TMC3    O1 7455   3.966   3.032  10.844 -0.2409 -0.4861 -0.3701
  501TMC3    O2 7456   3.920   3.452  10.420  0.0656 -0.3107  0.2448
  502TMC3    C1 7457   2.580   1.568  14.788 -0.1995 -0.4591  0.0694
  502TMC3    C2 7458   2.616   1.652  14.681 -0.0274  0.2694 -0.6065
  502TMC3    C3 7459   2.538   1.767  14.673 -0.2624  0.3422  0.1263
  502TMC3    C4 7460   2.479   1.592  14.876 -0.5153  0.3988 -0.0827
  502TMC3    C5 7461   2.398   1.693  14.847  0.0726 -0.3546  0.6583
  502TMC3    C6 7462   2.423   1.780  14.744 -0.0188 -0.0951  0.4937
  502TMC3     C 7463   2.681   1.474  14.834  0.8959  0.2552 -0.1340
  502TMC3     O 7464   2.649   1.389  14.919 -0.0342 -0.2292 -0.3648
  502TMC3     H 7465   2.700   1.615  14.624  1.5213  1.5524  0.8364
  502TMC3    H1 7466   2.457   1.523  14.956  1.2124 -2.6042 -2.1779
  502TMC3    H2 7467   2.360   1.868  14.735 -1.9074 -1.7402 -2.5429
  502TMC3    C7 7468   2.282   1.727  14.929  0.2534 -0.6741 -0.0037
  502TMC3    C8 7469   2.598   1.889  14.631 -0.3422  0.8712  0.1662
  502TMC3    O1 7470   2.189   1.790  14.876  0.3717  0.0081  0.6764
  502TMC3    O2 7471   2.556   1.985  14.688 -0.3859  0.9423  0.0744
  503MPD2     C 7472   4.637   2.941  16.697 -0.7475 -0.2545 -0.1032
  503MPD2    C1 7473   4.615   2.919  16.833 -0.2637  0.0688 -0.1874
  503MPD2    C2 7474   4.643   2.793  16.887  0.1445  0.1406  0.0920
  503MPD2    C3 7475   4.705   2.689  16.818 -0.6086 -0.8981 -0.2114
  503MPD2    C4 7476   0.010   2.718  16.686  1.2044  0.0707 -0.4679
  503MPD2    C5 7477   4.702   2.839  16.633 -0.0247 -0.6371  0.2706
  503MPD2     H 7478   4.634   2.789  16.995 -1.9677 -2.1228 -0.1769
  503MPD2    H1 7479   0.070   2.650  16.626  0.2769 -0.0711 -1.2359
  503MPD2    H2 7480   4.615   3.031  16.642  0.4351  0.7599  1.0921
  503MPD2    H3 7481   0.015   2.851  16.532  0.0812  0.4027  0.4250
  503MPD2     N 7482   0.030   2.580  16.893 -0.3611 -0.5175 -0.4125
  503MPD2    H5 7483   0.002   2.576  16.990 -1.4226 -0.1197 -0.7021
  503MPD2    N1 7484   4.563   3.011  16.922 -0.3664  0.0791  0.3542
  503MPD2    H7 7485   4.555   2.990  17.021 -0.6638 -0.9572  0.1070
  504TMC3    C1 7486   0.187   2.414  16.955 -0.1320 -0.2479  0.1366
  504TMC3    C2 7487   0.134   2.421  17.083  0.1066 -0.4300 -0.1933
  504TMC3    C3 7488   0.211   2.367  17.185  0.8071 -0.1587 -0.6248
  504TMC3    C4 7489   0.297   2.341  16.930  1.1943 -0.1986  0.8574
  504TMC3    C5 7490   0.357   2.269  17.031 -0.1052  0.5047  0.4232
  504TMC3    C6 7491   0.327   2.299  17.162 -0.2122 -0.0997  0.1433
  504TMC3     C 7492   0.132   2.496  16.850 -0.3699 -0.2303 -0.7199
  504TMC3     O 7493   0.189   2.499  16.742  0.1670 -0.2705 -0.6933
  504TMC3     H 7494   0.043   2.475  17.109 -0.9164 -1.1993 -2.1692
  504TMC3    H1 7495   0.338   2.352  16.830  0.8668  1.9249  0.9553
  504TMC3    H2 7496   0.378   2.242  17.240  0.1348  1.1810  0.8513
  504TMC3    C7 7497   0.496   2.228  17.002 -0.0467 -0.4144  0.4937
  504TMC3    C8 7498   0.145   2.386  17.313 -0.4188  0.3067 -0.2322
  504TMC3    O1 7499   0.505   2.188  16.887 -0.1367  0.0037 -0.2391
  504TMC3    O2 7500   0.061   2.476  17.322  0.3957 -0.6233 -0.4709
  505MPD2     C 7501   0.790   1.453  10.519 -0.2253 -0.6096  0.3445
  505MPD2    C1 7502   0.837   1.332  10.573 -0.0658  0.6870  0.7545
  505MPD2    C2 7503   0.934   1.324  10.667 -0.4387  0.0641 -0.4961
  505MPD2    C3 7504   0.997   1.438  10.704 -0.4740 -0.4957  0.0779
  505MPD2    C4 7505   0.963   1.552  10.645  0.1878 -0.0429 -0.6213
  505MPD2    C5 7506   0.862   1.562  10.554  0.0549 -0.9328 -0.0503
  505MPD2     H 7507   0.969   1.227  10.703  0.2477  0.5769  0.2167
  505MPD2    H1 7508   1.015   1.647  10.659  1.4335 -0.5598 -1.7777
  505MPD2    H2 7509   0.712   1.453  10.444 -2.6879 -0.8584  2.9109
  505MPD2    H3 7510   0.840   1.660  10.514 -1.1846 -2.3692 -2.8424
  505MPD2     N 7511   1.100   1.429  10.799 -0.6467 -0.4689 -1.1157
  505MPD2    H5 7512   1.126   1.334  10.824 -2.5412 -0.6026  0.2790
  505MPD2    N1 7513   0.775   1.213  10.519  0.3746  0.5163 -0.1165
  505MPD2    H7 7514   0.707   1.219  10.444  1.3091 -0.5759 -1.0376
  506TMC3    C1 7515   0.744   0.984  10.484  0.3837 -0.1710 -0.6695
  506TMC3    C2 7516   0.781   0.978  10.352  0.1944  0.6778 -0.5882
  506TMC3    C3 7517   0.785   0.854  10.292 -0.0087  0.0259  0.0551
  506TMC3    C4 7518   0.753   0.870  10.562  0.2205  0.7240 -0.1712
  506TMC3    C5 7519   0.770   0.750  10.505 -0.0954  0.3311 -0.2461
  506TMC3    C6 7520   0.786   0.740  10.371 -0.5268  0.1600 -0.3751
  506TMC3     C 7521   0.807   1.087  10.557 -0.3719  0.0499 -0.0626
  506TMC3     O 7522   0.886   1.039  10.639  0.6863 -0.0715 -0.3466
  506TMC3     H 7523   0.788   1.068  10.293 -2.5882  0.0292 -1.8997
  506TMC3    H1 7524   0.729   0.875  10.668 -0.3950 -1.1675 -0.2203
  506TMC3    H2 7525   0.806   0.642  10.330  0.8227  0.1708  0.2617
  506TMC3    C7 7526   0.874   0.681  10.579  0.3577 -0.5302  0.0960
  506TMC3    C8 7527   0.823   0.838  10.149 -0.9830  0.5137  0.5421
  506TMC3    O1 7528   0.893   0.562  10.555  0.4843 -0.4282 -0.5080
  506TMC3    O2 7529   0.785   0.738  10.091  0.0763  0.0901  0.1785
  507TMC3    C1 7530   1.316   1.916  14.545 -0.9327 -0.5363 -0.0738
  507TMC3    C2 7531   1.290   1.874  14.415  0.1816 -0.0001 -0.1976
  507TMC3    C3 7532   1.294   1.981  14.324  0.0244  0.7009 -0.2679
  507TMC3    C4 7533   1.355   2.045  14.576  0.5416  0.1474  0.2642
  507TMC3    C5 7534   1.388   2.143  14.483 -0.2659 -0.2926  0.1490
  507TMC3    C6 7535   1.354   2.106  14.350  0.3750  0.0118  0.2146
  507TMC3     C 7536   1.218   1.861  14.637  0.3831  0.2635 -0.2280
  507TMC3     O 7537   1.174   1.754  14.603  0.0541  0.3093 -0.1130
  507TMC3     H 7538   1.256   1.774  14.390 -1.7126  1.0041 -1.6309
  507TMC3    H1 7539   1.377   2.071  14.679  1.3483  1.9645 -0.3798
  507TMC3    H2 7540   1.356   2.180  14.271 -1.0394 -0.3280 -0.1341
  507TMC3    C7 7541   1.330   2.267  14.527  0.0039  0.7447  0.0874
  507TMC3    C8 7542   1.167   2.018  14.276 -0.1309 -0.0841  0.6578
  507TMC3    O1 7543   1.238   2.256  14.605 -0.1311 -0.3212 -0.3497
  507TMC3    O2 7544   1.150   2.126  14.213 -0.1898 -0.0384  0.3174
  508MPD2     C 7545   1.770   0.006  16.549 -0.4427 -0.4763 -0.2799
  508MPD2    C1 7546   1.893   0.052  16.575  0.5578  0.0483  0.7264
  508MPD2    C2 7547   1.948   0.149  16.493 -0.2726  0.0206  0.0057
  508MPD2    C3 7548   1.870   0.204  16.394  0.1797  0.5460  0.1041
  508MPD2    C4 7549   1.753   0.141  16.360 -0.1258  0.2943 -0.3777
  508MPD2    C5 7550   1.698   0.047  16.444 -0.6059 -0.1988 -0.0730
  508MPD2     H 7551   2.048   0.189  16.503 -1.0141  2.0367 -0.7100
  508MPD2    H1 7552   1.699   0.166  16.270 -1.4696 -2.1977 -0.2770
  508MPD2    H2 7553   1.721   4.656  16.612 -0.4070 -1.0353 -0.9058
  508MPD2    H3 7554   1.606   4.718  16.420 -1.2361  0.5735  0.6246
  508MPD2     N 7555   1.915   0.312  16.311 -0.0685 -0.5890 -0.3168
  508MPD2    H5 7556   2.013   0.337  16.314  0.4713 -2.7679  0.2641
  508MPD2    N1 7557   1.967   4.704  16.675 -0.0194 -0.2680  0.6325
  508MPD2    H7 7558   1.928   4.617  16.710 -0.9085  0.0428  0.4072
  509TMC3    C1 7559   1.867   0.686  16.019 -0.5692 -0.1213 -0.2573
  509TMC3    C2 7560   1.993   0.668  15.965 -0.2787 -0.2334 -0.6139
  509TMC3    C3 7561   2.067   0.565  16.028  0.4072  0.3204  0.1534
  509TMC3    C4 7562   1.816   0.593  16.106  0.4558  0.5267 -0.5248
  509TMC3    C5 7563   1.891   0.498  16.167  0.6278 -0.1708  0.1094
  509TMC3    C6 7564   2.027   0.481  16.132  0.6253 -0.7817 -0.0195
  509TMC3     C 7565   1.765   0.770  15.955 -0.0519  0.1116  0.3858
  509TMC3     O 7566   1.662   0.787  16.015 -0.2246 -0.0277  0.5211
  509TMC3     H 7567   2.034   0.748  15.905  2.7610 -1.2065  0.1501
  509TMC3    H1 7568   1.710   0.609  16.124  0.5753  1.2206 -0.4262
  509TMC3    H2 7569   2.091   0.397  16.157 -0.6369 -1.6944  0.1613
  509TMC3    C7 7570   1.821   0.393  16.245 -0.5294  0.5419 -0.0440
  509TMC3    C8 7571   2.201   0.543  15.980  0.0993  0.1646 -0.0743
  509TMC3    O1 7572   1.701   0.409  16.261 -0.7081  0.6707  0.2937
  509TMC3    O2 7573   2.290   0.490  16.048 -0.1475 -0.0550 -0.0926
  510MPD2     C 7574   4.665   1.586  14.635  0.3311 -0.0601  0.3326
  510MPD2    C1 7575   4.712   1.456  14.660 -0.1160  0.4508 -0.6642
  510MPD2    C2 7576   0.100   1.416  14.590 -0.7541 -1.1319  0.3499
  510MPD2    C3 7577   0.153   1.492  14.491  0.9006 -0.4358 -0.2060
  510MPD2    C4 7578   0.096   1.612  14.454 -0.5314 -0.0970 -0.1381
  510MPD2    C5 7579   4.721   1.664  14.538 -0.0514  0.0313  0.1143
  510MPD2     H 7580   0.139   1.316  14.603 -1.5303 -1.5247 -0.3254
  510MPD2    H1 7581   0.125   1.679  14.373 -1.3632  2.1710  1.4633
  510MPD2    H2 7582   4.600   1.635  14.706 -0.9725  0.3059 -1.1017
  510MPD2    H3 7583   4.695   1.768  14.524 -1.6611 -0.6742 -2.1483
  510MPD2     N 7584   0.261   1.435  14.431  0.3103  0.1002 -0.1402
  510MPD2    H5 7585   0.301   1.354  14.477  1.0002  0.4235 -0.1620
  510MPD2    N1 7586   4.644   1.376  14.753  0.3730  0.5549  0.7216
  510MPD2    H7 7587   4.561   1.414  14.797 -1.2288  0.5861 -2.3150
  511TMC3    C1 7588   4.577   1.182  14.873  0.4053 -0.1916 -0.3918
  511TMC3    C2 7589   4.514   1.257  14.964 -0.3203  0.0969  0.2840
  511TMC3    C3 7590   4.452   1.185  15.064 -0.5360  0.5867  0.7644
  511TMC3    C4 7591   4.556   1.043  14.857  0.0967 -0.0026  0.6253
  511TMC3    C5 7592   4.476   0.976  14.948 -0.9916 -0.0786  0.4736
  511TMC3    C6 7593   4.428   1.047  15.060  0.4947  0.3811 -0.6853
  511TMC3     C 7594   4.667   1.247  14.772  0.0994  0.5420  0.6913
  511TMC3     O 7595   0.025   1.171  14.723  0.1774 -0.7574  0.3458
  511TMC3     H 7596   4.524   1.365  14.966  2.9989 -0.2001 -0.5561
  511TMC3    H1 7597   4.607   0.995  14.773  0.4548 -0.1666  0.9368
  511TMC3    H2 7598   4.360   1.003  15.132  0.2632  0.9760 -0.5422
  511TMC3    C7 7599   4.439   0.833  14.914 -0.5657 -0.2340 -0.2306
  511TMC3    C8 7600   4.365   1.248  15.163 -0.1712 -0.0404 -0.5723
  511TMC3    O1 7601   4.486   0.788  14.813  0.5679  0.1123 -0.2004
  511TMC3    O2 7602   4.295   1.180  15.235 -0.7624  0.2808  0.1441
  512TMC3    C1 7603   3.072   0.712  13.434 -0.3872  0.0136 -0.0823
  512TMC3    C2 7604   3.202   0.721  13.486 -0.5299  0.1658 -0.0031
  512TMC3    C3 7605   3.280   0.607  13.476 -0.1950  0.2344  0.2381
  512TMC3    C4 7606   3.037   0.599  13.369 -0.6995 -0.2536 -0.4382
  512TMC3    C5 7607   3.125   0.492  13.358 -0.5806  0.0611  0.3025
  512TMC3    C6 7608   3.248   0.495  13.412 -0.7292  0.5913  0.2078
  512TMC3     C 7609   2.967   0.804  13.484 -0.4122  0.6953 -0.6147
  512TMC3     O 7610   3.004   0.873  13.579 -0.3477  0.1048 -0.5085
  512TMC3     H 7611   3.224   0.814  13.538 -0.7882  0.3134 -0.1597
  512TMC3    H1 7612   2.934   0.578  13.343 -0.4543 -1.4072 -0.4847
  512TMC3    H2 7613   3.318   0.412  13.410  1.0479  2.0918  1.0528
  512TMC3    C7 7614   3.085   0.410  13.244  0.5991 -0.1011  0.3148
  512TMC3    C8 7615   3.393   0.611  13.569  0.1203 -0.1041 -0.0740
  512TMC3    O1 7616   2.992   0.454  13.176 -0.1840  0.4262  0.2975
  512TMC3    O2 7617   3.430   0.505  13.617  0.4169 -0.1997  0.3095
  513MPD2     C 7618   0.697   1.295  12.998 -0.2152 -0.3210 -0.0181
  513MPD2    C1 7619   0.637   1.176  12.973  0.1497 -0.9586 -0.5242
  513MPD2    C2 7620   0.635   1.083  13.073 -0.0001 -0.4482  0.2684
  513MPD2    C3 7621   0.696   1.106  13.191 -1.4510 -0.9684 -0.8045
  513MPD2    C4 7622   0.757   1.227  13.214  0.2399 -0.5583  0.0565
  513MPD2    C5 7623   0.759   1.321  13.117  0.6869  0.2093  0.2272
  513MPD2     H 7624   0.570   0.998  13.057 -2.1274  0.9338  1.4282
  513MPD2    H1 7625   0.809   1.237  13.308  1.5319  2.5543 -0.9883
  513MPD2    H2 7626   0.713   1.370  12.922 -0.7421  1.5462  1.7109
  513MPD2    H3 7627   0.816   1.411  13.133  0.0282  0.1071  3.2015
  513MPD2     N 7628   0.709   0.993  13.275 -0.3315  0.0563 -0.0543
  513MPD2    H5 7629   0.669   0.906  13.242  1.9240 -0.5633 -1.1641
  513MPD2    N1 7630   0.584   1.153  12.840 -0.5897  0.6331  0.1342
  513MPD2    H7 7631   0.594   1.224  12.768 -0.5252 -0.6004 -1.0716
  514TMC3    C1 7632   0.496   1.027  12.651  0.3979 -0.1382 -0.2395
  514TMC3    C2 7633   0.586   1.050  12.550 -0.2606  0.0029 -0.1442
  514TMC3    C3 7634   0.604   0.970  12.444  0.0415 -0.6464 -0.2121
  514TMC3    C4 7635   0.425   0.905  12.636 -0.2110 -0.9734  0.5395
  514TMC3    C5 7636   0.462   0.810  12.543 -0.4357 -0.2916  0.0190
  514TMC3    C6 7637   0.552   0.842  12.444  0.0473  0.0686  0.1293
  514TMC3     C 7638   0.539   1.032  12.792  0.1970  0.3862 -0.2449
  514TMC3     O 7639   0.523   0.924  12.847  0.0349  0.0236  0.4206
  514TMC3     H 7640   0.624   1.152  12.553 -0.2958  0.0342 -0.9170
  514TMC3    H1 7641   0.347   0.881  12.707 -0.8686  2.4766  1.0084
  514TMC3    H2 7642   0.568   0.767  12.366  0.2240 -0.7852  0.9878
  514TMC3    C7 7643   0.488   0.673  12.589  0.2516 -0.5938  0.6876
  514TMC3    C8 7644   0.704   1.012  12.341  0.4507  0.7642 -1.0145
  514TMC3    O1 7645   0.510   0.592  12.502 -0.6368 -0.3264 -0.3333
  514TMC3    O2 7646   0.741   1.127  12.351 -0.4889  0.0919  0.8599
  515MPD2     C 7647   3.740   2.576  14.671  0.1681  0.2871  0.0303
  515MPD2    C1 7648   3.629   2.499  14.722  0.3243 -0.2477  0.6381
  515MPD2    C2 7649   3.612   2.482  14.862  0.3628  0.3633 -0.0815
  515MPD2    C3 7650   3.702   2.547  14.953  0.0782  0.2228  0.8414
  515MPD2    C4 7651   3.796   2.622  14.893  0.1504 -0.5719  0.2518
  515MPD2    C5 7652   3.817   2.645  14.765  0.1920 -0.4181  0.4710
  515MPD2     H 7653   3.530   2.426  14.904  2.0457 -0.7535  1.7226
  515MPD2    H1 7654   3.865   2.670  14.961  1.0935  0.3069 -1.3301
  515MPD2    H2 7655   3.759   2.583  14.565 -1.4222  0.0410 -0.2672
  515MPD2    H3 7656   3.895   2.710  14.728 -1.1202  1.3438  0.7796
  515MPD2     N 7657   3.694   2.538  15.093 -0.6406  0.2201 -0.3376
  515MPD2    H5 7658   3.770   2.588  15.138  0.0736 -0.1781 -1.0883
  515MPD2    N1 7659   3.551   2.436  14.621 -0.6037 -0.0338  0.4155
  515MPD2    H7 7660   3.497   2.353  14.644  0.9814 -1.5354 -1.3003
  516TMC3    C1 7661   3.495   2.372  14.396 -0.0214  0.2388  0.8182
  516TMC3    C2 7662   3.445   2.413  14.276  0.5189 -0.0469  0.3096
  516TMC3    C3 7663   3.368   2.320  14.212  0.3403  0.0445  1.0145
  516TMC3    C4 7664   3.501   2.242  14.429  0.1603 -0.1317 -0.2126
  516TMC3    C5 7665   3.411   2.153  14.367  0.2358  0.0405 -0.3256
  516TMC3    C6 7666   3.347   2.193  14.256  0.0712 -0.0399 -0.1786
  516TMC3     C 7667   3.546   2.479  14.486  0.3556  0.5835  0.4515
  516TMC3     O 7668   3.553   2.589  14.434  0.0035 -0.2595  0.3326
  516TMC3     H 7669   3.461   2.516  14.246 -0.1277 -0.6455 -2.0843
  516TMC3    H1 7670   3.549   2.205  14.519 -2.1724 -2.8000 -0.0508
  516TMC3    H2 7671   3.270   2.135  14.208  0.8524  1.0718 -2.8383
  516TMC3    C7 7672   3.394   2.025  14.415 -0.3982  0.2677 -0.2754
  516TMC3    C8 7673   3.291   2.364  14.096 -0.0419 -0.8861  0.0757
  516TMC3    O1 7674   3.424   2.020  14.537 -0.5851  0.2820  0.1179
  516TMC3    O2 7675   3.186   2.308  14.070  0.2620  1.3236  0.3670
  517MPD2     C 7676   2.992   3.962   0.440  0.2312 -0.1768  0.1061
  517MPD2    C1 7677   3.064   4.014   0.338 -0.7548  0.1231  0.7267
  517MPD2    C2 7678   3.104   4.143   0.347 -0.4976  0.3768  0.8191
  517MPD2    C3 7679   3.068   4.226   0.452  0.5583 -0.3864 -0.2437
  517MPD2    C4 7680   2.982   4.170   0.550 -0.5563 -0.1228 -0.1689
  517MPD2    C5 7681   2.947   4.037   0.548 -0.6947  0.5455 -0.2306
  517MPD2     H 7682   3.179   4.175   0.275 -0.7534 -0.3080  0.2497
  517MPD2    H1 7683   2.937   4.230   0.628  2.1114  2.1960 -0.3913
  517MPD2    H2 7684   2.968   3.856   0.448 -0.2153 -0.0196  0.8584
  517MPD2    H3 7685   2.892   3.986   0.626 -0.8930 -0.7170 -1.2020
  517MPD2     N 7686   3.100   4.361   0.442  0.2893 -0.4931  0.1317
  517MPD2    H5 7687   3.150   4.382   0.356 -0.8606  1.1061 -0.1533
  517MPD2    N1 7688   3.081   3.945   0.220  0.3336 -0.3631  0.8173
  517MPD2    H7 7689   3.151   3.990   0.160  0.0197 -2.6462 -1.2519
  518TMC3    C1 7690   3.070   3.755   0.073  0.1921  0.3038 -0.2654
  518TMC3    C2 7691   2.997   3.648   0.031 -0.5206 -0.4654 -0.4086
  518TMC3    C3 7692   3.027   3.596  17.603 -0.1635 -0.3187  0.6030
  518TMC3    C4 7693   3.173   3.798   0.001  0.3305 -0.5001 -0.5056
  518TMC3    C5 7694   3.205   3.742  17.581 -0.1777 -0.0698  0.2727
  518TMC3    C6 7695   3.133   3.636  17.529 -0.2493 -1.0053 -0.5031
  518TMC3     C 7696   3.026   3.820   0.194 -0.3570  0.4879  0.2466
  518TMC3     O 7697   2.934   3.758   0.250  0.4466 -0.0218 -0.0739
  518TMC3     H 7698   2.908   3.621   0.086  1.0825 -0.8763  1.9509
  518TMC3    H1 7699   3.239   3.875   0.038  0.4684 -0.1856 -1.4009
  518TMC3    H2 7700   3.146   3.588  17.432  2.2863  0.9514 -1.1438
  518TMC3    C7 7701   3.339   3.764  17.529 -0.5549  0.8061 -0.1984
  518TMC3    C8 7702   2.974   3.463  17.574  0.5025 -0.2919 -0.7005
  518TMC3    O1 7703   3.402   3.858  17.571  0.0286  0.6971 -0.2373
  518TMC3    O2 7704   3.042   3.397  17.497  0.1205 -0.5905  0.2464
  519MPD2     C 7705   0.061   2.533  14.132  0.0370  0.0029  0.2149
  519MPD2    C1 7706   4.683   2.450  14.167 -0.3934  0.0919  0.1768
  519MPD2    C2 7707   4.707   2.321  14.216 -0.7818 -0.1108  0.3812
  519MPD2    C3 7708   0.121   2.285  14.228 -1.1706  0.8988 -0.3408
  519MPD2    C4 7709   0.221   2.371  14.192 -0.0869  0.3242 -0.4808
  519MPD2    C5 7710   0.191   2.496  14.143  0.0611  0.1389 -0.2643
  519MPD2     H 7711   4.622   2.255  14.231 -1.3289  0.6410  0.6446
  519MPD2    H1 7712   0.325   2.345  14.207 -0.0174  0.3591 -0.9135
  519MPD2    H2 7713   0.029   2.630  14.097 -1.5806 -0.8681 -0.7284
  519MPD2    H3 7714   0.275   2.561  14.120  0.0337  0.5051  0.6793
  519MPD2     N 7715   0.170   2.158  14.266 -0.1749  0.6030  0.3904
  519MPD2    H5 7716   0.266   2.137  14.241 -0.2178 -0.6000  1.2347
  519MPD2    N1 7717   4.547   2.500  14.153  0.5822 -0.8023  0.0538
  519MPD2    H7 7718   4.534   2.592  14.111 -1.1638 -1.1995 -0.2765
  520TMC3    C1 7719   0.156   1.938  14.283 -0.2368  0.4703 -0.9283
  520TMC3    C2 7720   0.085   1.873  14.186  0.4600 -0.1280  0.3638
  520TMC3    C3 7721   0.155   1.807  14.089 -0.0016  0.2141 -0.2577
  520TMC3    C4 7722   0.293   1.931  14.293  0.5641  0.3384  0.1681
  520TMC3    C5 7723   0.350   1.848  14.206 -0.2471 -0.6883  0.7359
  520TMC3    C6 7724   0.290   1.782  14.104 -0.4828  0.2389 -0.0199
  520TMC3     C 7725   0.095   2.059  14.321  0.0480  0.2052 -0.5353
  520TMC3     O 7726   4.697   2.067  14.348  0.4220  0.4723 -0.1806
  520TMC3     H 7727   4.702   1.891  14.179  0.4740  0.3474  1.4053
  520TMC3    H1 7728   0.350   1.973  14.374 -2.5721  1.9922  1.4949
  520TMC3    H2 7729   0.342   1.720  14.032 -0.7058 -2.7176  2.3901
  520TMC3    C7 7730   0.480   1.791  14.240 -0.2844  0.2103  0.2724
  520TMC3    C8 7731   0.096   1.773  13.958  1.0854 -0.0204 -0.4815
  520TMC3    O1 7732   0.515   1.777  14.355 -0.8730 -0.3197 -0.3875
  520TMC3    O2 7733   0.179   1.765  13.868  0.0746  0.4585  0.3139
  521MPD2     C 7734   0.892   0.592  17.559  0.4703 -0.0817 -0.0421
  521MPD2    C1 7735   0.829   0.472  17.544  0.2856  0.2719 -0.3488
  521MPD2    C2 7736   0.900   0.356  17.554  0.0322  0.2576  0.4010
  521MPD2    C3 7737   1.034   0.362  17.564  0.1454  0.3940 -0.4675
  521MPD2    C4 7738   1.102   0.480  17.574  0.2684  0.1748  0.5864
  521MPD2    C5 7739   1.031   0.592  17.580 -0.4207  0.1973  0.6357
  521MPD2     H 7740   0.842   0.265  17.555 -1.0430  0.9212 -1.0227
  521MPD2    H1 7741   1.210   0.489  17.576  0.1479  1.8296 -1.3433
  521MPD2    H2 7742   0.839   0.687  17.556  1.6329  0.6447  2.7540
  521MPD2    H3 7743   1.090   0.683  17.582 -0.1352  0.0711 -2.3947
  521MPD2     N 7744   1.107   0.241  17.559 -0.4594  0.0565 -0.3008
  521MPD2    H5 7745   1.056   0.170  17.508  0.6587 -0.8558 -0.1515
  521MPD2    N1 7746   0.690   0.474  17.537 -0.0275 -0.1150  0.2696
  521MPD2    H7 7747   0.652   0.568  17.546  1.1695  0.5756 -1.7375
  522TMC3    C1 7748   1.291   0.092  17.558  0.5594 -0.2248  0.3790
  522TMC3    C2 7749   1.412   0.057  17.619 -0.1129 -0.8147 -0.2116
  522TMC3    C3 7750   1.481   4.680  17.557 -0.4219 -0.6797 -0.1599
  522TMC3    C4 7751   1.232   0.013  17.462 -1.1018  0.3683 -0.3837
  522TMC3    C5 7752   1.307   4.633  17.406  0.3790 -0.4140  0.4074
  522TMC3    C6 7753   1.437   4.608  17.449  0.0327 -0.1245 -0.0560
  522TMC3     C 7754   1.241   0.224  17.591  0.4035 -0.1800 -0.0680
  522TMC3     O 7755   1.319   0.293  17.659  0.5329 -0.5365 -0.2586
  522TMC3     H 7756   1.450   0.118   0.005 -0.1895  0.8120 -1.4005
  522TMC3    H1 7757   1.135   0.038  17.421  0.4017  0.7726 -3.5985
  522TMC3    H2 7758   1.495   4.523  17.418  1.1791  0.2880  0.9385
  522TMC3    C7 7759   1.264   4.569  17.280  0.1001  0.1124  0.1564
  522TMC3    C8 7760   1.606   4.657  17.605  0.2588 -0.0682  0.2130
  522TMC3    O1 7761   1.315   4.463  17.240 -0.2522 -0.8824  0.1957
  522TMC3    O2 7762   1.623   4.641   0.032  0.0539 -0.0583 -0.1051
  523MPD2     C 7763   4.130   0.087  10.216 -0.5425 -0.3585  0.3178
  523MPD2    C1 7764   4.033   0.048  10.133 -0.2432 -0.6675 -0.2239
  523MPD2    C2 7765   3.962   0.139  10.060 -0.4160  0.0625  0.5925
  523MPD2    C3 7766   3.994   0.280  10.076  0.0209 -0.3778  0.4614
  523MPD2    C4 7767   4.089   0.315  10.169 -0.9394  0.4309  0.5047
  523MPD2    C5 7768   4.162   0.218  10.231  0.0084  0.3624 -0.4791
  523MPD2     H 7769   3.877   0.105  10.002 -1.6547  2.8582  0.7795
  523MPD2    H1 7770   4.126   0.416  10.185 -0.3366 -0.0009  1.8829
  523MPD2    H2 7771   4.189   0.012  10.267  3.3790  0.4360 -3.0569
  523MPD2    H3 7772   4.235   0.251  10.304 -1.1855  3.0786 -0.5421
  523MPD2     N 7773   3.918   0.385  10.008  0.0450 -0.5173  0.2824
  523MPD2    H5 7774   3.912   0.476  10.051  0.1871 -0.3855  0.0214
  523MPD2    N1 7775   4.014   4.626  10.124  0.2370  0.7257 -0.3331
  523MPD2    H7 7776   4.075   4.564  10.176  0.4709  1.6565  0.5066
  524TMC3    C1 7777   3.806   0.493   9.822 -0.2113  0.0141 -0.6706
  524TMC3    C2 7778   3.820   0.512   9.686  0.0243  0.2613  0.4275
  524TMC3    C3 7779   3.795   0.639   9.642  0.5279  0.5220  0.2507
  524TMC3    C4 7780   3.789   0.589   9.913  0.4077  0.2305  0.3367
  524TMC3    C5 7781   3.766   0.717   9.864 -0.5983 -0.2147 -0.0478
  524TMC3    C6 7782   3.761   0.739   9.727  0.3653 -0.6611 -0.3268
  524TMC3     C 7783   3.871   0.373   9.871 -0.0882 -0.2887  0.5672
  524TMC3     O 7784   3.885   0.272   9.797 -0.4113  0.1936  0.3312
  524TMC3     H 7785   3.811   0.429   9.617  0.4633  1.2578 -0.8327
  524TMC3    H1 7786   3.777   0.566  10.018  0.3331  1.2352  0.5503
  524TMC3    H2 7787   3.749   0.837   9.683  1.0976 -0.1150  0.7209
  524TMC3    C7 7788   3.712   0.817   9.961  0.4069 -0.9919  0.0578
  524TMC3    C8 7789   3.789   0.663   9.497  0.1916 -0.7228 -0.2071
  524TMC3    O1 7790   3.707   0.782  10.079 -0.2906  0.0336 -0.1575
  524TMC3    O2 7791   3.751   0.772   9.461  0.1272  0.0207  0.5820
  525MPD2     C 7792   1.567   1.602  14.452 -0.2252 -0.4741 -0.0439
  525MPD2    C1 7793   1.646   1.674  14.538 -0.3544  0.7187  0.0728
  525MPD2    C2 7794   1.718   1.777  14.492  0.1544 -0.6192 -0.3562
  525MPD2    C3 7795   1.682   1.838  14.374  0.4273  0.2254 -0.0554
  525MPD2    C4 7796   1.584   1.776  14.296  0.2893  0.4791 -0.1319
  525MPD2    C5 7797   1.535   1.651  14.329 -0.0683  0.5806  0.6276
  525MPD2     H 7798   1.800   1.816  14.551 -0.7660  0.3050  0.3098
  525MPD2    H1 7799   1.537   1.817  14.207  2.4330  0.7575 -1.1492
  525MPD2    H2 7800   1.518   1.511  14.485  1.6993 -1.6805 -0.4792
  525MPD2    H3 7801   1.452   1.610  14.273 -1.0045  2.0506  0.9442
  525MPD2     N 7802   1.745   1.960  14.331 -0.4092 -0.0696  0.8345
  525MPD2    H5 7803   1.702   2.001  14.248  1.4218 -1.6001 -0.8747
  525MPD2    N1 7804   1.680   1.630  14.670 -0.0092 -0.2839 -0.0557
  525MPD2    H7 7805   1.750   1.690  14.712 -0.9154  0.2731  0.6469
  526TMC3    C1 7806   1.715   1.507  14.866  0.0101  0.1134 -0.8440
  526TMC3    C2 7807   1.664   1.533  14.988  0.0350  0.4927  0.9470
  526TMC3    C3 7808   1.753   1.534  15.098 -0.0914 -0.2834 -0.7055
  526TMC3    C4 7809   1.851   1.492  14.843 -0.3743  0.3403 -0.0555
  526TMC3    C5 7810   1.934   1.493  14.953  0.3797  0.2373  0.5023
  526TMC3    C6 7811   1.891   1.517  15.083  0.2338  0.9018 -0.2549
  526TMC3     C 7812   1.629   1.523  14.747 -1.1832 -0.6745 -0.2097
  526TMC3     O 7813   1.514   1.478  14.750  0.1602 -0.5509 -0.2974
  526TMC3     H 7814   1.556   1.534  15.000 -0.2470  0.2654 -1.4289
  526TMC3    H1 7815   1.886   1.462  14.745  2.2728  0.2476  0.9380
  526TMC3    H2 7816   1.968   1.524  15.160 -0.1222  0.1190  0.1765
  526TMC3    C7 7817   2.055   1.412  14.965  0.2341 -0.3138 -0.4112
  526TMC3    C8 7818   1.700   1.552  15.229 -0.2898  0.5305 -0.4890
  526TMC3    O1 7819   2.064   1.340  15.064 -0.4471  0.0505 -0.3731
  526TMC3    O2 7820   1.788   1.536  15.311 -0.1408 -0.0028  0.5685
  527MPD2     C 7821   3.725   4.452   1.582  0.3071 -0.9604  0.3022
  527MPD2    C1 7822   3.841   4.386   1.606 -0.0194  0.0614 -0.3548
  527MPD2    C2 7823   3.949   4.387   1.515 -0.2667  0.1115  0.2551
  527MPD2    C3 7824   3.930   4.445   1.391 -0.3376 -0.5149 -0.1274
  527MPD2    C4 7825   3.809   4.505   1.371 -0.7076  0.1905 -0.1666
  527MPD2    C5 7826   3.718   4.511   1.465 -0.0487  0.4966 -0.2151
  527MPD2     H 7827   4.035   4.326   1.539 -2.3956 -2.3526  1.5001
  527MPD2    H1 7828   3.780   4.561   1.283  0.3648 -1.2924 -1.4725
  527MPD2    H2 7829   3.649   4.464   1.659 -1.6203  1.8384 -2.0544
  527MPD2    H3 7830   3.625   4.565   1.455  0.7481  1.5601 -2.1241
  527MPD2     N 7831   4.029   4.426   1.288  0.2903  0.4855 -0.2197
  527MPD2    H5 7832   4.116   4.377   1.310 -1.0928 -1.0785  1.7720
  527MPD2    N1 7833   3.863   4.321   1.735 -0.0108  0.0471 -0.1985
  527MPD2    H7 7834   3.949   4.267   1.741 -1.8227 -2.5236  2.1491
  528TMC3    C1 7835   3.843   4.240   1.940  0.1450  0.2432  0.8458
  528TMC3    C2 7836   3.966   4.298   1.967  1.5198  0.2962  0.9659
  528TMC3    C3 7837   4.063   4.216   2.007  0.5293  0.5186  0.6356
  528TMC3    C4 7838   3.813   4.103   1.955  0.2192  0.1652 -0.3100
  528TMC3    C5 7839   3.925   4.030   1.983  0.3436  0.0761 -0.4543
  528TMC3    C6 7840   4.046   4.084   2.008  0.7913  0.1726  0.5766
  528TMC3     C 7841   3.773   4.307   1.837 -0.3874  0.6286 -0.0791
  528TMC3     O 7842   3.654   4.324   1.837  0.3392 -0.0543  0.3193
  528TMC3     H 7843   3.981   4.402   1.941  1.3180 -0.0788 -0.6707
  528TMC3    H1 7844   3.716   4.064   1.929  0.2104 -1.4653  2.1449
  528TMC3    H2 7845   4.130   4.017   2.023  0.0408 -0.7847  0.5162
  528TMC3    C7 7846   3.904   3.887   1.976  0.1942 -0.1373  0.2714
  528TMC3    C8 7847   4.194   4.259   1.984  0.8980  0.2094  0.5899
  528TMC3    O1 7848   3.792   3.851   1.930  0.6336 -0.0106 -0.5150
  528TMC3    O2 7849   4.200   4.361   1.919 -0.2252 -0.2795  0.0890
  529MPD2     C 7850   1.469   2.922  17.571  0.0267 -0.2359 -1.1068
  529MPD2    C1 7851   1.522   2.946   0.000 -0.7043  0.0823 -1.0225
  529MPD2    C2 7852   1.477   3.053   0.077  0.1338  0.0028 -0.1130
  529MPD2    C3 7853   1.374   3.131   0.035  0.1885  0.0195 -0.1047
  529MPD2    C4 7854   1.320   3.110  17.601 -0.2166 -0.0242  0.2039
  529MPD2    C5 7855   1.376   3.013  17.525  0.6573  0.2019 -0.5352
  529MPD2     H 7856   1.519   3.056   0.177 -2.1876 -0.3953  0.8588
  529MPD2    H1 7857   1.235   3.161  17.559 -0.0544  0.5300  0.5585
  529MPD2    H2 7858   1.503   2.842  17.506  1.7367  0.8741 -1.5648
  529MPD2    H3 7859   1.327   3.000  17.429 -1.7396 -1.2855  0.8551
  529MPD2     N 7860   1.301   3.229   0.113 -0.1006 -0.6178 -0.0070
  529MPD2    H5 7861   1.230   3.280   0.060  1.6777 -0.0415 -1.8707
  529MPD2    N1 7862   1.632   2.876   0.041 -0.3788 -0.2789 -0.4030
  529MPD2    H7 7863   1.669   2.896   0.133 -0.1256  1.5749 -0.9156
  530TMC3    C1 7864   1.796   2.712   0.065  0.9992 -0.2849 -0.0460
  530TMC3    C2 7865   1.858   2.783   0.160 -0.3711 -0.0488 -0.7415
  530TMC3    C3 7866   1.915   2.724   0.267  0.2324  0.0791  0.2092
  530TMC3    C4 7867   1.795   2.578   0.067  0.5727  0.0098  0.1055
  530TMC3    C5 7868   1.848   2.521   0.180 -0.0756 -0.3799 -0.1751
  530TMC3    C6 7869   1.903   2.588   0.286  0.1771 -0.9083 -0.1893
  530TMC3     C 7870   1.683   2.760  17.686 -0.3188 -0.1406 -0.1881
  530TMC3     O 7871   1.644   2.701  17.585 -0.4188  0.1614 -0.0793
  530TMC3     H 7872   1.875   2.890   0.150 -0.3665 -0.2311 -2.6727
  530TMC3    H1 7873   1.722   2.529   0.004  1.6686 -1.5650  0.0408
  530TMC3    H2 7874   1.972   2.537   0.353  1.1795 -1.6734 -1.8127
  530TMC3    C7 7875   1.805   2.383   0.208  0.6597  0.5986  0.6441
  530TMC3    C8 7876   1.950   2.813   0.379 -0.1304 -0.0994  0.5608
  530TMC3    O1 7877   1.770   2.331   0.105 -0.0693  0.5060  0.1129
  530TMC3    O2 7878   1.905   2.929   0.381  0.2289 -0.2461  0.2589
  531MPD2     C 7879   0.598   0.356  12.970 -0.3009 -0.0650  0.5249
  531MPD2    C1 7880   0.623   0.483  13.015 -0.0662  0.3991 -0.3374
  531MPD2    C2 7881   0.585   0.581  12.933  1.2527 -0.2416  0.1501
  531MPD2    C3 7882   0.547   0.554  12.805 -0.0409 -0.4854  0.2637
  531MPD2    C4 7883   0.533   0.424  12.759  0.2405 -0.4138 -0.2649
  531MPD2    C5 7884   0.560   0.319  12.843 -0.1444 -0.3587 -0.2802
  531MPD2     H 7885   0.572   0.683  12.966  0.8924  0.6304 -2.7269
  531MPD2    H1 7886   0.493   0.405  12.660 -0.5656 -0.9585  0.1603
  531MPD2    H2 7887   0.637   0.275  13.031  0.6171 -0.0824 -0.0902
  531MPD2    H3 7888   0.562   0.215  12.812 -1.3666 -0.3294 -0.4909
  531MPD2     N 7889   0.501   0.668  12.728  0.1110 -0.0834 -0.8833
  531MPD2    H5 7890   0.499   0.753  12.784  0.0387  0.1215 -1.2012
  531MPD2    N1 7891   0.676   0.506  13.150  0.1159 -0.4844  0.9950
  531MPD2    H7 7892   0.700   0.420  13.199  3.1597  0.8560  1.8201
  532TMC3    C1 7893   0.735   0.643  13.334  0.4519 -0.0448 -0.7097
  532TMC3    C2 7894   0.695   0.768  13.384 -0.2802 -0.4311 -0.0975
  532TMC3    C3 7895   0.780   0.852  13.443  0.6948 -0.0175 -0.7051
  532TMC3    C4 7896   0.864   0.595  13.365 -0.4400 -0.0028 -0.1210
  532TMC3    C5 7897   0.948   0.687  13.422 -0.6995 -0.3692 -0.5924
  532TMC3    C6 7898   0.909   0.808  13.468  0.2418 -0.5613 -0.5201
  532TMC3     C 7899   0.696   0.631  13.196  0.2693 -1.1324  0.4523
  532TMC3     O 7900   0.702   0.740  13.137 -0.1171  0.5933  0.2935
  532TMC3     H 7901   0.598   0.808  13.356  0.6731 -0.9026 -4.1191
  532TMC3    H1 7902   0.898   0.504  13.317 -1.3245 -0.0683 -0.6272
  532TMC3    H2 7903   0.982   0.880  13.501 -1.5064  0.7031  0.5554
  532TMC3    C7 7904   1.062   0.636  13.496  0.6562  0.1798 -0.5328
  532TMC3    C8 7905   0.776   0.988  13.389  0.2884 -0.2079  0.2105
  532TMC3    O1 7906   1.079   0.682  13.605  0.2494 -0.5180  0.5819
  532TMC3    O2 7907   0.840   1.072  13.446  0.0264 -0.5191  0.1333
  533TMC3    C1 7908   1.892   2.139  14.301  0.0784 -0.5841 -1.3461
  533TMC3    C2 7909   2.014   2.197  14.337 -0.1819  0.0605 -0.0076
  533TMC3    C3 7910   2.035   2.330  14.331  0.0068  1.4352  0.0153
  533TMC3    C4 7911   1.796   2.223  14.256  0.1822  0.1536 -0.2652
  533TMC3    C5 7912   1.812   2.358  14.261  0.5878  0.0039 -0.2778
  533TMC3    C6 7913   1.936   2.412  14.287 -0.0269 -1.0412  0.0603
  533TMC3     C 7914   1.844   2.034  14.392  0.8133 -0.1221  0.1017
  533TMC3     O 7915   1.905   2.007  14.494 -0.0467  0.4448  0.2000
  533TMC3     H 7916   2.086   2.129  14.381 -1.3922 -1.7824 -0.8161
  533TMC3    H1 7917   1.696   2.180  14.262  1.1820 -2.6834 -3.6319
  533TMC3    H2 7918   1.954   2.518  14.270 -0.3256 -1.1786 -1.1555
  533TMC3    C7 7919   1.711   2.406  14.353 -0.6531  0.4974  0.4557
  533TMC3    C8 7920   2.139   2.371  14.415 -0.1919  0.0733  0.3833
  533TMC3    O1 7921   1.626   2.329  14.390  0.3319 -0.5036  0.2768
  533TMC3    O2 7922   2.236   2.302  14.419 -0.3353 -0.0099  0.3955
  534MPD2     C 7923   4.271   2.810   1.336 -0.0539  0.4427 -0.1261
  534MPD2    C1 7924   4.221   2.935   1.359 -0.3751  0.6039  0.6223
  534MPD2    C2 7925   4.105   2.978   1.311  0.1867  0.3663  0.3159
  534MPD2    C3 7926   4.035   2.899   1.222 -0.2904 -0.5512 -0.7881
  534MPD2    C4 7927   4.088   2.773   1.189  0.0997 -0.8078  0.3221
  534MPD2    C5 7928   4.207   2.735   1.246 -0.6358  0.6196  0.3101
  534MPD2     H 7929   4.079   3.081   1.333  0.1548  0.5005 -0.3518
  534MPD2    H1 7930   4.037   2.713   1.114 -0.1831 -1.3174  0.9148
  534MPD2    H2 7931   4.369   2.782   1.372 -0.3467 -0.7683 -0.2906
  534MPD2    H3 7932   4.253   2.641   1.219 -1.7096  0.4187 -0.8092
  534MPD2     N 7933   3.921   2.937   1.152 -0.0990 -0.6424 -0.3166
  534MPD2    H5 7934   3.878   2.871   1.089 -1.2743 -3.0435  2.9735
  534MPD2    N1 7935   4.296   3.016   1.450 -0.4077 -0.1774  0.6020
  534MPD2    H7 7936   4.255   3.105   1.478  1.3277  1.3058 -1.5351
  535TMC3    C1 7937   3.785   3.073   1.043  0.4528  0.6473  0.4547
  535TMC3    C2 7938   3.651   3.073   1.051 -0.1018 -0.1300 -0.0252
  535TMC3    C3 7939   3.583   3.122   0.943  0.0944  0.0989  0.6727
  535TMC3    C4 7940   3.845   3.123   0.928  0.7219 -0.1628  0.0367
  535TMC3    C5 7941   3.771   3.175   0.828 -0.7983  0.2674 -0.4929
  535TMC3    C6 7942   3.635   3.167   0.828  0.3171  0.4738 -0.0989
  535TMC3     C 7943   3.864   3.057   1.159  0.3375  0.6750  0.2845
  535TMC3     O 7944   3.902   3.159   1.214  0.1560  0.2607 -0.3114
  535TMC3     H 7945   3.613   3.042   1.147 -1.7332  1.9727  0.0099
  535TMC3    H1 7946   3.953   3.121   0.925  0.7228  1.0547 -0.7740
  535TMC3    H2 7947   3.575   3.201   0.744  0.5954 -3.0430 -1.7124
  535TMC3    C7 7948   3.832   3.244   0.719 -0.2103  0.2900 -0.3212
  535TMC3    C8 7949   3.445   3.088   0.924 -0.2519  0.5968 -0.2003
  535TMC3    O1 7950   3.946   3.207   0.686  0.1525 -0.0656 -0.1867
  535TMC3    O2 7951   3.417   3.033   0.817  0.0827  0.2103 -0.2351
  536MPD2     C 7952   3.218   1.625  16.008  0.2675 -0.2418  0.0401
  536MPD2    C1 7953   3.090   1.588  16.040  0.3795  0.0848  0.1668
  536MPD2    C2 7954   2.985   1.614  15.946  0.1437 -0.0362  0.4140
  536MPD2    C3 7955   3.005   1.677  15.830  0.2157  0.6522  0.3690
  536MPD2    C4 7956   3.134   1.701  15.797  0.2430 -0.3369 -0.5760
  536MPD2    C5 7957   3.243   1.686  15.889  0.6134 -0.0812 -0.9422
  536MPD2     H 7958   2.883   1.603  15.981  0.1372 -0.1955  0.3439
  536MPD2    H1 7959   3.146   1.752  15.703  2.2859 -1.0297 -0.6832
  536MPD2    H2 7960   3.303   1.611  16.074 -0.6070 -0.3498  1.1359
  536MPD2    H3 7961   3.345   1.716  15.868  1.5487  0.4478  4.2426
  536MPD2     N 7962   2.899   1.720  15.746  0.3452 -0.0612 -0.2129
  536MPD2    H5 7963   2.920   1.739  15.649 -1.7704  0.1245 -0.6299
  536MPD2    N1 7964   3.066   1.516  16.164  1.0051 -0.1342 -0.0699
  536MPD2    H7 7965   3.143   1.502  16.228 -1.1996  0.6322  2.7507
  537TMC3    C1 7966   2.969   1.402  16.333  0.1830  0.0752  0.3564
  537TMC3    C2 7967   2.976   1.496  16.430  0.1748  0.6327  0.2748
  537TMC3    C3 7968   2.915   1.473  16.553  0.4560  0.6623 -0.0230
  537TMC3    C4 7969   2.909   1.282  16.359 -0.2161 -0.3549 -0.7594
  537TMC3    C5 7970   2.871   1.254  16.486 -0.3677 -0.2266 -0.1277
  537TMC3    C6 7971   2.872   1.346  16.586 -0.4103  0.0066 -0.0045
  537TMC3     C 7972   2.954   1.448  16.195 -0.2741 -0.7416  0.0318
  537TMC3     O 7973   2.850   1.427  16.133 -0.0266  1.1099 -0.1486
  537TMC3     H 7974   3.011   1.594  16.399  2.8781  0.1179  1.6630
  537TMC3    H1 7975   2.883   1.216  16.276 -1.2960 -0.0137 -0.6931
  537TMC3    H2 7976   2.840   1.318  16.686  2.0008 -5.1740 -0.6497
  537TMC3    C7 7977   2.755   1.158  16.497 -0.4787  0.4637  0.7692
  537TMC3    C8 7978   2.865   1.574  16.636 -0.1170 -0.1238  0.2157
  537TMC3    O1 7979   2.690   1.146  16.397  0.3436 -0.3980 -0.0036
  537TMC3    O2 7980   2.806   1.555  16.742 -0.2692 -0.2834  0.5267
  538TMC3    C1 7981   4.386   4.444  10.901  0.3833  0.0995 -0.3184
  538TMC3    C2 7982   4.479   4.402  10.812 -0.4882 -0.3489 -0.0808
  538TMC3    C3 7983   4.487   4.476  10.694 -0.2504 -0.3661  0.3402
  538TMC3    C4 7984   4.311   4.556  10.877  0.6274  0.4444  0.5705
  538TMC3    C5 7985   4.331   4.621  10.757 -0.0839 -0.0502 -0.3413
  538TMC3    C6 7986   4.418   4.585  10.658 -0.1825 -0.1620 -0.0591
  538TMC3     C 7987   4.406   4.424  11.042  0.1137  0.1236 -0.9342
  538TMC3     O 7988   4.305   4.419  11.112 -0.0568 -0.0451  0.1358
  538TMC3     H 7989   4.544   4.321  10.843 -3.0849 -2.0461  0.9481
  538TMC3    H1 7990   4.245   4.609  10.945  0.0675 -0.5401  0.7886
  538TMC3    H2 7991   4.400   4.625  10.559 -1.0163 -1.4927 -0.4459
  538TMC3    C7 7992   4.273   0.027  10.749  0.4657  0.3543 -0.1701
  538TMC3    C8 7993   4.586   4.429  10.603 -0.0067  0.6669 -0.4414
  538TMC3    O1 7994   4.224   0.064  10.645 -0.2428 -0.2536 -0.2826
  538TMC3    O2 7995   4.633   4.322  10.638 -0.5324 -0.7575 -0.2898
  539MPD2     C 7996   4.319   4.035  11.823  0.4894  0.7158 -0.0880
  539MPD2    C1 7997   4.277   4.036  11.689  0.3290  0.1784 -0.2419
  539MPD2    C2 7998   4.218   4.146  11.635 -0.0062  0.3571 -0.3138
  539MPD2    C3 7999   4.205   4.259  11.708 -0.2377 -0.0769 -0.3438
  539MPD2    C4 8000   4.240   4.258  11.840 -0.0032 -0.2379  0.1552
  539MPD2    C5 8001   4.289   4.144  11.898 -0.5854 -0.1193  0.0134
  539MPD2     H 8002   4.184   4.135  11.533 -2.0534  1.4611  0.2513
  539MPD2    H1 8003   4.223   4.342  11.906 -1.4178 -0.5264  0.1707
  539MPD2    H2 8004   4.362   3.947  11.871 -2.4032  0.0518  1.2704
  539MPD2    H3 8005   4.314   4.135  12.004  0.0240 -3.6021 -0.4314
  539MPD2     N 8006   4.154   4.383  11.658  0.2565 -0.1217  0.1374
  539MPD2    H5 8007   4.143   4.460  11.723  0.4213 -2.4923  3.0052
  539MPD2    N1 8008   4.279   3.921  11.602 -0.1585 -0.5057  0.6932
  539MPD2    H7 8009   4.227   3.942  11.518 -0.4613 -0.5926  0.8568
  540TMC3    C1 8010   4.082   4.546  11.504  0.0094 -0.2828 -0.2161
  540TMC3    C2 8011   4.085   4.590  11.376 -0.0076  0.2882 -0.3343
  540TMC3    C3 8012   4.047   4.720  11.348 -0.6557  0.2016  0.2641
  540TMC3    C4 8013   4.034   4.619  11.605 -0.1666  0.1352 -0.7524
  540TMC3    C5 8014   3.990   0.021  11.578 -0.4326  0.0945 -0.2551
  540TMC3    C6 8015   4.004   0.078  11.451 -0.2585 -0.4734 -0.3448
  540TMC3     C 8016   4.136   4.414  11.524 -0.4066 -0.6780 -0.9928
  540TMC3     O 8017   4.153   4.353  11.421 -0.4756  0.7450  0.3692
  540TMC3     H 8018   4.138   4.537  11.297 -1.2278  0.4390 -1.2623
  540TMC3    H1 8019   4.004   4.571  11.697  0.6996 -0.9765 -1.0517
  540TMC3    H2 8020   3.959   0.174  11.426 -2.0706 -1.6421 -1.6331
  540TMC3    C7 8021   3.886   0.066  11.663 -0.1876  0.0024 -0.7786
  540TMC3    C8 8022   4.025   0.041  11.212  0.0134  0.9294 -0.8484
  540TMC3    O1 8023   3.816   4.701  11.711  0.2511 -0.4271  0.3664
  540TMC3    O2 8024   4.029   0.160  11.179 -0.4842  0.2108  0.3569
  541MPD2     C 8025   2.341   1.253  13.320 -0.0144 -0.3173  0.3420
  541MPD2    C1 8026   2.282   1.172  13.232 -0.7125  0.9137 -0.4016
  541MPD2    C2 8027   2.333   1.166  13.103 -0.2027  0.0870 -0.3967
  541MPD2    C3 8028   2.430   1.261  13.055  0.0946 -0.2858 -0.3912
  541MPD2    C4 8029   2.493   1.347  13.144 -0.4808  0.1796 -0.1271
  541MPD2    C5 8030   2.443   1.339  13.273 -0.1475 -0.2815  0.7064
  541MPD2     H 8031   2.288   1.097  13.033 -0.0148 -0.8071  0.3630
  541MPD2    H1 8032   2.566   1.423  13.115 -1.2017  1.0250  0.2781
  541MPD2    H2 8033   2.304   1.266  13.421 -0.7869  0.3682 -0.0332
  541MPD2    H3 8034   2.482   1.415  13.339 -0.2063 -0.3662  0.8369
  541MPD2     N 8035   2.461   1.274  12.917 -0.3493 -0.2453 -0.6038
  541MPD2    H5 8036   2.528   1.342  12.881 -0.6473  0.2833 -0.1362
  541MPD2    N1 8037   2.176   1.082  13.261 -0.1750  0.4212  0.3627
  541MPD2    H7 8038   2.143   1.018  13.189 -0.4383  1.6745 -0.6333
  542TMC3    C1 8039   2.455   1.239  12.694  0.9615  0.1804 -0.5239
  542TMC3    C2 8040   2.496   1.161  12.587 -0.2644  0.1734 -0.0224
  542TMC3    C3 8041   2.524   1.218  12.462  0.5827 -0.2256 -0.1041
  542TMC3    C4 8042   2.428   1.373  12.676 -0.4868 -0.2690 -0.5996
  542TMC3    C5 8043   2.444   1.426  12.547 -0.2926 -0.0399 -0.3548
  542TMC3    C6 8044   2.499   1.356  12.440  0.5594  0.4887  0.0760
  542TMC3     C 8045   2.431   1.178  12.822 -0.2577 -0.4489  0.4970
  542TMC3     O 8046   2.394   1.063  12.832 -0.1225 -0.0356 -0.3466
  542TMC3     H 8047   2.499   1.053  12.596  0.2899  0.1124 -0.9537
  542TMC3    H1 8048   2.397   1.443  12.752  1.8754 -1.6137  1.5898
  542TMC3    H2 8049   2.524   1.400  12.344  1.0157  0.8148  0.3460
  542TMC3    C7 8050   2.359   1.534  12.501 -0.3381  0.0640 -0.8447
  542TMC3    C8 8051   2.561   1.124  12.350 -0.2140  0.6165  0.5309
  542TMC3    O1 8052   2.331   1.535  12.385  0.3585  0.1061 -0.7509
  542TMC3    O2 8053   2.521   1.152  12.238 -0.6865  0.5358  0.2341
  543TMC3    C1 8054   1.419   1.807  17.048 -0.1061 -0.4045 -0.0351
  543TMC3    C2 8055   1.460   1.682  17.084 -0.5609 -0.3729 -0.3579
  543TMC3    C3 8056   1.372   1.602  17.151 -0.3088  0.1925 -0.4826
  543TMC3    C4 8057   1.294   1.853  17.070  0.1195 -0.4093  0.6468
  543TMC3    C5 8058   1.206   1.764  17.122 -0.9830  0.4600 -0.8486
  543TMC3    C6 8059   1.239   1.640  17.174 -0.4041  0.6344 -0.4975
  543TMC3     C 8060   1.528   1.895  17.014  0.2412 -0.8765 -0.5410
  543TMC3     O 8061   1.642   1.857  17.038  0.7241  0.0127  0.2681
  543TMC3     H 8062   1.560   1.649  17.060 -0.6288 -0.5814 -0.3488
  543TMC3    H1 8063   1.265   1.956  17.054 -0.5010 -0.4880  1.2586
  543TMC3    H2 8064   1.168   1.568  17.213 -0.3009  0.7244 -0.1437
  543TMC3    C7 8065   1.066   1.794  17.118 -0.0674 -0.9094  0.2255
  543TMC3    C8 8066   1.407   1.463  17.185  0.4385  0.0837 -0.6947
  543TMC3    O1 8067   0.992   1.758  17.212  0.0255 -0.0883 -0.1622
  543TMC3    O2 8068   1.480   1.406  17.102  0.2474  0.6652  0.3219
  544MPD2     C 8069   1.401   1.078  17.526 -0.5372  0.3394  0.1479
  544MPD2    C1 8070   1.416   1.075  17.387  0.9203  0.0422  0.4777
  544MPD2    C2 8071   1.411   1.193  17.307 -0.5134 -0.1475 -0.3863
  544MPD2    C3 8072   1.392   1.314  17.382  0.1230  0.4872 -0.0323
  544MPD2    C4 8073   1.377   1.313  17.517  1.0748  0.8089 -0.0171
  544MPD2    C5 8074   1.390   1.197  17.591  0.4975  0.1009  0.1168
  544MPD2     H 8075   1.395   1.185  17.200  0.2492  3.4106 -0.7592
  544MPD2    H1 8076   1.366   1.410  17.564  1.7473  1.5620 -1.4206
  544MPD2    H2 8077   1.414   0.995  17.596 -0.7543  0.5357  0.4203
  544MPD2    H3 8078   1.373   1.202   0.002 -1.6785  0.3974 -0.2308
  544MPD2     N 8079   1.379   1.437  17.316 -0.5294  0.1594 -0.8517
  544MPD2    H5 8080   1.349   1.518  17.371 -1.1927 -0.7508  0.1406
  544MPD2    N1 8081   1.431   0.944  17.325  0.2161  0.2163 -0.2162
  544MPD2    H7 8082   1.403   0.869  17.388  0.4892 -0.1137 -0.4861
  545TMC3    C1 8083   1.476   0.775  17.166  0.2698 -0.2403 -0.5051
  545TMC3    C2 8084   1.457   0.731  17.038 -0.5428  0.3800 -0.2681
  545TMC3    C3 8085   1.446   0.599  17.009  0.3189  0.0259  0.4459
  545TMC3    C4 8086   1.478   0.678  17.266 -0.1662 -0.1831  0.2986
  545TMC3    C5 8087   1.492   0.547  17.230 -0.2880  0.3891  0.1427
  545TMC3    C6 8088   1.462   0.508  17.106  0.4484  0.1248  0.2201
  545TMC3     C 8089   1.466   0.918  17.192 -0.4402  0.7495 -0.0215
  545TMC3     O 8090   1.495   0.999  17.106  0.3575 -0.1613 -0.1370
  545TMC3     H 8091   1.432   0.815  16.973 -1.3837  0.6805  0.4523
  545TMC3    H1 8092   1.491   0.712  17.368 -0.7678  3.7585 -0.9529
  545TMC3    H2 8093   1.466   0.403  17.079 -0.1573  0.6832 -2.0586
  545TMC3    C7 8094   1.552   0.453  17.322 -0.2844  0.4630  0.0740
  545TMC3    C8 8095   1.389   0.570  16.879 -0.7484  0.3712 -0.0507
  545TMC3    O1 8096   1.603   0.345  17.276  0.7867  0.3201  0.3168
  545TMC3    O2 8097   1.317   0.476  16.876 -0.4590 -0.3029  0.0389
  546MPD2     C 8098   2.840   1.988   0.039  0.0666  0.3264  0.3614
  546MPD2    C1 8099   2.771   2.010  17.615  0.1259  0.2791 -0.8090
  546MPD2    C2 8100   2.783   2.129  17.552 -0.5547 -0.1276 -0.1561
  546MPD2    C3 8101   2.865   2.226  17.610 -0.3903 -0.4740  0.4937
  546MPD2    C4 8102   2.917   2.203   0.038  0.3519  0.3581  0.7553
  546MPD2    C5 8103   2.908   2.083   0.095  0.1776 -0.4903  0.0802
  546MPD2     H 8104   2.727   2.142  17.460  0.3280 -0.0448 -0.6817
  546MPD2    H1 8105   2.983   2.271   0.090  2.7880 -1.9297  0.6418
  546MPD2    H2 8106   2.833   1.885   0.075  1.3155 -0.3432 -1.3240
  546MPD2    H3 8107   2.972   2.057   0.179  0.5124  3.4730  1.0548
  546MPD2     N 8108   2.895   2.352  17.547  0.0523  0.2546 -0.5782
  546MPD2    H5 8109   2.939   2.420  17.608 -0.6965 -1.2684  1.6325
  546MPD2    N1 8110   2.694   1.907  17.552 -0.3838 -0.0101 -0.0527
  546MPD2    H7 8111   2.696   1.819  17.601  1.4768 -0.4861 -0.9726
  547TMC3    C1 8112   2.587   1.780  17.394 -0.7078 -0.6655  0.1840
  547TMC3    C2 8113   2.538   1.770  17.272  0.5436  0.0450  0.8249
  547TMC3    C3 8114   2.496   1.647  17.231 -0.4473  0.1564 -0.4804
  547TMC3    C4 8115   2.585   1.681  17.483 -0.3947 -0.6388  0.7569
  547TMC3    C5 8116   2.544   1.553  17.436 -1.0831 -0.5062 -0.8088
  547TMC3    C6 8117   2.507   1.534  17.304  0.0996  0.4877 -0.6202
  547TMC3     C 8118   2.629   1.909  17.432  0.4655  0.0649  1.2691
  547TMC3     O 8119   2.628   1.984  17.334  0.0378  0.4841 -0.6532
  547TMC3     H 8120   2.534   1.857  17.207  1.7678 -1.3358 -1.1061
  547TMC3    H1 8121   2.605   1.682  17.589 -3.7294 -1.5880  1.3898
  547TMC3    H2 8122   2.468   1.437  17.274  1.8512 -0.6765  0.8155
  547TMC3    C7 8123   2.507   1.448  17.534  0.6444  0.1081  0.2191
  547TMC3    C8 8124   2.426   1.628  17.109  0.3219  0.1206 -0.2428
  547TMC3    O1 8125   2.493   1.482  17.649  0.6309 -0.1150 -0.0620
  547TMC3    O2 8126   2.360   1.727  17.074  0.5354 -0.1297 -0.1633
  548MPD2     C 8127   3.088   2.965  12.348  0.8949 -0.1881  0.3832
  548MPD2    C1 8128   3.063   2.831  12.367 -0.2511  0.4205 -0.1344
  548MPD2    C2 8129   3.136   2.741  12.292 -0.3398 -0.3622 -0.1157
  548MPD2    C3 8130   3.242   2.793  12.220  0.6823 -0.1021 -0.2707
  548MPD2    C4 8131   3.273   2.926  12.207  0.3075 -0.0876  0.1004
  548MPD2    C5 8132   3.190   3.012  12.273 -0.4298 -0.2343 -0.5359
  548MPD2     H 8133   3.115   2.636  12.304  1.8894 -1.1827 -3.4702
  548MPD2    H1 8134   3.364   2.961  12.161 -0.2836  0.3915 -0.6807
  548MPD2    H2 8135   3.024   3.035  12.400  0.4234  0.1613 -0.6571
  548MPD2    H3 8136   3.213   3.117  12.272 -1.8655  0.0916  1.5948
  548MPD2     N 8137   3.317   2.690  12.156 -0.0651  0.0400  0.0443
  548MPD2    H5 8138   3.292   2.595  12.180 -0.9806  0.2655 -0.0289
  548MPD2    N1 8139   2.950   2.802  12.449 -0.1422 -0.5736 -0.0126
  548MPD2    H7 8140   2.901   2.882  12.488 -0.8714 -1.5055  0.9804
  549TMC3    C1 8141   2.784   2.664  12.562 -0.3264  0.3554  0.3722
  549TMC3    C2 8142   2.698   2.767  12.575  0.2331  0.8405 -0.0754
  549TMC3    C3 8143   2.568   2.741  12.625  1.2467 -0.1044  0.5039
  549TMC3    C4 8144   2.749   2.532  12.605 -0.3070 -0.2982  0.3265
  549TMC3    C5 8145   2.622   2.517  12.645  0.1653  0.2226  0.2528
  549TMC3    C6 8146   2.528   2.617  12.659 -0.5069 -0.1231  0.0597
  549TMC3     C 8147   2.920   2.676  12.498  0.5376  0.4377  0.1779
  549TMC3     O 8148   2.981   2.573  12.486 -0.0294  0.3350 -0.0172
  549TMC3     H 8149   2.740   2.864  12.551  1.2031  0.3113 -0.5076
  549TMC3    H1 8150   2.826   2.455  12.602  0.8404  0.8692 -0.4725
  549TMC3    H2 8151   2.428   2.602  12.699  0.1101 -1.6288  1.0631
  549TMC3    C7 8152   2.570   2.383  12.655  0.2557 -0.4266  0.1540
  549TMC3    C8 8153   2.458   2.833  12.622 -0.8746  0.9522  0.3924
  549TMC3    O1 8154   2.452   2.376  12.622 -0.6150 -0.1579  0.0421
  549TMC3    O2 8155   2.347   2.802  12.672  0.1759  0.5499 -0.5691
  550TMC3    C1 8156   1.756   0.540  11.958 -0.1409  0.3287  0.2379
  550TMC3    C2 8157   1.712   0.627  12.054 -0.2464 -0.1060  0.1987
  550TMC3    C3 8158   1.590   0.602  12.110 -0.4898 -0.6041  0.1296
  550TMC3    C4 8159   1.674   0.449  11.898 -0.0828 -0.2494  0.7427
  550TMC3    C5 8160   1.558   0.421  11.971 -0.2438  0.0592 -0.2117
  550TMC3    C6 8161   1.517   0.491  12.082  0.3320  0.0944 -0.1520
  550TMC3     C 8162   1.896   0.553  11.928  1.0647 -0.3932 -0.4569
  550TMC3     O 8163   1.984   0.575  12.009  0.2130 -0.0906 -0.5053
  550TMC3     H 8164   1.775   0.710  12.085 -0.7888  1.0480 -1.7903
  550TMC3    H1 8165   1.717   0.386  11.821 -1.0859 -0.4176  0.3264
  550TMC3    H2 8166   1.428   0.450  12.130  0.5954  1.6612  1.6702
  550TMC3    C7 8167   1.446   0.405  11.886 -0.4241  0.2084  0.6421
  550TMC3    C8 8168   1.520   0.714  12.175 -0.4541 -0.4868  0.1555
  550TMC3    O1 8169   1.357   0.483  11.895  0.5271  1.0721  0.1256
  550TMC3    O2 8170   1.576   0.826  12.189 -0.0790 -0.2902  0.2601
  551TMC3    C1 8171   3.596   3.208  13.406 -0.5195  0.0894 -0.1112
  551TMC3    C2 8172   3.688   3.289  13.346 -0.4454 -0.4117 -0.0218
  551TMC3    C3 8173   3.770   3.356  13.431 -0.0346 -0.1106  0.6277
  551TMC3    C4 8174   3.602   3.172  13.542 -0.1857  0.5468  0.4432
  551TMC3    C5 8175   3.694   3.245  13.611  0.1718 -0.3393 -0.2732
  551TMC3    C6 8176   3.776   3.337  13.559 -0.2120 -0.4182 -0.0720
  551TMC3     C 8177   3.534   3.111  13.317  0.3673 -0.2172  0.4258
  551TMC3     O 8178   3.578   3.098  13.202 -0.7637  0.9491 -0.4734
  551TMC3     H 8179   3.683   3.312  13.241 -1.9727  1.3020  0.4295
  551TMC3    H1 8180   3.542   3.097  13.591  1.9212 -1.1591  0.4358
  551TMC3    H2 8181   3.823   3.415  13.619  0.2034 -1.0371  0.4035
  551TMC3    C7 8182   3.711   3.215  13.750  0.0026 -0.6030 -0.5030
  551TMC3    C8 8183   3.837   3.470  13.372  0.3187  0.6972  0.9426
  551TMC3    O1 8184   3.739   3.310  13.824 -0.2335  0.2584  0.1462
  551TMC3    O2 8185   3.801   3.508  13.263 -0.4214 -0.1535  0.5393
  552MPD2     C 8186   1.064   0.575  13.944 -0.1134 -0.6595  0.3107
  552MPD2    C1 8187   1.107   0.441  13.938 -0.4087 -0.3982  0.6924
  552MPD2    C2 8188   1.207   0.403  14.021 -0.5526 -0.2591  0.1738
  552MPD2    C3 8189   1.271   0.490  14.101 -0.9760 -0.1659 -0.2815
  552MPD2    C4 8190   1.225   0.619  14.111 -0.6673 -0.8256  0.7822
  552MPD2    C5 8191   1.125   0.663  14.031 -0.1508 -0.3261 -0.0348
  552MPD2     H 8192   1.251   0.305  14.017  0.1771 -0.0096  1.6950
  552MPD2    H1 8193   1.277   0.686  14.178  0.8353 -0.1885 -1.0043
  552MPD2    H2 8194   0.996   0.628  13.877  0.2880 -0.1065  0.3410
  552MPD2    H3 8195   1.107   0.770  14.029  0.6637 -0.1462  1.7128
  552MPD2     N 8196   1.383   0.463  14.182  0.0997 -0.0551  0.0449
  552MPD2    H5 8197   1.417   0.542  14.236 -1.2674  0.7121 -0.2240
  552MPD2    N1 8198   1.058   0.348  13.846 -0.3475  0.1631  0.4950
  552MPD2    H7 8199   1.114   0.263  13.841  0.6055  0.8286 -0.0341
  553TMC3    C1 8200   0.930   0.237  13.683  0.5433  0.3206  0.3344
  553TMC3    C2 8201   0.855   0.244  13.576 -0.3595 -0.4056 -0.5218
  553TMC3    C3 8202   0.852   0.138  13.480  0.2025  0.5805 -0.3930
  553TMC3    C4 8203   1.002   0.120  13.712  0.2846  0.3523 -0.6041
  553TMC3    C5 8204   0.988   0.015  13.630 -0.0192 -0.0556 -0.2390
  553TMC3    C6 8205   0.929   0.027  13.506 -0.2720  0.2527 -0.1513
  553TMC3     C 8206   0.942   0.352  13.772 -0.2057 -0.1143  0.7549
  553TMC3     O 8207   0.863   0.446  13.777 -0.0945 -0.1845 -0.6346
  553TMC3     H 8208   0.802   0.337  13.558 -0.2726 -0.4177 -0.8350
  553TMC3    H1 8209   1.052   0.105  13.807  2.2747  1.1630 -1.5118
  553TMC3    H2 8210   0.941   4.667  13.439  0.5820 -1.0857  1.6545
  553TMC3    C7 8211   1.058   4.618  13.648 -0.1103 -0.4791 -0.1580
  553TMC3    C8 8212   0.854   0.191  13.349 -0.0669 -0.4800  0.3139
  553TMC3    O1 8213   1.001   4.514  13.615 -0.0263 -0.2398  0.4221
  553TMC3    O2 8214   0.788   0.291  13.318 -0.3927  0.2922  0.8469
  554TMC3    C1 8215   3.418   4.138  11.354 -0.2315 -0.5574  0.4525
  554TMC3    C2 8216   3.399   4.104  11.225 -0.0847 -0.5749 -0.4505
  554TMC3    C3 8217   3.468   4.166  11.127  0.5464  0.0400  0.1901
  554TMC3    C4 8218   3.507   4.239  11.386 -0.4346  0.3941  0.2365
  554TMC3    C5 8219   3.554   4.317  11.287 -0.3828 -0.6611 -0.3505
  554TMC3    C6 8220   3.548   4.275  11.157 -0.1931  0.8792 -0.2450
  554TMC3     C 8221   3.327   4.084  11.454 -0.5506  0.6856  0.6341
  554TMC3     O 8222   3.224   4.031  11.407 -0.1849 -0.2745 -0.6099
  554TMC3     H 8223   3.339   4.018  11.199 -0.5114 -0.1586 -0.8408
  554TMC3    H1 8224   3.529   4.264  11.489 -3.0169 -0.5348  1.0277
  554TMC3    H2 8225   3.604   4.319  11.075  0.4849 -1.1283 -0.8700
  554TMC3    C7 8226   3.607   4.445  11.325  0.6330  1.1649  1.2615
  554TMC3    C8 8227   3.418   4.174  10.989 -0.2167 -0.1478 -0.7962
  554TMC3    O1 8228   3.628   4.465  11.446  0.0834  0.0708 -0.0176
  554TMC3    O2 8229   3.434   4.280  10.931  0.4232  0.7210  0.0554
  555TMC3    C1 8230   1.635   3.890  14.804  0.4591  0.2188  0.6908
  555TMC3    C2 8231   1.523   3.941  14.875  0.1160 -0.6154 -0.0874
  555TMC3    C3 8232   1.497   3.890  15.004  0.0205  0.0114 -0.0619
  555TMC3    C4 8233   1.718   3.783  14.851  0.4184 -0.1392 -0.5974
  555TMC3    C5 8234   1.669   3.723  14.961 -0.5157 -0.2190  0.0057
  555TMC3    C6 8235   1.576   3.784  15.040  0.2663  0.0672  0.4029
  555TMC3     C 8236   1.678   3.966  14.685 -0.0875 -0.2265  0.2521
  555TMC3     O 8237   1.798   3.973  14.654 -0.6270  0.4501 -0.7071
  555TMC3     H 8238   1.468   4.024  14.833  0.3364  0.6901  2.1955
  555TMC3    H1 8239   1.786   3.734  14.782 -1.3277 -1.8736 -1.1033
  555TMC3    H2 8240   1.560   3.739  15.137  1.4503  1.0054  1.0388
  555TMC3    C7 8241   1.744   3.621  15.032 -0.0351  0.1137 -0.1958
  555TMC3    C8 8242   1.404   3.950  15.099 -0.5301 -0.1420 -0.3293
  555TMC3    O1 8243   1.697   3.580  15.138  0.7694 -0.7622 -0.4968
  555TMC3    O2 8244   1.307   4.013  15.060 -0.0508 -0.4509  0.2882
  556MPD2     C 8245   0.435   0.872  10.465 -0.4643  0.3148 -0.1378
  556MPD2    C1 8246   0.395   0.758  10.531 -0.3145 -0.3661  0.5656
  556MPD2    C2 8247   0.373   0.644  10.459 -0.4126  0.3477  0.5321
  556MPD2    C3 8248   0.381   0.655  10.312 -0.3620  0.0109  0.2187
  556MPD2    C4 8249   0.406   0.773  10.250 -0.1028  0.0322  0.2763
  556MPD2    C5 8250   0.428   0.886  10.328  0.0319 -0.2474  0.2132
  556MPD2     H 8251   0.339   0.556  10.511 -0.0563 -1.6184 -2.5624
  556MPD2    H1 8252   0.420   0.788  10.144  0.9905 -0.5059  0.3462
  556MPD2    H2 8253   0.450   0.966  10.518 -0.5253 -0.9983  2.2047
  556MPD2    H3 8254   0.443   0.979  10.274  1.7901  0.1360  1.3851
  556MPD2     N 8255   0.359   0.536  10.239 -0.2542 -0.3286 -0.5600
  556MPD2    H5 8256   0.330   0.456  10.294  1.2095  1.5898  2.9976
  556MPD2    N1 8257   0.387   0.757  10.674 -0.3300 -0.7586 -0.4720
  556MPD2    H7 8258   0.359   0.673  10.723  1.2498 -1.9541 -1.6453
  557TMC3    C1 8259   0.335   0.388  10.048  0.3303  0.2410 -0.1475
  557TMC3    C2 8260   0.360   0.353   9.923  0.1927  0.9021 -0.3916
  557TMC3    C3 8261   0.294   0.254   9.863  0.3072 -0.1620 -0.0875
  557TMC3    C4 8262   0.259   0.302  10.125 -0.2990  0.0691  0.1894
  557TMC3    C5 8263   0.190   0.202  10.071 -0.5107  0.0315 -0.1100
  557TMC3    C6 8264   0.204   0.178   9.938 -0.3089 -0.4718 -0.7039
  557TMC3     C 8265   0.376   0.521  10.099 -0.2445 -0.8621 -0.7943
  557TMC3     O 8266   0.401   0.610  10.021  0.2629 -0.9965 -0.1629
  557TMC3     H 8267   0.417   0.423   9.862  2.8074  0.6920  1.8582
  557TMC3    H1 8268   0.227   0.333  10.223 -1.1846  0.8917 -0.3587
  557TMC3    H2 8269   0.133   0.112   9.889 -0.9511 -1.4072  1.5072
  557TMC3    C7 8270   0.108   0.121  10.165  0.6833 -0.9283 -0.6230
  557TMC3    C8 8271   0.261   0.272   9.717  0.2849 -0.2314 -0.1774
  557TMC3    O1 8272   0.101   0.158  10.282  0.6780  0.1124  0.2088
  557TMC3    O2 8273   0.272   0.386   9.673 -1.1882  0.4926 -0.2069
  558TMC3    C1 8274   2.893   3.342  10.226  0.3895  0.0667 -0.3195
  558TMC3    C2 8275   2.769   3.340  10.279 -0.2748  0.3132 -0.0890
  558TMC3    C3 8276   2.663   3.338  10.186  0.2598 -0.6057  0.1632
  558TMC3    C4 8277   2.914   3.328  10.095 -0.4718  0.0385 -0.4800
  558TMC3    C5 8278   2.808   3.316  10.008 -0.5692  0.6015 -0.5124
  558TMC3    C6 8279   2.677   3.318  10.055  0.6444 -0.0288  0.3047
  558TMC3     C 8280   3.002   3.310  10.314 -0.1463  0.2610 -0.5622
  558TMC3     O 8281   3.111   3.348  10.276 -0.6136  0.3428  0.2001
  558TMC3     H 8282   2.741   3.356  10.382  0.6412  2.1292 -0.1180
  558TMC3    H1 8283   3.015   3.300  10.066  0.1304  0.3957  1.2428
  558TMC3    H2 8284   2.593   3.307   9.987  0.7626 -2.4556  0.5582
  558TMC3    C7 8285   2.834   3.254   9.874  0.1153 -0.2275 -0.5428
  558TMC3    C8 8286   2.526   3.337  10.229  0.1460  0.7612  0.5136
  558TMC3    O1 8287   2.944   3.273   9.812  0.0549  0.2466 -0.9683
  558TMC3    O2 8288   2.451   3.400  10.155  0.5369 -0.1175  0.2817
  559MPD2     C 8289   3.089   3.674  10.395 -0.5844 -0.4137  0.7692
  559MPD2    C1 8290   3.011   3.633  10.496  0.2139  0.3059 -0.1501
  559MPD2    C2 8291   3.073   3.574  10.603  0.2021  0.1212  0.0331
  559MPD2    C3 8292   3.212   3.570  10.616 -0.0695  0.1764 -0.6404
  559MPD2    C4 8293   3.290   3.620  10.511 -0.5118  0.2812  0.1549
  559MPD2    C5 8294   3.226   3.668  10.402 -0.0005 -0.0914  0.0635
  559MPD2     H 8295   3.009   3.538  10.683  2.5903 -0.3936  1.7193
  559MPD2    H1 8296   3.396   3.614  10.531 -0.7339 -2.0659  0.6176
  559MPD2    H2 8297   3.041   3.705  10.303  0.9243  0.2266  0.2029
  559MPD2    H3 8298   3.287   3.698  10.318  1.4323  0.7086  1.4036
  559MPD2     N 8299   3.254   3.517  10.739  0.2153  0.0989 -0.7164
  559MPD2    H5 8300   3.189   3.494  10.813  2.1081 -0.8627  0.6482
  559MPD2    N1 8301   2.870   3.641  10.481 -0.2334  0.4201 -0.0561
  559MPD2    H7 8302   2.830   3.703  10.411 -0.7528 -0.7489 -0.7896
  560TMC3    C1 8303   3.398   3.446  10.914 -0.0652  0.1998 -0.4074
  560TMC3    C2 8304   3.304   3.361  10.956 -0.1246  1.1956  0.2851
  560TMC3    C3 8305   3.332   3.292  11.078  0.2896 -0.2900  0.1023
  560TMC3    C4 8306   3.513   3.471  10.980 -0.3046 -0.0556 -0.4313
  560TMC3    C5 8307   3.541   3.397  11.089  0.6521 -0.1690  0.6855
  560TMC3    C6 8308   3.455   3.302  11.132  0.2730 -0.5568 -0.2720
  560TMC3     C 8309   3.384   3.503  10.778  0.0056 -0.0380  0.6738
  560TMC3     O 8310   3.490   3.534  10.725  0.2260  0.5531  0.6484
  560TMC3     H 8311   3.220   3.339  10.892 -1.0470 -0.2976  1.9987
  560TMC3    H1 8312   3.586   3.542  10.943 -2.1853  2.2648  0.3060
  560TMC3    H2 8313   3.466   3.243  11.222  0.4732  0.7534  0.5642
  560TMC3    C7 8314   3.622   3.446  11.194 -0.1818  0.4817 -0.3845
  560TMC3    C8 8315   3.227   3.281  11.174  0.0741  0.6466  0.0506
  560TMC3    O1 8316   3.625   3.378  11.296 -0.1057 -0.7909  0.2078
  560TMC3    O2 8317   3.259   3.316  11.290 -0.4417  0.0815  0.6367
  561TMC3    C1 8318   0.693   2.903  11.234  0.1406  0.3140  0.5112
  561TMC3    C2 8319   0.619   2.813  11.309 -0.8839  0.3570 -0.3857
  561TMC3    C3 8320   0.580   2.852  11.435 -0.2594  0.1554  0.2605
  561TMC3    C4 8321   0.719   3.026  11.285 -0.4388  1.0957  0.0283
  561TMC3    C5 8322   0.689   3.055  11.413  0.0523 -0.5066 -0.1008
  561TMC3    C6 8323   0.617   2.970  11.489  0.3191 -0.1458  0.0261
  561TMC3     C 8324   0.716   2.872  11.090 -0.1468 -0.1922 -0.4564
  561TMC3     O 8325   0.648   2.779  11.041 -0.3324 -0.1975 -0.0233
  561TMC3     H 8326   0.578   2.717  11.278  1.5968 -1.2726  1.4385
  561TMC3    H1 8327   0.737   3.108  11.217  2.9403  1.2953  1.1807
  561TMC3    H2 8328   0.595   2.997  11.592  0.6325  0.9481 -0.1985
  561TMC3    C7 8329   0.765   3.156  11.489  0.0641  0.0871 -0.2629
  561TMC3    C8 8330   0.506   2.752  11.515 -0.1091 -0.5551 -0.4807
  561TMC3    O1 8331   0.718   3.213  11.584 -0.1415  0.5389 -0.4634
  561TMC3    O2 8332   0.515   2.632  11.485  0.3227 -0.2097  0.2424
  562TMC3    C1 8333   1.492   4.275  16.337 -0.3526 -0.3525 -0.0116
  562TMC3    C2 8334   1.395   4.342  16.263 -0.0219 -0.4423  0.2505
  562TMC3    C3 8335   1.363   4.308  16.137  0.3051 -0.1264  0.0564
  562TMC3    C4 8336   1.554   4.163  16.285  0.2142 -0.3115 -0.0085
  562TMC3    C5 8337   1.507   4.121  16.160 -0.0177 -0.1430  1.0369
  562TMC3    C6 8338   1.416   4.194  16.082  0.6548 -0.0702  0.1517
  562TMC3     C 8339   1.517   4.294  16.478 -0.9852 -0.4492  0.5747
  562TMC3     O 8340   1.570   4.203  16.540 -0.2523 -0.2981 -0.3813
  562TMC3     H 8341   1.325   4.412  16.307 -0.4910 -0.3511 -0.6489
  562TMC3    H1 8342   1.634   4.114  16.339  0.5635  0.7933  0.4905
  562TMC3    H2 8343   1.379   4.170  15.983  0.2850  1.5133 -0.1018
  562TMC3    C7 8344   1.519   3.980  16.140 -0.0251 -0.1856  0.2780
  562TMC3    C8 8345   1.241   4.359  16.068 -0.1218 -1.1999  0.2778
  562TMC3    O1 8346   1.468   3.937  16.038  0.5545 -0.2135 -0.5627
  562TMC3    O2 8347   1.150   4.386  16.146  0.1277  0.1805  0.3220
  563MPD2     C 8348   4.029   0.816  15.806 -0.6635  0.3009 -0.0550
  563MPD2    C1 8349   4.024   0.880  15.925 -0.2701  0.1490  0.2019
  563MPD2    C2 8350   4.140   0.881  16.000 -0.3367 -0.2134 -0.1383
  563MPD2    C3 8351   4.256   0.838  15.943 -0.1637  0.7509  0.1280
  563MPD2    C4 8352   4.263   0.784  15.817 -0.0535  0.4930 -0.5521
  563MPD2    C5 8353   4.145   0.774  15.754 -0.0198  0.7343  0.3088
  563MPD2     H 8354   4.138   0.915  16.102 -0.4022  1.1445 -0.5900
  563MPD2    H1 8355   4.343   0.728  15.769 -0.9387  0.1697 -1.6499
  563MPD2    H2 8356   3.941   0.819  15.742 -1.0568 -1.3232  0.4153
  563MPD2    H3 8357   4.152   0.737  15.652  0.1618  1.7540 -0.0411
  563MPD2     N 8358   4.371   0.852  16.024  0.1874 -0.2334  0.3755
  563MPD2    H5 8359   4.347   0.883  16.117  0.7384 -1.2114  0.8454
  563MPD2    N1 8360   3.897   0.924  15.963 -0.8366 -0.0580  0.0238
  563MPD2    H7 8361   3.817   0.914  15.901  0.5849 -2.9861 -1.3544
  564TMC3    C1 8362   3.740   0.991  16.137  0.0243  0.3101  0.6893
  564TMC3    C2 8363   3.672   0.889  16.081  0.2415  0.3974  0.1008
  564TMC3    C3 8364   3.619   0.793  16.167 -0.2502 -0.1514  1.0344
  564TMC3    C4 8365   3.728   1.016  16.270  0.0598  0.2807 -0.7957
  564TMC3    C5 8366   3.679   0.926  16.351  0.7046  0.5930 -0.2166
  564TMC3    C6 8367   3.634   0.808  16.305  0.3258  0.0914 -0.1379
  564TMC3     C 8368   3.873   0.976  16.090 -0.2153 -0.0862 -0.1527
  564TMC3     O 8369   3.961   1.018  16.167  0.0801 -0.5683 -0.1436
  564TMC3     H 8370   3.653   0.877  15.975 -1.5638 -1.1880  0.6113
  564TMC3    H1 8371   3.789   1.089  16.322 -0.7414 -0.1284  0.7106
  564TMC3    H2 8372   3.594   0.730  16.370 -0.9537 -0.0883 -1.1453
  564TMC3    C7 8373   3.735   0.934  16.484 -0.0399  0.7788  0.2675
  564TMC3    C8 8374   3.632   0.649  16.124 -0.1372 -0.3295  0.0369
  564TMC3    O1 8375   3.752   1.047  16.536  0.5063  0.4147 -0.5772
  564TMC3    O2 8376   3.571   0.564  16.192 -0.2533  0.0325  0.0361
  565TMC3    C1 8377   0.569   2.174   9.548 -0.4395  0.5193  0.4432
  565TMC3    C2 8378   0.456   2.103   9.585 -0.1458  0.3847  0.3823
  565TMC3    C3 8379   0.425   1.987   9.516  0.0571  0.4254 -0.2107
  565TMC3    C4 8380   0.638   2.142   9.438  0.3927 -0.5829  0.3913
  565TMC3    C5 8381   0.597   2.024   9.372 -0.0484 -0.0803  0.2861
  565TMC3    C6 8382   0.499   1.942   9.415 -0.3289 -0.1218  0.2964
  565TMC3     C 8383   0.600   2.301   9.610 -0.2108  0.5258  0.0755
  565TMC3     O 8384   0.668   2.375   9.541  0.7203  0.0961  0.1564
  565TMC3     H 8385   0.394   2.131   9.670  0.4949  2.0689  0.2981
  565TMC3    H1 8386   0.735   2.188   9.422  0.6341 -1.5761 -1.0387
  565TMC3    H2 8387   0.497   1.837   9.388  1.3211  0.4556 -2.0384
  565TMC3    C7 8388   0.678   1.984   9.260 -0.5761  0.6225 -0.0628
  565TMC3    C8 8389   0.338   1.898   9.581 -0.2500  0.1077 -0.2113
  565TMC3    O1 8390   0.792   2.022   9.247 -0.1727 -0.6229  0.0063
  565TMC3    O2 8391   0.308   1.924   9.696 -0.0778  0.1807 -0.2663
  566MPD2     C 8392   0.924   3.733  14.175 -0.4002 -0.6476 -0.0296
  566MPD2    C1 8393   1.049   3.711  14.125 -0.4186 -0.2986 -0.5241
  566MPD2    C2 8394   1.077   3.617  14.029  0.1385  0.0528  0.0029
  566MPD2    C3 8395   0.976   3.546  13.966 -0.4680  0.1662  0.1232
  566MPD2    C4 8396   0.847   3.590  13.998  0.0632  0.5646  0.2153
  566MPD2    C5 8397   0.822   3.677  14.107  0.2260 -0.6634 -0.7058
  566MPD2     H 8398   1.180   3.588  14.010  0.6795  2.6320 -0.9719
  566MPD2    H1 8399   0.766   3.549  13.939  1.0645  0.0628 -0.8331
  566MPD2    H2 8400   0.912   3.805  14.255 -1.1973  0.6020 -1.2679
  566MPD2    H3 8401   0.720   3.691  14.141  0.7056  1.5209 -0.1911
  566MPD2     N 8402   1.018   3.460  13.866 -0.1357  0.0813 -0.1058
  566MPD2    H5 8403   1.117   3.446  13.850 -0.4661 -1.6386 -0.6528
  566MPD2    N1 8404   1.160   3.792  14.159 -0.0154 -0.2140 -0.7124
  566MPD2    H7 8405   1.149   3.853  14.239 -1.4299 -1.5984  0.1392
  567TMC3    C1 8406   1.368   3.893  14.136 -0.0693 -0.4573 -0.0812
  567TMC3    C2 8407   1.434   3.964  14.032  0.9127 -0.2198  0.6900
  567TMC3    C3 8408   1.568   3.968  14.027  0.7302 -0.2956 -0.5601
  567TMC3    C4 8409   1.441   3.831  14.236  0.6862  0.1703  0.3233
  567TMC3    C5 8410   1.580   3.853  14.238  0.2025  0.0902 -0.0860
  567TMC3    C6 8411   1.641   3.924  14.135 -0.2515 -0.7993 -0.2438
  567TMC3     C 8412   1.268   3.808  14.077 -0.1016  0.0852  0.3052
  567TMC3     O 8413   1.283   3.779  13.959 -0.6703  0.2530  0.3360
  567TMC3     H 8414   1.369   3.996  13.951 -1.2609 -2.0022  1.7391
  567TMC3    H1 8415   1.391   3.754  14.293 -0.7909  1.3699  0.6613
  567TMC3    H2 8416   1.750   3.929  14.138 -0.2055 -0.6082 -2.3835
  567TMC3    C7 8417   1.662   3.781  14.330  0.5489  0.0146  0.2658
  567TMC3    C8 8418   1.629   4.000  13.900  0.6313  0.6177 -0.4826
  567TMC3    O1 8419   1.783   3.775  14.302  0.4651  0.2839  0.2732
  567TMC3    O2 8420   1.551   4.008  13.801 -0.3484  0.0706 -0.3693
  568MPD2     C 8421   4.030   3.896  16.400 -0.2991 -0.1761 -0.1042
  568MPD2    C1 8422   3.904   3.923  16.435  0.0740  0.2482  0.1650
  568MPD2    C2 8423   3.851   4.040  16.383 -0.3432  0.6359  0.5011
  568MPD2    C3 8424   3.932   4.130  16.316 -0.1087 -0.0385  0.7042
  568MPD2    C4 8425   4.061   4.091  16.282 -0.0929 -0.3066 -0.3335
  568MPD2    C5 8426   4.107   3.972  16.325  0.7734  0.2577 -0.0594
  568MPD2     H 8427   3.757   4.083  16.415 -1.0330 -1.9349  1.9484
  568MPD2    H1 8428   4.118   4.149  16.211 -1.2231  1.8733  0.5455
  568MPD2    H2 8429   4.076   3.805  16.436  0.1837 -0.2306 -0.8533
  568MPD2    H3 8430   4.209   3.943  16.300  0.7600 -1.3218  1.7428
  568MPD2     N 8431   3.884   4.261  16.292 -0.9020 -0.3623  0.2894
  568MPD2    H5 8432   3.792   4.285  16.328 -0.0058  3.1445  0.2597
  568MPD2    N1 8433   3.842   3.858  16.541  0.4533 -0.5211  0.1369
  568MPD2    H7 8434   3.888   3.780  16.587  1.0077 -0.8125 -0.9258
  569TMC3    C1 8435   3.907   4.496  16.283 -0.2417 -0.4535 -0.0815
  569TMC3    C2 8436   3.815   4.520  16.383 -0.0052 -0.1928 -0.4129
  569TMC3    C3 8437   3.778   4.651  16.399 -0.2914  0.2175 -0.6779
  569TMC3    C4 8438   3.959   4.599  16.216  0.0635  0.8459  0.2413
  569TMC3    C5 8439   3.926   0.004  16.244  0.3662 -0.1384 -0.2514
  569TMC3    C6 8440   3.828   0.032  16.329  0.0892  0.9269  0.1886
  569TMC3     C 8441   3.961   4.364  16.239  0.5341 -0.6281  0.0512
  569TMC3     O 8442   4.057   4.356  16.168 -0.5509 -0.2277 -0.0797
  569TMC3     H 8443   3.763   4.444  16.440 -2.8914  0.5903 -1.9889
  569TMC3    H1 8444   4.036   4.573  16.143  1.2913  2.3771  1.0050
  569TMC3    H2 8445   3.803   0.134  16.356 -2.3921  0.5994 -0.9041
  569TMC3    C7 8446   3.978   0.110  16.163  0.2799 -0.8211 -0.2845
  569TMC3    C8 8447   3.691   4.686  16.514  0.1543  0.6936 -0.1104
  569TMC3    O1 8448   4.082   0.090  16.102  0.4028  0.3365  0.0053
  569TMC3    O2 8449   3.596   4.616  16.541  0.0295 -0.5477 -0.0462
  570TMC3    C1 8450   2.855   3.189  16.375  0.0060 -1.3003  0.9706
  570TMC3    C2 8451   2.942   3.158  16.279  0.1084  0.3212 -0.5746
  570TMC3    C3 8452   2.965   3.268  16.199 -1.2129  0.3900  0.5412
  570TMC3    C4 8453   2.782   3.302  16.378 -0.0322  0.3015  0.3642
  570TMC3    C5 8454   2.810   3.407  16.295  0.2567  0.3319  0.1798
  570TMC3    C6 8455   2.900   3.389  16.197  0.3057  0.4517  0.0747
  570TMC3     C 8456   2.794   3.076  16.457 -1.0421  0.8345 -0.1623
  570TMC3     O 8457   2.813   2.955  16.431 -0.4665 -0.6596 -0.0764
  570TMC3     H 8458   3.001   3.067  16.281  0.1473  0.3156 -1.5698
  570TMC3    H1 8459   2.710   3.335  16.452  0.0417  1.1994  0.0349
  570TMC3    H2 8460   2.923   3.466  16.125 -0.0387  0.8246  0.3638
  570TMC3    C7 8461   2.787   3.546  16.345  0.2306  0.0854 -0.6146
  570TMC3    C8 8462   3.089   3.266  16.118 -0.3227 -0.3353 -0.3733
  570TMC3    O1 8463   2.756   3.559  16.464  0.1733 -0.3219 -0.0956
  570TMC3    O2 8464   3.138   3.377  16.096  0.5270  0.2357 -0.0958
  571MPD2     C 8465   1.045   4.109  17.298 -0.2456  0.4410 -0.3023
  571MPD2    C1 8466   0.963   4.054  17.396 -0.2615 -0.2852  0.3661
  571MPD2    C2 8467   0.873   4.140  17.467 -0.4946  0.5200 -0.3618
  571MPD2    C3 8468   0.893   4.280  17.466 -0.6601 -0.2948 -0.7728
  571MPD2    C4 8469   0.985   4.332  17.378 -0.3143  0.0581 -0.3718
  571MPD2    C5 8470   1.049   4.247  17.290 -0.3984  0.1574 -0.1014
  571MPD2     H 8471   0.785   4.103  17.518 -1.0157 -0.3842 -1.9019
  571MPD2    H1 8472   0.991   4.440  17.365 -0.5517  0.3092  1.6430
  571MPD2    H2 8473   1.104   4.052  17.226 -0.5517 -0.1687 -0.0633
  571MPD2    H3 8474   1.124   4.285  17.223 -0.9138  0.3101 -0.5899
  571MPD2     N 8475   0.819   4.369  17.546  0.1171 -0.7014  0.9288
  571MPD2    H5 8476   0.820   4.467  17.521 -0.8814 -0.5024  1.6670
  571MPD2    N1 8477   0.957   3.918  17.408 -0.6781 -0.0452 -0.0884
  571MPD2    H7 8478   0.995   3.855  17.338 -0.6676  2.3654 -2.2599
  572TMC3    C1 8479   0.678   4.434   0.030 -0.6934 -0.4517 -0.2146
  572TMC3    C2 8480   0.557   4.393   0.078  0.0933 -0.3147 -0.2709
  572TMC3    C3 8481   0.470   4.489   0.121 -0.0917 -0.1033 -0.6851
  572TMC3    C4 8482   0.713   4.563   0.022 -0.0761 -0.6111 -0.2703
  572TMC3    C5 8483   0.618   4.657   0.056  0.0688  0.3728 -0.4270
  572TMC3    C6 8484   0.498   4.622   0.103  0.2254 -0.6142  0.3488
  572TMC3     C 8485   0.755   4.330  17.660  0.2962  0.4590 -0.2748
  572TMC3     O 8486   0.750   4.224   0.026 -0.6731 -0.1764  0.0292
  572TMC3     H 8487   0.534   4.288   0.087 -0.3951 -0.0794  1.2515
  572TMC3    H1 8488   0.808   4.598  17.678 -0.5126 -1.0317 -1.6909
  572TMC3    H2 8489   0.421   4.689   0.139  0.2856 -0.6981  0.6366
  572TMC3    C7 8490   0.664   0.068   0.079  0.6546 -0.6314  0.7789
  572TMC3    C8 8491   0.366   4.444   0.213 -0.9836 -0.0785  0.5597
  572TMC3    O1 8492   0.579   0.148   0.106 -0.3502  0.3430 -0.3108
  572TMC3    O2 8493   0.322   4.332   0.202  0.5978 -0.1679 -1.1185
  573MPD2     C 8494   1.120   0.876   0.652 -0.4435  0.0476 -0.3734
  573MPD2    C1 8495   1.219   0.942   0.727 -0.0377  0.5740  0.2345
  573MPD2    C2 8496   1.352   0.915   0.698 -0.1359 -1.1421 -0.6493
  573MPD2    C3 8497   1.378   0.824   0.594 -0.3612 -0.1148 -0.3184
  573MPD2    C4 8498   1.281   0.759   0.521  0.0222 -0.2082  0.0983
  573MPD2    C5 8499   1.153   0.796   0.549  0.6031  0.0942  0.2427
  573MPD2     H 8500   1.429   0.978   0.742  0.5013 -0.9973 -1.9696
  573MPD2    H1 8501   1.304   0.684   0.445  2.1282  2.1293 -1.5730
  573MPD2    H2 8502   1.017   0.876   0.683 -0.4211  1.1133 -0.3107
  573MPD2    H3 8503   1.072   0.744   0.498  1.1510  0.2128 -0.7451
  573MPD2     N 8504   1.508   0.781   0.566  0.2974 -0.4412 -0.6605
  573MPD2    H5 8505   1.513   0.725   0.482  0.1897 -2.0023  0.3858
  573MPD2    N1 8506   1.179   1.026   0.830 -0.1320  0.2321 -0.2162
  573MPD2    H7 8507   1.080   1.047   0.839 -0.4645 -1.1441 -0.7203
  574TMC3    C1 8508   1.742   0.772   0.553  0.1262 -0.1460  1.0332
  574TMC3    C2 8509   1.733   0.691   0.440 -0.1823  0.8222 -0.7228
  574TMC3    C3 8510   1.842   0.677   0.367  0.0644 -0.3986  0.2580
  574TMC3    C4 8511   1.859   0.823   0.603 -0.0333  0.0233 -0.0418
  574TMC3    C5 8512   1.968   0.806   0.521 -0.1307 -0.2158 -0.2574
  574TMC3    C6 8513   1.962   0.739   0.403 -0.5805  0.6618 -0.2553
  574TMC3     C 8514   1.624   0.819   0.628 -0.2317  0.1421 -0.0760
  574TMC3     O 8515   1.642   0.905   0.716  0.2816 -0.2572 -0.0416
  574TMC3     H 8516   1.645   0.633   0.416 -0.2679  0.1985  1.1157
  574TMC3    H1 8517   1.867   0.877   0.697  0.4604 -0.3402  0.1272
  574TMC3    H2 8518   2.036   0.756   0.327 -1.1039  1.4054 -0.5957
  574TMC3    C7 8519   2.093   0.876   0.555  0.4969  0.4659 -0.8872
  574TMC3    C8 8520   1.852   0.571   0.266 -0.3409 -0.0981 -0.2089
  574TMC3    O1 8521   2.183   0.859   0.469  0.0348 -0.1139 -0.0475
  574TMC3    O2 8522   1.967   0.539   0.240 -0.1825  0.3136 -0.6422
  575TMC3    C1 8523   4.666   1.472  10.229 -0.3291  0.5934  0.4034
  575TMC3    C2 8524   4.535   1.424  10.200  0.4638 -0.6014  0.5922
  575TMC3    C3 8525   4.472   1.474  10.089  0.5364 -0.0517  0.3314
  575TMC3    C4 8526   0.009   1.555  10.139  0.1089 -0.6778 -0.1196
  575TMC3    C5 8527   4.660   1.601  10.031  0.0993  0.4385  1.0722
  575TMC3    C6 8528   4.529   1.563  10.006 -0.1712  0.3145  0.4949
  575TMC3     C 8529   4.723   1.430  10.353 -0.1164  0.4616  0.3844
  575TMC3     O 8530   4.680   1.331  10.410  0.2567  0.3755  0.7123
  575TMC3     H 8531   4.487   1.366  10.278  2.5730 -2.8276  0.2371
  575TMC3    H1 8532   0.106   1.598  10.161  1.0953 -1.2648 -3.3488
  575TMC3    H2 8533   4.474   1.617   9.929 -0.7902 -0.0151  0.7119
  575TMC3    C7 8534   0.016   1.646   9.921 -0.5939  0.0879 -0.2755
  575TMC3    C8 8535   4.337   1.443  10.051 -0.4813  0.3238 -0.3091
  575TMC3    O1 8536   0.122   1.706   9.949 -0.2135 -0.0885  0.2646
  575TMC3    O2 8537   4.293   1.484   9.944  0.1983  0.1717 -0.1685
  576MPD2     C 8538   4.285   2.943  12.695 -0.3193  0.0465 -0.2005
  576MPD2    C1 8539   4.340   3.049  12.618  0.4324 -0.0596 -0.4861
  576MPD2    C2 8540   4.308   3.176  12.651 -0.2207 -0.5146 -0.2429
  576MPD2    C3 8541   4.211   3.196  12.751  0.0141 -0.1936  0.3543
  576MPD2    C4 8542   4.155   3.089  12.822 -0.1116  0.3595 -1.1001
  576MPD2    C5 8543   4.203   2.961  12.800  0.0219  0.2315 -0.0189
  576MPD2     H 8544   4.349   3.269  12.614 -0.1668  0.6491  2.7294
  576MPD2    H1 8545   4.094   3.097  12.911 -0.4070  1.2500 -1.3917
  576MPD2    H2 8546   4.315   2.840  12.682 -2.3940 -0.6155  0.2790
  576MPD2    H3 8547   4.166   2.881  12.864 -0.8012 -0.3177 -1.1609
  576MPD2     N 8548   4.159   3.325  12.753  0.2879  0.6486 -0.4788
  576MPD2    H5 8549   4.200   3.392  12.688 -0.4935  0.2395 -1.3963
  576MPD2    N1 8550   4.431   3.031  12.505 -0.1766 -0.2636  0.3409
  576MPD2    H7 8551   4.469   3.120  12.475 -0.8454  0.4961  1.7978
  577TMC3    C1 8552   4.572   2.943  12.350  0.0751 -0.3164  0.3165
  577TMC3    C2 8553   4.596   2.852  12.244  0.3368 -0.2716 -0.5216
  577TMC3    C3 8554   4.678   2.888  12.141  0.6658  0.2581  1.1803
  577TMC3    C4 8555   4.649   3.053  12.357  0.4282 -0.4303  0.8248
  577TMC3    C5 8556   0.021   3.083  12.261 -0.4176 -0.0337 -0.2552
  577TMC3    C6 8557   0.040   3.000  12.153 -0.2322 -0.2865  0.7338
  577TMC3     C 8558   4.467   2.913  12.441  0.2327 -1.0747 -0.6611
  577TMC3     O 8559   4.434   2.793  12.465 -0.4383 -0.4596  0.2382
  577TMC3     H 8560   4.537   2.764  12.222  2.2429 -1.5997 -0.3307
  577TMC3    H1 8561   4.650   3.119  12.443  0.2414  0.7552 -0.0887
  577TMC3    H2 8562   0.114   3.024  12.078 -0.3556  1.4735  1.1776
  577TMC3    C7 8563   0.026   3.229  12.240 -0.1778  0.1586  0.1958
  577TMC3    C8 8564   0.000   2.784  12.051 -0.0791 -0.5897  0.6921
  577TMC3    O1 8565   0.037   3.304  12.337  0.1193 -0.4154  0.0598
  577TMC3    O2 8566   4.688   2.669  12.072 -0.0651 -0.2027  0.3714
  578MPD2     C 8567   2.185   3.363   0.505 -0.1431 -0.1612 -0.8157
  578MPD2    C1 8568   2.250   3.372   0.624  0.2512  0.3377  0.3629
  578MPD2    C2 8569   2.315   3.257   0.660 -0.4074  0.0810  0.4671
  578MPD2    C3 8570   2.314   3.137   0.587 -0.0960 -0.5718 -0.5043
  578MPD2    C4 8571   2.239   3.131   0.472  0.0501 -0.2270  0.1170
  578MPD2    C5 8572   2.175   3.242   0.438  0.0733  0.2380 -0.1260
  578MPD2     H 8573   2.373   3.255   0.752  0.2115 -3.1464 -0.0131
  578MPD2    H1 8574   2.220   3.047   0.406 -1.3487  2.2321 -2.6533
  578MPD2    H2 8575   2.147   3.448   0.450 -0.2691  0.1789 -0.2090
  578MPD2    H3 8576   2.108   3.233   0.353 -1.1593  0.7055  0.7974
  578MPD2     N 8577   2.380   3.024   0.639 -0.2677 -0.0258  0.0282
  578MPD2    H5 8578   2.415   3.025   0.735 -0.2787  0.2712  0.0305
  578MPD2    N1 8579   2.263   3.499   0.697 -0.2527 -0.7297 -1.4470
  578MPD2    H7 8580   2.224   3.581   0.653  0.6786  1.1314  1.2097
  579TMC3    C1 8581   2.541   2.854   0.616  0.8442  0.4330  0.1535
  579TMC3    C2 8582   2.618   2.923   0.707  0.8169  0.0541  0.4430
  579TMC3    C3 8583   2.742   2.874   0.735 -0.4012 -0.2214  0.0310
  579TMC3    C4 8584   2.573   2.729   0.570 -0.0775  0.8970  0.4191
  579TMC3    C5 8585   2.695   2.682   0.604  0.3568 -0.6819 -0.0317
  579TMC3    C6 8586   2.782   2.751   0.690  0.2487 -0.2914 -0.3318
  579TMC3     C 8587   2.432   2.923   0.563  0.3449 -0.0719 -0.5976
  579TMC3     O 8588   2.398   2.899   0.445  0.0075  0.7076 -0.5954
  579TMC3     H 8589   2.604   3.024   0.745 -3.3100  0.1524 -1.4009
  579TMC3    H1 8590   2.504   2.684   0.498  0.7675  1.9608 -1.0402
  579TMC3    H2 8591   2.876   2.703   0.717 -0.2289 -1.5076 -0.8192
  579TMC3    C7 8592   2.713   2.538   0.620  0.1810  0.0076 -0.3428
  579TMC3    C8 8593   2.803   2.943   0.850  0.2666 -0.2638  0.1462
  579TMC3    O1 8594   2.814   2.494   0.665  0.1739 -0.1529  0.5406
  579TMC3    O2 8595   2.715   2.983   0.926  0.7074 -0.0915  0.2437
  580TMC3    C1 8596   2.269   2.145  12.214 -0.3592  0.1255  0.0300
  580TMC3    C2 8597   2.201   2.143  12.087  0.0062 -0.5702 -0.2658
  580TMC3    C3 8598   2.225   2.043  11.997  0.5396  0.2099 -0.0703
  580TMC3    C4 8599   2.362   2.046  12.243 -0.4688 -0.7979  0.7118
  580TMC3    C5 8600   2.387   1.952  12.148  0.5578 -0.0753 -0.0370
  580TMC3    C6 8601   2.316   1.945  12.028  0.2846  0.8069 -0.3341
  580TMC3     C 8602   2.335   2.277  12.215  0.2736 -0.4968  0.1994
  580TMC3     O 8603   2.255   2.368  12.188 -0.1375  0.4454 -0.3813
  580TMC3     H 8604   2.137   2.226  12.062  2.5380  0.8654 -2.0141
  580TMC3    H1 8605   2.420   2.045  12.335 -0.0865 -0.9033  0.4706
  580TMC3    H2 8606   2.342   1.862  11.963  0.9508  1.1184 -0.4724
  580TMC3    C7 8607   2.512   1.881  12.161 -0.5858  0.5378 -0.0186
  580TMC3    C8 8608   2.267   2.090  11.866  0.4805  0.1452 -0.0891
  580TMC3    O1 8609   2.610   1.945  12.211 -0.0072  0.0301  0.2822
  580TMC3    O2 8610   2.242   2.020  11.768  0.1440  0.0490  0.0877
  581MPD2     C 8611   0.501   2.189  15.105 -0.1470  0.2976  0.0243
  581MPD2    C1 8612   0.438   2.070  15.122  0.1120 -0.2358  0.1685
  581MPD2    C2 8613   0.318   2.048  15.045 -0.2199  0.3560 -0.7234
  581MPD2    C3 8614   0.267   2.156  14.969  0.1478 -0.4912  0.4071
  581MPD2    C4 8615   0.328   2.280  14.964 -0.4474 -0.1367  0.1572
  581MPD2    C5 8616   0.449   2.293  15.031 -0.2051  1.0414 -0.2265
  581MPD2     H 8617   0.270   1.952  15.060  0.2352  0.2176 -0.1451
  581MPD2    H1 8618   0.297   2.363  14.901  0.5956  0.6928  0.7252
  581MPD2    H2 8619   0.595   2.216  15.151 -1.0797 -0.9842  2.7219
  581MPD2    H3 8620   0.509   2.384  15.033 -0.7902  1.4936 -2.6461
  581MPD2     N 8621   0.138   2.151  14.903 -0.6582  0.2903  0.0254
  581MPD2    H5 8622   0.103   2.238  14.864 -0.6684  2.0931  4.0594
  581MPD2    N1 8623   0.485   1.970  15.217 -0.2816  0.4624 -0.5136
  581MPD2    H7 8624   0.433   1.884  15.232  3.5649 -1.9161 -0.8237
  582TMC3    C1 8625   0.620   1.926  15.397  0.8401  0.5901 -0.1692
  582TMC3    C2 8626   0.680   1.996  15.500 -1.4749  0.2114 -0.2522
  582TMC3    C3 8627   0.715   1.923  15.608 -0.3459 -0.0661  0.2947
  582TMC3    C4 8628   0.604   1.785  15.395  0.9557 -0.6551 -0.2633
  582TMC3    C5 8629   0.657   1.720  15.503  0.3794  0.0522  0.4134
  582TMC3    C6 8630   0.711   1.786  15.607  0.5920  0.2630  0.4075
  582TMC3     C 8631   0.609   1.993  15.276  0.5000  0.5903  0.4934
  582TMC3     O 8632   0.711   2.042  15.240  0.8770  0.0268 -0.4166
  582TMC3     H 8633   0.678   2.104  15.505 -1.1737  0.1243  1.7459
  582TMC3    H1 8634   0.559   1.734  15.310  0.3798 -1.0556  0.2826
  582TMC3    H2 8635   0.730   1.735  15.700 -1.5902  0.8087  1.1380
  582TMC3    C7 8636   0.577   1.608  15.549 -0.1886  0.0743 -0.1042
  582TMC3    C8 8637   0.688   1.984  15.735 -0.0856 -0.6432  0.5405
  582TMC3    O1 8638   0.621   1.528  15.628  1.2170  0.8843 -0.2011
  582TMC3    O2 8639   0.611   2.081  15.736  0.2317 -0.2230  0.0546
  583MPD2     C 8640   0.320   3.567  17.066  0.2181  0.2623 -0.0910
  583MPD2    C1 8641   0.303   3.658  16.963  0.7883 -0.4206  0.3809
  583MPD2    C2 8642   0.264   3.787  16.995 -0.1954  0.2177  1.5880
  583MPD2    C3 8643   0.220   3.812  17.127 -0.6480  0.5606  0.5998
  583MPD2    C4 8644   0.245   3.722  17.228  0.8044  0.2375  0.0334
  583MPD2    C5 8645   0.294   3.605  17.193 -0.4729 -0.1877 -0.9247
  583MPD2     H 8646   0.240   3.852  16.913 -1.0277 -0.6241  1.1614
  583MPD2    H1 8647   0.216   3.735  17.332 -0.0347 -1.0291 -0.0444
  583MPD2    H2 8648   0.333   3.461  17.048  1.1046  0.1637  1.1322
  583MPD2    H3 8649   0.300   3.533  17.274 -0.6075  0.6945 -0.1420
  583MPD2     N 8650   0.148   3.929  17.157 -0.7832  0.2798  0.4841
  583MPD2    H5 8651   0.123   3.987  17.077  1.1723 -0.2686 -0.5210
  583MPD2    N1 8652   0.334   3.628  16.827  0.6956 -0.2295  0.5509
  583MPD2    H7 8653   0.312   3.696  16.754  0.0310  0.2945  1.2440
  584TMC3    C1 8654   0.023   4.094  17.282 -0.0355 -0.3413 -0.1343
  584TMC3    C2 8655   4.723   4.165  17.178 -0.5496 -0.0707  0.7477
  584TMC3    C3 8656   4.630   4.262  17.183 -0.1002  0.1192  0.0247
  584TMC3    C4 8657   4.667   4.113  17.396 -0.3603 -0.1067  0.2193
  584TMC3    C5 8658   4.569   4.210  17.398 -0.5234  0.1432 -0.5990
  584TMC3    C6 8659   4.554   4.295  17.293 -0.1111 -0.6001  0.1045
  584TMC3     C 8660   0.110   3.976  17.282 -0.0649 -0.3605 -0.0448
  584TMC3     O 8661   0.127   3.928  17.393  0.1782  0.0123  0.2998
  584TMC3     H 8662   0.061   4.160  17.089 -0.5349 -1.7450  0.8518
  584TMC3    H1 8663   4.695   4.063  17.488 -2.4101 -0.0702  0.8673
  584TMC3    H2 8664   4.492   4.384  17.293  1.2196  0.3337  1.8724
  584TMC3    C7 8665   4.477   4.206  17.512 -0.2002  0.5185 -0.4110
  584TMC3    C8 8666   4.662   4.376  17.096 -0.5902  0.2578 -0.4286
  584TMC3    O1 8667   4.512   4.143  17.608  0.0902  0.4228 -0.1290
  584TMC3    O2 8668   4.690   4.356  16.979 -0.8114 -0.6502  0.0981
  585MPD2     C 8669   4.070   2.738   0.270 -0.1994 -0.1996 -0.4931
  585MPD2    C1 8670   4.081   2.761   0.132 -0.9066  0.5590 -0.5213
  585MPD2    C2 8671   4.093   2.653   0.047  0.0131 -0.1757 -0.1003
  585MPD2    C3 8672   4.096   2.523   0.103  0.3725  0.1843  0.5910
  585MPD2    C4 8673   4.074   2.501   0.233 -0.3482 -0.2026 -0.2885
  585MPD2    C5 8674   4.067   2.612   0.317  0.1457 -0.2999 -0.0375
  585MPD2     H 8675   4.107   2.673  17.637 -0.3849 -2.1773 -0.5371
  585MPD2    H1 8676   4.075   2.400   0.273 -2.3190 -0.8513 -1.8386
  585MPD2    H2 8677   4.076   2.817   0.344  0.3272 -1.5115  0.8770
  585MPD2    H3 8678   4.062   2.588   0.423  4.3754  0.1157  0.2517
  585MPD2     N 8679   4.114   2.405   0.024  0.3301  0.0250 -0.2370
  585MPD2    H5 8680   4.120   2.312   0.065 -1.8081 -0.1910 -0.3837
  585MPD2    N1 8681   4.083   2.892   0.089  0.1580  0.7393  0.0918
  585MPD2    H7 8682   4.064   2.964   0.158  0.6081 -1.5568  2.5697
  586TMC3    C1 8683   4.064   2.302  17.524  0.1475 -0.1499 -0.1165
  586TMC3    C2 8684   4.118   2.226  17.427 -0.1908 -0.4125 -0.6569
  586TMC3    C3 8685   4.057   2.125  17.362  1.1411  0.2240 -0.0084
  586TMC3    C4 8686   3.933   2.288  17.556  0.1133 -0.2594  0.3282
  586TMC3    C5 8687   3.865   2.188  17.487  0.8275  0.4014 -1.0175
  586TMC3    C6 8688   3.926   2.106  17.395 -0.0960  0.3823 -0.0948
  586TMC3     C 8689   4.127   2.411  17.582  0.2007  0.1393  0.7067
  586TMC3     O 8690   4.164   2.501  17.506 -0.2013 -0.0979 -0.2005
  586TMC3     H 8691   4.219   2.257  17.403  0.6588 -1.5507  1.4533
  586TMC3    H1 8692   3.891   2.364  17.621  0.6566  1.3643 -1.1914
  586TMC3    H2 8693   3.867   2.028  17.348 -1.4543 -0.1708  2.5172
  586TMC3    C7 8694   3.721   2.183  17.485  0.5135  0.1069 -0.6794
  586TMC3    C8 8695   4.130   2.046  17.265  0.3644 -0.1729 -1.1767
  586TMC3    O1 8696   3.666   2.125  17.390  0.2488 -0.3276 -0.8879
  586TMC3    O2 8697   4.236   2.088  17.231 -0.0687  0.2048 -0.2490
  587TMC3    C1 8698   1.772   1.432  16.295 -0.2294 -0.0768  0.1327
  587TMC3    C2 8699   1.838   1.549  16.297 -0.0796  0.0228  1.5390
  587TMC3    C3 8700   1.916   1.585  16.194 -0.5584  0.2869  0.1443
  587TMC3    C4 8701   1.776   1.351  16.187  0.3070  0.3934 -0.1719
  587TMC3    C5 8702   1.856   1.382  16.082 -0.5254 -0.1013  0.4875
  587TMC3    C6 8703   1.924   1.504  16.082  0.2648  0.3959  0.6234
  587TMC3     C 8704   1.637   1.456  16.344  0.0176  0.2009  0.4906
  587TMC3     O 8705   1.621   1.568  16.388 -0.0208  0.1198  0.3040
  587TMC3     H 8706   1.848   1.608  16.387 -0.8795  2.1694  0.2285
  587TMC3    H1 8707   1.715   1.261  16.188 -0.8425  1.1883  0.4724
  587TMC3    H2 8708   1.968   1.533  15.987  0.8978 -1.6212  0.2931
  587TMC3    C7 8709   1.917   1.270  16.012 -0.8978 -0.3667  0.2780
  587TMC3    C8 8710   1.922   1.727  16.168 -0.5378  0.1083  0.0001
  587TMC3    O1 8711   1.858   1.164  16.008  0.1298 -0.1373  0.1945
  587TMC3    O2 8712   2.000   1.759  16.079 -0.0767  0.0460 -0.2525
  588TMC3    C1 8713   4.189   3.929   9.583  0.1440 -0.1219  0.0099
  588TMC3    C2 8714   4.122   3.810   9.607  0.3849 -0.5972 -0.0920
  588TMC3    C3 8715   4.158   3.751   9.723 -0.5089 -0.3536  0.7179
  588TMC3    C4 8716   4.276   3.990   9.676  0.0071 -0.5088  0.0103
  588TMC3    C5 8717   4.310   3.913   9.782  0.7504  0.2982 -0.3410
  588TMC3    C6 8718   4.247   3.799   9.812 -0.3253 -0.5597 -0.7114
  588TMC3     C 8719   4.144   4.004   9.467  0.5828 -0.0733 -0.7094
  588TMC3     O 8720   4.059   3.957   9.393 -0.4403  0.2742 -0.0161
  588TMC3     H 8721   4.053   3.761   9.540 -0.1975 -0.6810  0.5611
  588TMC3    H1 8722   4.338   4.076   9.652 -2.6336  1.0276 -1.2765
  588TMC3    H2 8723   4.275   3.741   9.900  0.3197  1.4086  0.3723
  588TMC3    C7 8724   4.353   3.990   9.896 -0.2034  0.4372 -0.2366
  588TMC3    C8 8725   4.100   3.616   9.733 -0.0340  0.1355 -0.4758
  588TMC3    O1 8726   4.448   3.948   9.956  0.2859  0.0196  0.2778
  588TMC3    O2 8727   3.991   3.595   9.686  0.0862 -0.2316 -0.2090
  589TMC3    C1 8728   2.622   1.366   1.229  0.2199  0.4691 -0.0714
  589TMC3    C2 8729   2.717   1.439   1.297  0.4449 -0.2206 -0.7772
  589TMC3    C3 8730   2.842   1.380   1.294  0.2446  0.4383  0.1028
  589TMC3    C4 8731   2.647   1.257   1.147  0.2778  0.1388 -0.9367
  589TMC3    C5 8732   2.777   1.212   1.145  0.0587  0.1741  0.3646
  589TMC3    C6 8733   2.873   1.264   1.228 -0.0475 -0.2199 -0.2947
  589TMC3     C 8734   2.494   1.434   1.220 -0.3238  0.8518 -0.2030
  589TMC3     O 8735   2.397   1.356   1.195  0.2837 -0.3369  0.3019
  589TMC3     H 8736   2.692   1.512   1.373 -1.5911 -2.4077  0.6515
  589TMC3    H1 8737   2.564   1.210   1.095 -0.8365 -0.5523  1.4713
  589TMC3    H2 8738   2.967   1.213   1.243 -0.7372 -1.0957  1.0620
  589TMC3    C7 8739   2.801   1.093   1.070  0.5247 -0.6383  0.0678
  589TMC3    C8 8740   2.943   1.452   1.358  0.7562 -0.5656 -0.0345
  589TMC3    O1 8741   2.702   1.044   1.020  1.8065 -0.2211  0.0079
  589TMC3    O2 8742   2.917   1.510   1.462  0.5372 -0.3484 -0.2748
  590MPD2     C 8743   2.754   4.703  17.006 -0.3527 -0.8185 -0.6060
  590MPD2    C1 8744   2.700   4.654  16.891  0.0586 -0.3307 -0.2684
  590MPD2    C2 8745   2.777   4.639  16.775  0.6594 -0.2558 -0.0409
  590MPD2    C3 8746   2.910   4.685  16.776  0.3970  0.6072  0.5861
  590MPD2    C4 8747   2.970   0.003  16.890 -0.0929  0.0071  0.4190
  590MPD2    C5 8748   2.891   4.718  17.001  0.4900  1.0830  0.1789
  590MPD2     H 8749   2.724   4.611  16.684 -0.2309  0.6757  0.1937
  590MPD2    H1 8750   3.077   0.020  16.898 -0.7197  3.8656  0.7793
  590MPD2    H2 8751   2.702   0.002  17.098  0.0749  2.4378 -1.1626
  590MPD2    H3 8752   2.944   0.024  17.091  0.1193  2.8073 -0.1745
  590MPD2     N 8753   2.981   4.692  16.653  0.4677 -0.6663  0.0804
  590MPD2    H5 8754   2.935   4.663  16.568  1.3951 -0.7942 -0.3771
  590MPD2    N1 8755   2.567   4.623  16.867  0.1086 -0.0767 -0.5724
  590MPD2    H7 8756   2.535   4.608  16.772  1.2222 -2.0440 -0.6359
  591TMC3    C1 8757   3.129   0.020  16.485 -0.3858  0.2795  0.2177
  591TMC3    C2 8758   3.258   0.006  16.443  0.6844  0.1542 -0.4262
  591TMC3    C3 8759   3.285   0.056  16.318 -0.0210 -0.1241  0.3203
  591TMC3    C4 8760   3.037   0.094  16.423  0.1958 -0.5309  0.2029
  591TMC3    C5 8761   3.070   0.144  16.304  0.7292  0.3648  0.3856
  591TMC3    C6 8762   3.194   0.128  16.250 -0.0204 -0.2241  0.2593
  591TMC3     C 8763   3.111   0.019  16.625 -0.3950  0.6228 -0.4350
  591TMC3     O 8764   3.201   0.043  16.703  0.3637 -0.7709  0.1375
  591TMC3     H 8765   3.337   4.674  16.491  1.5131  0.8583 -0.9798
  591TMC3    H1 8766   2.935   0.099  16.458 -0.2684 -0.3722 -1.1462
  591TMC3    H2 8767   3.206   0.143  16.143 -1.3109 -1.9610 -0.1402
  591TMC3    C7 8768   2.981   0.230  16.228  0.0823  0.0628  0.0991
  591TMC3    C8 8769   3.395   4.716  16.245  0.6576  0.0496  0.0106
  591TMC3    O1 8770   2.859   0.233  16.249 -0.5162  0.5028  0.0549
  591TMC3    O2 8771   3.430   4.597  16.269  0.3764  0.5963 -0.4090
  592MPD2     C 8772   3.360   2.002  11.086 -0.2468 -0.0557  0.4025
  592MPD2    C1 8773   3.341   2.066  11.205  0.5584  0.2677  0.5428
  592MPD2    C2 8774   3.272   1.996  11.301 -0.7004 -0.1262  0.2413
  592MPD2    C3 8775   3.224   1.865  11.280 -0.5908  0.9226 -0.0460
  592MPD2    C4 8776   3.245   1.801  11.156 -0.0386 -0.0761  0.4021
  592MPD2    C5 8777   3.311   1.875  11.059  0.0039 -0.0427  0.2694
  592MPD2     H 8778   3.255   2.030  11.402 -0.5029  0.0175  0.2257
  592MPD2    H1 8779   3.206   1.706  11.120  2.2317  0.5206 -3.6283
  592MPD2    H2 8780   3.413   2.048  11.003  0.6541 -0.1483  0.9275
  592MPD2    H3 8781   3.321   1.832  10.960 -0.8963 -1.6099  0.8548
  592MPD2     N 8782   3.153   1.802  11.386  0.4199  0.2284  0.8629
  592MPD2    H5 8783   3.151   1.866  11.465  0.4873 -1.1840  2.0084
  592MPD2    N1 8784   3.398   2.189  11.232  0.3369 -0.4590 -0.1100
  592MPD2    H7 8785   3.472   2.225  11.172 -0.2603 -0.1458 -0.6581
  593TMC3    C1 8786   3.497   2.353  11.376 -0.4783 -0.3499 -0.8395
  593TMC3    C2 8787   3.476   2.471  11.438  0.1020  0.4345 -0.8139
  593TMC3    C3 8788   3.592   2.557  11.445  0.8321 -0.4643 -0.1895
  593TMC3    C4 8789   3.618   2.308  11.334  0.9161  0.5903 -0.3079
  593TMC3    C5 8790   3.723   2.397  11.341 -0.2590 -0.7483 -1.0727
  593TMC3    C6 8791   3.711   2.528  11.389  0.2935 -0.5088  0.0825
  593TMC3     C 8792   3.380   2.270  11.345 -0.1199 -0.5806 -0.0333
  593TMC3     O 8793   3.296   2.267  11.432  0.4387  0.3633  0.5557
  593TMC3     H 8794   3.385   2.480  11.496 -0.1316 -2.0431 -0.7616
  593TMC3    H1 8795   3.635   2.206  11.301 -0.5330 -0.0581  0.9786
  593TMC3    H2 8796   3.795   2.596  11.390  0.0889 -0.2548 -0.5622
  593TMC3    C7 8797   3.859   2.361  11.288  0.1475  0.0909  0.1746
  593TMC3    C8 8798   3.602   2.655  11.551  0.6713 -0.2781  0.5611
  593TMC3    O1 8799   3.946   2.443  11.329  0.3082  0.4945  0.5394
  593TMC3    O2 8800   3.503   2.715  11.596 -0.7842  0.5876  0.4066
  594MPD2     C 8801   2.051   0.484  13.999 -0.5270 -0.0353  0.1338
  594MPD2    C1 8802   2.019   0.525  14.125  0.0037 -0.3240 -0.8290
  594MPD2    C2 8803   2.085   0.630  14.176  0.2468  0.0439 -0.5280
  594MPD2    C3 8804   2.182   0.698  14.101 -0.4565  0.5705 -0.4156
  594MPD2    C4 8805   2.191   0.665  13.965  0.3630 -0.3156 -0.5678
  594MPD2    C5 8806   2.136   0.552  13.921 -0.0258 -0.6039  0.5059
  594MPD2     H 8807   2.070   0.661  14.279  0.9704  0.1750 -0.4667
  594MPD2    H1 8808   2.245   0.731  13.898  0.7423  1.1415  1.1787
  594MPD2    H2 8809   1.986   0.413  13.951 -1.6423  1.4643 -0.5716
  594MPD2    H3 8810   2.147   0.537  13.814  0.2196  2.3829  0.1201
  594MPD2     N 8811   2.251   0.818  14.149  0.2463  0.4102  0.4252
  594MPD2    H5 8812   2.217   0.858  14.236  0.5061  0.7784  0.3554
  594MPD2    N1 8813   1.916   0.455  14.191  0.3705  0.7982 -0.0344
  594MPD2    H7 8814   1.872   0.379  14.141  0.5293  0.4354  0.3828
  595TMC3    C1 8815   2.633   1.074  14.213  0.2276  0.1027  0.6526
  595TMC3    C2 8816   2.561   0.982  14.143  0.1723 -1.0675  0.5117
  595TMC3    C3 8817   2.423   0.985  14.149 -0.7849 -0.1795  0.5076
  595TMC3    C4 8818   2.562   1.158  14.300  0.6185 -0.4834  0.2145
  595TMC3    C5 8819   2.426   1.153  14.303 -0.2028  0.5000 -0.4827
  595TMC3    C6 8820   2.354   1.057  14.240 -0.3838  0.4469 -0.2297
  595TMC3     C 8821   2.761   1.040  14.254  0.3455  0.4215 -0.4436
  595TMC3     O 8822   2.799   1.103  14.356 -0.6539 -0.2442  0.6510
  595TMC3     H 8823   2.613   0.908  14.083 -2.3848 -1.6497 -0.9825
  595TMC3    H1 8824   2.606   1.238  14.359  0.6984 -1.5257  1.5450
  595TMC3    H2 8825   2.246   1.057  14.252 -0.6550  0.1960 -2.6072
  595TMC3    C7 8826   2.360   1.223  14.410 -0.4951 -0.2758 -0.1147
  595TMC3    C8 8827   2.369   0.866  14.088 -0.3486 -0.9419  0.0502
  595TMC3    O1 8828   2.260   1.280  14.387  0.3147 -0.6409 -0.0497
  595TMC3    O2 8829   2.439   0.814  14.001 -0.2403  0.3950  0.0695
  596MPD2     C 8830   1.071   3.690  16.830 -0.4794 -0.1107 -0.2697
  596MPD2    C1 8831   1.003   3.774  16.750  0.5264  0.0388  0.1784
  596MPD2    C2 8832   1.013   3.759  16.611 -0.1228 -0.4095  0.2970
  596MPD2    C3 8833   1.087   3.655  16.556 -0.2843 -1.0918  1.0447
  596MPD2    C4 8834   1.156   3.572  16.644  0.2302 -0.4134 -0.1366
  596MPD2    C5 8835   1.145   3.593  16.780  0.3681 -0.2710  0.6249
  596MPD2     H 8836   0.937   3.811  16.553  1.1719 -0.7417 -1.6862
  596MPD2    H1 8837   1.200   3.479  16.608  0.2944 -0.2234 -0.5434
  596MPD2    H2 8838   1.076   3.697  16.938 -0.2388  0.1880 -0.2980
  596MPD2    H3 8839   1.188   3.517  16.844  0.2929 -0.2876  0.6552
  596MPD2     N 8840   1.068   3.626  16.418  0.2087  0.6725 -0.2980
  596MPD2    H5 8841   0.998   3.676  16.364 -0.6927 -0.3909 -0.1208
  596MPD2    N1 8842   0.939   3.889  16.797 -0.6118 -0.1186  0.4642
  596MPD2    H7 8843   0.911   3.954  16.723 -0.0630  1.4083  1.6066
  597TMC3    C1 8844   0.891   4.066  16.932  0.0186 -0.2758 -0.2604
  597TMC3    C2 8845   0.878   4.149  16.825 -0.6292 -0.3667  0.6232
  597TMC3    C3 8846   0.814   4.269  16.844  0.3705  0.9704  0.4446
  597TMC3    C4 8847   0.842   4.099  17.061 -0.3233 -0.1671 -0.1180
  597TMC3    C5 8848   0.784   4.227  17.071 -0.4872  1.1069 -0.1226
  597TMC3    C6 8849   0.757   4.311  16.968  0.6861 -0.2469 -0.1126
  597TMC3     C 8850   0.951   3.939  16.924  0.1459 -0.2869 -0.3839
  597TMC3     O 8851   0.965   3.877  17.031 -0.4519  0.1054 -0.4064
  597TMC3     H 8852   0.916   4.131  16.725 -2.0441  0.9350 -0.1414
  597TMC3    H1 8853   0.849   4.029  17.143  1.3271  1.0472  0.7706
  597TMC3    H2 8854   0.689   4.393  16.984  0.4460 -0.4512 -0.0795
  597TMC3    C7 8855   0.698   4.232  17.188  0.1073  0.1344 -0.0143
  597TMC3    C8 8856   0.812   4.361  16.736 -0.1182  0.5280  0.0644
  597TMC3    O1 8857   0.637   4.133  17.210  0.2446 -0.6576  0.3618
  597TMC3    O2 8858   0.906   4.354  16.657  0.3499  0.2859  0.4078
  598TMC3    C1 8859   3.956   0.219  15.507  0.0758  0.5267 -0.1163
  598TMC3    C2 8860   3.856   0.127  15.505 -0.6458 -0.2213 -0.1766
  598TMC3    C3 8861   3.778   0.115  15.396 -0.1051  0.7385  0.5629
  598TMC3    C4 8862   3.987   0.292  15.396  0.0964  0.3694 -0.8493
  598TMC3    C5 8863   3.907   0.284  15.286  0.2656 -0.6643  0.2895
  598TMC3    C6 8864   3.803   0.192  15.287 -0.6223 -0.0037  0.1739
  598TMC3     C 8865   4.051   0.216  15.605  0.1244 -0.2543 -0.3901
  598TMC3     O 8866   4.119   0.318  15.606  0.7875  0.5147 -0.3887
  598TMC3     H 8867   3.831   0.085  15.602  1.0468 -1.4738 -0.2897
  598TMC3    H1 8868   4.079   0.349  15.385  0.5047 -0.3918 -1.4417
  598TMC3    H2 8869   3.745   0.187  15.195  0.5807 -1.3076 -0.5080
  598TMC3    C7 8870   3.971   0.311  15.157  0.5752 -0.3448 -0.2165
  598TMC3    C8 8871   3.672   0.015  15.383 -0.3815  0.2238  0.0780
  598TMC3    O1 8872   3.940   0.233  15.066  0.5909 -0.1548  0.5432
  598TMC3    O2 8873   3.592   0.037  15.296  0.0606  0.0415 -0.0420
  599MPD2     C 8874   3.980   3.111  16.010 -0.1301 -0.3945  0.3359
  599MPD2    C1 8875   3.908   2.991  16.005 -0.2022 -0.2362  0.6208
  599MPD2    C2 8876   3.786   2.983  16.067 -0.6535  0.1642  0.4767
  599MPD2    C3 8877   3.738   3.089  16.137 -0.0814 -0.0987 -0.5903
  599MPD2    C4 8878   3.809   3.202  16.142  0.3677  0.3286 -0.5174
  599MPD2    C5 8879   3.937   3.210  16.084  0.1395  0.5912  0.5206
  599MPD2     H 8880   3.727   2.892  16.063  0.8437 -0.9105  3.2116
  599MPD2    H1 8881   3.771   3.286  16.199  2.9953  1.7573 -0.8720
  599MPD2    H2 8882   4.064   3.119  15.942 -0.1547  3.5228  0.7611
  599MPD2    H3 8883   3.997   3.301  16.086 -1.2493  1.4970  1.0258
  599MPD2     N 8884   3.612   3.098  16.205 -0.0875 -0.6047 -0.0789
  599MPD2    H5 8885   3.592   3.185  16.255 -1.2071 -0.6351 -0.4585
  599MPD2    N1 8886   3.976   2.887  15.936 -0.0620 -0.0592 -0.7621
  599MPD2    H7 8887   4.072   2.912  15.914 -0.2758  0.7847 -0.7175
  600TMC3    C1 8888   3.397   3.031  16.284 -0.3454 -0.5812 -0.3295
  600TMC3    C2 8889   3.307   2.928  16.313 -0.3515  0.2387  0.1873
  600TMC3    C3 8890   3.232   2.952  16.427 -0.5000 -0.1645  0.2116
  600TMC3    C4 8891   3.401   3.149  16.351 -0.1972  0.0405  0.4194
  600TMC3    C5 8892   3.308   3.166  16.453  0.4965 -0.5405  0.5047
  600TMC3    C6 8893   3.217   3.074  16.488 -0.3632 -0.1540  0.1149
  600TMC3     C 8894   3.520   2.997  16.209 -0.4054 -0.4789 -0.5909
  600TMC3     O 8895   3.530   2.881  16.168  0.0079 -1.0491  0.0204
  600TMC3     H 8896   3.320   2.828  16.275  0.5727 -0.2900  1.8909
  600TMC3    H1 8897   3.454   3.234  16.311  0.0897 -0.9656 -1.3391
  600TMC3    H2 8898   3.151   3.094  16.572 -0.2378  1.7824 -0.2512
  600TMC3    C7 8899   3.295   3.291  16.523 -0.1220 -0.2538  0.4043
  600TMC3    C8 8900   3.151   2.836  16.485 -0.2357 -0.5112 -1.6063
  600TMC3    O1 8901   3.187   3.330  16.554  0.1924  0.0169 -0.1184
  600TMC3    O2 8902   3.130   2.736  16.420  0.6803  0.4244  0.2461
  601MPD2     C 8903   1.053   0.391   0.218 -0.3571  0.2725 -0.0672
  601MPD2    C1 8904   0.915   0.419   0.199  0.1140  0.0475  0.0827
  601MPD2    C2 8905   0.832   0.315   0.161 -0.5753 -0.4937  0.5153
  601MPD2    C3 8906   0.876   0.183   0.151 -0.1405  0.0656  0.6672
  601MPD2    C4 8907   1.006   0.156   0.170 -0.0878  0.2887 -0.5083
  601MPD2    C5 8908   1.095   0.258   0.201  0.0262  0.6555  0.6377
  601MPD2     H 8909   0.733   0.343   0.128  0.2030 -1.8013 -2.9466
  601MPD2    H1 8910   1.042   0.054   0.158 -2.1748 -0.4789 -0.1676
  601MPD2    H2 8911   1.129   0.467   0.229  1.3837 -1.3190 -1.2634
  601MPD2    H3 8912   1.201   0.237   0.198 -0.0302  0.3674  0.6425
  601MPD2     N 8913   0.799   0.073   0.103 -0.2818 -0.0281 -0.0973
  601MPD2    H5 8914   0.852   4.710   0.102 -0.7596 -0.2998 -1.6992
  601MPD2    N1 8915   0.865   0.551   0.195 -0.0614  0.6432  0.1543
  601MPD2    H7 8916   0.766   0.567   0.184 -0.4871 -1.6256  0.5530
  602TMC3    C1 8917   0.870   0.791   0.177  0.6745 -0.2698 -0.0002
  602TMC3    C2 8918   0.942   0.910   0.177 -0.0871  0.7118 -0.0599
  602TMC3    C3 8919   0.883   1.018   0.119  0.3167  0.9831  0.2865
  602TMC3    C4 8920   0.748   0.784   0.119 -0.4662 -0.0319  0.1986
  602TMC3    C5 8921   0.698   0.896   0.054  0.9414 -0.7396  0.6711
  602TMC3    C6 8922   0.757   1.017   0.065  0.2854 -0.3138  0.1747
  602TMC3     C 8923   0.944   0.669   0.209  0.2065 -0.7691  1.0058
  602TMC3     O 8924   1.052   0.681   0.259  0.0948  1.1773  0.1201
  602TMC3     H 8925   1.038   0.908   0.227  0.8194 -0.7944 -1.8607
  602TMC3    H1 8926   0.676   0.703   0.125 -0.8831  0.3048 -0.2579
  602TMC3    H2 8927   0.705   1.106   0.031  1.4723  0.2476 -0.1556
  602TMC3    C7 8928   0.589   0.871  17.664 -0.5579  0.6359  0.1965
  602TMC3    C8 8929   0.960   1.136   0.091 -0.1907  0.0348 -0.0232
  602TMC3    O1 8930   0.503   0.786  17.691  0.2546 -0.0554  0.4543
  602TMC3    O2 8931   1.060   1.167   0.156  0.6751 -0.0679  0.2255
  603TMC3    C1 8932   4.532   1.244  10.816 -0.2421  0.1886 -0.0519
  603TMC3    C2 8933   4.586   1.255  10.949  0.6868 -0.5623 -0.2764
  603TMC3    C3 8934   4.620   1.383  10.997 -0.5849  0.2345  0.3535
  603TMC3    C4 8935   4.527   1.354  10.735  0.7542 -0.1853  0.9082
  603TMC3    C5 8936   4.585   1.474  10.779 -0.4068 -0.1423 -0.5806
  603TMC3    C6 8937   4.616   1.493  10.915  0.1098 -0.1796  0.8030
  603TMC3     C 8938   4.492   1.114  10.761  0.1450  0.3616  0.0587
  603TMC3     O 8939   4.447   1.121  10.644 -0.1001 -0.0551 -0.2060
  603TMC3     H 8940   4.595   1.169  11.013 -1.3251  0.2404  1.0723
  603TMC3    H1 8941   4.511   1.332  10.630  1.2712 -0.3281  0.8574
  603TMC3    H2 8942   4.684   1.574  10.940 -0.6161  1.1055 -1.4231
  603TMC3    C7 8943   4.574   1.587  10.693  0.8324  0.4279  0.0315
  603TMC3    C8 8944   4.640   1.409  11.138 -0.5837  0.3833 -0.4030
  603TMC3    O1 8945   4.655   1.677  10.705 -0.0318 -0.0963  0.2940
  603TMC3    O2 8946   4.670   1.308  11.198  0.4748  0.4398 -0.1859
  604MPD2     C 8947   4.645   4.515  16.507 -0.5373  0.5818  0.2722
  604MPD2    C1 8948   4.597   4.625  16.438 -0.2527 -0.5703  0.3848
  604MPD2    C2 8949   4.628   4.638  16.300 -0.3940  0.2388  0.8464
  604MPD2    C3 8950   4.693   4.537  16.240  0.3725 -0.0159  0.0501
  604MPD2    C4 8951   0.009   4.428  16.309  0.2076  0.1662  0.6017
  604MPD2    C5 8952   4.705   4.413  16.441 -1.1099 -0.4534 -0.4941
  604MPD2     H 8953   4.595   0.004  16.248  1.7979  0.0540 -0.8292
  604MPD2    H1 8954   0.068   4.354  16.255  0.3087 -0.4711  1.5764
  604MPD2    H2 8955   4.629   4.498  16.613  0.1316 -0.9897  0.1274
  604MPD2    H3 8956   0.010   4.322  16.493 -1.7224  0.0956  0.8046
  604MPD2     N 8957   0.001   4.568  16.103 -0.2413 -0.1743 -0.4243
  604MPD2    H5 8958   4.679   4.653  16.070 -1.7915 -2.1073 -3.2292
  604MPD2    N1 8959   4.535   0.009  16.502  0.0681  0.3662  0.7112
  604MPD2    H7 8960   4.550   0.002  16.602  0.9887 -0.0265  0.5435
  605TMC3    C1 8961   4.449   0.224  16.552  0.7327 -0.5647  0.4490
  605TMC3    C2 8962   4.546   0.248  16.640 -0.4570 -0.7492 -0.1634
  605TMC3    C3 8963   4.536   0.355  16.723 -0.2699  0.4716 -0.2197
  605TMC3    C4 8964   4.350   0.312  16.520 -0.0660  0.3412 -0.2921
  605TMC3    C5 8965   4.343   0.417  16.611 -0.1489  0.8565 -0.0032
  605TMC3    C6 8966   4.430   0.444  16.712 -0.9647 -0.5704 -0.1453
  605TMC3     C 8967   4.476   0.125  16.453 -0.1069  0.4842 -0.0166
  605TMC3     O 8968   4.431   0.139  16.340  0.8487  0.1365 -0.1961
  605TMC3     H 8969   4.637   0.191  16.648  0.4209  0.9036  1.5601
  605TMC3    H1 8970   4.274   0.287  16.447  0.9459 -1.4582 -0.7343
  605TMC3    H2 8971   4.408   0.522  16.784  0.2076  0.1205 -0.5228
  605TMC3    C7 8972   4.233   0.503  16.586 -0.1232 -0.0420  0.1327
  605TMC3    C8 8973   4.668   0.402  16.775 -0.5492  0.3713 -0.2431
  605TMC3    O1 8974   4.146   0.468  16.504  0.0288 -0.6499  0.3305
  605TMC3    O2 8975   0.039   0.322  16.773 -0.0736 -0.1691  0.0817
  606TMC3    C1 8976   0.558   2.842   1.028  0.0136 -0.1384 -0.4462
  606TMC3    C2 8977   0.646   2.945   0.997  0.6000 -0.4695  0.3134
  606TMC3    C3 8978   0.591   3.061   0.965  0.0297 -0.3839 -0.6606
  606TMC3    C4 8979   0.423   2.868   1.042 -0.5688 -0.1382  0.1104
  606TMC3    C5 8980   0.370   2.982   0.990 -0.5469  0.1995 -0.3353
  606TMC3    C6 8981   0.453   3.081   0.953  0.5249 -0.2174  0.4305
  606TMC3     C 8982   0.612   2.714   1.007 -0.0207  0.0326  0.5362
  606TMC3     O 8983   0.733   2.703   1.024  0.2404  0.0300 -0.6797
  606TMC3     H 8984   0.752   2.924   0.991  0.7616  0.3010  0.5526
  606TMC3    H1 8985   0.351   2.787   1.045 -0.1595 -0.5013  0.1401
  606TMC3    H2 8986   0.413   3.166   0.900 -2.2521 -0.8782  1.4523
  606TMC3    C7 8987   0.247   2.969   0.915  0.2362 -0.6612  0.0112
  606TMC3    C8 8988   0.680   3.159   0.922 -0.0330 -0.2160  0.3589
  606TMC3    O1 8989   0.153   2.912   0.969  0.1187  0.4121 -0.0534
  606TMC3    O2 8990   0.790   3.118   0.885  0.1233  0.2080  0.0350
  607MPD2     C 8991   3.557   1.393  11.050  0.5703  0.1342 -0.8815
  607MPD2    C1 8992   3.518   1.488  11.140 -0.4966 -0.1856 -0.2838
  607MPD2    C2 8993   3.449   1.443  11.253  1.1245 -0.7403  0.6491
  607MPD2    C3 8994   3.418   1.304  11.271  0.1834  0.0860 -0.7404
  607MPD2    C4 8995   3.457   1.211  11.175  0.0378 -0.1769  0.2763
  607MPD2    C5 8996   3.533   1.263  11.069 -0.6565 -0.0609 -0.3217
  607MPD2     H 8997   3.425   1.517  11.329 -0.2765  2.1997 -2.6608
  607MPD2    H1 8998   3.441   1.104  11.180  0.6048 -0.2005  1.4985
  607MPD2    H2 8999   3.609   1.420  10.959  1.7968  1.7463  0.3017
  607MPD2    H3 9000   3.585   1.187  11.012 -0.6019 -0.2263 -0.0549
  607MPD2     N 9001   3.357   1.273  11.399  0.8636 -0.4123 -0.1357
  607MPD2    H5 9002   3.333   1.356  11.451 -0.1380 -1.0823  0.4723
  607MPD2    N1 9003   3.561   1.623  11.140 -0.2880 -0.1922  0.6925
  607MPD2    H7 9004   3.521   1.679  11.214 -2.0251 -0.4891 -0.0135
  608TMC3    C1 9005   3.750   1.767  11.144  0.1710  0.2221  0.0932
  608TMC3    C2 9006   3.682   1.840  11.233 -0.3129  0.0417 -0.1300
  608TMC3    C3 9007   3.756   1.922  11.322  0.0204  0.5124 -0.1294
  608TMC3    C4 9008   3.889   1.763  11.127 -0.2644 -0.1024 -0.1840
  608TMC3    C5 9009   3.960   1.855  11.200  0.4164 -0.7377 -0.6459
  608TMC3    C6 9010   3.897   1.917  11.310  0.3288 -0.4945  0.2283
  608TMC3     C 9011   3.686   1.653  11.084  0.4228 -0.4727 -0.6804
  608TMC3     O 9012   3.768   1.584  11.027  0.4148  0.0645  0.2083
  608TMC3     H 9013   3.574   1.844  11.229 -0.4076 -0.7218  1.3679
  608TMC3    H1 9014   3.935   1.716  11.041 -1.0757 -2.0052  0.4225
  608TMC3    H2 9015   3.939   1.997  11.370  1.1121 -0.9094  0.2311
  608TMC3    C7 9016   4.102   1.889  11.164  0.4316 -0.3969  0.6717
  608TMC3    C8 9017   3.698   1.953  11.449  0.4675 -0.0504 -0.2298
  608TMC3    O1 9018   4.146   1.837  11.058 -0.0490 -0.5706  0.6778
  608TMC3    O2 9019   3.740   2.043  11.517 -0.2748  0.6168  0.1170
  609TMC3    C1 9020   2.524   0.971   8.982 -0.1330  0.2450  0.0781
  609TMC3    C2 9021   2.564   1.091   9.029  0.6030 -0.0333  0.4653
  609TMC3    C3 9022   2.696   1.114   9.044  0.9181 -0.0534 -0.4784
  609TMC3    C4 9023   2.610   0.862   8.980  0.4592  0.0951  0.2119
  609TMC3    C5 9024   2.742   0.886   8.996 -0.1967 -0.5559  0.3860
  609TMC3    C6 9025   2.787   1.014   9.024  0.0300  0.1868  0.5650
  609TMC3     C 9026   2.387   0.931   9.003  0.2989  1.3575 -0.2861
  609TMC3     O 9027   2.311   0.986   9.083  0.2334  0.3970  0.6558
  609TMC3     H 9028   2.496   1.174   9.034 -1.5569 -1.7372 -0.4289
  609TMC3    H1 9029   2.581   0.760   9.004  0.9398  0.1701  1.1493
  609TMC3    H2 9030   2.890   1.024   9.056  0.7307 -1.1008 -1.3080
  609TMC3    C7 9031   2.835   0.776   9.019  0.0705  0.0026 -0.9032
  609TMC3    C8 9032   2.729   1.256   9.056  0.1516  0.2962  0.0199
  609TMC3    O1 9033   2.941   0.797   9.077  0.6424  0.2724  0.0943
  609TMC3    O2 9034   2.647   1.338   9.090  0.3928 -0.7352 -0.4553
  610TMC3    C1 9035   3.787   1.457  12.215 -0.2886 -0.6311  0.0635
  610TMC3    C2 9036   3.919   1.496  12.206 -0.0501  0.0771 -0.3101
  610TMC3    C3 9037   4.018   1.418  12.253 -0.0685  0.3062  0.3917
  610TMC3    C4 9038   3.761   1.334  12.273 -0.3443  0.5524 -0.4630
  610TMC3    C5 9039   3.866   1.260  12.322 -0.7631 -0.6090 -0.2844
  610TMC3    C6 9040   3.996   1.296  12.307  0.0398 -0.5946 -0.4041
  610TMC3     C 9041   3.678   1.549  12.193  0.3981 -0.2091  0.7163
  610TMC3     O 9042   3.566   1.497  12.185 -0.1872 -0.1062 -0.0087
  610TMC3     H 9043   3.945   1.588  12.155 -0.8558 -0.1606 -1.1449
  610TMC3    H1 9044   3.656   1.319  12.297 -0.4538  0.5044 -0.9649
  610TMC3    H2 9045   4.079   1.242  12.352  1.9291  0.6927 -2.3357
  610TMC3    C7 9046   3.849   1.143  12.415 -0.2829 -0.1870 -0.4770
  610TMC3    C8 9047   4.154   1.476  12.232 -0.3511 -0.0044 -0.1102
  610TMC3    O1 9048   3.946   1.092  12.469 -0.1489  0.0504 -0.7125
  610TMC3    O2 9049   4.174   1.554  12.138  0.5130  0.8933 -0.0029
  611MPD2     C 9050   3.461   1.259  10.574  0.2528  0.0354  0.5141
  611MPD2    C1 9051   3.403   1.335  10.474  0.3236  0.3714 -0.2305
  611MPD2    C2 9052   3.481   1.422  10.401 -0.2535 -0.0870  0.1969
  611MPD2    C3 9053   3.623   1.428  10.423  0.1634  0.1739 -0.6578
  611MPD2    C4 9054   3.670   1.361  10.534 -0.3240 -0.5406 -0.3164
  611MPD2    C5 9055   3.591   1.282  10.609  0.3439 -0.0185  0.5095
  611MPD2     H 9056   3.434   1.491  10.332 -1.4437 -1.3891 -0.2911
  611MPD2    H1 9057   3.773   1.372  10.566 -0.6332  1.8678 -0.1660
  611MPD2    H2 9058   3.400   1.191  10.633  1.7515  0.2002  2.2438
  611MPD2    H3 9059   3.628   1.241  10.703  0.5574  1.5921  1.1187
  611MPD2     N 9060   3.707   1.513  10.340  0.2560 -0.1318  0.1835
  611MPD2    H5 9061   3.806   1.514  10.359 -0.0406  2.3533  1.5308
  611MPD2    N1 9062   3.271   1.323  10.425 -0.4763 -0.1425 -0.3027
  611MPD2    H7 9063   3.249   1.372  10.339 -1.4268  1.8345  1.0741
  612TMC3    C1 9064   3.771   1.662  10.163 -0.2257 -1.4983  0.2717
  612TMC3    C2 9065   3.906   1.651  10.189  0.4018  0.4710  0.8626
  612TMC3    C3 9066   3.982   1.761  10.146  0.5131 -0.4296  0.1690
  612TMC3    C4 9067   3.723   1.765  10.089 -0.7683 -0.4780 -0.1209
  612TMC3    C5 9068   3.803   1.870  10.048  0.1764 -0.2046  0.3814
  612TMC3    C6 9069   3.934   1.872  10.084 -0.7513 -0.3243 -0.2372
  612TMC3     C 9070   3.668   1.579  10.229  0.4471 -0.5312  0.1507
  612TMC3     O 9071   3.563   1.574  10.173 -0.1076  0.3634  0.6375
  612TMC3     H 9072   3.952   1.571  10.246 -1.2634  1.1549  3.1534
  612TMC3    H1 9073   3.618   1.768  10.062 -0.8125  1.8684  0.2873
  612TMC3    H2 9074   4.004   1.951  10.062 -2.1034  1.0667  0.5004
  612TMC3    C7 9075   3.734   2.001  10.045 -0.1846  0.4356 -0.0815
  612TMC3    C8 9076   4.123   1.756  10.143 -0.6406  0.1361 -0.4826
  612TMC3    O1 9077   3.615   2.000  10.025  0.3203  0.0702  0.1044
  612TMC3    O2 9078   4.184   1.821  10.060 -0.4022 -0.3718 -0.9047
  613MPD2     C 9079   1.881   4.200  16.431 -0.5101  1.1259 -0.3108
  613MPD2    C1 9080   1.932   4.127  16.329  0.2712 -0.1418 -0.2841
  613MPD2    C2 9081   2.006   4.011  16.357 -0.1507  0.5491 -0.5664
  613MPD2    C3 9082   2.027   3.968  16.481  0.7282  0.7510  0.0973
  613MPD2    C4 9083   1.973   4.037  16.583  0.2058 -0.0264  0.1682
  613MPD2    C5 9084   1.897   4.151  16.560 -0.5194  0.1433 -0.2225
  613MPD2     H 9085   2.049   3.957  16.274  0.9992 -0.6361  0.7977
  613MPD2    H1 9086   1.990   4.006  16.686 -2.3720 -0.3911  0.4854
  613MPD2    H2 9087   1.824   4.289  16.410 -1.4085  0.4404 -0.7526
  613MPD2    H3 9088   1.851   4.202  16.644  0.5605  0.1528  0.3515
  613MPD2     N 9089   2.090   3.847  16.499  0.0914  0.6748 -0.1843
  613MPD2    H5 9090   2.135   3.813  16.415  0.1745 -1.5260  0.7486
  613MPD2    N1 9091   1.911   4.162  16.197 -0.3622 -0.5791  0.4139
  613MPD2    H7 9092   1.953   4.099  16.129  0.0760  1.7209 -1.4531
  614TMC3    C1 9093   1.851   4.250  15.998 -0.6322  0.4958 -0.2890
  614TMC3    C2 9094   1.944   4.160  15.962 -0.0028  0.2080 -0.9224
  614TMC3    C3 9095   1.914   4.065  15.871 -1.0179  0.4291  0.1016
  614TMC3    C4 9096   1.723   4.251  15.939  0.4552  0.6481  0.1559
  614TMC3    C5 9097   1.703   4.157  15.841 -0.1583  0.3118  0.3077
  614TMC3    C6 9098   1.790   4.051  15.821 -0.1041 -0.2217 -0.2477
  614TMC3     C 9099   1.848   4.267  16.138  0.0914  0.1994  0.1521
  614TMC3     O 9100   1.771   4.344  16.191  0.0266 -0.3429 -0.3527
  614TMC3     H 9101   2.049   4.169  15.988 -0.3110  0.5773  0.1757
  614TMC3    H1 9102   1.655   4.331  15.964 -1.2187 -0.6765 -0.1985
  614TMC3    H2 9103   1.752   3.976  15.752  0.9030  0.3308 -1.3964
  614TMC3    C7 9104   1.588   4.176  15.756 -0.4588 -0.6328 -0.0453
  614TMC3    C8 9105   1.980   3.942  15.905  0.7037 -0.1596  0.5236
  614TMC3    O1 9106   1.511   4.271  15.772 -0.1899  0.4058  0.4140
  614TMC3    O2 9107   2.049   3.957  16.003  0.7370  0.0765  0.7665
  615MPD2     C 9108   1.343   0.229  16.608 -0.6234 -0.1035 -0.4606
  615MPD2    C1 9109   1.424   0.264  16.507 -1.2051 -0.1496  0.4565
  615MPD2    C2 9110   1.388   0.241  16.378  0.0578 -0.4124 -0.4551
  615MPD2    C3 9111   1.276   0.176  16.341 -0.1551  0.1773 -0.5853
  615MPD2    C4 9112   1.188   0.142  16.443 -0.2821 -0.1221  0.2520
  615MPD2    C5 9113   1.221   0.175  16.577  0.7151 -0.0554 -0.2651
  615MPD2     H 9114   1.460   0.268  16.302 -1.8301 -1.7965 -2.7528
  615MPD2    H1 9115   1.103   0.075  16.434  0.5774 -1.1491 -0.2093
  615MPD2    H2 9116   1.359   0.260  16.711 -0.6220 -2.2049  0.1754
  615MPD2    H3 9117   1.156   0.146  16.658  2.6234 -0.8417  0.9895
  615MPD2     N 9118   1.245   0.124  16.213 -0.4446  0.0727 -0.0097
  615MPD2    H5 9119   1.152   0.084  16.211 -1.3474  2.1502  0.4704
  615MPD2    N1 9120   1.545   0.340  16.527 -0.1576  0.0415  0.0413
  615MPD2    H7 9121   1.597   0.360  16.442 -0.0486 -2.2839 -0.4478
  616TMC3    C1 9122   1.732   0.431  16.634  0.0635 -0.9054 -0.7898
  616TMC3    C2 9123   1.729   0.541  16.550 -0.3583 -0.1559 -0.0234
  616TMC3    C3 9124   1.850   0.610  16.541 -0.0065 -0.4421  0.4250
  616TMC3    C4 9125   1.842   0.395  16.698  0.0771 -0.3040  0.0302
  616TMC3    C5 9126   1.955   0.471  16.691 -0.2485  0.2343  0.4988
  616TMC3    C6 9127   1.960   0.581  16.618 -0.1818 -0.0289  0.3960
  616TMC3     C 9128   1.601   0.370  16.648  0.1276 -0.0506  0.5623
  616TMC3     O 9129   1.578   0.318  16.754 -0.2763  0.1978 -0.9209
  616TMC3     H 9130   1.637   0.575  16.504  0.2826  0.0055 -1.1688
  616TMC3    H1 9131   1.847   0.294  16.739 -0.8725  0.7774  2.8435
  616TMC3    H2 9132   2.041   0.653  16.625 -0.0136 -0.1385 -0.4198
  616TMC3    C7 9133   2.073   0.421  16.761  0.2407  0.2930  1.0408
  616TMC3    C8 9134   1.877   0.699  16.429 -0.1528  0.2654  0.5748
  616TMC3    O1 9135   2.180   0.484  16.737  0.3565 -0.1408 -0.2022
  616TMC3    O2 9136   1.813   0.803  16.430  0.0475 -0.1958 -0.1068
  617MPD2     C 9137   4.401   3.060  13.784 -0.1310 -0.0391  0.2657
  617MPD2    C1 9138   4.406   2.991  13.901 -0.0655  0.1041  0.4794
  617MPD2    C2 9139   4.294   2.942  13.957 -0.5795  0.1024 -0.4359
  617MPD2    C3 9140   4.166   2.960  13.899  0.8226  0.6341  0.5366
  617MPD2    C4 9141   4.161   3.024  13.777 -0.1959 -0.7007  0.2624
  617MPD2    C5 9142   4.277   3.073  13.723 -0.1699  0.4901  0.5179
  617MPD2     H 9143   4.300   2.897  14.055  0.5074 -0.2204 -0.6544
  617MPD2    H1 9144   4.069   3.049  13.725 -0.4062 -0.3850  0.7839
  617MPD2    H2 9145   4.498   3.092  13.748 -0.8267 -0.6052 -2.1237
  617MPD2    H3 9146   4.263   3.132  13.633 -1.4633 -0.6337  0.0013
  617MPD2     N 9147   4.049   2.903  13.951  0.0281  0.4300  0.1721
  617MPD2    H5 9148   3.964   2.901  13.896 -0.4387 -0.8200  0.9488
  617MPD2    N1 9149   4.536   2.982  13.961  0.4808  0.4941 -0.1192
  617MPD2    H7 9150   4.610   3.040  13.923  1.1515 -0.8290 -0.8286
  618TMC3    C1 9151   4.701   2.917  14.101  1.0590 -0.0843 -1.0677
  618TMC3    C2 9152   0.067   2.863  14.012 -0.1905  0.5574 -0.0950
  618TMC3    C3 9153   0.199   2.895  14.037 -0.2431  0.2085 -0.0427
  618TMC3    C4 9154   0.007   3.015  14.197  0.2397 -0.5584 -0.0740
  618TMC3    C5 9155   0.141   3.040  14.212 -0.3136 -0.0321 -0.1691
  618TMC3    C6 9156   0.236   2.968  14.146  0.2109  0.3602 -0.3316
  618TMC3     C 9157   4.566   2.906  14.066 -0.0962  0.7039 -0.0105
  618TMC3     O 9158   4.506   2.817  14.123 -0.1805 -0.0952 -0.2577
  618TMC3     H 9159   0.043   2.786  13.939  1.9871 -1.4954  1.3864
  618TMC3    H1 9160   4.658   3.069  14.257  0.2335 -2.1092  1.3290
  618TMC3    H2 9161   0.339   3.000  14.155 -0.1026  0.6820  1.9587
  618TMC3    C7 9162   0.181   3.148  14.302 -0.2095  0.1390 -0.5456
  618TMC3    C8 9163   0.295   2.854  13.929 -0.6510  0.2418  0.8748
  618TMC3    O1 9164   0.105   3.167  14.399  0.3839 -0.4089 -0.2014
  618TMC3    O2 9165   0.240   2.791  13.841  0.7008 -0.3380  1.0141
  619MPD2     C 9166   1.512   4.358  13.391 -0.6652  0.1875 -0.1121
  619MPD2    C1 9167   1.464   4.435  13.286  0.6511  0.1578 -0.3316
  619MPD2    C2 9168   1.328   4.441  13.269  0.3413  0.4489  0.1721
  619MPD2    C3 9169   1.243   4.356  13.337  0.2616  0.3285  0.2136
  619MPD2    C4 9170   1.291   4.269  13.436 -0.2758  0.1127  0.2261
  619MPD2    C5 9171   1.436   4.267  13.458  0.1754  0.3059  0.6507
  619MPD2     H 9172   1.282   4.507  13.196 -1.8370 -1.9304 -0.6084
  619MPD2    H1 9173   1.235   4.202  13.501  0.5869  1.7372  2.6369
  619MPD2    H2 9174   1.617   4.357  13.416 -0.6794  0.4287 -0.0428
  619MPD2    H3 9175   1.482   4.207  13.535  1.4933  0.6380  0.1082
  619MPD2     N 9176   1.100   4.356  13.314  0.1351 -0.5841  0.3784
  619MPD2    H5 9177   1.054   4.273  13.352  1.1933 -0.9071  0.9435
  619MPD2    N1 9178   1.545   4.522  13.214  0.3709 -0.1106  0.1001
  619MPD2    H7 9179   1.498   4.587  13.151 -1.3368 -1.1438  0.3209
  620TMC3    C1 9180   1.709   4.675  13.161  0.2762 -0.2730  1.0580
  620TMC3    C2 9181   1.627   4.692  13.054  0.3477 -0.1648 -0.3673
  620TMC3    C3 9182   1.563   0.089  13.035  0.4720  0.6365  0.4512
  620TMC3    C4 9183   1.748   0.052  13.244  0.6801 -0.2521  0.1554
  620TMC3    C5 9184   1.679   0.170  13.217  0.3753  0.3328 -0.2359
  620TMC3    C6 9185   1.602   0.195  13.111  0.3371  0.2747  0.1150
  620TMC3     C 9186   1.680   4.543  13.222  0.1690  0.1360  0.0044
  620TMC3     O 9187   1.762   4.493  13.296  0.1957 -0.0531 -0.3282
  620TMC3     H 9188   1.610   4.605  12.992 -1.1137  0.4024 -0.7694
  620TMC3    H1 9189   1.819   0.036  13.325  1.4623  3.0211  0.1168
  620TMC3    H2 9190   1.567   0.293  13.080 -1.6259 -0.3459  0.3462
  620TMC3    C7 9191   1.657   0.250  13.336 -0.2296  0.0054  0.3284
  620TMC3    C8 9192   1.418   0.072  13.035 -0.6375 -0.0938  0.0074
  620TMC3    O1 9193   1.720   0.230  13.440  0.2408 -0.7803  0.1287
  620TMC3    O2 9194   1.383   4.697  13.103  0.1459  0.6175  0.1296
  621MPD2     C 9195   2.305   4.515  10.390  0.1378 -0.8008 -0.0577
  621MPD2    C1 9196   2.223   4.581  10.298  0.0461 -0.5502 -0.4598
  621MPD2    C2 9197   2.279   4.648  10.195 -0.2794 -0.7336 -0.0432
  621MPD2    C3 9198   2.418   4.665  10.195  0.7421  0.1544  0.6857
  621MPD2    C4 9199   2.495   4.613  10.291  0.0877 -0.1090 -0.1617
  621MPD2    C5 9200   2.437   4.536  10.386 -0.3731  0.3346  0.7918
  621MPD2     H 9201   2.221   4.702  10.120 -1.5011 -2.9451 -0.6757
  621MPD2    H1 9202   2.603   4.625  10.287 -0.1073  0.7211 -2.7542
  621MPD2    H2 9203   2.260   4.462  10.473  1.1399 -0.1146  0.9130
  621MPD2    H3 9204   2.505   4.485  10.454  1.2207  1.1523 -0.1662
  621MPD2     N 9205   2.488   0.014  10.095  0.3882  0.6079 -0.4126
  621MPD2    H5 9206   2.585   0.032  10.121 -0.0681 -1.6946  2.7731
  621MPD2    N1 9207   2.083   4.573  10.306  0.1675 -0.1110 -0.0805
  621MPD2    H7 9208   2.029   4.614  10.230 -3.4751  1.2473  3.2465
  622TMC3    C1 9209   1.866   4.533  10.384 -0.0500  0.8042  0.4425
  622TMC3    C2 9210   1.782   4.576  10.484  0.0261 -0.2230 -0.5569
  622TMC3    C3 9211   1.657   4.608  10.454 -0.2383 -0.3711  0.5105
  622TMC3    C4 9212   1.831   4.529  10.255  0.1767  0.0535  0.4093
  622TMC3    C5 9213   1.701   4.551  10.231 -0.4612  0.6405  0.0890
  622TMC3    C6 9214   1.610   4.582  10.325 -0.1515 -0.7273 -0.2060
  622TMC3     C 9215   2.009   4.528  10.415 -0.0334  0.6613  0.3333
  622TMC3     O 9216   2.049   4.514  10.530  0.2466  0.1572 -0.3704
  622TMC3     H 9217   1.823   4.598  10.582  0.0615 -2.5287 -0.0388
  622TMC3    H1 9218   1.896   4.489  10.178 -1.2457 -2.4192  0.4788
  622TMC3    H2 9219   1.503   4.589  10.309 -0.0915  0.6478 -0.0204
  622TMC3    C7 9220   1.645   4.483  10.109 -0.1434  0.1585 -0.3057
  622TMC3    C8 9221   1.578   4.672  10.553 -0.6755  0.3945 -0.2453
  622TMC3    O1 9222   1.548   4.410  10.114  0.3573  0.2477  0.5375
  622TMC3    O2 9223   1.606   4.648  10.665  0.2907 -0.1711 -0.4072
  623MPD2     C 9224   0.455   0.626  16.118 -0.5629  0.4059  0.0991
  623MPD2    C1 9225   0.360   0.591  16.217 -0.2095  0.4374 -0.1199
  623MPD2    C2 9226   0.415   0.535  16.329  0.1281  0.4407 -0.1575
  623MPD2    C3 9227   0.551   0.509  16.348 -0.1016  0.5516  0.4884
  623MPD2    C4 9228   0.633   0.535  16.241 -0.7353  0.3666  0.8711
  623MPD2    C5 9229   0.589   0.597  16.129 -0.3579 -0.3195 -0.2251
  623MPD2     H 9230   0.356   0.505  16.414  0.7470 -0.6080 -0.0923
  623MPD2    H1 9231   0.738   0.505  16.240 -1.4212 -2.1091  1.8208
  623MPD2    H2 9232   0.430   0.673  16.024  2.4494  0.1513 -0.8325
  623MPD2    H3 9233   0.669   0.611  16.057 -0.8490 -0.1336 -0.7377
  623MPD2     N 9234   0.584   0.473  16.478 -0.1602  0.3294  0.1181
  623MPD2    H5 9235   0.509   0.463  16.547 -0.4943  0.1764 -0.2669
  623MPD2    N1 9236   0.225   0.602  16.191 -0.0885 -0.4063 -0.3040
  623MPD2    H7 9237   0.201   0.651  16.106  0.4835 -0.5526 -0.5483
  624TMC3    C1 9238   0.757   0.271  16.835  0.0176  0.3106 -0.0221
  624TMC3    C2 9239   0.652   0.322  16.907 -0.0217  0.1514  0.4063
  624TMC3    C3 9240   0.576   0.426  16.858 -0.6674  0.3976 -0.3837
  624TMC3    C4 9241   0.785   0.314  16.707  0.1657  0.6893 -0.2288
  624TMC3    C5 9242   0.702   0.410  16.657 -0.1187  0.1937  0.1885
  624TMC3    C6 9243   0.604   0.475  16.730  0.4577  0.3095  0.4141
  624TMC3     C 9244   0.845   0.187  16.906  0.5614 -0.1058 -0.0926
  624TMC3     O 9245   0.834   0.180  17.028  0.0120 -0.1852 -0.1689
  624TMC3     H 9246   0.625   0.286  17.005 -0.7757  2.5013  1.0647
  624TMC3    H1 9247   0.870   0.289  16.645  0.8569  0.2219  0.9121
  624TMC3    H2 9248   0.558   0.562  16.685 -1.0025 -0.2044  0.9131
  624TMC3    C7 9249   0.709   0.445  16.515 -0.1078 -0.0410 -0.7902
  624TMC3    C8 9250   0.450   0.461  16.917  0.0396 -0.2134 -0.4455
  624TMC3    O1 9251   0.818   0.437  16.453  0.4424  0.3921 -0.3835
  624TMC3    O2 9252   0.382   0.366  16.968  0.3354  0.1391 -0.1908
  625MPD2     C 9253   0.632   1.364   0.394  0.3466  0.8815 -0.7334
  625MPD2    C1 9254   0.673   1.490   0.413  0.2249 -0.0475  0.2116
  625MPD2    C2 9255   0.778   1.514   0.495  0.0766  0.0505 -0.5522
  625MPD2    C3 9256   0.867   1.413   0.541  0.4726  0.8192  0.2828
  625MPD2    C4 9257   0.829   1.285   0.518  0.8628 -0.0673 -0.2668
  625MPD2    C5 9258   0.707   1.262   0.449 -0.1989  0.5973 -0.5815
  625MPD2     H 9259   0.803   1.619   0.504  0.8432  0.0859 -3.1156
  625MPD2    H1 9260   0.880   1.198   0.557 -1.5657 -1.1375  0.5442
  625MPD2    H2 9261   0.540   1.334   0.344  0.2691 -0.7421  0.4101
  625MPD2    H3 9262   0.673   1.160   0.445  0.7696  0.2697 -0.5439
  625MPD2     N 9263   0.987   1.461   0.613  0.3136 -0.1996  0.3783
  625MPD2    H5 9264   0.992   1.562   0.625  1.2700 -0.1650 -0.3851
  625MPD2    N1 9265   0.593   1.605   0.388 -0.2140 -0.0165 -0.4524
  625MPD2    H7 9266   0.615   1.688   0.441  0.1009 -0.1474 -0.3747
  626TMC3    C1 9267   0.426   1.745   0.326 -0.4200  0.3459  0.2122
  626TMC3    C2 9268   0.376   1.802   0.213  0.4231 -0.1449  0.3564
  626TMC3    C3 9269   0.277   1.891   0.234  0.2439 -0.0879 -0.4634
  626TMC3    C4 9270   0.379   1.763   0.449  0.7599 -0.0855  0.7673
  626TMC3    C5 9271   0.279   1.852   0.466  0.1692 -0.6190  0.1281
  626TMC3    C6 9272   0.229   1.923   0.358  0.0362  0.2246 -0.6599
  626TMC3     C 9273   0.490   1.617   0.305  0.8609 -0.6824  0.2196
  626TMC3     O 9274   0.473   1.544   0.205  0.2920  0.6388 -0.5658
  626TMC3     H 9275   0.398   1.762   0.114 -1.0579 -3.5730  1.3925
  626TMC3    H1 9276   0.401   1.700   0.534  0.3888 -2.5831 -0.9751
  626TMC3    H2 9277   0.151   1.996   0.378  2.2339  2.0378  1.2454
  626TMC3    C7 9278   0.224   1.869   0.598  0.0244  0.0650  0.3705
  626TMC3    C8 9279   0.258   1.979   0.118  0.1126 -0.8535 -0.3272
  626TMC3    O1 9280   0.244   1.776   0.672 -0.4657  0.1216  0.1249
  626TMC3    O2 9281   0.286   1.931   0.010  0.1848  0.5740 -0.6537
  627MPD2     C 9282   4.182   1.860  14.344  0.1226 -0.1458 -0.1903
  627MPD2    C1 9283   4.231   1.822  14.468 -0.2220  0.4914  0.4788
  627MPD2    C2 9284   4.192   1.700  14.523  0.1244  0.2863  0.4430
  627MPD2    C3 9285   4.081   1.633  14.466  0.4636 -0.3427 -0.4152
  627MPD2    C4 9286   4.029   1.677  14.346 -0.0015  0.3150  0.1459
  627MPD2    C5 9287   4.075   1.794  14.288 -0.3309 -0.4587 -1.1277
  627MPD2     H 9288   4.243   1.663  14.611 -0.0032 -1.7291 -0.3509
  627MPD2    H1 9289   3.947   1.631  14.292  1.5242 -3.2903  0.8775
  627MPD2    H2 9290   4.212   1.958  14.308 -1.8443  0.8082  0.7579
  627MPD2    H3 9291   4.033   1.832  14.196 -0.7932 -0.2547 -0.8344
  627MPD2     N 9292   4.026   1.524  14.540  0.0092  0.3718 -0.6095
  627MPD2    H5 9293   4.080   1.492  14.620  0.3815  2.7388  0.0704
  627MPD2    N1 9294   4.329   1.911  14.522  0.5706  0.3986 -0.5467
  627MPD2    H7 9295   4.356   1.993  14.469 -2.1160  1.6827  0.1183
  628TMC3    C1 9296   4.486   2.002  14.673 -1.6158  0.9191  0.7119
  628TMC3    C2 9297   4.599   1.972  14.750  1.3375 -0.0469 -0.6783
  628TMC3    C3 9298   4.668   2.074  14.805 -0.2154 -0.0701  0.6819
  628TMC3    C4 9299   4.450   2.130  14.650  0.0974  0.0640  0.8271
  628TMC3    C5 9300   4.533   2.229  14.700 -0.3471  0.4097  0.0220
  628TMC3    C6 9301   4.651   2.201  14.755 -0.4757  0.1771  0.0708
  628TMC3     C 9302   4.402   1.890  14.635  0.1766  0.8834 -0.2737
  628TMC3     O 9303   4.397   1.794  14.705  0.3332  0.0070  0.4792
  628TMC3     H 9304   4.630   1.874  14.784  2.7864  0.3862 -0.7772
  628TMC3    H1 9305   4.355   2.148  14.602 -0.0279 -4.3484 -0.5705
  628TMC3    H2 9306   4.692   2.287  14.807  1.2102  0.3156 -1.4658
  628TMC3    C7 9307   4.521   2.355  14.639  0.1555  0.4390 -0.6483
  628TMC3    C8 9308   0.057   2.038  14.887  0.3323  0.1984 -0.4478
  628TMC3    O1 9309   4.629   2.409  14.625 -0.3367 -0.5368  0.0317
  628TMC3    O2 9310   0.074   1.918  14.921  0.5044 -0.6362  0.1252
  629MPD2     C 9311   2.249   0.910  16.151 -0.1407  0.2355 -0.4319
  629MPD2    C1 9312   2.306   0.817  16.229  0.4126 -0.2268 -0.8577
  629MPD2    C2 9313   2.216   0.746  16.314  0.5787 -0.0391  0.1168
  629MPD2    C3 9314   2.079   0.772  16.308 -0.0419 -0.1539 -0.4070
  629MPD2    C4 9315   2.027   0.875  16.234  0.1288 -0.1208 -1.2108
  629MPD2    C5 9316   2.116   0.946  16.157 -0.0596  0.1659  0.4321
  629MPD2     H 9317   2.247   0.671  16.387 -0.7984 -0.1814  0.5500
  629MPD2    H1 9318   1.920   0.892  16.227  0.6653  3.6944 -0.2924
  629MPD2    H2 9319   2.304   0.967  16.078 -0.8117 -0.0437 -1.1628
  629MPD2    H3 9320   2.065   1.008  16.084  1.1217 -0.2506 -0.7388
  629MPD2     N 9321   2.005   0.683  16.390  0.1192  0.1046 -0.1250
  629MPD2    H5 9322   2.058   0.600  16.416 -0.2380 -0.5570 -1.4830
  629MPD2    N1 9323   2.446   0.799  16.244 -0.4735 -0.3677 -0.3027
  629MPD2    H7 9324   2.509   0.867  16.202 -0.2449 -0.4852 -0.1538
  630TMC3    C1 9325   2.638   0.706  16.321 -0.9384 -0.6373  0.0245
  630TMC3    C2 9326   2.715   0.793  16.249  0.5594 -0.3990  0.2772
  630TMC3    C3 9327   2.834   0.837  16.293 -0.6360  0.3453  0.5772
  630TMC3    C4 9328   2.681   0.656  16.442 -0.0372  0.4064  0.6024
  630TMC3    C5 9329   2.797   0.713  16.495  0.5315 -0.4661  0.0910
  630TMC3    C6 9330   2.880   0.803  16.418 -0.0864  0.2813  0.2601
  630TMC3     C 9331   2.497   0.687  16.295 -0.2704 -0.3744  0.3471
  630TMC3     O 9332   2.446   0.589  16.341  0.6740 -0.4430 -0.5165
  630TMC3     H 9333   2.691   0.803  16.144  0.4464  0.3359  0.3721
  630TMC3    H1 9334   2.611   0.622  16.518 -0.3740 -1.7680 -0.6822
  630TMC3    H2 9335   2.973   0.845  16.453  0.3183  0.2510 -0.7699
  630TMC3    C7 9336   2.823   0.689  16.641 -0.2078  0.5259 -0.0307
  630TMC3    C8 9337   2.927   0.906  16.211 -0.0901 -0.0307  0.3672
  630TMC3    O1 9338   2.739   0.625  16.703 -0.5827 -0.6252 -0.2795
  630TMC3    O2 9339   3.045   0.911  16.248  0.2413 -0.2591  0.0861
  631MPD2     C 9340   0.470   0.138  15.608 -0.2900  0.0624 -0.1316
  631MPD2    C1 9341   0.566   0.211  15.548 -0.5443 -0.9541  0.1176
  631MPD2    C2 9342   0.698   0.201  15.585  0.2149  0.0119  0.0928
  631MPD2    C3 9343   0.735   0.127  15.693 -0.0452 -0.2415  0.1756
  631MPD2    C4 9344   0.640   0.051  15.759  0.2692 -0.5457  0.0005
  631MPD2    C5 9345   0.507   0.053  15.709  0.4618  0.5401 -0.2695
  631MPD2     H 9346   0.765   0.266  15.530 -0.6018  0.0193 -0.9116
  631MPD2    H1 9347   0.657   4.710  15.845 -1.1962 -0.5633  0.2772
  631MPD2    H2 9348   0.367   0.167  15.595 -0.2543  1.6153  2.8876
  631MPD2    H3 9349   0.428   0.001  15.762 -1.7358  2.3208 -1.7894
  631MPD2     N 9350   0.871   0.131  15.727 -0.2758 -0.1200  0.6671
  631MPD2    H5 9351   0.940   0.158  15.658  0.7381 -1.4362  1.1795
  631MPD2    N1 9352   0.518   0.296  15.449  0.5014 -0.1457  0.6619
  631MPD2    H7 9353   0.419   0.316  15.443  0.7299  0.2249 -2.1651
  632TMC3    C1 9354   0.519   0.427  15.260 -1.1126  0.3192  0.0967
  632TMC3    C2 9355   0.443   0.519  15.320  0.1476 -0.8053  0.0390
  632TMC3    C3 9356   0.407   0.635  15.253 -0.8463 -0.3802  0.6306
  632TMC3    C4 9357   0.573   0.453  15.138  0.6627 -0.4313 -0.4503
  632TMC3    C5 9358   0.527   0.559  15.073 -0.0883 -0.7090  0.6324
  632TMC3    C6 9359   0.456   0.662  15.126  0.2237 -0.2455 -0.5809
  632TMC3     C 9360   0.595   0.346  15.346  0.5368  0.2210 -0.3366
  632TMC3     O 9361   0.710   0.334  15.310  0.2443 -0.1340  0.1082
  632TMC3     H 9362   0.401   0.503  15.419  0.5406  0.3483  0.3890
  632TMC3    H1 9363   0.641   0.378  15.099  1.2937 -0.3112  0.4216
  632TMC3    H2 9364   0.445   0.754  15.069 -0.0497  1.9250  2.9449
  632TMC3    C7 9365   0.609   0.599  14.958 -0.0701 -0.9907  0.3400
  632TMC3    C8 9366   0.321   0.731  15.322 -0.4595  0.5101  0.6424
  632TMC3    O1 9367   0.574   0.704  14.901 -0.0186  0.3003 -0.5732
  632TMC3    O2 9368   0.287   0.703  15.433  0.7241 -0.4992  0.1680
  633MPD2     C 9369   0.548   3.598  17.621 -0.2079 -0.0951  0.0912
  633MPD2    C1 9370   0.547   3.509  17.504 -1.1790 -1.2075 -0.0111
  633MPD2    C2 9371   0.516   3.375  17.527  0.3111 -0.0692 -0.1207
  633MPD2    C3 9372   0.494   3.330  17.659  0.0335 -0.0852 -0.7816
  633MPD2    C4 9373   0.495   3.414   0.065 -0.2004  0.2572 -0.2593
  633MPD2    C5 9374   0.519   3.547   0.052  0.1751 -0.6052  0.0300
  633MPD2     H 9375   0.514   3.308  17.442  0.1315 -0.0514 -0.1309
  633MPD2    H1 9376   0.473   3.387   0.167 -0.0241  0.9256 -0.0418
  633MPD2    H2 9377   0.565   3.704  17.608  1.7319 -0.3073  1.0449
  633MPD2    H3 9378   0.517   3.618   0.134 -1.1662 -0.1015 -0.4470
  633MPD2     N 9379   0.474   3.198  17.687 -0.0504  0.0826 -0.2849
  633MPD2    H5 9380   0.475   3.181   0.092 -0.3661  0.4965 -0.2117
  633MPD2    N1 9381   0.584   3.553  17.374  0.1742  0.2139  0.7444
  633MPD2    H7 9382   0.580   3.479  17.305  1.6085  1.3786 -0.5908
  634TMC3    C1 9383   0.641   3.689  17.192  0.6169 -0.3451 -0.0961
  634TMC3    C2 9384   0.686   3.581  17.132 -0.1450  0.1572 -0.0307
  634TMC3    C3 9385   0.706   3.582  16.997  0.9344 -0.6096  0.3682
  634TMC3    C4 9386   0.605   3.807  17.130 -0.7352  0.2306  0.7681
  634TMC3    C5 9387   0.616   3.807  16.995  0.3052 -0.6202  0.0178
  634TMC3    C6 9388   0.664   3.696  16.922  0.1424  0.5674 -0.0336
  634TMC3     C 9389   0.601   3.682  17.330  0.1008  0.7655  0.4438
  634TMC3     O 9390   0.574   3.786  17.395 -0.1969  0.2799  0.0828
  634TMC3     H 9391   0.733   3.498  17.185 -0.2233  2.0103  2.9281
  634TMC3    H1 9392   0.585   3.893  17.191 -0.0736  0.8812  0.0650
  634TMC3    H2 9393   0.672   3.699  16.814 -1.2589  2.5842 -0.0968
  634TMC3    C7 9394   0.571   3.916  16.914  0.3581 -0.8773  0.3254
  634TMC3    C8 9395   0.753   3.462  16.928  0.4343  0.4450  0.3198
  634TMC3    O1 9396   0.589   3.914  16.791 -0.1090  0.1591 -0.3301
  634TMC3    O2 9397   0.750   3.366  17.003 -0.3977 -0.1001 -0.2128
  635TMC3    C1 9398   0.904   3.703  17.492 -0.2976  0.3016  0.5355
  635TMC3    C2 9399   0.948   3.658  17.367 -0.3255  0.8504 -0.6471
  635TMC3    C3 9400   1.006   3.537  17.362 -0.9466 -0.1752 -0.2443
  635TMC3    C4 9401   0.926   3.638  17.611  0.1099 -0.3673 -0.2306
  635TMC3    C5 9402   0.994   3.517  17.598 -0.1640 -0.0016  0.0743
  635TMC3    C6 9403   1.049   3.476  17.477 -0.2155 -0.3886  0.7564
  635TMC3     C 9404   0.902   3.848  17.510  0.4772  1.1361  0.0012
  635TMC3     O 9405   0.850   3.886  17.616 -0.3265  0.0518  0.9636
  635TMC3     H 9406   0.915   3.701  17.274 -2.2454  0.7747 -0.0041
  635TMC3    H1 9407   0.904   3.683   0.011  0.4398  0.0113 -0.3336
  635TMC3    H2 9408   1.108   3.385  17.478  0.3736 -0.0121  0.1293
  635TMC3    C7 9409   0.974   3.409   0.003  0.1681  1.1837  0.0183
  635TMC3    C8 9410   1.056   3.485  17.237  0.1183  0.0068  0.2977
  635TMC3    O1 9411   1.035   3.303  17.676 -0.2581  0.5609 -0.2310
  635TMC3    O2 9412   1.006   3.542  17.143  0.0983 -0.4326  0.8206
  636MPD2     C 9413   1.559   3.683  16.164 -0.0373  0.3924  0.2750
  636MPD2    C1 9414   1.617   3.767  16.247  0.3203  0.5157  0.7023
  636MPD2    C2 9415   1.700   3.725  16.345 -0.7017 -0.0391  0.0797
  636MPD2    C3 9416   1.736   3.593  16.351  0.0997  0.3737  0.1577
  636MPD2    C4 9417   1.679   3.503  16.267  0.2499  0.3004  0.2701
  636MPD2    C5 9418   1.579   3.550  16.182 -0.7624 -0.2709  0.2105
  636MPD2     H 9419   1.743   3.794  16.417 -1.0694  0.5982 -0.3147
  636MPD2    H1 9420   1.697   3.396  16.266 -0.9875  0.0937  0.2179
  636MPD2    H2 9421   1.487   3.716  16.089  1.3842 -0.9837 -1.7041
  636MPD2    H3 9422   1.529   3.477  16.119 -1.1079 -0.2910  0.5098
  636MPD2     N 9423   1.837   3.558  16.449  0.6378 -0.0097  0.2597
  636MPD2    H5 9424   1.883   3.633  16.500  2.2273 -0.1977 -0.9119
  636MPD2    N1 9425   1.592   3.907  16.236  0.0466 -0.0712 -0.1964
  636MPD2    H7 9426   1.625   3.959  16.316 -0.4905 -0.5589  0.3417
  637TMC3    C1 9427   2.019   3.443  16.520 -0.2062  0.3036  0.8080
  637TMC3    C2 9428   2.035   3.541  16.608  1.1661 -0.7667 -0.0304
  637TMC3    C3 9429   2.140   3.633  16.583 -0.8406  0.4669  0.2582
  637TMC3    C4 9430   2.109   3.425  16.417  0.5526 -0.4065  0.2185
  637TMC3    C5 9431   2.195   3.525  16.385 -0.1831 -0.3159 -0.5207
  637TMC3    C6 9432   2.214   3.623  16.473 -0.1728 -0.4696 -0.3121
  637TMC3     C 9433   1.891   3.434  16.467  0.1403  0.2858 -0.4642
  637TMC3     O 9434   1.865   3.333  16.405 -0.1001  0.2770  0.1350
  637TMC3     H 9435   1.970   3.559  16.693  1.9495  1.7167  0.0607
  637TMC3    H1 9436   2.080   3.353  16.341 -1.5101  0.3938  0.2688
  637TMC3    H2 9437   2.284   3.701  16.441  0.0263 -1.6002 -2.6263
  637TMC3    C7 9438   2.161   3.589  16.262  0.0082 -0.0969 -0.3061
  637TMC3    C8 9439   2.084   3.770  16.608 -0.1640  0.1349  0.1199
  637TMC3    O1 9440   2.133   3.706  16.269  0.5273 -0.2136  0.5715
  637TMC3    O2 9441   2.025   3.784  16.715  0.0930  0.1027  0.2150
  638MPD2     C 9442   1.765   2.658  14.607  0.1885 -0.3464 -0.1238
  638MPD2    C1 9443   1.745   2.530  14.559  1.0259  0.0214  0.0046
  638MPD2    C2 9444   1.736   2.417  14.642  0.5950 -0.9952  0.5025
  638MPD2    C3 9445   1.739   2.432  14.779 -0.0624 -0.1098 -0.9249
  638MPD2    C4 9446   1.759   2.560  14.831 -0.0101  0.2971  0.0789
  638MPD2    C5 9447   1.776   2.667  14.743  0.6596 -0.3847  0.4195
  638MPD2     H 9448   1.733   2.319  14.596  0.6397 -0.9703  0.4463
  638MPD2    H1 9449   1.750   2.575  14.938 -1.4258 -0.8988  0.1408
  638MPD2    H2 9450   1.806   2.739  14.549  0.0028  0.1496  0.4378
  638MPD2    H3 9451   1.804   2.764  14.783 -4.2652  1.2427 -0.1486
  638MPD2     N 9452   1.733   2.321  14.861 -0.5586  0.3454  0.1598
  638MPD2    H5 9453   1.715   2.230  14.822 -0.3376  0.3447  0.0587
  638MPD2    N1 9454   1.752   2.522  14.415  0.6027 -0.3445  0.4527
  638MPD2    H7 9455   1.778   2.603  14.361 -1.1397 -0.5016 -0.6109
  639TMC3    C1 9456   1.720   2.184  15.053  0.2001 -0.4493 -0.1908
  639TMC3    C2 9457   1.612   2.113  15.009 -0.2163  0.7278 -0.3875
  639TMC3    C3 9458   1.569   2.006  15.084  0.1827  0.9026  0.4626
  639TMC3    C4 9459   1.772   2.152  15.178 -0.5002  0.4291  0.3514
  639TMC3    C5 9460   1.733   2.041  15.246  0.3428 -0.5162 -0.5285
  639TMC3    C6 9461   1.632   1.959  15.195  0.1403 -0.5013  0.2616
  639TMC3     C 9462   1.750   2.316  15.001  0.2480  0.0502 -0.7918
  639TMC3     O 9463   1.795   2.402  15.075  0.0760 -0.0985 -0.2748
  639TMC3     H 9464   1.561   2.137  14.917  0.0853 -2.3655 -1.3574
  639TMC3    H1 9465   1.858   2.203  15.221  0.1505  0.8381 -1.4022
  639TMC3    H2 9466   1.608   1.865  15.242 -0.6140 -0.1489  0.5812
  639TMC3    C7 9467   1.829   1.963  15.315  0.2083  0.1687  0.7403
  639TMC3    C8 9468   1.479   1.917  15.012 -0.0042 -1.2760  0.2974
  639TMC3    O1 9469   1.809   1.934  15.428  0.5317 -0.2990 -0.5637
  639TMC3    O2 9470   1.450   1.940  14.893 -0.7045 -0.2669 -0.5725
  640MPD2     C 9471   2.747   0.958   9.734  0.5667  0.9317 -0.3390
  640MPD2    C1 9472   2.792   1.077   9.781 -0.3991 -0.0553 -0.4798
  640MPD2    C2 9473   2.699   1.163   9.836 -0.9523  0.2179 -0.1600
  640MPD2    C3 9474   2.565   1.119   9.853 -0.4878 -0.3306 -0.4601
  640MPD2    C4 9475   2.528   1.000   9.800 -0.9786  0.0051 -0.0276
  640MPD2    C5 9476   2.617   0.925   9.734  0.4441  0.4174 -0.3889
  640MPD2     H 9477   2.727   1.261   9.872  2.2518  0.1123 -2.3218
  640MPD2    H1 9478   2.425   0.969   9.805 -0.5836 -1.2171  0.5555
  640MPD2    H2 9479   2.812   0.888   9.682  0.4843  0.2204  0.5314
  640MPD2    H3 9480   2.577   0.835   9.688  0.7086 -0.8184  1.7713
  640MPD2     N 9481   2.466   1.193   9.927  0.8964 -0.6401 -0.1031
  640MPD2    H5 9482   2.374   1.149   9.929  0.2829  0.7608  3.5394
  640MPD2    N1 9483   2.928   1.103   9.762  0.0495  0.0945 -0.0636
  640MPD2    H7 9484   2.981   1.031   9.715  1.0877  1.0687 -0.3733
  641TMC3    C1 9485   3.128   1.236   9.726  0.9051 -0.2980  0.7634
  641TMC3    C2 9486   3.206   1.134   9.777  0.8110 -0.1889  0.1016
  641TMC3    C3 9487   3.335   1.119   9.725  0.8993  0.5796  0.0168
  641TMC3    C4 9488   3.174   1.333   9.634  0.0309  0.9602 -0.2927
  641TMC3    C5 9489   3.304   1.312   9.587  0.1124 -0.0416  0.6588
  641TMC3    C6 9490   3.386   1.207   9.634 -0.6034 -0.0873 -0.3107
  641TMC3     C 9491   2.985   1.229   9.764  0.1430 -0.8642  0.1585
  641TMC3     O 9492   2.924   1.337   9.764  0.2600  0.1224 -0.3532
  641TMC3     H 9493   3.172   1.058   9.847  1.0206 -0.2755  0.1115
  641TMC3    H1 9494   3.115   1.417   9.598  0.3358  1.9029  1.4119
  641TMC3    H2 9495   3.482   1.185   9.591  0.7926  3.3661  1.0026
  641TMC3    C7 9496   3.374   1.418   9.527 -0.5545  0.3633 -0.3025
  641TMC3    C8 9497   3.392   0.981   9.715  0.7871  0.0436  0.5859
  641TMC3    O1 9498   3.495   1.408   9.549 -0.2357 -0.1148  0.3537
  641TMC3    O2 9499   3.464   0.951   9.621  0.6843 -0.2207 -0.2092
  642TMC3    C1 9500   3.468   2.586  12.012  0.3891  0.4879 -0.5212
  642TMC3    C2 9501   3.593   2.552  11.965 -0.1414  0.3110  0.4323
  642TMC3    C3 9502   3.601   2.455  11.865  0.0687  0.0325 -0.0452
  642TMC3    C4 9503   3.359   2.509  11.976  0.0107  0.7970 -0.0739
  642TMC3    C5 9504   3.379   2.414  11.882 -0.0881  0.1855 -0.0860
  642TMC3    C6 9505   3.499   2.377  11.821 -0.6862  0.6462  0.1825
  642TMC3     C 9506   3.433   2.710  12.079  0.8642  0.0140 -0.0227
  642TMC3     O 9507   3.499   2.810  12.051 -0.0269 -0.0150 -0.1873
  642TMC3     H 9508   3.672   2.623  11.984  0.0809 -0.0514  0.8603
  642TMC3    H1 9509   3.260   2.531  12.014 -1.0816 -1.3062 -1.6898
  642TMC3    H2 9510   3.508   2.326  11.726 -0.7662  1.5981 -0.3376
  642TMC3    C7 9511   3.280   2.319  11.854  0.2503  0.0993  0.0567
  642TMC3    C8 9512   3.735   2.416  11.820  0.0817  0.1635  0.0594
  642TMC3    O1 9513   3.304   2.232  11.772  0.3436  0.5770 -0.6205
  642TMC3    O2 9514   3.746   2.343  11.721 -0.1116  0.0918  0.0532
  643TMC3    C1 9515   2.143   1.418   0.442  0.7821  0.2091 -0.0862
  643TMC3    C2 9516   2.044   1.446   0.352 -0.3576 -1.1500  0.6932
  643TMC3    C3 9517   2.061   1.389   0.229  0.3845 -0.5199  0.0922
  643TMC3    C4 9518   2.232   1.321   0.420 -0.3197 -0.1412  0.6671
  643TMC3    C5 9519   2.219   1.241   0.315  0.2128  0.4540 -0.0806
  643TMC3    C6 9520   2.136   1.275   0.213  0.4542  0.6184  0.3620
  643TMC3     C 9521   2.181   1.526   0.534  0.7318 -0.2640  0.4224
  643TMC3     O 9522   2.108   1.621   0.522 -0.4020  0.1486 -0.1910
  643TMC3     H 9523   1.971   1.523   0.375  0.8464  1.4959 -4.3990
  643TMC3    H1 9524   2.306   1.291   0.494  0.8053 -0.9740 -0.8035
  643TMC3    H2 9525   2.145   1.211   0.126  0.2571  1.3695 -0.2144
  643TMC3    C7 9526   2.345   1.175   0.272  0.9888 -0.5316  0.6460
  643TMC3    C8 9527   2.074   1.472   0.107  0.6218 -0.2276  0.0074
  643TMC3    O1 9528   2.441   1.246   0.279  0.0233  0.1456 -0.0019
  643TMC3    O2 9529   2.051   1.414   0.002 -0.4111 -0.0494 -0.0363
  644MPD2     C 9530   2.948   1.980   9.470 -0.2305 -0.4871  0.0290
  644MPD2    C1 9531   2.947   1.866   9.545  0.1691 -0.7355 -0.4110
  644MPD2    C2 9532   2.841   1.779   9.524 -0.4318 -1.1097 -0.2104
  644MPD2    C3 9533   2.741   1.804   9.431  0.0073  0.2765  0.0570
  644MPD2    C4 9534   2.746   1.925   9.359  0.0983 -0.6863  0.1823
  644MPD2    C5 9535   2.854   2.006   9.379 -0.8136  0.3816  0.0229
  644MPD2     H 9536   2.842   1.685   9.577 -0.0425  0.1145  1.9300
  644MPD2    H1 9537   2.675   1.953   9.282  0.2815 -1.8980 -0.4253
  644MPD2    H2 9538   3.024   2.058   9.473 -2.5106  1.6942  0.7878
  644MPD2    H3 9539   2.874   2.086   9.309  1.6656 -1.4681 -1.3949
  644MPD2     N 9540   2.643   1.703   9.418 -0.8300 -0.0964 -1.1912
  644MPD2    H5 9541   2.661   1.616   9.467  0.0855 -1.3897 -3.8091
  644MPD2    N1 9542   3.054   1.844   9.634  0.4041 -0.7125 -0.0865
  644MPD2    H7 9543   3.120   1.918   9.658  0.4057 -1.6973  2.9158
  645TMC3    C1 9544   2.444   1.589   9.357 -0.5276 -0.5586  0.1058
  645TMC3    C2 9545   2.309   1.606   9.328 -0.0222  0.0858  0.2501
  645TMC3    C3 9546   2.235   1.492   9.331  0.1022 -0.3443  0.5172
  645TMC3    C4 9547   2.510   1.469   9.366  0.0513  0.0341  0.4892
  645TMC3    C5 9548   2.438   1.360   9.369 -0.0617 -0.8380  0.4311
  645TMC3    C6 9549   2.303   1.374   9.347 -0.2220 -0.3925 -0.7815
  645TMC3     C 9550   2.528   1.713   9.344  0.1497 -0.2307  0.4277
  645TMC3     O 9551   2.473   1.811   9.301  0.3781 -0.2349  0.4898
  645TMC3     H 9552   2.256   1.699   9.307 -2.0737 -1.8475 -2.9716
  645TMC3    H1 9553   2.618   1.457   9.363 -0.0310 -0.8553  1.1369
  645TMC3    H2 9554   2.245   1.285   9.367  0.3371 -1.1063 -2.2865
  645TMC3    C7 9555   2.500   1.233   9.391 -0.8280  0.3725  0.0813
  645TMC3    C8 9556   2.092   1.504   9.345  0.5889 -0.2392 -0.5782
  645TMC3    O1 9557   2.421   1.141   9.403  0.0432 -0.1410  1.1318
  645TMC3    O2 9558   2.054   1.616   9.363  0.2257  0.8368 -0.1224
  646MPD2     C 9559   1.922   1.126  14.554 -0.0111  0.4618  0.4826
  646MPD2    C1 9560   1.850   1.137  14.675  0.0090 -0.3174 -0.3078
  646MPD2    C2 9561   1.721   1.185  14.663 -0.2911  0.5212 -0.3818
  646MPD2    C3 9562   1.659   1.200  14.537  0.3026  0.4276  0.3659
  646MPD2    C4 9563   1.732   1.173  14.418 -0.7373  1.0623  0.4467
  646MPD2    C5 9564   1.866   1.143  14.426 -0.1451  0.3961  0.0976
  646MPD2     H 9565   1.655   1.209  14.745 -2.1665  0.5360 -1.8828
  646MPD2    H1 9566   1.676   1.177  14.325  0.1811 -0.3403 -0.1687
  646MPD2    H2 9567   2.027   1.099  14.558 -0.1730 -0.5180 -1.6492
  646MPD2    H3 9568   1.913   1.137  14.328 -0.0843  2.3911  0.0024
  646MPD2     N 9569   1.520   1.234  14.543 -0.5167 -0.3940  0.5631
  646MPD2    H5 9570   1.476   1.270  14.627  0.6104  1.3300  0.4238
  646MPD2    N1 9571   1.915   1.100  14.800  0.0688  0.6105 -0.2954
  646MPD2    H7 9572   2.011   1.068  14.798  0.1258  0.7350  0.6637
  647TMC3    C1 9573   1.928   1.005  15.025  0.3737 -0.0454 -0.2274
  647TMC3    C2 9574   1.852   0.959  15.129  0.1916  0.1626  0.2583
  647TMC3    C3 9575   1.908   0.870  15.215  0.2668 -0.4282 -0.0925
  647TMC3    C4 9576   2.049   0.949  15.001  0.0570 -0.4468 -0.1429
  647TMC3    C5 9577   2.094   0.853  15.089 -0.6791  0.4503  0.8657
  647TMC3    C6 9578   2.029   0.813  15.199 -0.3546  0.6271  0.3400
  647TMC3     C 9579   1.856   1.088  14.925 -0.5280  1.3575  0.8575
  647TMC3     O 9580   1.747   1.128  14.967  0.4715 -0.0677 -0.4903
  647TMC3     H 9581   1.754   1.001  15.148 -0.9222 -1.6709 -1.4972
  647TMC3    H1 9582   2.112   0.996  14.926 -1.0300 -1.3708 -1.6425
  647TMC3    H2 9583   2.068   0.739  15.269  0.1300  1.9814  1.4984
  647TMC3    C7 9584   2.231   0.820  15.087 -0.7323  0.3975  0.5779
  647TMC3    C8 9585   1.852   0.840  15.343  0.5119  0.3948 -0.4698
  647TMC3    O1 9586   2.264   0.756  15.190  0.5825  0.2785  0.4713
  647TMC3    O2 9587   1.898   0.746  15.408 -0.3388 -0.0718  0.1848
  648TMC3    C1 9588   1.101   3.535  16.203  0.2469 -0.2901  0.4545
  648TMC3    C2 9589   1.174   3.459  16.119  0.6472 -0.2036  0.7140
  648TMC3    C3 9590   1.148   3.469  15.988  0.3540  0.1297 -0.2522
  648TMC3    C4 9591   0.999   3.621  16.151 -0.0557  0.1676  0.8639
  648TMC3    C5 9592   0.974   3.614  16.016 -0.0974  0.8935  0.4769
  648TMC3    C6 9593   1.047   3.532  15.941  0.0579  0.7862 -0.0144
  648TMC3     C 9594   1.141   3.530  16.349  0.1215 -0.1108 -0.3551
  648TMC3     O 9595   1.233   3.458  16.386  0.3339 -0.3209  0.2663
  648TMC3     H 9596   1.269   3.418  16.152 -0.3364 -1.8146  1.5408
  648TMC3    H1 9597   0.962   3.706  16.208  1.4502  0.7323  0.9839
  648TMC3    H2 9598   1.035   3.522  15.834 -0.2824 -1.7451  0.2516
  648TMC3    C7 9599   0.873   3.692  15.945  0.1782 -0.3210 -0.0567
  648TMC3    C8 9600   1.212   3.359  15.915  0.5609  0.2615  0.3468
  648TMC3    O1 9601   0.899   3.704  15.829  0.0220  0.0999 -0.1932
  648TMC3    O2 9602   1.329   3.333  15.946 -0.2399 -0.2868 -0.4008
  649TMC3    C1 9603   4.301   4.464  12.978 -0.1682 -0.5105  0.2900
  649TMC3    C2 9604   4.400   4.554  13.002  0.0361 -0.4901  0.0504
  649TMC3    C3 9605   4.524   4.513  13.050  0.4326  0.4424  0.0019
  649TMC3    C4 9606   4.322   4.326  12.992 -0.1062 -0.5230 -0.0852
  649TMC3    C5 9607   4.441   4.293  13.045  0.7327 -0.0341 -0.4326
  649TMC3    C6 9608   4.545   4.379  13.077 -0.0844 -0.6127  0.5453
  649TMC3     C 9609   4.171   4.524  12.954  0.4774  0.2391 -0.4149
  649TMC3     O 9610   4.155   4.634  13.005  0.0894 -0.5639 -0.0620
  649TMC3     H 9611   4.383   4.660  12.986 -0.5493 -0.4251  1.0901
  649TMC3    H1 9612   4.248   4.249  12.974 -2.2710  1.4200  0.3084
  649TMC3    H2 9613   4.643   4.356  13.116 -0.8325  0.0768  2.8144
  649TMC3    C7 9614   4.435   4.174  13.128  0.2418 -0.2212 -0.3669
  649TMC3    C8 9615   4.639   4.597  13.041  0.7796  0.3632 -0.4048
  649TMC3    O1 9616   4.333   4.106  13.121 -0.1510  0.3003  0.2464
  649TMC3    O2 9617   0.008   4.558  13.112  0.4537 -0.3358  0.2076
  650TMC3    C1 9618   3.097   1.555  12.669 -0.3248 -0.1360 -0.1757
  650TMC3    C2 9619   3.080   1.686  12.692 -0.0212  0.3880  0.4481
  650TMC3    C3 9620   3.076   1.774  12.583  0.2152 -0.4098 -0.1979
  650TMC3    C4 9621   3.108   1.507  12.541 -0.1524 -1.1589  0.1736
  650TMC3    C5 9622   3.103   1.596  12.435 -0.4818  0.0449  0.7599
  650TMC3    C6 9623   3.075   1.728  12.456 -0.0882 -0.1679 -0.1577
  650TMC3     C 9624   3.117   1.469  12.781 -0.0261  0.0329 -0.4383
  650TMC3     O 9625   3.176   1.501  12.878  0.5664  0.1022  0.1860
  650TMC3     H 9626   3.077   1.733  12.790  1.6809 -1.4259  1.3682
  650TMC3    H1 9627   3.142   1.404  12.528  3.4852  0.0982 -0.4795
  650TMC3    H2 9628   3.082   1.802  12.377 -1.9699 -1.7055 -1.7864
  650TMC3    C7 9629   3.028   1.537  12.329  0.3922  0.1876  0.3036
  650TMC3    C8 9630   2.986   1.884  12.602  0.0990 -0.3531  0.1122
  650TMC3    O1 9631   3.042   1.418  12.313 -0.3553  0.5037 -0.1565
  650TMC3    O2 9632   3.030   1.999  12.593  0.0136 -0.7351 -0.0687
  651MPD2     C 9633   2.045   3.364  11.121  0.3399  0.1195  0.5140
  651MPD2    C1 9634   1.981   3.388  10.998 -1.2000 -1.0063  0.4412
  651MPD2    C2 9635   2.060   3.407  10.882  0.9086  0.1089 -0.3378
  651MPD2    C3 9636   2.196   3.424  10.884 -0.4639 -0.5543 -0.6740
  651MPD2    C4 9637   2.257   3.402  11.006  0.0458  0.6323 -0.1906
  651MPD2    C5 9638   2.184   3.366  11.117 -0.4331  0.6735 -0.4023
  651MPD2     H 9639   2.017   3.410  10.782  1.0618 -1.6861 -0.4516
  651MPD2    H1 9640   2.363   3.419  11.013 -0.2344  1.1139  2.5522
  651MPD2    H2 9641   1.992   3.365  11.216 -1.2696 -0.8940 -0.3653
  651MPD2    H3 9642   2.243   3.350  11.206 -0.3780 -1.2470 -0.7668
  651MPD2     N 9643   2.259   3.469  10.770 -0.7968  0.7400  0.7569
  651MPD2    H5 9644   2.204   3.501  10.690 -0.1619 -0.1517 -0.0322
  651MPD2    N1 9645   1.842   3.374  10.981  0.1453 -0.5288 -0.0709
  651MPD2    H7 9646   1.804   3.388  10.889  0.5100 -2.1936 -0.4855
  652TMC3    C1 9647   2.643   3.625  10.558 -0.0539 -0.0638 -0.4209
  652TMC3    C2 9648   2.550   3.528  10.594  0.5965  0.4034 -0.0867
  652TMC3    C3 9649   2.433   3.566  10.651  0.1038  0.2950  0.3230
  652TMC3    C4 9650   2.618   3.753  10.590 -0.2902 -0.5381 -0.0399
  652TMC3    C5 9651   2.491   3.791  10.640 -0.2303  0.0400  0.1219
  652TMC3    C6 9652   2.405   3.697  10.682  0.1286  0.0082 -0.6815
  652TMC3     C 9653   2.780   3.582  10.572  0.0484 -0.5557  0.4947
  652TMC3     O 9654   2.785   3.484  10.646 -0.4546 -0.2055  0.2756
  652TMC3     H 9655   2.578   3.423  10.598  0.7479  0.5611  2.8892
  652TMC3    H1 9656   2.703   3.814  10.564 -0.8503 -0.2058 -1.1207
  652TMC3    H2 9657   2.316   3.719  10.740  0.4002 -0.4002 -0.1057
  652TMC3    C7 9658   2.482   3.924  10.702 -0.5643  0.1218 -1.0222
  652TMC3    C8 9659   2.388   3.476  10.747 -0.0223  0.2703  0.8624
  652TMC3    O1 9660   2.395   3.955  10.782 -0.2936 -0.0490 -0.0467
  652TMC3    O2 9661   2.477   3.408  10.796 -0.3010 -0.0610  0.0140
  653MPD2     C 9662   0.161   3.556   0.017 -0.1192  0.5860  0.2141
  653MPD2    C1 9663   0.119   3.652  17.628  0.3560 -0.3857 -0.7238
  653MPD2    C2 9664   0.055   3.628  17.503 -0.0526 -0.0254  0.8508
  653MPD2    C3 9665   0.044   3.494  17.466  0.8024  0.2810  0.1747
  653MPD2    C4 9666   0.077   3.396  17.558 -0.5880 -0.0739  0.1410
  653MPD2    C5 9667   0.131   3.423  17.683  0.4332 -0.4126  0.4240
  653MPD2     H 9668   0.002   3.709  17.456 -0.6298 -0.6220  0.4867
  653MPD2    H1 9669   0.064   3.290  17.540  0.5077  0.1033 -1.7279
  653MPD2    H2 9670   0.222   3.567   0.106  2.9426  1.0161 -1.9409
  653MPD2    H3 9671   0.148   3.346   0.062 -1.6237  0.1298  1.4435
  653MPD2     N 9672   4.694   3.460  17.345 -0.5793  0.3653  0.1770
  653MPD2    H5 9673   4.672   3.544  17.292 -1.2870  0.5836  0.8243
  653MPD2    N1 9674   0.137   3.782  17.671  0.2522 -0.1666  0.2322
  653MPD2    H7 9675   0.121   3.856  17.605 -0.3120 -0.5517 -0.0584
  654TMC3    C1 9676   4.570   3.319  17.202 -0.3056  0.2651 -0.3281
  654TMC3    C2 9677   4.494   3.434  17.184  0.1550 -0.1438 -0.4754
  654TMC3    C3 9678   4.421   3.437  17.071 -0.1642 -0.0305  0.0945
  654TMC3    C4 9679   4.579   3.217  17.115 -0.0790 -0.5017 -0.2559
  654TMC3    C5 9680   4.503   3.219  17.008 -1.0985  0.2855  0.0314
  654TMC3    C6 9681   4.425   3.332  16.980 -0.0016  0.3420  0.2817
  654TMC3     C 9682   4.661   3.331  17.310 -0.1249  0.8304  0.2874
  654TMC3     O 9683   4.693   3.221  17.354  0.3492 -0.5609 -0.2207
  654TMC3     H 9684   4.467   3.502  17.264  0.1844 -0.1977 -0.4192
  654TMC3    H1 9685   4.652   3.137  17.124  1.6843  1.2721  1.3315
  654TMC3    H2 9686   4.368   3.320  16.889  1.0653 -2.9668  0.0339
  654TMC3    C7 9687   4.554   3.143  16.894  0.1248 -0.5445  0.6945
  654TMC3    C8 9688   4.333   3.549  17.048  0.4146 -0.2323 -0.5756
  654TMC3    O1 9689   4.559   3.199  16.782 -0.0442  0.2345  0.4341
  654TMC3    O2 9690   4.224   3.521  17.004 -0.2037 -0.4141  0.4845
  655MPD2     C 9691   1.402   3.602  15.622  0.1323  0.3500  0.1745
  655MPD2    C1 9692   1.301   3.676  15.560  0.2696 -0.0907 -0.1415
  655MPD2    C2 9693   1.272   3.643  15.426 -0.1286  0.3815  0.5102
  655MPD2    C3 9694   1.346   3.549  15.356 -0.0024  0.7453 -0.6146
  655MPD2    C4 9695   1.446   3.479  15.417  0.1490  0.7524  0.2132
  655MPD2    C5 9696   1.467   3.508  15.553 -0.9739 -0.0109 -0.9055
  655MPD2     H 9697   1.197   3.707  15.382 -0.6106  0.3259  1.2630
  655MPD2    H1 9698   1.484   3.390  15.368 -1.8470 -0.9527  1.7496
  655MPD2    H2 9699   1.432   3.621  15.725 -0.4891  0.7899  0.2756
  655MPD2    H3 9700   1.550   3.464  15.607 -0.1749  1.3356 -1.0411
  655MPD2     N 9701   1.317   3.510  15.223 -0.2590 -0.4219  0.4339
  655MPD2    H5 9702   1.384   3.450  15.175  0.5585 -1.1067  2.4444
  655MPD2    N1 9703   1.218   3.779  15.625 -0.1919 -0.3778 -0.4101
  655MPD2    H7 9704   1.148   3.823  15.565  0.6632 -1.8117 -2.4737
  656TMC3    C1 9705   1.124   3.927  15.787 -0.0862  0.1537  0.2505
  656TMC3    C2 9706   1.119   3.956  15.924  0.4255 -0.4274  0.4699
  656TMC3    C3 9707   1.023   4.046  15.964  0.7537  0.3328  0.7653
  656TMC3    C4 9708   1.044   3.984  15.697  0.3460 -0.4960  0.1176
  656TMC3    C5 9709   0.945   4.063  15.747  0.1722  0.4577  0.0096
  656TMC3    C6 9710   0.932   4.097  15.882 -0.0333  0.2030  0.5530
  656TMC3     C 9711   1.216   3.820  15.756  0.0131  0.0792 -0.0695
  656TMC3     O 9712   1.293   3.778  15.843 -0.1474 -0.5266  0.1151
  656TMC3     H 9713   1.193   3.913  15.989  1.4849  1.1023  0.2725
  656TMC3    H1 9714   1.062   3.965  15.592 -1.6205  1.9674 -0.6558
  656TMC3    H2 9715   0.865   4.177  15.909  0.9945  2.0020 -2.1748
  656TMC3    C7 9716   0.872   4.134  15.638 -0.0166  0.7913 -0.0701
  656TMC3    C8 9717   0.980   4.022  16.103 -0.5463  0.2911  0.1066
  656TMC3    O1 9718   0.924   4.121  15.525 -0.4041 -0.0889 -0.4729
  656TMC3    O2 9719   1.024   3.924  16.160  0.1109  0.2357  0.1132
  657TMC3    C1 9720   0.487   2.668  15.089 -0.2541 -0.2503 -0.2604
  657TMC3    C2 9721   0.560   2.667  15.200  0.7926  0.3430  0.2743
  657TMC3    C3 9722   0.510   2.723  15.311 -0.4195  0.0894 -0.4189
  657TMC3    C4 9723   0.364   2.734  15.082 -0.4985  0.1333  0.1787
  657TMC3    C5 9724   0.309   2.768  15.203  0.4554  0.1841  0.1929
  657TMC3    C6 9725   0.383   2.764  15.315  0.3662 -0.8991 -0.3990
  657TMC3     C 9726   0.549   2.627  14.968  0.5232  0.2475 -0.0229
  657TMC3     O 9727   0.472   2.619  14.874  0.1831  0.0770  0.0521
  657TMC3     H 9728   0.650   2.607  15.200  1.8183  1.8604 -0.0475
  657TMC3    H1 9729   0.308   2.739  14.988  2.2152 -2.0571 -1.5659
  657TMC3    H2 9730   0.329   2.792  15.405  0.4041  1.6094 -1.1515
  657TMC3    C7 9731   0.171   2.807  15.222  0.2783 -0.6189 -0.1861
  657TMC3    C8 9732   0.577   2.721  15.443  1.3101  0.0863 -0.7682
  657TMC3    O1 9733   0.117   2.791  15.332  0.5928 -0.3808  0.7273
  657TMC3    O2 9734   0.515   2.708  15.547 -0.1853 -0.0147  0.7393
  658MPD2     C 9735   1.721   3.446  14.719 -0.2326  0.5563 -0.3128
  658MPD2    C1 9736   1.590   3.466  14.695  0.4365 -0.1828  0.0862
  658MPD2    C2 9737   1.556   3.561  14.600  0.1889  0.6732 -1.0192
  658MPD2    C3 9738   1.655   3.624  14.523  0.1607  0.0576 -0.5695
  658MPD2    C4 9739   1.789   3.596  14.550  0.3859 -0.0189 -0.6578
  658MPD2    C5 9740   1.818   3.511  14.648 -0.2322 -0.4810 -0.0516
  658MPD2     H 9741   1.452   3.589  14.588 -0.1055 -0.4259 -1.0676
  658MPD2    H1 9742   1.869   3.644  14.495 -0.4055  2.4855  0.4003
  658MPD2    H2 9743   1.755   3.379  14.797 -1.2959  1.3323  0.8087
  658MPD2    H3 9744   1.922   3.498  14.674 -0.3052 -2.6745 -0.8423
  658MPD2     N 9745   1.599   3.713  14.426 -0.1119  0.3279  0.0239
  658MPD2    H5 9746   1.499   3.722  14.438 -0.1239 -3.7615  2.7820
  658MPD2    N1 9747   1.487   3.405  14.774 -0.3097  0.2732  1.2833
  658MPD2    H7 9748   1.515   3.369  14.864 -0.7476  0.5275  1.5211
  659TMC3    C1 9749   1.266   3.364  14.852 -0.1027 -0.1413 -0.2659
  659TMC3    C2 9750   1.288   3.417  14.974  0.0988 -0.1533  0.1615
  659TMC3    C3 9751   1.172   3.443  15.047 -0.5823 -0.1898 -0.0967
  659TMC3    C4 9752   1.142   3.335  14.806  0.1626  0.6197 -0.5434
  659TMC3    C5 9753   1.032   3.354  14.881  0.4970  0.6930  0.1890
  659TMC3    C6 9754   1.043   3.415  15.005  0.1175  0.4576 -0.3835
  659TMC3     C 9755   1.356   3.408  14.741  0.6478 -0.0434  0.5852
  659TMC3     O 9756   1.306   3.423  14.631  0.1520  0.6049  0.2194
  659TMC3     H 9757   1.387   3.452  15.003  0.7142  0.9353 -3.1726
  659TMC3    H1 9758   1.139   3.302  14.703  1.1324 -1.3231  0.0384
  659TMC3    H2 9759   0.956   3.449  15.059 -1.1762 -1.2145 -1.4009
  659TMC3    C7 9760   0.907   3.278  14.855  0.8027  0.4066  0.0729
  659TMC3    C8 9761   1.192   3.524  15.164  0.0444  0.1213  0.1982
  659TMC3    O1 9762   0.817   3.307  14.931 -0.2144  0.4551  0.3601
  659TMC3    O2 9763   1.091   3.579  15.202 -0.1946  0.7996  0.2934
  660MPD2     C 9764   4.558   2.300  12.505  0.0296  0.2758  0.0645
  660MPD2    C1 9765   4.433   2.326  12.444 -0.6548  0.5476 -0.3802
  660MPD2    C2 9766   4.316   2.264  12.488 -0.4324  0.2686 -0.0664
  660MPD2    C3 9767   4.322   2.187  12.604  0.6156 -0.0889 -0.2241
  660MPD2    C4 9768   4.441   2.166  12.661  0.2051 -0.4295  0.2678
  660MPD2    C5 9769   4.561   2.211  12.609 -0.0702  0.0190  0.9937
  660MPD2     H 9770   4.224   2.276  12.432 -0.7024  0.9140  0.5106
  660MPD2    H1 9771   4.451   2.118  12.758  0.1518 -3.1321 -1.0805
  660MPD2    H2 9772   4.648   2.345  12.465 -1.0681  2.4347  0.0301
  660MPD2    H3 9773   4.660   2.196  12.650 -0.9817  1.3592  3.6625
  660MPD2     N 9774   4.211   2.130  12.660  0.5874 -0.1573 -0.6299
  660MPD2    H5 9775   4.218   2.052  12.724  0.3290  0.5434  0.2497
  660MPD2    N1 9776   4.445   2.387  12.322  0.0086 -0.1780  0.4432
  660MPD2    H7 9777   4.538   2.411  12.291 -0.6776  1.0669 -0.6141
  661TMC3    C1 9778   4.383   2.479  12.109  0.1138 -0.0303 -0.6452
  661TMC3    C2 9779   4.483   2.408  12.045 -0.1691 -0.4515  0.0122
  661TMC3    C3 9780   4.493   2.430  11.910 -0.6836  0.1196  0.0194
  661TMC3    C4 9781   4.300   2.563  12.038 -0.5219  0.3779  0.1173
  661TMC3    C5 9782   4.314   2.595  11.909 -0.5076  0.2335 -0.3190
  661TMC3    C6 9783   4.416   2.529  11.841  0.4689 -0.3205 -0.2356
  661TMC3     C 9784   4.344   2.435  12.245 -0.0444  0.6269  0.2141
  661TMC3     O 9785   4.230   2.459  12.285  0.5099  0.5748  0.0873
  661TMC3     H 9786   4.535   2.330  12.100 -1.4281 -0.7689  0.7527
  661TMC3    H1 9787   4.230   2.623  12.094 -0.2134  1.4443 -0.6560
  661TMC3    H2 9788   4.427   2.538  11.734  1.8350  0.8197  0.0038
  661TMC3    C7 9789   4.198   2.633  11.832 -1.0481  0.0654 -0.0597
  661TMC3    C8 9790   4.534   2.317  11.831  0.3658  0.7087 -0.3450
  661TMC3    O1 9791   4.197   2.594  11.713 -0.1629  0.6141  0.3352
  661TMC3    O2 9792   4.529   2.209  11.886  0.2999 -0.2817 -0.6274
  662MPD2     C 9793   4.190   1.692  16.904  0.2707 -0.8516  0.8903
  662MPD2    C1 9794   4.285   1.769  16.968  0.0519 -0.1520  0.2678
  662MPD2    C2 9795   4.239   1.870  17.054  0.5463 -0.1505 -0.2013
  662MPD2    C3 9796   4.102   1.878  17.093  0.0763 -0.0174 -0.1907
  662MPD2    C4 9797   4.018   1.789  17.031 -0.1103  0.0580  0.4940
  662MPD2    C5 9798   4.056   1.701  16.936  0.0128 -0.2189 -0.0223
  662MPD2     H 9799   4.320   1.921  17.105  0.9173 -0.9490  0.0089
  662MPD2    H1 9800   3.912   1.797  17.050 -0.1589 -1.7105  0.9826
  662MPD2    H2 9801   4.236   1.618  16.840  0.5495 -0.1738  0.2988
  662MPD2    H3 9802   3.976   1.653  16.881 -1.8847  0.2092  2.3520
  662MPD2     N 9803   4.053   1.955  17.201 -0.1561  0.1601  0.1633
  662MPD2    H5 9804   3.959   1.933  17.234 -0.0922 -0.1934  0.1119
  662MPD2    N1 9805   4.429   1.767  16.958  0.0916  1.3492  0.5239
  662MPD2    H7 9806   4.476   1.823  17.028 -0.4985 -0.5531  2.4677
  663TMC3    C1 9807   4.632   1.638  16.970  0.0922 -0.2211 -0.6920
  663TMC3    C2 9808   4.660   1.731  17.068 -0.8646 -0.2991 -0.2988
  663TMC3    C3 9809   4.712   1.684  17.182 -0.2652  0.2263  0.3948
  663TMC3    C4 9810   4.646   1.502  16.999  0.1755  0.4457 -0.1429
  663TMC3    C5 9811   4.669   1.464  17.124 -0.5041  0.4534  0.4448
  663TMC3    C6 9812   4.671   1.555  17.225 -0.4360  0.2529 -0.1679
  663TMC3     C 9813   4.505   1.668  16.891 -0.5141 -0.7773 -0.8285
  663TMC3     O 9814   4.469   1.600  16.797  0.2791  0.3052 -0.0686
  663TMC3     H 9815   4.671   1.837  17.047 -0.8238 -0.3871 -0.7170
  663TMC3    H1 9816   4.604   1.429  16.931  2.1716  0.3849 -1.3018
  663TMC3    H2 9817   4.691   1.516  17.325 -0.4224 -1.8074 -0.9664
  663TMC3    C7 9818   4.573   1.359  17.153 -0.1167 -0.6657 -0.4753
  663TMC3    C8 9819   4.692   1.790  17.269  0.3459 -0.0727 -0.3219
  663TMC3    O1 9820   4.459   1.384  17.124 -0.2660  0.0709 -1.1185
  663TMC3    O2 9821   0.066   1.860  17.288  0.1905  0.1314  0.3199
  664MPD2     C 9822   2.155   0.323  17.382 -0.9492  0.6560  0.5862
  664MPD2    C1 9823   2.231   0.410  17.459 -0.4174  0.8822 -0.1904
  664MPD2    C2 9824   2.252   0.369  17.590  0.2778  0.3119 -0.4431
  664MPD2    C3 9825   2.182   0.265  17.648 -0.6497 -0.3609  0.2416
  664MPD2    C4 9826   2.095   0.191  17.574 -0.1080  0.0994 -0.1331
  664MPD2    C5 9827   2.088   0.214  17.440  0.0176 -0.8082  0.4466
  664MPD2     H 9828   2.317   0.427  17.654  1.0026 -1.1626  0.1617
  664MPD2    H1 9829   2.044   0.102  17.611  1.5018 -0.7859  0.0089
  664MPD2    H2 9830   2.152   0.332  17.274  2.1625  1.2659  0.5676
  664MPD2    H3 9831   2.031   0.146  17.378  1.4050 -0.8812 -0.7456
  664MPD2     N 9832   2.208   0.234   0.084 -0.1719  0.7794  0.1218
  664MPD2    H5 9833   2.280   0.286   0.133  0.5825  1.2039 -1.4468
  664MPD2    N1 9834   2.316   0.510  17.407 -0.1406  0.0796 -0.0887
  664MPD2    H7 9835   2.380   0.559  17.468 -1.0191 -0.7231  1.4592
  665TMC3    C1 9836   2.142   0.201   0.310  0.0010  0.4471 -0.3485
  665TMC3    C2 9837   2.035   0.191   0.389  0.7521 -0.4705 -0.0940
  665TMC3    C3 9838   2.012   0.286   0.486 -0.7155  0.4972  0.1180
  665TMC3    C4 9839   2.237   0.293   0.330 -0.0400 -0.4194 -0.2280
  665TMC3    C5 9840   2.213   0.390   0.427 -0.2753 -0.1288  0.1558
  665TMC3    C6 9841   2.097   0.393   0.500 -1.0274  0.0052 -0.5521
  665TMC3     C 9842   2.122   0.168   0.170 -0.4330  0.6424 -0.2879
  665TMC3     O 9843   2.022   0.099   0.149  0.1206 -0.2935 -0.2627
  665TMC3     H 9844   1.967   0.107   0.379  0.9692 -0.8212  1.3248
  665TMC3    H1 9845   2.330   0.288   0.274  0.4966 -2.5579  0.8754
  665TMC3    H2 9846   2.063   0.478   0.559  3.3292  0.4000  1.3912
  665TMC3    C7 9847   2.324   0.488   0.453  0.4416 -0.2695 -0.3940
  665TMC3    C8 9848   1.880   0.307   0.527  0.0558  0.1791 -0.0061
  665TMC3    O1 9849   2.404   0.491   0.359  0.3724 -0.0197 -0.7570
  665TMC3    O2 9850   1.869   0.389   0.619 -0.1443  0.8019  0.5877
  666TMC3    C1 9851   2.524   0.170   9.933 -0.1683  0.0925  0.4329
  666TMC3    C2 9852   2.656   0.145   9.966 -0.2648 -0.3680 -0.5826
  666TMC3    C3 9853   2.730   0.250  10.008 -0.5365 -0.7470 -0.0206
  666TMC3    C4 9854   2.470   0.294   9.933 -0.1251 -0.0180  0.0905
  666TMC3    C5 9855   2.545   0.389   9.997 -0.6513  0.7041  0.1158
  666TMC3    C6 9856   2.678   0.372  10.025  0.2018 -0.9523 -0.1164
  666TMC3     C 9857   2.428   0.075   9.985  0.8949  0.3922  0.0268
  666TMC3     O 9858   2.314   0.082   9.948 -0.4848  0.0844 -0.2451
  666TMC3     H 9859   2.698   0.045   9.965 -0.0884 -0.2805 -1.9592
  666TMC3    H1 9860   2.369   0.326   9.908  0.4964  1.3809 -0.6506
  666TMC3    H2 9861   2.737   0.444  10.081 -0.2030  0.1272 -1.0801
  666TMC3    C7 9862   2.476   0.514  10.034 -0.2124  0.1541  0.4345
  666TMC3    C8 9863   2.830   0.212  10.107  0.0785 -0.9138 -0.2148
  666TMC3    O1 9864   2.358   0.504  10.047  0.7680 -0.4525  0.5452
  666TMC3    O2 9865   2.813   0.105  10.171 -0.1445 -0.0189  0.8007
  667MPD2     C 9866   3.087   4.681  14.937  0.3668  0.7014 -1.3566
  667MPD2    C1 9867   3.090   0.079  15.005  0.0023  0.2879  0.1800
  667MPD2    C2 9868   2.983   0.166  14.997 -0.0668  0.0654  0.5807
  667MPD2    C3 9869   2.864   0.127  14.937 -0.1724  0.0633 -0.3135
  667MPD2    C4 9870   2.860   0.012  14.868 -0.2950  0.3870  0.6897
  667MPD2    C5 9871   2.970   4.651  14.871  0.4118 -0.0002 -0.0834
  667MPD2     H 9872   2.987   0.263  15.043  1.0297 -0.3210  1.2936
  667MPD2    H1 9873   2.781   4.704  14.800  1.1138 -0.5578 -0.5186
  667MPD2    H2 9874   3.164   4.605  14.947 -0.1655  0.5308  1.3578
  667MPD2    H3 9875   2.962   4.559  14.815 -1.6390  1.9394 -3.0375
  667MPD2     N 9876   2.748   0.207  14.931  0.9235 -0.3090  0.6675
  667MPD2    H5 9877   2.668   0.174  14.879  0.7932  0.6031  0.2933
  667MPD2    N1 9878   3.207   0.116  15.084  0.2362 -0.7843 -0.4906
  667MPD2    H7 9879   3.284   0.051  15.092  1.3895  0.6368  0.0343
  668TMC3    C1 9880   3.344   0.217  15.223 -0.9321 -0.2348 -0.8463
  668TMC3    C2 9881   3.431   0.327  15.216  0.0584 -0.7233  0.6990
  668TMC3    C3 9882   3.496   0.349  15.328 -0.5173 -0.0422  0.1537
  668TMC3    C4 9883   3.313   0.145  15.340  0.7462  0.1689  0.2027
  668TMC3    C5 9884   3.367   0.184  15.457  0.1338 -0.4052  0.0454
  668TMC3    C6 9885   3.465   0.280  15.446  0.4699  0.5354 -0.1559
  668TMC3     C 9886   3.235   0.230  15.141 -0.3928 -0.4638  0.4329
  668TMC3     O 9887   3.190   0.341  15.119 -0.8656 -0.7200  0.0982
  668TMC3     H 9888   3.443   0.376  15.120 -1.5253 -0.1485  0.7833
  668TMC3    H1 9889   3.232   0.073  15.341 -0.4966  1.5593 -0.3261
  668TMC3    H2 9890   3.506   0.316  15.540  0.0831 -1.4892  0.7891
  668TMC3    C7 9891   3.338   0.128  15.591  0.2362  0.4403  0.3406
  668TMC3    C8 9892   3.603   0.442  15.346  0.1048  0.0817 -0.2212
  668TMC3    O1 9893   3.393   0.176  15.688 -0.4364 -0.2811 -0.1714
  668TMC3    O2 9894   3.642   0.457  15.460 -0.1288 -0.2995  0.0093
  669TMC3    C1 9895   1.648   0.292  14.513  0.3344 -0.4704  0.6960
  669TMC3    C2 9896   1.545   0.283  14.419 -0.2444  0.3522  0.1175
  669TMC3    C3 9897   1.550   0.358  14.303 -1.0269 -0.1435 -1.0919
  669TMC3    C4 9898   1.761   0.366  14.488  0.3002 -0.4385  0.6145
  669TMC3    C5 9899   1.764   0.433  14.370 -0.5153  0.6900 -0.1378
  669TMC3    C6 9900   1.657   0.436  14.278  0.4430  0.3859 -0.5638
  669TMC3     C 9901   1.652   0.196  14.622 -0.4082  0.7306  0.0964
  669TMC3     O 9902   1.588   0.092  14.605 -0.6434 -0.2360 -0.0066
  669TMC3     H 9903   1.464   0.213  14.435 -1.4246  1.7481  0.1906
  669TMC3    H1 9904   1.842   0.382  14.559  0.6304 -0.4911  0.2464
  669TMC3    H2 9905   1.667   0.487  14.183  0.8739 -1.8969 -1.7323
  669TMC3    C7 9906   1.895   0.478  14.327 -1.5990  0.4925 -0.6195
  669TMC3    C8 9907   1.443   0.342  14.202 -0.5935 -0.4003 -0.7138
  669TMC3    O1 9908   1.966   0.522  14.418 -0.3111 -0.3989 -0.0144
  669TMC3    O2 9909   1.399   0.231  14.166 -0.0823 -0.4936  0.4931
  670MPD2     C 9910   4.377   2.898  13.384 -0.1452  0.4744  0.8344
  670MPD2    C1 9911   4.476   2.893  13.484 -0.5617 -0.3403 -0.1794
  670MPD2    C2 9912   4.462   2.809  13.593 -0.5165 -0.0176  0.5533
  670MPD2    C3 9913   4.350   2.729  13.615  0.0337 -0.2508 -0.7913
  670MPD2    C4 9914   4.253   2.730  13.515  0.5212 -0.4496  0.2112
  670MPD2    C5 9915   4.268   2.813  13.411  0.8537 -0.2948  0.5242
  670MPD2     H 9916   4.543   2.799  13.665  0.1837  1.5798 -0.0123
  670MPD2    H1 9917   4.166   2.665  13.520  0.1536  0.1503  1.7439
  670MPD2    H2 9918   4.377   2.963  13.297 -0.8643  0.2560  0.6715
  670MPD2    H3 9919   4.189   2.818  13.337  0.8047 -3.9277  0.3014
  670MPD2     N 9920   4.334   2.661  13.740 -0.2869 -0.6694  0.3318
  670MPD2    H5 9921   4.408   2.675  13.809  1.1062 -0.2518 -1.2344
  670MPD2    N1 9922   4.594   2.974  13.479  0.6358  0.7083 -0.2296
  670MPD2    H7 9923   4.663   2.943  13.547  1.8709  1.3915 -1.1914
  671TMC3    C1 9924   4.227   2.552  13.920  0.3337 -0.0030  0.5637
  671TMC3    C2 9925   4.323   2.578  14.015  0.7422  0.1306 -0.2381
  671TMC3    C3 9926   4.314   2.514  14.136 -1.0788 -0.1019  0.3743
  671TMC3    C4 9927   4.134   2.458  13.951 -0.2917 -0.1343  0.5796
  671TMC3    C5 9928   4.125   2.403  14.077  0.2206 -0.8676  0.1476
  671TMC3    C6 9929   4.206   2.439  14.180  0.2368  0.0903  0.4531
  671TMC3     C 9930   4.220   2.605  13.785  0.4414 -0.7234  0.1615
  671TMC3     O 9931   4.117   2.576  13.720  0.4023  0.6509  0.3593
  671TMC3     H 9932   4.414   2.624  13.980  1.7572 -2.0752 -0.5160
  671TMC3    H1 9933   4.066   2.424  13.875 -0.9910  2.3607  0.0786
  671TMC3    H2 9934   4.206   2.395  14.278 -1.6507  2.9305  1.7334
  671TMC3    C7 9935   4.038   2.285  14.090  0.0246  0.2919 -0.5241
  671TMC3    C8 9936   4.430   2.460  14.206  0.0979  0.3682  0.2639
  671TMC3    O1 9937   4.028   2.225  13.983 -0.2808 -0.2331  0.2474
  671TMC3    O2 9938   4.417   2.359  14.274  0.2826  0.1404  0.0019
  672MPD2     C 9939   4.257   3.334   1.271 -0.0733  0.1950  0.2143
  672MPD2    C1 9940   4.375   3.283   1.222  0.6217 -0.0075 -1.1781
  672MPD2    C2 9941   4.494   3.344   1.252 -0.0541  0.2002 -0.8461
  672MPD2    C3 9942   4.498   3.467   1.314  0.0350 -0.2468  0.3901
  672MPD2    C4 9943   4.383   3.519   1.360 -0.9033  0.5793  0.3246
  672MPD2    C5 9944   4.264   3.456   1.338  0.3598  0.6710  0.6202
  672MPD2     H 9945   4.587   3.304   1.214  0.3419 -0.1337  0.4791
  672MPD2    H1 9946   4.382   3.619   1.402  0.7410 -1.0782  4.3758
  672MPD2    H2 9947   4.161   3.285   1.256 -1.1896  2.1688  0.8556
  672MPD2    H3 9948   4.176   3.503   1.379 -1.1530  0.1265 -2.0538
  672MPD2     N 9949   4.615   3.549   1.336 -0.2607 -1.1267 -0.3491
  672MPD2    H5 9950   4.599   3.640   1.378  1.0535 -0.3408 -1.5492
  672MPD2    N1 9951   4.373   3.160   1.145 -0.4013  0.0655 -0.1618
  672MPD2    H7 9952   4.465   3.122   1.126 -0.4582 -0.7098  1.1166
  673TMC3    C1 9953   4.306   3.009   0.986 -0.1240  0.7870  0.1802
  673TMC3    C2 9954   4.410   2.930   1.024  0.2664  0.5037  0.2146
  673TMC3    C3 9955   4.471   2.855   0.926 -0.1165 -0.7453 -0.7979
  673TMC3    C4 9956   4.272   3.032   0.861  0.1331 -0.2155  0.4075
  673TMC3    C5 9957   4.335   2.956   0.760  0.0579 -0.5744  0.0073
  673TMC3    C6 9958   4.431   2.862   0.794  0.2017 -0.5371  0.0884
  673TMC3     C 9959   4.267   3.118   1.075  0.7097  0.9706  0.0065
  673TMC3     O 9960   4.166   3.182   1.051  0.1562  0.0310  1.0094
  673TMC3     H 9961   4.431   2.910   1.128  0.8592 -0.3042 -0.0549
  673TMC3    H1 9962   4.174   3.073   0.838  1.0715  1.9058  0.1751
  673TMC3    H2 9963   4.480   2.796   0.724 -2.0516 -2.5503  0.4119
  673TMC3    C7 9964   4.341   3.003   0.621 -0.3453  0.6751  0.1888
  673TMC3    C8 9965   4.546   2.739   0.962  1.0756 -0.4596 -0.2047
  673TMC3    O1 9966   4.416   2.950   0.545  0.3941 -0.2104  0.2606
  673TMC3    O2 9967   4.552   2.644   0.883  0.2044 -0.6469  0.3895
  674MPD2     C 9968   4.384   3.617  17.579  0.4472 -0.5372  0.1074
  674MPD2    C1 9969   4.381   3.483  17.587  0.4275 -0.4569  0.0329
  674MPD2    C2 9970   4.292   3.419  17.494 -0.2915  0.0720 -1.2545
  674MPD2    C3 9971   4.206   3.499  17.415  0.0998  0.2706  0.1622
  674MPD2    C4 9972   4.208   3.632  17.421  0.7914 -0.0579  0.3189
  674MPD2    C5 9973   4.304   3.687  17.494  0.3600 -0.5018 -0.3634
  674MPD2     H 9974   4.297   3.311  17.494 -0.4396  0.0533  0.6315
  674MPD2    H1 9975   4.146   3.697  17.361 -0.5806 -0.5806  1.1706
  674MPD2    H2 9976   4.447   3.673  17.647  0.4227 -2.0002  1.3409
  674MPD2    H3 9977   4.303   3.794  17.512 -0.8535 -0.3289 -1.4201
  674MPD2     N 9978   4.108   3.437  17.330 -0.5114  0.0346 -0.0934
  674MPD2    H5 9979   4.087   3.486  17.243  1.9951 -2.5757 -2.1639
  674MPD2    N1 9980   4.466   3.415  17.677 -0.3303 -0.5901  0.6052
  674MPD2    H7 9981   4.527   3.474   0.038  0.2428 -1.7993  1.2710
  675TMC3    C1 9982   4.573   3.219   0.092 -0.0022 -0.3472  0.2082
  675TMC3    C2 9983   4.578   3.088   0.093  0.3304 -0.6661  0.5127
  675TMC3    C3 9984   4.576   3.015   0.210  0.1557 -0.6787 -0.8888
  675TMC3    C4 9985   4.582   3.286   0.209  0.3967 -0.0463  0.2578
  675TMC3    C5 9986   4.596   3.220   0.326 -0.3730 -0.0426 -0.3112
  675TMC3    C6 9987   4.588   3.082   0.328  0.7798 -0.4925  0.0388
  675TMC3     C 9988   4.477   3.277  17.684 -0.3243  1.0555  0.3514
  675TMC3     O 9989   4.412   3.193  17.625  0.1828 -0.3414 -0.5453
  675TMC3     H 9990   4.579   3.039  17.692 -1.0770  0.1357  0.0894
  675TMC3    H1 9991   4.564   3.393   0.215  0.9662  0.0514  0.2806
  675TMC3    H2 9992   4.599   3.026   0.420  1.5030 -2.1687 -1.0641
  675TMC3    C7 9993   4.586   3.292   0.451 -0.3454  0.2432  0.2222
  675TMC3    C8 9994   4.541   2.871   0.184 -1.1038 -0.5633  0.0788
  675TMC3    O1 9995   4.569   3.413   0.432  0.0551 -0.2397  0.7871
  675TMC3    O2 9996   4.530   2.832   0.069  0.6361  0.0189 -0.6966
  676MPD2     C 9997   3.013   1.327  11.003 -0.1450 -0.0628  0.2312
  676MPD2    C1 9998   2.909   1.244  11.019  0.4890 -0.1875  0.3139
  676MPD2    C2 9999   2.945   1.108  11.002 -0.3944  0.1514 -0.6507
  676MPD2    C310000   3.073   1.061  10.978 -0.9627  0.2943 -0.0501
  676MPD2    C410001   3.170   1.158  10.958 -0.0042  0.1259  0.1677
  676MPD2    C510002   3.142   1.291  10.976  0.5528  0.2151  0.0134
  676MPD2     H10003   2.861   1.040  11.010  0.3737 -0.5445  1.4137
  676MPD2    H110004   3.271   1.127  10.932  0.3610  1.5958 -0.1667
  676MPD2    H210005   2.990   1.428  11.035  1.4943  1.0677 -2.1680
  676MPD2    H310006   3.221   1.365  10.972  0.2015  0.5574 -0.6677
  676MPD2     N10007   3.105   0.928  10.979 -0.4584 -0.1805  0.4212
  676MPD2    H510008   3.194   0.900  10.938 -1.0547  0.6382 -1.4461
  676MPD2    N110009   2.776   1.266  11.072 -0.0669  0.2558 -0.1057
  676MPD2    H710010   2.725   1.181  11.095 -0.7864  0.9480  0.8588
  677TMC3    C110011   2.588   1.395  11.146 -0.5095  0.2641  0.7179
  677TMC3    C210012   2.529   1.274  11.173  0.0971  0.4343  0.3367
  677TMC3    C310013   2.433   1.283  11.267 -0.3892 -0.3512  0.1374
  677TMC3    C410014   2.551   1.518  11.199 -0.2661 -0.4603 -0.6479
  677TMC3    C510015   2.444   1.519  11.290  0.2568  0.5950  0.6557
  677TMC3    C610016   2.380   1.402  11.318  0.4499 -0.6768 -0.1098
  677TMC3     C10017   2.717   1.391  11.080 -0.0753  0.3100  0.1082
  677TMC3     O10018   2.766   1.499  11.049  0.1482  0.2086 -0.6870
  677TMC3     H10019   2.555   1.177  11.133 -2.5155  0.3375 -1.1295
  677TMC3    H110020   2.604   1.606  11.163  0.4402  0.7748  3.3975
  677TMC3    H210021   2.306   1.390  11.397  2.5412  1.5396  2.2169
  677TMC3    C710022   2.432   1.617  11.396 -0.6092 -0.0469 -0.2137
  677TMC3    C810023   2.371   1.155  11.304  0.3664 -0.2224  0.5492
  677TMC3    O110024   2.326   1.610  11.460  0.2280  0.7254 -0.4114
  677TMC3    O210025   2.387   1.059  11.225  0.1817  0.0697  0.0924
  678MPD2     C10026   3.404   1.677   1.371 -0.1444  0.4218 -0.0942
  678MPD2    C110027   3.408   1.572   1.283 -0.2968 -0.5253 -0.3860
  678MPD2    C210028   3.291   1.505   1.257 -0.5507 -0.3260  0.4504
  678MPD2    C310029   3.173   1.525   1.323  0.4342 -0.3791  0.6251
  678MPD2    C410030   3.177   1.614   1.427  0.1014 -0.2169  0.5753
  678MPD2    C510031   3.286   1.695   1.440 -0.4173  1.8126  0.5299
  678MPD2     H10032   3.293   1.428   1.181  2.0775 -0.1789  0.3959
  678MPD2    H110033   3.105   1.624   1.506  0.4261  0.2728  0.8061
  678MPD2    H210034   3.497   1.729   1.394 -0.6540  0.6267  1.4800
  678MPD2    H310035   3.290   1.759   1.527 -0.3247  2.1212  0.2982
  678MPD2     N10036   3.064   1.444   1.291  0.1724 -0.0293 -0.1749
  678MPD2    H510037   3.075   1.383   1.210  1.2208  0.6901 -0.5776
  678MPD2    N110038   3.529   1.528   1.222  0.0483  0.5862  0.5407
  678MPD2    H710039   3.532   1.436   1.180 -1.4331  0.0059  1.7084
  679TMC3    C110040   3.862   1.326   1.121  0.4646 -0.6368 -0.2102
  679TMC3    C210041   3.768   1.398   1.185 -0.7230 -0.2022  0.7129
  679TMC3    C310042   3.751   1.524   1.141 -0.0854 -0.0775 -0.2223
  679TMC3    C410043   3.946   1.382   1.028  0.3063 -0.3550 -0.2132
  679TMC3    C510044   3.932   1.515   0.996  0.1414 -0.5700  1.0251
  679TMC3    C610045   3.831   1.588   1.060 -0.0826  0.0903  0.0998
  679TMC3     C10046   3.866   1.187   1.153  0.3249  0.2599 -1.0186
  679TMC3     O10047   3.972   1.126   1.131 -0.3275 -0.1473 -0.5742
  679TMC3     H10048   3.700   1.359   1.260 -3.1814  2.5883 -0.0558
  679TMC3    H110049   4.018   1.317   0.979  2.5893  0.3788  2.1385
  679TMC3    H210050   3.805   1.689   1.029  0.4369 -1.1244 -4.3520
  679TMC3    C710051   3.978   1.570   0.864  0.3013  0.1419  0.4924
  679TMC3    C810052   3.643   1.604   1.209 -0.1167  0.3779 -0.0570
  679TMC3    O110053   3.929   1.678   0.835  0.0539 -0.3374 -0.0483
  679TMC3    O210054   3.658   1.723   1.230 -0.0222 -0.3175  0.8439
  680MPD2     C10055   3.906   4.591  13.586 -0.2789 -0.6328  0.4787
  680MPD2    C110056   4.004   4.540  13.676  1.0697 -0.5254 -1.2103
  680MPD2    C210057   4.081   4.627  13.755  0.3156 -0.3750  0.0429
  680MPD2    C310058   4.046   0.038  13.762  0.1998 -0.1722 -0.0166
  680MPD2    C410059   3.942   0.081  13.686 -0.6790  0.1974  0.5204
  680MPD2    C510060   3.868   0.002  13.603 -0.0096 -0.3293  0.4416
  680MPD2     H10061   4.163   4.591  13.816  0.7416  1.0063  0.2859
  680MPD2    H110062   3.914   0.186  13.689  1.4481  0.7265  1.3358
  680MPD2    H210063   3.839   4.530  13.528 -0.6255  0.4286 -0.2311
  680MPD2    H310064   3.795   0.042  13.533  0.3234  0.7575  0.7161
  680MPD2     N10065   4.110   0.133  13.842 -0.2278 -0.1407  0.1285
  680MPD2    H510066   4.065   0.224  13.846  0.4977  0.1972  0.5230
  680MPD2    N110067   4.022   4.400  13.697  0.0145 -0.6169 -0.4400
  680MPD2    H710068   4.098   4.382  13.762 -0.6300  0.7999  0.7163
  681TMC3    C110069   3.987   4.170  13.685 -0.2500  0.5094  0.5117
  681TMC3    C210070   3.886   4.080  13.721  0.6426 -0.0216 -0.3536
  681TMC3    C310071   3.922   3.972  13.793  0.4977 -0.0348  1.0525
  681TMC3    C410072   4.118   4.143  13.702  0.2764  0.4502 -0.7407
  681TMC3    C510073   4.151   4.020  13.765 -0.2121 -0.3702 -0.6601
  681TMC3    C610074   4.053   3.939  13.820  0.3449  0.1206 -0.6947
  681TMC3     C10075   3.943   4.300  13.649 -0.5329 -0.2477  0.1325
  681TMC3     O10076   3.830   4.312  13.602 -0.5276 -0.1053  0.1801
  681TMC3     H10077   3.781   4.098  13.705  0.1715 -1.4393  1.1406
  681TMC3    H110078   4.190   4.219  13.670  0.5653  0.1397 -0.8256
  681TMC3    H210079   4.075   3.842  13.863 -0.6850 -0.1796 -0.8601
  681TMC3    C710080   4.268   3.958  13.708  0.4683 -0.1743  0.9492
  681TMC3    C810081   3.837   3.949  13.906 -0.5866  0.0605 -0.2949
  681TMC3    O110082   4.313   3.858  13.765  0.5746 -0.1529  0.1592
  681TMC3    O210083   3.714   3.958  13.886  0.0716  0.4857  0.0337
  682MPD2     C10084   1.796   1.403  10.841 -0.4811  0.1570 -0.4958
  682MPD2    C110085   1.791   1.262  10.867 -0.0918 -0.8098 -0.6585
  682MPD2    C210086   1.715   1.217  10.970  0.3926 -0.2150 -0.2304
  682MPD2    C310087   1.652   1.306  11.057  0.7118 -0.2878 -0.0751
  682MPD2    C410088   1.667   1.438  11.036  0.6608  0.2290  0.0313
  682MPD2    C510089   1.743   1.484  10.936 -1.3026 -0.2527 -0.4200
  682MPD2     H10090   1.705   1.111  10.990 -0.6698  0.0818  0.7726
  682MPD2    H110091   1.620   1.508  11.104 -0.9568 -0.5812 -0.2641
  682MPD2    H210092   1.851   1.448  10.759  0.4044  0.5969  0.3475
  682MPD2    H310093   1.750   1.591  10.922 -1.6989 -0.3934 -1.6760
  682MPD2     N10094   1.566   1.271  11.162  0.1206  0.5822  0.2717
  682MPD2    H510095   1.537   1.344  11.228 -0.7256 -0.2978  0.8714
  682MPD2    N110096   1.843   1.165  10.777 -0.5264  0.4291 -0.4501
  682MPD2    H710097   1.823   1.068  10.801 -0.5260  1.1721  2.5611
  683TMC3    C110098   1.390   1.095  11.506  0.5214  0.5933  0.2727
  683TMC3    C210099   1.308   0.984  11.473  0.2119  0.1381 -0.2024
  683TMC3    C310100   1.276   0.945  11.344  0.0945  0.3368 -0.5213
  683TMC3    C410101   1.445   1.169  11.408 -0.5438 -0.2628 -0.8868
  683TMC3    C510102   1.411   1.127  11.274  0.2213  0.5887 -0.1566
  683TMC3    C610103   1.337   1.011  11.246 -0.5859  0.3573  0.3200
  683TMC3     C10104   1.404   1.147  11.642  0.1309 -0.0659 -0.4546
  683TMC3     O10105   1.430   1.264  11.649 -0.0560  0.1190  0.1164
  683TMC3     H10106   1.258   0.927  11.551  0.4057 -1.9039 -1.5855
  683TMC3    H110107   1.523   1.243  11.423  0.5981 -1.2875 -1.7329
  683TMC3    H210108   1.305   0.991  11.144  2.0067 -1.8247 -0.0638
  683TMC3    C710109   1.511   1.147  11.175  0.0407 -0.7384  0.2699
  683TMC3    C810110   1.258   0.806  11.319 -0.7158  0.5496 -0.5376
  683TMC3    O110111   1.515   1.050  11.101  0.1224  0.4257 -0.4134
  683TMC3    O210112   1.173   0.737  11.371  0.0863  0.3584  0.5440
  684MPD2     C10113   4.476   1.000  16.717 -0.3459 -0.1283  0.8001
  684MPD2    C110114   4.471   1.023  16.584  0.2645 -0.4200  1.0289
  684MPD2    C210115   4.461   1.162  16.542  0.3093  0.7812  0.4678
  684MPD2    C310116   4.463   1.263  16.634  0.1550  0.4106 -0.2167
  684MPD2    C410117   4.462   1.227  16.769  0.0204 -0.1617  0.6085
  684MPD2    C510118   4.488   1.100  16.806 -0.0112 -0.6091 -0.0382
  684MPD2     H10119   4.466   1.181  16.436 -3.4944  0.4627  0.2250
  684MPD2    H110120   4.459   1.307  16.843  0.0887 -0.5693  1.0486
  684MPD2    H210121   4.476   0.901  16.761  0.8276  0.2968  1.7417
  684MPD2    H310122   4.488   1.075  16.912 -1.7354 -1.2562 -0.1939
  684MPD2     N10123   4.459   1.402  16.593  0.2771 -0.0084 -0.3327
  684MPD2    H510124   4.475   1.475  16.661  2.8785 -1.2821  0.4161
  684MPD2    N110125   4.486   0.921  16.486  0.5634  0.6148 -0.9384
  684MPD2    H710126   4.501   0.951  16.391  1.0913  1.2963 -0.6392
  685TMC3    C110127   4.527   0.727  16.376 -0.1798  0.1458  0.0600
  685TMC3    C210128   4.472   0.773  16.259  0.9701  0.2860  0.4399
  685TMC3    C310129   4.549   0.762  16.139  0.0385  0.6653  0.4708
  685TMC3    C410130   4.648   0.671  16.384  0.1982  0.4989  0.6581
  685TMC3    C510131   4.723   0.658  16.271  0.0206  0.7226 -0.6065
  685TMC3    C610132   4.679   0.706  16.151  0.3812 -0.0485 -0.2050
  685TMC3     C10133   4.490   0.787  16.503 -0.9162 -0.0854 -0.4055
  685TMC3     O10134   4.501   0.722  16.608  0.1930  0.0355 -0.5066
  685TMC3     H10135   4.367   0.802  16.261  1.8564  3.3156  1.9641
  685TMC3    H110136   4.679   0.620  16.475 -0.6197 -0.2518  0.5278
  685TMC3    H210137   0.021   0.710  16.065  1.2901 -0.1655  0.4904
  685TMC3    C710138   0.131   0.596  16.295 -0.5596 -0.3695  0.1081
  685TMC3    C810139   4.495   0.796  16.008  0.4737  0.7054  0.2559
  685TMC3    O110140   0.147   0.539  16.400 -0.8299  0.0020  0.1090
  685TMC3    O210141   4.558   0.749  15.914  0.0393 -0.5199 -0.0668
  686MPD2     C10142   1.361   0.613  15.673 -0.2066 -0.0811 -0.1935
  686MPD2    C110143   1.259   0.527  15.692 -0.0192  0.2751  0.9859
  686MPD2    C210144   1.296   0.397  15.706 -0.1288  0.4391 -0.1466
  686MPD2    C310145   1.424   0.343  15.682 -0.5847 -0.5102  0.2950
  686MPD2    C410146   1.529   0.431  15.656 -0.0845 -0.7526 -0.3534
  686MPD2    C510147   1.491   0.565  15.653 -0.1757  0.5464 -0.8411
  686MPD2     H10148   1.219   0.326  15.734  0.0260  0.6535  0.8068
  686MPD2    H110149   1.629   0.396  15.632 -0.0678 -0.1199 -1.2165
  686MPD2    H210150   1.351   0.721  15.673 -2.3296 -0.2765 -1.3609
  686MPD2    H310151   1.562   0.645  15.633 -0.1122  0.6905 -0.0462
  686MPD2     N10152   1.444   0.205  15.694 -0.0886  0.2901  0.1417
  686MPD2    H510153   1.540   0.174  15.700  0.0419  0.4604 -1.1047
  686MPD2    N110154   1.125   0.581  15.711  0.3271 -0.1710  0.4987
  686MPD2    H710155   1.105   0.672  15.669  1.1687  0.9265  2.4503
  687TMC3    C110156   1.278   0.042  15.748 -0.2413 -0.2322 -0.0433
  687TMC3    C210157   1.141   0.038  15.735 -0.4600 -0.5689  0.2104
  687TMC3    C310158   1.069   0.085  15.842  0.4767 -0.6718 -0.8244
  687TMC3    C410159   1.337   0.065  15.870 -0.2381 -0.6926 -0.1622
  687TMC3    C510160   1.256   0.097  15.975 -0.0539  0.5923  0.5688
  687TMC3    C610161   1.119   0.109  15.967 -0.3506 -0.0906  0.1024
  687TMC3     C10162   1.348   0.119  15.642  0.1265  0.6369  0.0920
  687TMC3     O10163   1.291   0.144  15.538 -0.4962 -0.2918  0.1913
  687TMC3     H10164   1.105   0.037  15.633 -0.0527 -1.3386  0.0776
  687TMC3    H110165   1.445   0.063  15.885 -0.4876  0.2902  1.7285
  687TMC3    H210166   1.051   0.153  16.039  0.6459  1.7969 -0.0900
  687TMC3    C710167   1.320   0.140  16.096 -0.2847  0.3310 -0.5627
  687TMC3    C810168   0.926   0.096  15.841 -0.4335  0.9195  0.1211
  687TMC3    O110169   1.432   0.194  16.077 -0.0268  0.0117  0.5283
  687TMC3    O210170   0.860   0.078  15.941 -0.2759 -0.8594  0.3078
  688MPD2     C10171   0.336   4.471  17.441 -0.1954  0.1352 -0.5912
  688MPD2    C110172   0.371   4.337  17.454  0.4462 -0.0821 -0.3213
  688MPD2    C210173   0.485   4.302  17.383 -1.0259 -0.2738  0.2280
  688MPD2    C310174   0.561   4.394  17.310  0.4375  0.4210  0.2463
  688MPD2    C410175   0.527   4.527  17.310  0.2445 -0.6464  0.0698
  688MPD2    C510176   0.409   4.563  17.364  0.4076 -0.6109  0.1956
  688MPD2     H10177   0.514   4.199  17.399 -4.0594 -0.9218  1.6745
  688MPD2    H110178   0.590   4.599  17.259 -0.8938  0.1865 -0.1597
  688MPD2    H210179   0.251   4.518  17.488 -1.3569 -2.0018 -0.5410
  688MPD2    H310180   0.368   4.663  17.357  0.0172 -0.7381  0.6120
  688MPD2     N10181   0.666   4.359  17.226 -0.6120  0.4408 -0.2338
  688MPD2    H510182   0.721   4.436  17.191  1.3421 -0.5946  0.5790
  688MPD2    N110183   0.286   4.243  17.527 -0.2895  0.2135 -0.1797
  688MPD2    H710184   0.318   4.147  17.519  2.1396  1.1256 -1.5016
  689TMC3    C110185   0.117   4.170  17.687 -0.3975  0.4652 -0.0786
  689TMC3    C210186   0.016   4.204   0.080  0.1847 -0.4882 -0.4674
  689TMC3    C310187   4.715   4.123   0.188  0.0425  0.4017  0.3960
  689TMC3    C410188   0.183   4.051   0.000 -0.0220  0.0809 -0.5750
  689TMC3    C510189   0.153   3.975   0.115  0.8227 -0.2945 -0.1302
  689TMC3    C610190   0.061   4.005   0.207 -0.2498 -0.2445 -0.6788
  689TMC3     C10191   0.180   4.280  17.608 -0.4464  0.1411 -0.2814
  689TMC3     O10192   0.137   4.393  17.623 -0.5357  0.0138  0.4433
  689TMC3     H10193   4.692   4.300   0.067 -3.2760 -1.9909  1.2920
  689TMC3    H110194   0.242   4.005  17.618 -0.4286 -2.0892  0.3968
  689TMC3    H210195   0.047   3.946   0.297  0.6172  2.2870  1.1384
  689TMC3    C710196   0.171   3.830   0.106 -0.3352 -0.4828  0.0529
  689TMC3    C810197   4.613   4.154   0.282  0.1136 -0.9143  0.4097
  689TMC3    O110198   0.174   3.773   0.217  0.3052 -0.3008 -0.5262
  689TMC3    O210199   4.612   4.093   0.385  0.2403  0.1587 -0.2598
  690MPD2     C10200   2.920   1.387  15.513 -0.6392 -0.0724  0.0085
  690MPD2    C110201   2.878   1.348  15.387 -0.0517 -0.3038 -0.7258
  690MPD2    C210202   2.976   1.349  15.289  0.4091  0.0520  0.2010
  690MPD2    C310203   3.102   1.399  15.304  0.0833 -0.9867  0.6051
  690MPD2    C410204   3.146   1.443  15.426  0.0137 -0.4285  0.0512
  690MPD2    C510205   3.052   1.431  15.526 -0.1843 -0.6469  0.4555
  690MPD2     H10206   2.952   1.305  15.192 -2.0883 -0.8090  1.2040
  690MPD2    H110207   3.241   1.493  15.441  0.6586 -1.5526 -0.2684
  690MPD2    H210208   2.857   1.387  15.602  1.0939 -0.0995  1.2421
  690MPD2    H310209   3.094   1.455  15.623  3.2236  0.6703 -1.3710
  690MPD2     N10210   3.185   1.396  15.193  0.1122 -0.2712 -0.0200
  690MPD2    H510211   3.154   1.355  15.106 -2.8777  2.7474 -0.3933
  690MPD2    N110212   2.750   1.290  15.364 -0.4113  0.2623 -0.3393
  690MPD2    H710213   2.734   1.234  15.281  2.6489 -2.6900  1.0764
  691TMC3    C110214   2.542   1.200  15.405 -0.5219  0.1557  0.6592
  691TMC3    C210215   2.413   1.240  15.428  0.6793  0.5454 -0.5832
  691TMC3    C310216   2.316   1.143  15.405  0.1239  0.1424 -0.0366
  691TMC3    C410217   2.582   1.075  15.364  0.0775  0.3133 -0.6815
  691TMC3    C510218   2.486   0.981  15.344  0.1324  0.2085  0.0302
  691TMC3    C610219   2.350   1.013  15.364 -0.6505 -0.0887  0.5190
  691TMC3     C10220   2.642   1.289  15.453  0.4492  0.1398 -0.2418
  691TMC3     O10221   2.623   1.363  15.554  0.1171 -0.2171  0.3471
  691TMC3     H10222   2.397   1.335  15.477 -0.5889 -0.2961  0.6470
  691TMC3    H110223   2.688   1.050  15.362  0.2095  1.0351 -2.8577
  691TMC3    H210224   2.272   0.938  15.361 -0.8964  0.2123 -0.5312
  691TMC3    C710225   2.535   0.856  15.409  0.9300 -0.1637  0.7690
  691TMC3    C810226   2.176   1.163  15.441 -0.9436  0.0243  0.0881
  691TMC3    O110227   2.649   0.817  15.391  0.2249 -0.0956 -0.6755
  691TMC3    O210228   2.091   1.078  15.406  0.6265  0.4172  0.0272
  692TMC3    C110229   4.023   2.662  15.858 -0.4422 -0.5937 -0.6891
  692TMC3    C210230   4.147   2.689  15.824 -0.8067 -0.3884 -0.3614
  692TMC3    C310231   4.231   2.588  15.786 -0.2537  0.1682  0.3871
  692TMC3    C410232   3.985   2.532  15.883  0.5275  0.1086 -0.1187
  692TMC3    C510233   4.078   2.431  15.873  0.4365  0.8027 -0.5695
  692TMC3    C610234   4.199   2.462  15.831  0.6640 -0.5047 -0.1177
  692TMC3     C10235   3.927   2.761  15.909 -0.5271 -0.0717  0.2178
  692TMC3     O10236   3.809   2.724  15.920 -0.6379  0.4813  0.2466
  692TMC3     H10237   4.181   2.792  15.815 -1.4380 -0.1680 -0.2131
  692TMC3    H110238   3.887   2.511  15.926  0.7225 -1.3679 -0.3887
  692TMC3    H210239   4.259   2.381  15.790 -0.1775  0.6962 -3.7399
  692TMC3    C710240   4.045   2.302  15.936 -0.7277  0.2886  1.1296
  692TMC3    C810241   4.371   2.609  15.839  0.4781 -0.7741 -0.8884
  692TMC3    O110242   3.927   2.270  15.963 -0.2345 -0.3160  0.1887
  692TMC3    O210243   4.466   2.567  15.766  0.1078  0.8797  0.6254
  693MPD2     C10244   4.198   0.493  10.971 -0.8958  0.2788 -0.5013
  693MPD2    C110245   4.144   0.436  10.861 -0.2530 -0.4835  0.0842
  693MPD2    C210246   4.182   0.311  10.819 -0.9029 -0.2602  0.5717
  693MPD2    C310247   4.281   0.243  10.891  0.3226  0.0623 -0.1246
  693MPD2    C410248   4.342   0.302  11.001  0.6388 -0.0121  0.4418
  693MPD2    C510249   4.316   0.435  11.026  0.3994  0.0616 -0.4184
  693MPD2     H10250   4.130   0.263  10.737  1.0525 -0.0127 -0.8258
  693MPD2    H110251   4.426   0.259  11.055 -1.0066 -1.8180  1.5833
  693MPD2    H210252   4.167   0.593  11.001 -0.9566  0.2185 -0.3629
  693MPD2    H310253   4.373   0.481  11.106  0.4279  1.9290 -1.5185
  693MPD2     N10254   4.312   0.108  10.859  0.1203 -0.3464 -0.1245
  693MPD2    H510255   4.375   0.066  10.926 -1.5395 -1.5522  0.6921
  693MPD2    N110256   4.029   0.500  10.803 -0.0589 -0.0378 -0.4913
  693MPD2    H710257   3.987   0.574  10.860 -0.0082 -1.3959  1.3153
  694TMC3    C110258   3.822   0.474  10.694  0.0930  0.8849 -0.0260
  694TMC3    C210259   3.763   0.414  10.586  0.0680 -0.0304 -0.0909
  694TMC3    C310260   3.652   0.341  10.615  0.2791 -0.0670  0.3293
  694TMC3    C410261   3.764   0.484  10.821 -0.2479 -0.0352  0.1158
  694TMC3    C510262   3.654   0.402  10.842  0.5984 -0.3122 -0.0041
  694TMC3    C610263   3.606   0.324  10.746  0.3518 -0.5217 -0.2105
  694TMC3     C10264   3.964   0.449  10.696  0.2403 -0.1257  0.5658
  694TMC3     O10265   4.011   0.394  10.599  0.1598  0.4232 -0.0220
  694TMC3     H10266   3.810   0.412  10.488  0.1214  0.7740 -0.0825
  694TMC3    H110267   3.818   0.514  10.910  0.2272  2.1961 -0.9184
  694TMC3    H210268   3.524   0.256  10.766 -0.4768  0.3062 -0.7806
  694TMC3    C710269   3.625   0.379  10.988 -0.4422  0.2093 -0.2864
  694TMC3    C810270   3.588   0.261  10.516 -0.0655  0.4558  0.3511
  694TMC3    O110271   3.671   0.457  11.068 -0.1575  0.3205  0.5908
  694TMC3    O210272   3.501   0.184  10.550  0.0932  0.0949  0.4730
  695MPD2     C10273   4.666   1.724  13.710  0.1743  0.8236 -0.7006
  695MPD2    C110274   4.606   1.746  13.830 -0.8531  0.0912  0.1234
  695MPD2    C210275   4.470   1.729  13.841  0.5050 -0.0328 -0.2796
  695MPD2    C310276   4.392   1.688  13.734  0.7396 -0.0438  0.6202
  695MPD2    C410277   4.458   1.661  13.621 -0.7722 -0.0512  0.2461
  695MPD2    C510278   4.594   1.685  13.607 -0.2609 -0.6630 -0.7781
  695MPD2     H10279   4.429   1.743  13.940  1.9297 -0.5392  0.3907
  695MPD2    H110280   4.400   1.617  13.540 -0.3245 -2.4666  1.2251
  695MPD2    H210281   0.046   1.736  13.681  0.6280  1.9098  1.3718
  695MPD2    H310282   4.647   1.662  13.515 -2.1760 -1.9923 -1.5434
  695MPD2     N10283   4.252   1.666  13.744  0.0957  0.0753  0.3563
  695MPD2    H510284   4.203   1.645  13.658  0.9396  0.5459 -0.2421
  695MPD2    N110285   4.680   1.774  13.948 -0.2126  0.2860 -0.1722
  695MPD2    H710286   4.626   1.802  14.029 -1.3581 -1.1829 -0.4329
  696TMC3    C110287   4.039   1.732  13.798  0.3208  0.0817 -0.7876
  696TMC3    C210288   3.932   1.725  13.885  0.5358  0.4855 -0.5130
  696TMC3    C310289   3.813   1.788  13.850  0.0640 -0.7390  0.0665
  696TMC3    C410290   4.023   1.788  13.676  0.6183  0.3212  0.8605
  696TMC3    C510291   3.899   1.833  13.644  0.0184 -0.3399 -0.1727
  696TMC3    C610292   3.792   1.822  13.721  0.5933  0.2507 -0.3153
  696TMC3     C10293   4.172   1.705  13.848 -0.5397  0.4927 -1.1108
  696TMC3     O10294   4.204   1.721  13.966  0.1559  0.2700 -0.3779
  696TMC3     H10295   3.929   1.666  13.976  0.7673 -0.5701 -1.1894
  696TMC3    H110296   4.108   1.815  13.614 -0.5453  1.6692 -0.1376
  696TMC3    H210297   3.703   1.878  13.693 -0.2406 -1.8017 -1.7508
  696TMC3    C710298   3.907   1.962  13.573 -0.0873  0.4257  0.3614
  696TMC3    C810299   3.753   1.881  13.948  0.1959 -0.2404  0.0021
  696TMC3    O110300   3.986   1.971  13.477 -0.6246  0.0594  0.2283
  696TMC3    O210301   3.738   1.986  13.892  0.4962 -0.2223  0.1435
  697MPD2     C10302   4.081   3.984  15.937 -0.2396  0.1815  0.1721
  697MPD2    C110303   4.062   3.905  15.826 -0.3227  0.0264 -0.0139
  697MPD2    C210304   4.123   3.934  15.706  0.0090 -0.3955  0.0525
  697MPD2    C310305   4.207   4.042  15.687  0.2348 -0.0314  0.0551
  697MPD2    C410306   4.229   4.117  15.800  0.2296 -0.0596  0.0294
  697MPD2    C510307   4.164   4.089  15.921 -0.5198  0.2242 -0.0044
  697MPD2     H10308   4.111   3.857  15.630 -0.3783 -0.8288  0.5505
  697MPD2    H110309   4.295   4.203  15.800  0.1175  0.0268 -1.6947
  697MPD2    H210310   4.046   3.953  16.034 -2.8604  1.2817 -0.4317
  697MPD2    H310311   4.194   4.164  15.993  0.3871 -0.7857  0.6762
  697MPD2     N10312   4.267   4.061  15.566 -0.2661  0.0148  0.0902
  697MPD2    H510313   4.233   4.002  15.491 -1.3687  1.7966 -0.8068
  697MPD2    N110314   3.992   3.783  15.832 -0.5732 -0.1288  0.3252
  697MPD2    H710315   3.984   3.735  15.744 -2.7963 -0.5087  0.7448
  698TMC3    C110316   4.429   4.117  15.411  0.6461  0.3323 -0.7576
  698TMC3    C210317   4.564   4.139  15.402 -0.1859 -1.0867 -0.2105
  698TMC3    C310318   4.617   4.133  15.273 -0.1109  0.8752  0.5031
  698TMC3    C410319   4.352   4.075  15.302 -0.2809  0.0341  0.0403
  698TMC3    C510320   4.412   4.066  15.180  0.6813  0.1390 -0.0408
  698TMC3    C610321   4.544   4.094  15.164 -0.1012 -0.2452  0.2200
  698TMC3     C10322   4.380   4.125  15.549 -0.0517  0.1455 -0.0191
  698TMC3     O10323   4.456   4.176  15.631 -0.2430  0.2373  0.6317
  698TMC3     H10324   4.619   4.169  15.490  1.6755 -1.0827 -1.3830
  698TMC3    H110325   4.247   4.052  15.321 -0.5403  0.7183 -0.5688
  698TMC3    H210326   4.590   4.086  15.067  0.5166 -1.3579  0.6028
  698TMC3    C710327   4.327   4.025  15.068 -0.0227 -0.2267 -0.7221
  698TMC3    C810328   0.037   4.147  15.260  0.2011  0.6413 -0.6505
  698TMC3    O110329   4.208   4.046  15.076  0.1713  0.2219 -0.5381
  698TMC3    O210330   0.093   4.129  15.368  0.3292  0.7983 -0.2233
  699TMC3    C110331   3.986   2.070  12.697 -0.7992  0.3073 -0.5945
  699TMC3    C210332   4.017   1.944  12.746 -0.3262  0.2700 -0.3987
  699TMC3    C310333   3.915   1.866  12.794 -0.2266 -0.3860  0.2851
  699TMC3    C410334   3.851   2.108  12.696  0.0145  0.2259  0.1599
  699TMC3    C510335   3.756   2.020  12.737  0.1282  0.9642 -0.7647
  699TMC3    C610336   3.778   1.902  12.796 -0.0098 -0.2488  0.0534
  699TMC3     C10337   4.081   2.158  12.625  0.1470 -0.2295  0.3803
  699TMC3     O10338   4.027   2.240  12.552 -0.1575 -0.1239 -0.1350
  699TMC3     H10339   4.116   1.900  12.746 -0.6663 -0.5151 -1.1391
  699TMC3    H110340   3.816   2.201  12.654 -2.9686 -0.8821  0.2255
  699TMC3    H210341   3.706   1.828  12.828 -0.0979 -0.1138  0.1674
  699TMC3    C710342   3.626   2.088  12.764 -0.0431  0.3963 -0.0791
  699TMC3    C810343   3.943   1.754  12.887 -0.1119  0.9081 -0.0067
  699TMC3    O110344   3.617   2.203  12.721  0.1393  0.4480 -0.1063
  699TMC3    O210345   3.851   1.682  12.915 -0.2978  0.0467  0.3917
  700TMC3    C110346   2.774   4.427  17.551 -0.5752 -0.6375  0.5363
  700TMC3    C210347   2.860   4.392  17.448 -0.8708  0.1164 -0.4149
  700TMC3    C310348   2.924   4.275  17.468 -0.1409  0.4452  0.3764
  700TMC3    C410349   2.739   4.341  17.647  0.1394  0.7504  0.1568
  700TMC3    C510350   2.820   4.236  17.676  0.2373 -0.5855 -0.3165
  700TMC3    C610351   2.913   4.199  17.584  0.3254 -0.1975 -0.0657
  700TMC3     C10352   2.681   4.544  17.531  0.6765  0.3361 -0.3773
  700TMC3     O10353   2.562   4.533  17.549  0.2267  0.1762 -0.1323
  700TMC3     H10354   2.881   4.462  17.368  0.2480  1.7908  1.3364
  700TMC3    H110355   2.646   4.355   0.006 -0.2411  1.3851 -0.6605
  700TMC3    H210356   2.971   4.109  17.600 -1.0226 -1.3759 -1.7994
  700TMC3    C710357   2.806   4.156   0.101  0.0913  0.1800 -0.0495
  700TMC3    C810358   3.011   4.221  17.361  0.3294  0.2602  1.1137
  700TMC3    O110359   2.823   4.038   0.082 -0.3265 -0.3913  0.9903
  700TMC3    O210360   3.088   4.133  17.392 -0.0948  0.4986 -0.4311
  701TMC3    C110361   3.075   3.253  15.606  0.2728  0.0556  0.1120
  701TMC3    C210362   3.144   3.208  15.500  0.6548 -0.2073  0.1621
  701TMC3    C310363   3.265   3.257  15.473  0.3831 -0.4516  0.2830
  701TMC3    C410364   3.133   3.346  15.689 -0.5441  0.0496  0.2830
  701TMC3    C510365   3.263   3.387  15.670 -0.0540  0.5651 -0.4955
  701TMC3    C610366   3.327   3.342  15.559  0.4786 -0.3435 -0.3319
  701TMC3     C10367   2.968   3.176  15.669  0.7943 -0.2157  0.7357
  701TMC3     O10368   2.894   3.242  15.741 -0.1203  0.1417  0.2513
  701TMC3     H10369   3.101   3.127  15.443  1.4392 -1.0859  0.8422
  701TMC3    H110370   3.081   3.372  15.780  3.4991  4.3159  1.3678
  701TMC3    H210371   3.429   3.373  15.540  0.7555 -0.1483  1.4458
  701TMC3    C710372   3.307   3.520  15.718  0.6361 -0.0412  0.0120
  701TMC3    C810373   3.349   3.208  15.359 -0.8383 -0.2895  0.4055
  701TMC3    O110374   3.385   3.588  15.652 -0.3289 -0.2148 -0.2225
  701TMC3    O210375   3.466   3.244  15.350  0.0957 -0.1239  0.1535
  702MPD2     C10376   3.381   0.643  10.502 -0.3237 -0.1096 -0.6251
  702MPD2    C110377   3.245   0.652  10.528  0.6600  0.3300 -0.2148
  702MPD2    C210378   3.167   0.716  10.437  0.4432 -0.1456  0.0727
  702MPD2    C310379   3.218   0.775  10.326 -0.1971 -0.5688 -0.3108
  702MPD2    C410380   3.354   0.779  10.308 -0.0510 -0.6970  0.1665
  702MPD2    C510381   3.433   0.708  10.394  0.3127  0.2947  0.3995
  702MPD2     H10382   3.060   0.717  10.453  0.6768  1.2187  1.4902
  702MPD2    H110383   3.406   0.839  10.235 -0.6559 -0.3421  0.0252
  702MPD2    H210384   3.447   0.596  10.574  2.3165  0.3814 -2.7608
  702MPD2    H310385   3.539   0.694  10.378 -0.0528 -1.8683 -0.1110
  702MPD2     N10386   3.123   0.848  10.256  0.4598 -0.1117  0.2797
  702MPD2    H510387   3.030   0.867  10.293  0.2299  0.3829 -0.5367
  702MPD2    N110388   3.191   0.613  10.651 -0.1900 -0.1309  0.2752
  702MPD2    H710389   3.096   0.647  10.668 -0.1987 -1.1850  2.3428
  703TMC3    C110390   3.060   1.052  10.182 -0.8753 -0.4155 -0.4692
  703TMC3    C210391   2.935   1.015  10.228  0.6544 -0.0237 -0.8336
  703TMC3    C310392   2.885   1.073  10.339 -0.1326  1.5140  0.7802
  703TMC3    C410393   3.117   1.159  10.247 -0.7353 -0.2123  0.3902
  703TMC3    C510394   3.068   1.205  10.368  0.2403  0.4781 -0.1273
  703TMC3    C610395   2.949   1.164  10.416  0.6063  0.2039  0.1404
  703TMC3     C10396   3.154   0.945  10.161 -0.3205  0.3317  0.1031
  703TMC3     O10397   3.254   0.965  10.091 -0.1528 -0.2191  0.1669
  703TMC3     H10398   2.888   0.932  10.176  2.1193  0.3735 -2.7935
  703TMC3    H110399   3.213   1.199  10.214 -0.2916 -0.3463  1.5309
  703TMC3    H210400   2.910   1.200  10.510  0.1258 -4.3089  1.6537
  703TMC3    C710401   3.173   1.235  10.472 -0.4265 -0.0819 -0.7264
  703TMC3    C810402   2.789   0.991  10.409  0.3091 -0.6395  0.0079
  703TMC3    O110403   3.178   1.164  10.576  0.5066 -0.5395  0.1736
  703TMC3    O210404   2.801   0.876  10.385  0.4890  0.9423  0.3739
  704TMC3    C110405   0.073   3.816  12.514  0.1899 -0.4632  0.0759
  704TMC3    C210406   0.212   3.827  12.529 -0.3889  0.3841  0.0841
  704TMC3    C310407   0.270   3.737  12.615  0.3700  0.1259  0.2224
  704TMC3    C410408   0.004   3.712  12.569 -0.6834 -0.6190 -0.2836
  704TMC3    C510409   0.069   3.626  12.654  0.9443 -0.5317  0.3727
  704TMC3    C610410   0.203   3.637  12.673  0.1471  0.4270 -0.4955
  704TMC3     C10411   0.009   3.859  12.393  0.0175  0.8288 -0.2795
  704TMC3     O10412   4.612   3.861  12.383 -0.2571  0.0267  0.9128
  704TMC3     H10413   0.280   3.887  12.469  0.4009 -0.8267 -0.2358
  704TMC3    H110414   4.624   3.697  12.542 -1.0037  1.2948 -0.0668
  704TMC3    H210415   0.264   3.570  12.733  0.2799  0.8694 -0.1416
  704TMC3    C710416   0.006   3.503  12.664  0.9123  0.2303  0.8597
  704TMC3    C810417   0.418   3.747  12.624 -0.3069 -0.5441  0.0593
  704TMC3    O110418   4.608   3.504  12.669  0.4584 -0.0317  0.2289
  704TMC3    O210419   0.478   3.778  12.521 -0.3437  0.3529  0.1526
  705MPD2     C10420   0.001   2.116  16.956 -0.0345 -1.0682  0.6927
  705MPD2    C110421   4.664   2.159  16.844 -0.4635 -0.1791  0.1627
  705MPD2    C210422   4.529   2.190  16.841 -0.6432  0.0076  0.1277
  705MPD2    C310423   4.451   2.172  16.954  0.5398 -0.4670  0.5631
  705MPD2    C410424   4.520   2.161  17.074  0.3706  0.1272 -0.1051
  705MPD2    C510425   4.656   2.139  17.077 -0.2008 -0.2599  0.5654
  705MPD2     H10426   4.488   2.206  16.742  1.6875 -0.4549 -0.9133
  705MPD2    H110427   4.469   2.154  17.169 -1.6351  0.4934 -1.1658
  705MPD2    H210428   0.104   2.081  16.952  0.6889  0.9737  1.2592
  705MPD2    H310429   4.708   2.120  17.169 -1.4453 -0.3167  1.2608
  705MPD2     N10430   4.310   2.184  16.969 -0.0954  0.5395 -0.1396
  705MPD2    H510431   4.283   2.202  17.065 -0.6410 -4.5082  0.6346
  705MPD2    N110432   0.016   2.156  16.719 -0.6763  0.1402 -0.4715
  705MPD2    H710433   4.691   2.193  16.638  0.1221 -0.7952 -1.3758
  706TMC3    C110434   0.345   2.120  16.391  0.3458 -0.3583  0.1408
  706TMC3    C210435   0.279   2.212  16.320  0.1176 -0.1289 -0.9055
  706TMC3    C310436   0.180   2.285  16.377  0.6122  0.0607  0.4143
  706TMC3    C410437   0.284   2.066  16.505  0.2754  0.4494  0.0579
  706TMC3    C510438   0.179   2.136  16.550 -0.0663  0.7512  0.5597
  706TMC3    C610439   0.119   2.247  16.492 -0.2628 -0.0130  0.6951
  706TMC3     C10440   0.477   2.078  16.362  0.4121  0.4996 -0.1044
  706TMC3     O10441   0.532   2.042  16.462  0.2708  0.4210 -0.0812
  706TMC3     H10442   0.328   2.248  16.230 -2.4173  0.9441 -1.8380
  706TMC3    H110443   0.352   2.015  16.573  1.3375  0.0874 -1.2657
  706TMC3    H210444   0.051   2.314  16.543  1.9891  3.5296 -0.9215
  706TMC3    C710445   0.147   2.114  16.694 -0.5992  0.3339  0.3600
  706TMC3    C810446   0.153   2.415  16.311 -0.5829 -1.0540 -0.2124
  706TMC3    O110447   0.233   2.057  16.760 -0.1196 -0.0809 -0.2957
  706TMC3    O210448   0.229   2.447  16.224  0.6140  0.1646  0.1087
  707TMC3    C110449   0.362   0.981   0.691  0.4820  0.5178  0.6485
  707TMC3    C210450   0.391   0.853   0.723 -0.4986 -0.0711  0.0627
  707TMC3    C310451   0.316   0.757   0.658 -0.3885  0.2369  0.0141
  707TMC3    C410452   0.265   1.020   0.608  0.4963  0.2861 -0.6229
  707TMC3    C510453   0.186   0.921   0.551  0.0396  0.8069  0.3557
  707TMC3    C610454   0.220   0.788   0.566  0.3054  0.5139 -0.0378
  707TMC3     C10455   0.473   1.074   0.738  0.3733  0.9163  0.8196
  707TMC3     O10456   0.584   1.031   0.764 -0.6216 -0.6849  0.5413
  707TMC3     H10457   0.453   0.833   0.810 -1.4891 -1.8576  0.3557
  707TMC3    H110458   0.230   1.123   0.607 -2.6308 -0.7769 -0.3604
  707TMC3    H210459   0.166   0.706   0.519  1.3894  0.7222 -1.6349
  707TMC3    C710460   0.045   0.950   0.512 -0.1168  0.1329  0.2151
  707TMC3    C810461   0.357   0.618   0.661 -0.3249  0.5894 -0.4139
  707TMC3    O110462   0.021   1.064   0.470  0.0280  0.3752 -0.1562
  707TMC3    O210463   0.312   0.542   0.575  0.1034  0.2206  0.0847
  708MPD2     C10464   3.153   0.343  13.835  0.0453  0.7313  0.4959
  708MPD2    C110465   3.046   0.376  13.910 -0.6011 -0.4029  0.2581
  708MPD2    C210466   3.029   0.315  14.034  0.0635  0.5004 -0.0806
  708MPD2    C310467   3.099   0.205  14.077 -0.1513 -0.8196 -0.3374
  708MPD2    C410468   3.213   0.174  14.012  0.6619  0.2412  0.0629
  708MPD2    C510469   3.237   0.248  13.899 -0.2015  0.4169  0.3179
  708MPD2     H10470   2.944   0.343  14.094  0.1029 -1.3367  0.8292
  708MPD2    H110471   3.281   0.097  14.046  1.3287  0.5420 -0.6144
  708MPD2    H210472   3.186   0.395  13.746 -0.2049  0.5196  0.2818
  708MPD2    H310473   3.331   0.232  13.848  0.7684 -1.7420  2.8195
  708MPD2     N10474   3.055   0.152  14.200  0.0539 -0.6151 -0.2676
  708MPD2    H510475   2.968   0.188  14.241  0.1120 -2.3193  1.3540
  708MPD2    N110476   2.953   0.478  13.882 -0.1624 -0.1398  0.4144
  708MPD2    H710477   2.889   0.514  13.953 -0.5342 -1.0389  0.5301
  709TMC3    C110478   2.828   0.618  13.754  0.0999  0.0358 -0.2009
  709TMC3    C210479   2.731   0.584  13.664  0.5745 -0.1468 -0.7341
  709TMC3    C310480   2.601   0.586  13.703 -0.1101  0.1948  0.3541
  709TMC3    C410481   2.790   0.661  13.880  0.1350 -0.1926  0.6484
  709TMC3    C510482   2.658   0.654  13.916 -0.1172  0.2331  0.1498
  709TMC3    C610483   2.558   0.616  13.824  0.5920 -0.7803 -0.5075
  709TMC3     C10484   2.944   0.535  13.758  0.1250 -0.2034  0.1185
  709TMC3     O10485   2.995   0.496  13.653  0.1294 -0.2018 -0.4466
  709TMC3     H10486   2.756   0.578  13.558 -1.7860  1.0813 -1.3653
  709TMC3    H110487   2.861   0.683  13.958 -0.5881 -0.8393  1.4912
  709TMC3    H210488   2.453   0.621  13.851  1.1432  1.1641  1.3732
  709TMC3    C710489   2.647   0.587  14.042  0.3285 -0.6580 -0.1139
  709TMC3    C810490   2.500   0.581  13.600 -0.6694  0.0105 -0.2472
  709TMC3    O110491   2.744   0.581  14.120 -0.0306 -0.3614  0.8116
  709TMC3    O210492   2.391   0.620  13.646  0.3760 -0.3145 -0.2702
  710TMC3    C110493   3.828   1.948   0.111  0.1533  0.1685  0.8869
  710TMC3    C210494   3.900   1.912   0.004 -0.4092 -0.3919 -0.1083
  710TMC3    C310495   4.030   1.882   0.026  0.3036  0.1286  0.0481
  710TMC3    C410496   3.882   1.933   0.237 -0.3014 -0.3755 -0.6443
  710TMC3    C510497   4.008   1.884   0.247  0.0592 -0.2091 -0.2758
  710TMC3    C610498   4.091   1.868   0.141  0.2403  0.0631 -0.8686
  710TMC3     C10499   3.686   1.979   0.087  0.3308 -0.1588  0.6227
  710TMC3     O10500   3.637   1.942  17.678  0.5037  0.1515 -0.2593
  710TMC3     H10501   3.852   1.903  17.603 -1.1134  1.7907  0.0340
  710TMC3    H110502   3.819   1.936   0.325 -2.9426 -0.0982 -2.5596
  710TMC3    H210503   4.196   1.841   0.144 -0.1644 -1.3785  0.5260
  710TMC3    C710504   4.032   1.811   0.374 -0.4718  0.2047  0.1161
  710TMC3    C810505   4.127   1.876  17.608  0.4997 -0.1575  0.1805
  710TMC3    O110506   3.956   1.847   0.459 -0.2434 -0.1647  0.4198
  710TMC3    O210507   4.091   1.820  17.503 -0.0419  0.2056  0.4025
  711TMC3    C110508   3.624   2.468  15.313 -0.9028 -0.1031 -0.3411
  711TMC3    C210509   3.642   2.596  15.351  0.5975  0.1617 -0.4488
  711TMC3    C310510   3.718   2.609  15.461  0.6427 -0.0094 -0.4411
  711TMC3    C410511   3.661   2.361  15.388  0.0792  0.0475 -0.4430
  711TMC3    C510512   3.731   2.378  15.507  0.3924  0.6969 -0.0082
  711TMC3    C610513   3.758   2.504  15.546 -0.8554 -0.2463 -0.4200
  711TMC3     C10514   3.611   2.449  15.168 -0.5023  0.6633  0.0565
  711TMC3     O10515   3.520   2.376  15.131 -0.8281  0.1500  0.1428
  711TMC3     H10516   3.605   2.675  15.286 -3.2726 -1.3253 -0.0395
  711TMC3    H110517   3.654   2.268  15.333 -2.3713  0.5039 -0.9284
  711TMC3    H210518   3.812   2.519  15.639 -1.9666  0.4113  0.1141
  711TMC3    C710519   3.830   2.286  15.553  0.5598  0.0764  0.1893
  711TMC3    C810520   3.776   2.736  15.484  0.3057  0.0822  0.0727
  711TMC3    O110521   3.926   2.324  15.621  0.0274 -0.0323 -0.3453
  711TMC3    O210522   3.700   2.823  15.442 -0.6516  0.0676  0.6920
  712MPD2     C10523   0.628   3.740  13.591 -0.6199  0.4150 -0.3264
  712MPD2    C110524   0.537   3.793  13.504  0.3071  0.0473  0.3049
  712MPD2    C210525   0.563   3.912  13.440  0.0525 -0.4831 -0.4140
  712MPD2    C310526   0.682   3.980  13.463  0.4475 -0.5698  0.1605
  712MPD2    C410527   0.779   3.926  13.547  0.0048 -0.0551 -0.3022
  712MPD2    C510528   0.749   3.810  13.610 -0.3886  0.5362 -0.1069
  712MPD2     H10529   0.486   3.941  13.369  1.0512  0.7300 -1.0107
  712MPD2    H110530   0.877   3.973  13.556 -0.4087  0.6035  0.7672
  712MPD2    H210531   0.616   3.649  13.649  0.7821  0.7329  0.4518
  712MPD2    H310532   0.824   3.771  13.677 -0.6438 -0.4935 -0.4168
  712MPD2     N10533   0.709   4.110  13.414  0.4519 -0.6479  0.3771
  712MPD2    H510534   0.800   4.144  13.444 -0.1937 -0.4213  2.0797
  712MPD2    N110535   0.407   3.734  13.484 -0.0719  0.2112 -0.3009
  712MPD2    H710536   0.341   3.781  13.422 -1.9976  0.0137  1.5745
  713TMC3    C110537   0.681   4.314  13.316 -0.1465 -0.7755  0.3249
  713TMC3    C210538   0.816   4.323  13.305 -0.2245 -0.0814  0.1075
  713TMC3    C310539   0.876   4.439  13.268 -0.1675 -0.0193  0.2754
  713TMC3    C410540   0.601   4.421  13.282  0.5775  0.5060 -0.0246
  713TMC3    C510541   0.666   4.538  13.248 -0.5322  0.3605 -0.8521
  713TMC3    C610542   0.801   4.552  13.234 -0.1848  0.8513  0.1210
  713TMC3     C10543   0.622   4.195  13.353  0.0675 -0.2101  0.4222
  713TMC3     O10544   0.501   4.195  13.374  0.1764  0.0358 -1.0828
  713TMC3     H10545   0.890   4.246  13.325 -0.4803 -0.4108 -0.2070
  713TMC3    H110546   0.494   4.427  13.301  0.3501 -3.0453 -0.2372
  713TMC3    H210547   0.843   4.646  13.200  1.1360 -0.5873 -2.2436
  713TMC3    C710548   0.591   4.663  13.230 -0.2620 -0.3032  0.2624
  713TMC3    C810549   1.023   4.465  13.279 -0.3268  0.5857 -0.4060
  713TMC3    O110550   0.648   0.033  13.175 -0.0166 -0.1871 -0.2625
  713TMC3    O210551   1.068   4.581  13.263  0.3999 -0.1887  0.2082
  714MPD2     C10552   2.129   2.913   0.838  0.6606 -0.0681 -0.0379
  714MPD2    C110553   2.192   2.805   0.791  0.1128 -0.6360  0.2351
  714MPD2    C210554   2.144   2.745   0.673  0.1457  0.3165  0.2146
  714MPD2    C310555   2.041   2.795   0.596 -0.0406  0.6465  0.3892
  714MPD2    C410556   1.980   2.911   0.647  0.3881 -0.5154  0.4035
  714MPD2    C510557   2.028   2.968   0.765 -0.1700 -0.1043  0.1368
  714MPD2     H10558   2.204   2.665   0.630 -0.4473 -0.0520  0.0660
  714MPD2    H110559   1.891   2.954   0.603  2.3125 -0.5175 -3.5604
  714MPD2    H210560   2.150   2.961   0.932  0.6146 -0.2234  0.0509
  714MPD2    H310561   1.968   3.047   0.809 -0.1322 -0.2370  0.4240
  714MPD2     N10562   2.017   2.741   0.478  0.0361  0.2456  0.4873
  714MPD2    H510563   2.062   2.652   0.463  0.1523  0.4479 -0.3771
  714MPD2    N110564   2.300   2.764   0.869  0.0019  0.1086  0.0800
  714MPD2    H710565   2.332   2.830   0.939  1.5295  0.5540 -1.0379
  715TMC3    C110566   2.469   2.602   0.952  0.9587  0.5852  0.3511
  715TMC3    C210567   2.539   2.487   0.924 -1.1549  0.1186  0.4260
  715TMC3    C310568   2.663   2.467   0.988  0.2192 -0.6519  0.1465
  715TMC3    C410569   2.523   2.698   1.026 -0.0725 -0.3946 -0.2047
  715TMC3    C510570   2.638   2.678   1.090 -0.4635 -0.7273 -0.0348
  715TMC3    C610571   2.715   2.566   1.064  0.6706  0.8514  0.1562
  715TMC3     C10572   2.363   2.640   0.853  0.0273 -0.7186  0.5038
  715TMC3     O10573   2.353   2.563   0.762  0.6274  0.0076 -0.1282
  715TMC3     H10574   2.494   2.412   0.861 -1.3859  0.9380 -0.3873
  715TMC3    H110575   2.483   2.798   1.027 -1.6912 -1.0478 -1.1658
  715TMC3    H210576   2.805   2.560   1.124 -1.4770  0.0371  3.2729
  715TMC3    C710577   2.684   2.766   1.189 -0.1843 -0.2130 -0.5200
  715TMC3    C810578   2.729   2.333   0.979 -0.0351 -0.0573 -0.5709
  715TMC3    O110579   2.801   2.756   1.224 -0.1605 -0.2499 -0.3506
  715TMC3    O210580   2.664   2.229   0.985 -0.0729 -0.6227  0.3723
  716MPD2     C10581   3.383   0.686   9.934 -0.2743  0.0682  0.1178
  716MPD2    C110582   3.384   0.756   9.815  0.6800  0.1933  0.6873
  716MPD2    C210583   3.400   0.681   9.700  0.4166  0.1506 -0.6210
  716MPD2    C310584   3.425   0.545   9.706  0.6549  0.5099 -0.2206
  716MPD2    C410585   3.439   0.479   9.829 -0.2834  0.0828  0.1748
  716MPD2    C510586   3.419   0.554   9.949 -0.5587  0.2925 -0.2886
  716MPD2     H10587   3.390   0.728   9.603  1.0842 -2.1245 -1.7943
  716MPD2    H110588   3.447   0.372   9.845  0.7540  0.1267 -0.0592
  716MPD2    H210589   3.378   0.739  10.029  2.4054 -0.8661  0.7775
  716MPD2    H310590   3.422   0.510  10.048 -3.2595 -0.2923 -0.4591
  716MPD2     N10591   3.433   0.474   9.589  0.1614 -0.5432 -0.2186
  716MPD2    H510592   3.430   0.520   9.498 -1.3492  0.8963  0.5504
  716MPD2    N110593   3.359   0.892   9.823  0.3966 -0.1953 -0.7259
  716MPD2    H710594   3.329   0.924   9.915  0.0106 -1.1327 -0.5308
  717TMC3    C110595   3.425   0.298   9.437  0.1328 -0.0394  0.7275
  717TMC3    C210596   3.317   0.363   9.372  0.6620  0.0329  0.1659
  717TMC3    C310597   3.273   0.312   9.255 -0.7667  0.3114  0.7698
  717TMC3    C410598   3.465   0.175   9.398 -0.0406 -0.2332  0.5891
  717TMC3    C510599   3.409   0.120   9.286 -0.1461 -0.0320 -0.3512
  717TMC3    C610600   3.321   0.190   9.206 -0.5995 -0.5339 -0.2576
  717TMC3     C10601   3.456   0.336   9.573  0.7910  0.2392 -0.9350
  717TMC3     O10602   3.490   0.249   9.650  0.2405 -0.1755  0.1644
  717TMC3     H10603   3.282   0.459   9.408 -0.1093 -0.7183  1.4312
  717TMC3    H110604   3.543   0.125   9.454 -0.4176 -1.1593  0.3036
  717TMC3    H210605   3.292   0.157   9.107 -0.9704 -1.3700  0.1379
  717TMC3    C710606   3.417   4.697   9.272  0.3898 -0.0803  0.0796
  717TMC3    C810607   3.189   0.386   9.174  0.2531 -0.4971 -0.0236
  717TMC3    O110608   3.514   4.638   9.314  0.2913  0.1723 -0.5465
  717TMC3    O210609   3.185   0.504   9.191  0.3671 -0.4958  0.6959
  718MPD2     C10610   1.945   4.347  12.440 -0.2148 -0.2015 -0.1055
  718MPD2    C110611   1.882   4.469  12.404 -0.3008  0.8868 -0.4132
  718MPD2    C210612   1.779   4.515  12.482 -0.1382  0.7442  0.9248
  718MPD2    C310613   1.718   4.435  12.576  0.2901 -0.4655 -0.9685
  718MPD2    C410614   1.775   4.315  12.604 -0.0503 -0.4376  0.0720
  718MPD2    C510615   1.891   4.270  12.549 -0.0398  0.0226 -0.2844
  718MPD2     H10616   1.735   4.613  12.469  0.0032  0.7180  0.2489
  718MPD2    H110617   1.728   4.256  12.682  1.8377  1.5392  2.6975
  718MPD2    H210618   2.032   4.319  12.382 -0.4205  1.7477 -1.3557
  718MPD2    H310619   1.943   4.180  12.579  0.8755  1.0875  1.3039
  718MPD2     N10620   1.603   4.486  12.638  0.2783 -0.2793 -0.1294
  718MPD2    H510621   1.589   4.586  12.630 -1.5815 -0.8146 -3.2678
  718MPD2    N110622   1.929   4.531  12.288 -0.1361 -0.5523 -0.0247
  718MPD2    H710623   2.002   4.480  12.240 -0.5226 -0.3938 -0.7834
  719TMC3    C110624   1.954   4.719  12.150 -0.0485  0.2280 -0.3308
  719TMC3    C210625   1.877   0.108  12.116 -0.2845 -0.0212  0.4829
  719TMC3    C310626   1.909   0.238  12.134  0.4736 -0.4265  0.3333
  719TMC3    C410627   2.083   0.015  12.199  0.0774  0.6953  0.3186
  719TMC3    C510628   2.121   0.147  12.203  0.5106 -0.4009  0.0264
  719TMC3    C610629   2.045   0.261  12.165  0.3196 -0.1744 -0.3016
  719TMC3     C10630   1.865   4.627  12.216  0.2290  0.2078 -0.7014
  719TMC3     O10631   1.757   4.681  12.243  0.3660  0.0642 -0.0745
  719TMC3     H10632   1.776   0.096  12.078  0.5631  0.2608 -1.9067
  719TMC3    H110633   2.139   4.648  12.220 -0.0664  0.5629  0.1330
  719TMC3    H210634   2.083   0.360  12.187  1.6313 -0.7451  0.0006
  719TMC3    C710635   2.269   0.151  12.202  0.2696  0.1584  0.3505
  719TMC3    C810636   1.818   0.315  12.218  0.0067  0.0947  0.5778
  719TMC3    O110637   2.333   0.047  12.207  0.3683 -0.1020  0.8403
  719TMC3    O210638   1.843   0.431  12.245  0.2377  0.0317 -0.7083
  720MPD2     C10639   0.236   1.191  13.996  0.4573  0.0828 -0.1215
  720MPD2    C110640   0.338   1.185  13.905 -0.3447  0.4893 -0.0938
  720MPD2    C210641   0.453   1.118  13.940  0.5030 -0.2923 -0.1822
  720MPD2    C310642   0.466   1.053  14.063  0.1934 -0.0249  0.9522
  720MPD2    C410643   0.368   1.062  14.154  0.5983  0.0158  0.1494
  720MPD2    C510644   0.257   1.135  14.119  0.3969  0.7722  0.2484
  720MPD2     H10645   0.531   1.110  13.865 -0.5542  1.9088 -1.5364
  720MPD2    H110646   0.368   1.020  14.254 -2.3967  0.9857  0.5500
  720MPD2    H210647   0.141   1.239  13.978 -0.1527 -0.9512  0.3631
  720MPD2    H310648   0.175   1.130  14.191 -0.6511 -3.0767 -1.1844
  720MPD2     N10649   0.597   1.012  14.100  0.1783  0.7891  0.2171
  720MPD2    H510650   0.664   1.013  14.023  1.5368 -0.4279  1.4035
  720MPD2    N110651   0.320   1.247  13.775  0.2639  0.7091  0.2481
  720MPD2    H710652   0.402   1.241  13.716  1.9776  1.8361  2.5278
  721TMC3    C110653   0.786   0.948  14.230 -0.6854  0.4078  0.1164
  721TMC3    C210654   0.832   0.880  14.332  0.6285  0.2524  0.2100
  721TMC3    C310655   0.965   0.892  14.361  0.3745  0.2095  0.3999
  721TMC3    C410656   0.863   1.037  14.160 -0.5408  0.0381  0.4897
  721TMC3    C510657   0.998   1.040  14.185 -0.2663  0.0076  0.3474
  721TMC3    C610658   1.056   0.966  14.294  0.0777  1.6524  0.1645
  721TMC3     C10659   0.638   0.962  14.221 -0.3363  0.0787  0.6334
  721TMC3     O10660   0.583   0.943  14.329  0.0466  0.1486  0.5920
  721TMC3     H10661   0.752   0.825  14.381  0.7898 -0.5698 -0.4414
  721TMC3    H110662   0.829   1.088  14.070  0.3807 -0.3271 -0.0621
  721TMC3    H210663   1.162   0.968  14.318 -0.0184 -1.0305  0.8089
  721TMC3    C710664   1.080   1.128  14.108  0.3437  0.4196 -0.3414
  721TMC3    C810665   1.013   0.804  14.466 -0.3981  0.2929  0.1268
  721TMC3    O110666   1.198   1.125  14.129  0.1616 -0.8138  0.3410
  721TMC3    O210667   1.134   0.770  14.462 -0.2684 -0.3275 -0.3007
  722MPD2     C10668   4.162   4.303  13.359  0.4300 -0.5521  0.1224
  722MPD2    C110669   4.125   4.423  13.313  0.8059  0.3362  0.7311
  722MPD2    C210670   4.010   4.432  13.230  0.4688  0.4147 -1.1801
  722MPD2    C310671   3.933   4.326  13.194  0.5141  0.5139 -0.3892
  722MPD2    C410672   3.976   4.197  13.238  0.0208  0.3261 -0.2458
  722MPD2    C510673   4.092   4.195  13.311  0.5077  0.3876  0.7458
  722MPD2     H10674   3.982   4.530  13.194  1.8362  1.7573  1.4340
  722MPD2    H110675   3.926   4.104  13.215  2.5039 -0.6225 -1.9202
  722MPD2    H210676   4.247   4.294  13.426 -1.1977  0.4866  2.3289
  722MPD2    H310677   4.131   4.095  13.324 -1.1599 -0.1086  2.0538
  722MPD2     N10678   3.813   4.348  13.125  0.0889  0.0712 -0.5161
  722MPD2    H510679   3.807   4.442  13.085  1.6361  0.5799  0.4607
  722MPD2    N110680   4.202   4.544  13.337  0.4067  0.1281  0.0726
  722MPD2    H710681   4.147   4.629  13.328  2.4727  1.5263  0.8193
  723TMC3    C110682   3.618   4.321  12.995 -0.0879  0.4073  0.1723
  723TMC3    C210683   3.538   4.228  12.924 -0.4636 -0.1261 -0.1821
  723TMC3    C310684   3.423   4.280  12.877 -0.4634  0.1000  0.8907
  723TMC3    C410685   3.573   4.444  13.033  0.2965  0.0068  0.5665
  723TMC3    C510686   3.455   4.482  12.990  0.6701 -0.2060  0.0998
  723TMC3    C610687   3.377   4.409  12.908  0.4769 -0.3822  0.4745
  723TMC3     C10688   3.710   4.261  13.084 -0.0213  0.8549  0.5516
  723TMC3     O10689   3.699   4.142  13.109 -0.3558 -0.2681 -0.3670
  723TMC3     H10690   3.576   4.128  12.910 -0.9399 -0.2026 -0.8912
  723TMC3    H110691   3.631   4.514  13.092 -0.3408  2.7556 -2.0600
  723TMC3    H210692   3.276   4.439  12.882  0.9465  0.5873 -0.2339
  723TMC3    C710693   3.404   4.611  13.031  0.2559  1.1952  0.9588
  723TMC3    C810694   3.342   4.211  12.767  0.3756  0.1744  0.4420
  723TMC3    O110695   3.468   4.678  13.114 -0.0451  0.0555 -0.6546
  723TMC3    O210696   3.256   4.278  12.712 -0.1187 -0.0046 -0.7868
  724TMC3    C110697   0.278   2.560   9.765  0.2628 -0.0710 -0.4711
  724TMC3    C210698   0.342   2.619   9.663 -0.0135  0.5171 -0.0257
  724TMC3    C310699   0.394   2.743   9.671 -0.7939  0.0886  0.1420
  724TMC3    C410700   0.285   2.617   9.887 -0.5816  0.4782  0.7586
  724TMC3    C510701   0.344   2.740   9.897  0.4169 -0.0717  0.5387
  724TMC3    C610702   0.393   2.804   9.785 -0.3956 -0.4141  0.5079
  724TMC3     C10703   0.188   2.439   9.753  0.5691  0.0296  0.1218
  724TMC3     O10704   0.170   2.374   9.856  0.3511  0.4055  0.4916
  724TMC3     H10705   0.340   2.572   9.565 -1.3913 -0.8251  0.6473
  724TMC3    H110706   0.236   2.570   9.971  0.1170 -1.5925  0.0024
  724TMC3    H210707   0.435   2.902   9.799  1.0836 -1.0074  0.1869
  724TMC3    C710708   0.317   2.827  10.010  0.4903  0.0684  0.8225
  724TMC3    C810709   0.392   2.819   9.548  0.0781 -0.1759  0.2244
  724TMC3    O110710   0.334   2.944   9.995  0.0280 -0.0883 -0.1142
  724TMC3    O210711   0.464   2.770   9.465 -0.0041 -0.0982  0.5298
  725TMC3    C110712   1.347   1.371  12.787 -0.3236  0.2058  0.4977
  725TMC3    C210713   1.230   1.437  12.777  0.6565 -0.3721  0.1787
  725TMC3    C310714   1.161   1.421  12.657 -0.0330 -0.0481 -0.4608
  725TMC3    C410715   1.385   1.268  12.703 -0.0552  0.1043  0.2262
  725TMC3    C510716   1.300   1.242  12.602  0.5855 -0.0948  0.4030
  725TMC3    C610717   1.194   1.324  12.566  0.9423 -0.3090 -0.3562
  725TMC3     C10718   1.453   1.456  12.838  0.5929  0.0957  0.0938
  725TMC3     O10719   1.417   1.542  12.921  0.4147 -0.5998  0.0617
  725TMC3     H10720   1.207   1.523  12.839 -2.4874  0.7194 -2.4783
  725TMC3    H110721   1.473   1.208  12.723  0.0335  0.3840  0.6936
  725TMC3    H210722   1.130   1.303  12.482 -0.3550 -1.6363  0.9604
  725TMC3    C710723   1.336   1.133  12.509  0.1178 -0.6208 -0.1633
  725TMC3    C810724   1.047   1.512  12.638 -0.6861 -0.2403  0.2997
  725TMC3    O110725   1.450   1.094  12.511  0.5527 -0.5131 -0.3625
  725TMC3    O210726   0.994   1.564  12.734 -0.8560 -0.2406  0.5235
  726MPD2     C10727   4.052   2.888  10.486 -0.2680  0.0684 -0.6863
  726MPD2    C110728   3.967   2.969  10.409 -0.8640 -0.5789 -0.0075
  726MPD2    C210729   3.828   2.943  10.417 -0.1299 -0.1420 -0.0958
  726MPD2    C310730   3.777   2.852  10.511 -0.3920 -0.4059 -0.7259
  726MPD2    C410731   3.863   2.788  10.592 -0.2777  0.4717 -0.0489
  726MPD2    C510732   4.000   2.798  10.576  0.6216 -0.9001 -0.2049
  726MPD2     H10733   3.755   2.995  10.356  2.0118  1.8945 -0.8977
  726MPD2    H110734   3.820   2.712  10.655  2.8328  1.1869  2.9168
  726MPD2    H210735   4.160   2.891  10.480 -0.1132 -1.0189  1.7040
  726MPD2    H310736   4.064   2.736  10.638  0.4611 -0.7288  0.1362
  726MPD2     N10737   3.639   2.831  10.530 -0.0119  0.2771  0.1236
  726MPD2    H510738   3.623   2.755  10.594  2.0400  0.5915  1.0044
  726MPD2    N110739   4.016   3.084  10.336 -0.3078  0.2415 -0.4026
  726MPD2    H710740   3.944   3.148  10.302 -1.7703  0.4609  3.1357
  727TMC3    C110741   4.160   3.251  10.254  0.7579 -0.0193  0.8763
  727TMC3    C210742   4.280   3.306  10.291  0.2298 -0.0891  0.3491
  727TMC3    C310743   4.289   3.434  10.251  0.2510  0.9102 -0.3256
  727TMC3    C410744   4.058   3.306  10.183 -0.4516  0.4056 -0.9332
  727TMC3    C510745   4.075   3.439  10.151 -0.0723  0.6065 -0.1399
  727TMC3    C610746   4.188   3.500  10.191  0.5405 -0.0796 -0.3942
  727TMC3     C10747   4.149   3.113  10.303  0.0922  0.8602 -0.0863
  727TMC3     O10748   4.249   3.046  10.322 -0.1397  0.1925 -0.1174
  727TMC3     H10749   4.357   3.245  10.338  0.3546  0.2865  0.6234
  727TMC3    H110750   3.980   3.249  10.135  0.1136 -1.0738 -0.0863
  727TMC3    H210751   4.202   3.607  10.177  0.3817  0.0411  0.3704
  727TMC3    C710752   3.972   3.522  10.090 -0.6454  0.1272  0.2448
  727TMC3    C810753   4.400   3.512  10.299  0.7935 -0.1861 -0.5150
  727TMC3    O110754   4.008   3.636  10.077  0.1453  0.7061 -0.3068
  727TMC3    O210755   4.398   3.629  10.271  0.0412 -0.2370  0.2042
  728TMC3    C110756   3.392   1.410  15.064  0.1597  0.6406  0.2525
  728TMC3    C210757   3.526   1.465  15.064  0.4961  0.1294  0.3495
  728TMC3    C310758   3.577   1.494  14.946  0.0385 -0.1407 -0.3230
  728TMC3    C410759   3.317   1.390  14.951  0.2880  0.2671  0.3091
  728TMC3    C510760   3.373   1.449  14.841  0.4287 -0.7658 -0.1999
  728TMC3    C610761   3.499   1.491  14.832  0.2784 -0.3772 -0.3417
  728TMC3     C10762   3.323   1.414  15.195 -0.0113  0.3743  0.9167
  728TMC3     O10763   3.396   1.464  15.281 -0.4520  0.1787 -0.4700
  728TMC3     H10764   3.591   1.479  15.149  0.3288 -0.4772  0.5802
  728TMC3    H110765   3.220   1.345  14.934  0.8162 -0.3459 -1.1536
  728TMC3    H210766   3.547   1.522  14.739 -1.4683 -0.1090 -1.1474
  728TMC3    C710767   3.307   1.451  14.709  0.1542  0.2816 -0.0082
  728TMC3    C810768   3.708   1.555  14.946 -0.5553 -0.4790 -0.1880
  728TMC3    O110769   3.243   1.350  14.685  0.1951  0.0091  1.2363
  728TMC3    O210770   3.784   1.537  15.040  0.1715  0.1492 -0.2917
  729MPD2     C10771   0.244   2.854  16.992  0.2016 -0.3146  0.3888
  729MPD2    C110772   0.340   2.764  17.033  0.4522  0.2903 -0.7360
  729MPD2    C210773   0.346   2.736  17.169  0.1876  0.3126 -0.0977
  729MPD2    C310774   0.252   2.781  17.267  0.0615  0.3680  0.5123
  729MPD2    C410775   0.153   2.860  17.214  0.1234 -0.0518 -0.0156
  729MPD2    C510776   0.151   2.897  17.078  0.3478  0.0489 -0.0643
  729MPD2     H10777   0.426   2.673  17.205  0.6005  0.7762 -0.2097
  729MPD2    H110778   0.078   2.894  17.284  1.4110  1.3429  0.6772
  729MPD2    H210779   0.238   2.898  16.893 -2.8730 -1.0125  0.2627
  729MPD2    H310780   0.068   2.956  17.040 -0.9470 -1.5543  0.2552
  729MPD2     N10781   0.259   2.759  17.405 -0.4642  0.0327  0.5525
  729MPD2    H510782   0.194   2.806  17.467  2.3463  4.0134  0.5049
  729MPD2    N110783   0.432   2.725  16.927  0.6834  0.1604  0.8494
  729MPD2    H710784   0.422   2.776  16.840  0.9026 -1.2780 -0.0092
  730TMC3    C110785   0.382   2.757  17.599  0.1946  0.9586 -0.3303
  730TMC3    C210786   0.285   2.740  17.689 -0.1316 -0.1277  0.2562
  730TMC3    C310787   0.269   2.846   0.080 -0.2052  0.2510 -0.4815
  730TMC3    C410788   0.471   2.860  17.593 -0.6115 -0.5494  0.2373
  730TMC3    C510789   0.437   2.966  17.671 -0.3572  0.2484 -0.3304
  730TMC3    C610790   0.334   2.967   0.068 -0.0308  0.1483 -0.1621
  730TMC3     C10791   0.357   2.688  17.469 -0.3093 -0.1853  0.1514
  730TMC3     O10792   0.456   2.633  17.427  0.0534 -0.3453 -0.8936
  730TMC3     H10793   0.218   2.655  17.692 -0.9187  0.4824 -0.2556
  730TMC3    H110794   0.542   2.868  17.512 -2.4209 -0.1499 -1.3006
  730TMC3    H210795   0.304   3.058   0.120  0.0037 -0.6436  1.2531
  730TMC3    C710796   0.465   3.090  17.603 -0.4906 -0.5271 -0.7289
  730TMC3    C810797   0.183   2.812   0.194  0.3468 -0.1878 -0.4374
  730TMC3    O110798   0.462   3.092  17.479 -0.1494 -0.0571 -0.6789
  730TMC3    O210799   0.106   2.718   0.178 -0.5361 -0.4205 -0.1193
  731MPD2     C10800   0.912   0.979  11.875 -0.4125 -0.3454  0.3341
  731MPD2    C110801   0.843   0.866  11.897 -0.4465 -0.0736  0.7582
  731MPD2    C210802   0.803   0.835  12.029 -0.7402 -0.9339 -0.2589
  731MPD2    C310803   0.797   0.936  12.120  0.0099 -0.8554 -0.7522
  731MPD2    C410804   0.857   1.054  12.091 -0.2771  0.1335  0.7057
  731MPD2    C510805   0.929   1.064  11.975 -0.2208  0.0908 -0.1588
  731MPD2     H10806   0.751   0.748  12.070 -1.0427 -1.2748 -1.3842
  731MPD2    H110807   0.880   1.135  12.158  2.8216 -1.5250  1.6537
  731MPD2    H210808   0.949   0.994  11.774 -1.9320  0.2061 -0.1389
  731MPD2    H310809   0.981   1.156  11.952  0.2700 -0.3650 -0.8447
  731MPD2     N10810   0.727   0.917  12.243 -0.8930 -0.1383  0.2724
  731MPD2    H510811   0.670   0.832  12.248 -1.0568 -0.0623 -0.4366
  731MPD2    N110812   0.814   0.773  11.791 -0.0476  0.1422  0.3630
  731MPD2    H710813   0.857   0.804  11.704  0.7496 -0.1597  0.6549
  732TMC3    C110814   0.704   0.590  11.685 -0.0262  0.1803  0.0181
  732TMC3    C210815   0.584   0.537  11.655  0.6812 -0.0189  0.5964
  732TMC3    C310816   0.578   0.426  11.570  0.5766  0.4706  0.1729
  732TMC3    C410817   0.815   0.548  11.621  0.7098  0.5229 -0.2216
  732TMC3    C510818   0.807   0.454  11.525  0.6010 -1.1079  0.1113
  732TMC3    C610819   0.686   0.394  11.496  0.1348 -0.0216 -0.2201
  732TMC3     C10820   0.721   0.669  11.805  0.0579  0.1748 -0.0858
  732TMC3     O10821   0.634   0.651  11.892  0.4116  0.4740  0.1667
  732TMC3     H10822   0.505   0.576  11.719  0.7813  1.0740  0.0552
  732TMC3    H110823   0.912   0.580  11.659 -0.2753  1.1117  1.7582
  732TMC3    H210824   0.684   0.316  11.421 -3.3454  1.0191 -1.1985
  732TMC3    C710825   0.926   0.377  11.481 -0.0090 -0.3532 -0.2638
  732TMC3    C810826   0.451   0.379  11.527  0.1430 -0.4314 -0.2576
  732TMC3    O110827   0.924   0.325  11.371 -0.0056 -0.2140 -0.6792
  732TMC3    O210828   0.438   0.337  11.414  0.1587 -0.2504  0.5280
  733TMC3    C110829   1.173   4.522  12.824  0.3051 -0.2356 -0.3050
  733TMC3    C210830   1.287   4.448  12.819  0.2110  0.2758 -1.2085
  733TMC3    C310831   1.393   4.508  12.746  0.8855  0.1053 -0.0409
  733TMC3    C410832   1.171   4.646  12.770  0.0432  0.5730 -0.8778
  733TMC3    C510833   1.276   4.696  12.688  0.9651  0.2766  0.2312
  733TMC3    C610834   1.391   4.626  12.673 -0.3220 -0.7778 -0.6528
  733TMC3     C10835   1.043   4.461  12.857 -0.0923 -0.3985 -0.2910
  733TMC3     O10836   0.943   4.519  12.812  0.3264 -0.4797  0.3447
  733TMC3     H10837   1.295   4.341  12.835  0.1953  0.3125 -0.9463
  733TMC3    H110838   1.075   4.695  12.754 -0.4232 -0.4974 -1.3178
  733TMC3    H210839   1.475   4.666  12.617  0.4833 -1.5798 -0.0218
  733TMC3    C710840   1.259   0.099  12.618  0.2465  0.0742  0.6660
  733TMC3    C810841   1.502   4.418  12.705  0.1365 -0.3248  0.2233
  733TMC3    O110842   1.209   0.193  12.678 -0.0462  0.3308 -0.5604
  733TMC3    O210843   1.493   4.298  12.735  0.7556 -0.2325 -0.4955
  734MPD2     C10844   3.350   1.847  11.807 -0.7824 -0.2976  0.0637
  734MPD2    C110845   3.361   1.736  11.732 -0.1659  0.4254 -0.0724
  734MPD2    C210846   3.451   1.744  11.629  0.1972  0.3317 -0.1408
  734MPD2    C310847   3.530   1.859  11.608  0.3366  0.2225  0.2655
  734MPD2    C410848   3.512   1.971  11.679 -0.4546 -0.1617  0.0947
  734MPD2    C510849   3.424   1.959  11.784 -0.2023  1.2430 -0.4693
  734MPD2     H10850   3.470   1.657  11.568  1.0228  0.9981 -0.8495
  734MPD2    H110851   3.548   2.070  11.653 -1.4012  0.1652  0.0058
  734MPD2    H210852   3.292   1.835  11.898 -0.4895  1.9183  0.5484
  734MPD2    H310853   3.417   2.048  11.846 -0.9770  0.1833  0.9742
  734MPD2     N10854   3.613   1.855  11.492 -0.1184  0.4182  0.3670
  734MPD2    H510855   3.608   1.769  11.439 -1.1263 -0.9317  2.6462
  734MPD2    N110856   3.284   1.618  11.765  0.2704 -0.1526 -0.7563
  734MPD2    H710857   3.230   1.623  11.851  0.0882  0.9667 -0.9386
  735TMC3    C110858   3.240   1.387  11.717  0.0385 -0.9137 -0.6658
  735TMC3    C210859   3.229   1.300  11.611 -0.2945  0.4530 -0.6175
  735TMC3    C310860   3.306   1.186  11.599  0.6231  0.1789 -0.1117
  735TMC3    C410861   3.329   1.359  11.812 -0.5936  0.5134  0.6424
  735TMC3    C510862   3.411   1.253  11.796  0.7065  0.1619 -0.4343
  735TMC3    C610863   3.395   1.163  11.693 -0.0916 -0.8711 -0.3012
  735TMC3     C10864   3.273   1.516  11.671 -0.2758  0.9921 -0.4083
  735TMC3     O10865   3.299   1.517  11.551  0.1056  0.1567  0.8846
  735TMC3     H10866   3.156   1.336  11.539  0.5056 -0.5121 -1.9064
  735TMC3    H110867   3.333   1.424  11.899  0.9092  0.4793  0.5938
  735TMC3    H210868   3.470   1.086  11.676 -0.6215 -1.5788  0.5399
  735TMC3    C710869   3.547   1.281  11.829 -0.2953 -0.1135 -0.7063
  735TMC3    C810870   3.366   1.159  11.465 -0.2552 -0.9256 -0.2517
  735TMC3    O110871   3.628   1.191  11.819  0.1845 -0.0258  0.0810
  735TMC3    O210872   3.450   1.071  11.460  0.1701  0.0662 -0.3679
  736MPD2     C10873   3.702   1.616  11.855  0.1069  0.1712  0.6678
  736MPD2    C110874   3.697   1.479  11.848  0.1969 -0.4268 -0.1600
  736MPD2    C210875   3.814   1.411  11.851  0.9228 -0.7384 -0.3931
  736MPD2    C310876   3.936   1.470  11.855 -0.1652 -0.1453 -0.4274
  736MPD2    C410877   3.940   1.607  11.861 -0.3486 -0.3637 -0.1277
  736MPD2    C510878   3.822   1.680  11.853 -0.2837 -0.5018 -0.3042
  736MPD2     H10879   3.822   1.304  11.865  0.2436 -0.5716  1.2147
  736MPD2    H110880   4.037   1.652  11.874 -0.7724 -0.3570  2.9041
  736MPD2    H210881   3.612   1.676  11.866 -0.8405 -1.1463  0.2139
  736MPD2    H310882   3.816   1.789  11.857 -1.3841 -0.5954  0.8701
  736MPD2     N10883   4.055   1.399  11.857  0.1958 -0.4317 -0.1946
  736MPD2    H510884   4.142   1.452  11.860 -1.7267  2.8328 -1.8693
  736MPD2    N110885   3.573   1.418  11.841 -0.8281  0.2856  0.6923
  736MPD2    H710886   3.492   1.478  11.850 -2.7727 -2.1340 -0.5692
  737TMC3    C110887   4.211   1.238  11.860  0.2343 -0.1408  0.1745
  737TMC3    C210888   4.305   1.339  11.871 -0.3295 -0.1015  0.6323
  737TMC3    C310889   4.426   1.308  11.814  0.5438  0.2204  0.4188
  737TMC3    C410890   4.225   1.136  11.766 -0.0083 -0.2111 -0.3556
  737TMC3    C510891   4.344   1.108  11.710 -0.9365 -0.9153 -0.0417
  737TMC3    C610892   4.447   1.196  11.732  0.5932 -0.3058  0.0963
  737TMC3     C10893   4.073   1.267  11.880 -0.0657 -0.3453 -0.0813
  737TMC3     O10894   3.992   1.174  11.908  0.6176 -0.2199  0.1389
  737TMC3     H10895   4.292   1.412  11.950 -2.2340  1.0370 -0.7271
  737TMC3    H110896   4.138   1.083  11.731  0.1395 -0.1396 -0.8259
  737TMC3    H210897   4.547   1.155  11.738  0.3454 -1.2892 -2.6858
  737TMC3    C710898   4.356   0.991  11.621  0.3717 -0.3522  0.2208
  737TMC3    C810899   4.491   1.429  11.766 -0.0578  0.2652 -0.9352
  737TMC3    O110900   4.257   0.919  11.615  0.0864 -0.1644 -0.3429
  737TMC3    O210901   4.463   1.530  11.829  0.3012 -0.4652  0.2234
  738MPD2     C10902   0.325   4.196  15.180  0.0396  0.3924 -0.2672
  738MPD2    C110903   0.218   4.241  15.101 -0.2365  0.2040 -0.2701
  738MPD2    C210904   0.245   4.338  15.000  0.2487 -0.4970  0.8656
  738MPD2    C310905   0.377   4.374  14.977  0.7851  0.0937 -1.1590
  738MPD2    C410906   0.480   4.310  15.041 -0.3689 -0.0313  0.0300
  738MPD2    C510907   0.450   4.220  15.138  0.5222  0.4139  0.3437
  738MPD2     H10908   0.167   4.380  14.937  1.9423 -0.6356 -1.3185
  738MPD2    H110909   0.585   4.323  15.022  0.1412 -0.2727  2.6803
  738MPD2    H210910   0.316   4.127  15.264 -3.1472  0.9098 -0.1775
  738MPD2    H310911   0.529   4.175  15.198  0.9165  1.0495  0.3014
  738MPD2     N10912   0.416   4.474  14.889 -0.0197  0.4733 -0.0376
  738MPD2    H510913   0.514   4.498  14.877  0.4924 -1.0594  1.0553
  738MPD2    N110914   0.081   4.209  15.141  0.1170 -0.3738 -0.1163
  738MPD2    H710915   0.012   4.241  15.074  0.1782  1.4331  0.6747
  739TMC3    C110916   0.391   4.655  14.743  0.4690  0.3586 -0.3010
  739TMC3    C210917   0.304   0.010  14.670 -0.1369 -0.1957  0.4092
  739TMC3    C310918   0.356   0.079  14.566  0.7543  0.0796 -0.3534
  739TMC3    C410919   0.520   4.657  14.703  1.3412 -0.3829  0.3706
  739TMC3    C510920   0.571   0.016  14.603  0.2516  1.2445 -0.5100
  739TMC3    C610921   0.485   0.092  14.524  0.3870 -0.1359  0.1413
  739TMC3     C10922   0.327   4.562  14.827 -0.3306 -0.5426 -0.6536
  739TMC3     O10923   0.205   4.565  14.824  0.0258  0.4811 -0.4241
  739TMC3     H10924   0.196   0.002  14.678 -0.1534  0.4482  0.7960
  739TMC3    H110925   0.592   4.589  14.747  3.0340  1.5540  0.5986
  739TMC3    H210926   0.508   0.165  14.447  0.8516 -0.6855 -0.2346
  739TMC3    C710927   0.714   0.044  14.602 -1.0129 -0.3122  0.0967
  739TMC3    C810928   0.253   0.146  14.493 -0.5871 -0.4089 -0.3443
  739TMC3    O110929   0.786   4.694  14.667  0.3214 -0.4640 -0.1527
  739TMC3    O210930   0.144   0.089  14.484  0.1597  0.3142 -0.4954
  740TMC3    C110931   0.441   1.424  14.278 -0.2077  0.9707 -0.0245
  740TMC3    C210932   0.530   1.397  14.378 -0.6692 -0.6279 -0.6655
  740TMC3    C310933   0.646   1.342  14.338  0.1899 -0.9906 -0.0402
  740TMC3    C410934   0.474   1.426  14.145  1.0377 -0.4411  0.2873
  740TMC3    C510935   0.604   1.393  14.110  0.4943 -0.8599  0.9729
  740TMC3    C610936   0.688   1.339  14.207  0.3292  0.3523  0.2082
  740TMC3     C10937   0.308   1.475  14.311  0.7004  0.3918  0.3447
  740TMC3     O10938   0.235   1.517  14.217 -0.0799  0.0807  0.6563
  740TMC3     H10939   0.504   1.408  14.483  0.3103 -0.4750 -0.4413
  740TMC3    H110940   0.407   1.448  14.062 -0.4805 -1.3947  1.2490
  740TMC3    H210941   0.768   1.268  14.193 -0.8721 -1.3086  1.8249
  740TMC3    C710942   0.635   1.357  13.972 -0.2724  0.4990  0.0799
  740TMC3    C810943   0.741   1.282  14.427  0.2553 -0.3271  0.0181
  740TMC3    O110944   0.711   1.262  13.960 -0.3473 -0.8499  0.2341
  740TMC3    O210945   0.859   1.277  14.393  0.0745  0.5582 -0.0637
  741TMC3    C110946   4.716   0.572  14.638 -0.2337  0.2458 -0.3681
  741TMC3    C210947   4.618   0.479  14.620  0.6701  0.0839  0.3112
  741TMC3    C310948   4.633   0.352  14.669  0.7083 -0.3060  0.6140
  741TMC3    C410949   0.096   0.543  14.714  0.2181 -0.3300  0.7966
  741TMC3    C510950   0.116   0.413  14.763 -0.4794 -0.4552  0.3879
  741TMC3    C610951   0.022   0.321  14.738  0.3379  0.0750  0.3846
  741TMC3     C10952   4.695   0.713  14.598  0.5954  0.5736  0.1644
  741TMC3     O10953   0.053   0.796  14.627  0.9134  0.4607  0.3917
  741TMC3     H10954   4.519   0.506  14.585  1.3624  0.7123 -1.1520
  741TMC3    H110955   0.162   0.625  14.741  1.3818 -0.9818 -0.0326
  741TMC3    H210956   0.037   0.221  14.777  2.7144  0.6658  0.9408
  741TMC3    C710957   0.253   0.377  14.798 -0.0466 -0.3176  0.5879
  741TMC3    C810958   4.503   0.283  14.693 -0.0009 -0.3838 -0.3041
  741TMC3    O110959   0.341   0.455  14.763 -0.0475  0.5730  0.3131
  741TMC3    O210960   4.412   0.315  14.617 -0.1716  0.3743 -0.0137
  742TMC3    C110961   4.393   3.745  15.488  0.0293 -1.0535 -0.3158
  742TMC3    C210962   4.297   3.730  15.396  0.0221  0.0074 -0.1100
  742TMC3    C310963   4.344   3.706  15.264 -0.1853 -0.6799  0.5220
  742TMC3    C410964   4.527   3.747  15.460 -0.4116  0.3180  0.2280
  742TMC3    C510965   4.561   3.727  15.327  0.1695  0.2142  0.0430
  742TMC3    C610966   4.476   3.709  15.224  0.0418 -0.0921  0.6658
  742TMC3     C10967   4.371   3.718  15.629  0.5731 -0.0089  0.7241
  742TMC3     O10968   4.442   3.786  15.706  0.6923  0.1473  0.5136
  742TMC3     H10969   4.196   3.701  15.423 -0.1169 -1.0235 -1.6970
  742TMC3    H110970   4.601   3.755  15.539 -2.9977 -1.3946  2.8039
  742TMC3    H210971   4.499   3.692  15.120  0.5490 -1.7201  1.0394
  742TMC3    C710972   4.700   3.728  15.278 -0.9007 -0.2050 -0.0077
  742TMC3    C810973   4.247   3.660  15.161  0.7166  0.3426 -0.1938
  742TMC3    O110974   4.723   3.680  15.167  0.2676 -0.0917  0.2272
  742TMC3    O210975   4.287   3.575  15.088  0.1952  0.2433  0.3099
  743MPD2     C10976   1.268   0.943   1.383 -0.5409 -0.4957 -0.4250
  743MPD2    C110977   1.360   0.871   1.312 -0.7999  0.0242 -0.1888
  743MPD2    C210978   1.485   0.849   1.354 -0.1903  0.1457 -0.2352
  743MPD2    C310979   1.539   0.920   1.460 -0.7398 -0.1601 -0.0033
  743MPD2    C410980   1.445   0.994   1.534  0.2265 -0.0096 -0.1957
  743MPD2    C510981   1.317   1.007   1.497 -0.2179 -0.3180  0.1700
  743MPD2     H10982   1.553   0.782   1.303 -0.0978 -1.5843  2.1778
  743MPD2    H110983   1.473   1.038   1.629 -3.0998 -0.1138  0.8421
  743MPD2    H210984   1.163   0.960   1.360 -0.9358 -0.4135  1.4217
  743MPD2    H310985   1.246   1.065   1.556  0.7453 -0.4336  1.4225
  743MPD2     N10986   1.678   0.907   1.485 -0.0990 -0.7594  0.0999
  743MPD2    H510987   1.727   0.848   1.419 -0.2511  3.6697 -4.0503
  743MPD2    N110988   1.304   0.809   1.196  0.5191 -0.5830 -1.1388
  743MPD2    H710989   1.202   0.816   1.191  0.8086  3.8741 -0.9340
  744TMC3    C110990   1.293   0.703   0.987 -0.1430 -0.0996 -0.1956
  744TMC3    C210991   1.168   0.650   1.007  0.7639  0.1525 -0.1151
  744TMC3    C310992   1.114   0.559   0.921  0.9037  0.2062  0.3335
  744TMC3    C410993   1.371   0.651   0.887  0.3171  1.0374 -0.9460
  744TMC3    C510994   1.311   0.555   0.806 -0.1300 -0.0258  0.1191
  744TMC3    C610995   1.183   0.510   0.818  0.3801 -0.1528 -0.3873
  744TMC3     C10996   1.375   0.750   1.102  0.4941 -0.8132 -0.1698
  744TMC3     O10997   1.499   0.744   1.088  0.9859 -0.1309 -0.3964
  744TMC3     H10998   1.101   0.663   1.091 -0.9592 -0.8609 -1.3275
  744TMC3    H110999   1.469   0.693   0.866  0.9363 -0.3516 -0.8008
  744TMC3    H211000   1.152   0.431   0.750  0.7570 -0.0291 -0.7093
  744TMC3    C711001   1.406   0.495   0.714  0.4388 -0.1461 -0.0776
  744TMC3    C811002   0.973   0.547   0.921  0.4669 -1.1725  0.0988
  744TMC3    O111003   1.519   0.501   0.749 -0.0361  0.2485 -0.4170
  744TMC3    O211004   0.907   0.631   0.981  0.0736  0.3183 -0.4959
  745TMC3    C111005   0.223   3.590  13.523 -0.2707  0.7209 -0.0227
  745TMC3    C211006   0.161   3.525  13.630  0.3107  0.0628 -0.0735
  745TMC3    C311007   0.026   3.494  13.610 -0.5597 -0.4833  0.5600
  745TMC3    C411008   0.166   3.612  13.402 -0.6269  0.0898  0.4194
  745TMC3    C511009   0.033   3.581  13.383  0.5669 -0.2306  0.1086
  745TMC3    C611010   4.692   3.522  13.488 -0.2228  0.2503  0.5468
  745TMC3     C11011   0.362   3.619  13.549 -0.6026 -0.6788 -0.1262
  745TMC3     O11012   0.418   3.555  13.638 -0.2414 -0.2161 -0.0016
  745TMC3     H11013   0.215   3.488  13.716 -0.3634  0.0134  0.3265
  745TMC3    H111014   0.216   3.668  13.323  0.6978  1.0623  1.9511
  745TMC3    H211015   4.589   3.491  13.470 -0.7023  2.0540  0.1685
  745TMC3    C711016   4.681   3.614  13.265 -0.6246  0.4443  0.1298
  745TMC3    C811017   4.664   3.434  13.714 -0.3563 -0.2438 -0.5864
  745TMC3    O111018   4.579   3.551  13.241 -0.4382 -0.1221 -0.4725
  745TMC3    O211019   4.557   3.382  13.684 -0.5674 -0.1801  0.1454
  746TMC3    C111020   3.058   0.687  11.009  0.1436  0.0869  0.3435
  746TMC3    C211021   3.155   0.648  10.919 -0.9250  0.3964 -0.1705
  746TMC3    C311022   3.159   0.526  10.861 -0.1791  0.0744 -0.1724
  746TMC3    C411023   2.969   0.593  11.046 -0.6244 -0.7072  0.2128
  746TMC3    C511024   2.957   0.481  10.973 -0.2387 -0.3209  0.5117
  746TMC3    C611025   3.051   0.445  10.880  0.2933  0.3698  0.0050
  746TMC3     C11026   3.017   0.829  11.026 -0.8224 -1.0589 -0.3931
  746TMC3     O11027   2.914   0.849  11.086 -0.6355 -0.0116 -0.0145
  746TMC3     H11028   3.235   0.716  10.890 -2.2720  2.1512  0.2660
  746TMC3    H111029   2.896   0.626  11.119  0.3565  0.5455  0.6419
  746TMC3    H211030   3.059   0.351  10.828 -1.0687  0.4966 -0.4353
  746TMC3    C711031   2.841   0.403  10.982  0.2286 -0.9543 -0.0286
  746TMC3    C811032   3.234   0.521  10.738 -0.1117 -0.5617  0.0946
  746TMC3    O111033   2.822   0.326  10.889  0.0086  0.2313 -0.4437
  746TMC3    O211034   3.331   0.441  10.730 -0.0896  0.1184 -0.5441
  747TMC3    C111035   0.396   0.826  10.899 -0.5086  0.3434 -0.3787
  747TMC3    C211036   0.277   0.783  10.951 -0.6995 -0.0140 -0.2953
  747TMC3    C311037   0.246   0.829  11.079 -0.0252  0.1428 -0.6354
  747TMC3    C411038   0.477   0.903  10.971 -0.0636  0.2623 -0.2636
  747TMC3    C511039   0.441   0.959  11.091 -0.4865 -0.2604 -0.8937
  747TMC3    C611040   0.325   0.912  11.153 -0.5513 -0.4599  0.1747
  747TMC3     C11041   0.421   0.856  10.758 -0.0206  0.3309  0.2145
  747TMC3     O11042   0.478   0.961  10.737  0.0531 -0.6170  0.0344
  747TMC3     H11043   0.215   0.715  10.893 -0.5366 -1.4472  1.2269
  747TMC3    H111044   0.573   0.924  10.926  1.4486 -2.7001  1.5997
  747TMC3    H211045   0.295   0.938  11.254 -2.2692 -3.1565  0.3696
  747TMC3    C711046   0.495   1.088  11.130 -0.6188 -0.4312 -0.3732
  747TMC3    C811047   0.124   0.768  11.132  0.7246  0.1133 -0.4629
  747TMC3    O111048   0.470   1.128  11.246  0.2782 -0.3338 -0.4989
  747TMC3    O211049   0.105   0.656  11.085  0.0904 -0.0605  0.3451
  748MPD2     C11050   1.278   2.399   1.605 -0.1192 -0.0193 -0.6208
  748MPD2    C111051   1.243   2.293   1.526 -0.5298 -1.3540 -0.1187
  748MPD2    C211052   1.335   2.206   1.469 -0.2090 -0.8686  0.1269
  748MPD2    C311053   1.470   2.231   1.506  0.5209  0.4449 -0.5835
  748MPD2    C411054   1.506   2.341   1.585 -0.0073  0.4128  0.4493
  748MPD2    C511055   1.409   2.425   1.634  0.6633  0.2133  0.0144
  748MPD2     H11056   1.314   2.117   1.411 -0.1144 -1.2956  0.7494
  748MPD2    H111057   1.610   2.354   1.609  0.3552  1.0434 -1.4388
  748MPD2    H211058   1.209   2.471   1.647  0.4399  0.5256 -0.6244
  748MPD2    H311059   1.443   2.509   1.692 -1.8817  0.9532  0.4452
  748MPD2     N11060   1.562   2.130   1.465  0.7851 -0.0378  0.2492
  748MPD2    H511061   1.517   2.055   1.413  1.1208 -0.9032  1.1849
  748MPD2    N111062   1.103   2.282   1.499 -0.6350  0.6573  0.3840
  748MPD2    H711063   1.042   2.348   1.545  1.4059  1.2300  2.2138
  749TMC3    C111064   1.749   2.001   1.448  0.4979  0.3621 -0.8521
  749TMC3    C211065   1.799   1.908   1.529 -0.3166 -0.3202  0.3442
  749TMC3    C311066   1.876   1.808   1.473 -0.2625 -0.4036  0.3393
  749TMC3    C411067   1.787   2.013   1.313  0.1011  0.0232 -0.0065
  749TMC3    C511068   1.848   1.903   1.254 -0.2922  0.3366 -0.0049
  749TMC3    C611069   1.899   1.803   1.338 -0.4355  0.1567 -0.0488
  749TMC3     C11070   1.691   2.117   1.514 -0.3092  0.4666  0.6500
  749TMC3     O11071   1.751   2.172   1.607 -0.3906  0.1022 -0.1080
  749TMC3     H11072   1.760   1.894   1.629  0.6436 -1.1991  0.6016
  749TMC3    H111073   1.744   2.098   1.262  3.3274  2.4379  1.3080
  749TMC3    H211074   1.951   1.717   1.298 -0.1635 -0.5231  1.7360
  749TMC3    C711075   1.834   1.895   1.112 -0.7253 -0.3776  0.1866
  749TMC3    C811076   1.938   1.708   1.570 -0.3047 -0.8312 -0.2817
  749TMC3    O111077   1.817   2.001   1.059  0.0372 -0.4674 -0.0438
  749TMC3    O211078   1.934   1.729   1.690  0.2622  0.4455  0.0648
  750MPD2     C11079   2.867   2.881  11.309 -0.6232 -0.2901 -0.2644
  750MPD2    C111080   2.766   2.813  11.369  0.4280  0.2739 -0.5450
  750MPD2    C211081   2.733   2.682  11.324 -0.0383 -0.0751  0.6811
  750MPD2    C311082   2.805   2.626  11.223 -0.1247 -0.6195 -0.5663
  750MPD2    C411083   2.900   2.701  11.160  0.9086  0.3054  0.6436
  750MPD2    C511084   2.927   2.830  11.201  0.4893 -0.1527 -0.1262
  750MPD2     H11085   2.662   2.631  11.388 -1.0060 -0.8411 -1.0098
  750MPD2    H111086   2.961   2.658  11.082 -1.0395 -0.8068 -0.2561
  750MPD2    H211087   2.908   2.977  11.338  0.6217 -2.2083  4.3285
  750MPD2    H311088   3.008   2.889  11.158 -2.4186  2.5593 -1.8412
  750MPD2     N11089   2.793   2.490  11.179  0.1573 -0.5810  0.0297
  750MPD2    H511090   2.858   2.453  11.110  1.0283  2.0381 -0.5501
  750MPD2    N111091   2.709   2.874  11.480  0.0679 -0.1179 -0.5774
  750MPD2    H711092   2.750   2.965  11.502 -1.6808  0.7232 -0.8416
  751TMC3    C111093   2.696   2.276  11.148 -0.5171  0.2936 -0.1428
  751TMC3    C211094   2.593   2.191  11.168 -0.2592 -0.3529  0.6899
  751TMC3    C311095   2.613   2.057  11.130 -0.6641 -0.5422  0.3066
  751TMC3    C411096   2.811   2.241  11.078  0.1311  0.4885  0.2732
  751TMC3    C511097   2.821   2.110  11.038 -0.6169  0.2000 -1.4698
  751TMC3    C611098   2.725   2.014  11.077  0.6081  0.2764  0.2046
  751TMC3     C11099   2.690   2.404  11.218 -0.4714 -0.5528 -0.6256
  751TMC3     O11100   2.604   2.422  11.303 -0.0017 -0.1512 -0.2092
  751TMC3     H11101   2.505   2.227  11.219 -0.0911  1.1335 -0.0489
  751TMC3    H111102   2.902   2.297  11.064 -0.5583  1.6883  0.6093
  751TMC3    H211103   2.721   1.913  11.037  0.4142  0.5058 -0.3545
  751TMC3    C711104   2.928   2.064  10.950  0.4249  0.6661  0.1719
  751TMC3    C811105   2.504   1.955  11.139  0.4662 -0.4016 -0.2098
  751TMC3    O111106   2.986   2.148  10.876  0.3007 -0.3408  0.4047
  751TMC3    O211107   2.516   1.843  11.084  0.6490 -0.1891 -0.9267
  752TMC3    C111108   1.256   2.587  17.504  0.7173  0.1877 -0.3543
  752TMC3    C211109   1.177   2.695  17.510  0.3190 -0.3183 -0.7184
  752TMC3    C311110   1.148   2.765  17.630 -0.7432 -0.2120  0.6171
  752TMC3    C411111   1.324   2.552  17.617  0.2366  0.1114  0.4305
  752TMC3    C511112   1.296   2.623   0.040 -0.0412 -0.3549  0.2145
  752TMC3    C611113   1.208   2.725   0.048  1.0361 -0.3546  0.5657
  752TMC3     C11114   1.299   2.529  17.378  0.4629  0.1808 -0.9571
  752TMC3     O11115   1.423   2.524  17.369 -0.0936 -0.4343 -0.2549
  752TMC3     H11116   1.142   2.728  17.413  0.3262  0.5062 -0.4394
  752TMC3    H111117   1.392   2.468  17.620 -0.7553 -0.7017  0.2930
  752TMC3    H211118   1.160   2.752   0.141 -0.7243 -0.2041 -0.3848
  752TMC3    C711119   1.390   2.603   0.149 -0.7081 -0.7929  0.3034
  752TMC3    C811120   1.052   2.876  17.617  0.5548 -0.0835  0.1908
  752TMC3    O111121   1.475   2.519   0.129  0.1048  0.4798  0.1600
  752TMC3    O211122   0.997   2.908   0.025 -0.2184  0.0278  0.6651
  753TMC3    C111123   3.377   3.498  13.623 -0.1589 -0.1818  0.0127
  753TMC3    C211124   3.333   3.504  13.755  0.5379 -0.4686 -0.6833
  753TMC3    C311125   3.211   3.446  13.777 -0.5857  0.4892 -0.6928
  753TMC3    C411126   3.295   3.452  13.517  0.3481  0.2275 -0.2145
  753TMC3    C511127   3.171   3.411  13.539  0.0047 -0.9182 -0.4102
  753TMC3    C611128   3.130   3.404  13.671  0.3053 -0.7603  0.1923
  753TMC3     C11129   3.498   3.556  13.594 -0.4486 -0.4639 -0.1793
  753TMC3     O11130   3.587   3.538  13.673  0.1139  0.1236  0.2412
  753TMC3     H11131   3.401   3.527  13.836  0.6412  1.0403 -1.2038
  753TMC3    H111132   3.327   3.450  13.414 -0.8758  0.4749 -0.5994
  753TMC3    H211133   3.037   3.357  13.702 -2.2391  2.9968 -1.6765
  753TMC3    C711134   3.113   3.343  13.426  0.0993  0.4808  0.4533
  753TMC3    C811135   3.138   3.480  13.902 -0.1364 -0.8826  0.0605
  753TMC3    O111136   3.168   3.348  13.315  0.2302  0.1982  0.2987
  753TMC3    O211137   3.014   3.496  13.903 -0.9277 -0.4935  0.1280
  754MPD2     C11138   2.593   2.382  13.030  0.3000 -0.3092  0.1086
  754MPD2    C111139   2.558   2.251  12.997  0.1094  0.1805 -0.3998
  754MPD2    C211140   2.425   2.219  12.999 -0.4637  0.6242 -0.4087
  754MPD2    C311141   2.324   2.312  13.043 -0.2996 -0.0930 -0.3593
  754MPD2    C411142   2.361   2.443  13.064 -0.7136 -0.1248  0.2509
  754MPD2    C511143   2.496   2.476  13.060  0.2233 -0.5472  0.3452
  754MPD2     H11144   2.391   2.123  12.964  0.4100  0.6668 -1.3564
  754MPD2    H111145   2.285   2.516  13.089 -2.1011 -1.4269 -0.1471
  754MPD2    H211146   2.694   2.419  13.024  0.2818 -0.2215  0.3216
  754MPD2    H311147   2.520   2.576  13.097  1.1275  0.0205 -1.8095
  754MPD2     N11148   2.180   2.290  13.049 -0.1037 -0.2730 -0.0957
  754MPD2    H511149   2.137   2.381  13.064  0.6636  0.2056 -0.7906
  754MPD2    N111150   2.661   2.156  12.981  0.0799  0.4217  0.1366
  754MPD2    H711151   2.744   2.200  12.944 -0.3368  1.4553  0.4270
  755MPD2     C11152   1.629   2.873  13.304  0.2245  0.7222  0.8213
  755MPD2    C111153   1.561   2.764  13.348  0.1605  0.4518  0.1188
  755MPD2    C211154   1.595   2.637  13.304  0.2433 -0.2139  0.3726
  755MPD2    C311155   1.696   2.619  13.210 -0.6347 -0.5897 -0.3183
  755MPD2    C411156   1.772   2.726  13.179  0.4734  0.5302 -0.5167
  755MPD2    C511157   1.739   2.851  13.230  0.7630  0.0081  0.2779
  755MPD2     H11158   1.530   2.553  13.327  0.1928 -1.4486 -4.2053
  755MPD2    H111159   1.856   2.730  13.111  1.7075 -0.3928  0.9525
  755MPD2    H211160   1.609   2.978  13.323  0.5282  1.1251 -1.0918
  755MPD2    H311161   1.806   2.932  13.205  1.1591 -1.0820 -2.2143
  755MPD2     N11162   1.745   2.499  13.141  0.1303  0.0992  0.2323
  755MPD2    H511163   1.822   2.509  13.075 -0.7083  3.2506 -0.2636
  755MPD2    N111164   1.456   2.768  13.440 -0.2618  0.7473  0.9101
  755MPD2    H711165   1.425   2.685  13.491  0.5533  0.0796  0.3182
  756MPD2     C11166   2.783   3.127   9.607  0.0123 -0.0325 -0.5582
  756MPD2    C111167   2.698   3.123   9.710 -0.1556  0.1844 -0.2994
  756MPD2    C211168   2.574   3.066   9.688 -0.1315 -0.3734 -0.4332
  756MPD2    C311169   2.532   3.017   9.570  0.2867  0.3674 -0.4952
  756MPD2    C411170   2.617   3.028   9.467  0.0421  0.8254  0.1663
  756MPD2    C511171   2.743   3.094   9.477 -0.4803 -0.4537 -0.3152
  756MPD2     H11172   2.505   3.061   9.772 -1.7961  2.1349 -1.6477
  756MPD2    H111173   2.591   2.985   9.370  2.8352 -0.2968 -0.0696
  756MPD2    H211174   2.883   3.169   9.614 -0.3767  0.8891 -0.5693
  756MPD2    H311175   2.809   3.089   9.392  2.3413  0.2688  1.8519
  756MPD2     N11176   2.409   2.951   9.575  0.2794 -0.8807  0.0196
  756MPD2    H511177   2.365   2.950   9.666  1.5977  0.2690  0.6649
  756MPD2    N111178   2.724   3.172   9.835  0.2230 -0.9195 -0.7027
  756MPD2    H711179   2.655   3.156   9.908  0.3968 -0.6715 -0.4781
  757MPD2     C11180   2.177   2.081   9.287  0.1210  0.1293  0.5625
  757MPD2    C111181   2.261   2.129   9.394  0.0302 -0.2549  0.1884
  757MPD2    C211182   2.245   2.266   9.418 -0.8468  0.0368  0.6389
  757MPD2    C311183   2.141   2.340   9.364 -0.2778  0.2374 -0.0974
  757MPD2    C411184   2.067   2.282   9.269  0.0017 -0.0427 -0.4603
  757MPD2    C511185   2.081   2.156   9.227 -0.2768  0.1235 -0.3006
  757MPD2     H11186   2.308   2.318   9.490 -1.1832 -0.6141  1.4075
  757MPD2    H111187   1.987   2.336   9.218  0.1140  1.5317  1.0267
  757MPD2    H211188   2.179   1.979   9.250  1.4684  0.6159 -0.7093
  757MPD2    H311189   2.017   2.115   9.151 -1.6060  0.5198  0.6051
  757MPD2     N11190   2.124   2.474   9.405  1.0551  0.1546  0.1225
  757MPD2    H511191   2.200   2.511   9.461  1.3787 -0.1822 -0.0983
  757MPD2    N111192   2.355   2.043   9.470  0.2695  0.4913  0.2181
  757MPD2    H711193   2.345   1.949   9.431  2.3029  1.0275 -1.5845
  758MPD2     C11194   2.263   2.157  15.738  0.2215  0.8380 -0.4645
  758MPD2    C111195   2.276   2.031  15.781  0.0207  0.2058  0.0613
  758MPD2    C211196   2.245   2.002  15.910  0.2815 -0.1375  0.0323
  758MPD2    C311197   2.198   2.095  16.000  0.2507  0.2511  0.4268
  758MPD2    C411198   2.180   2.220  15.949  0.1856  0.4021 -0.1500
  758MPD2    C511199   2.202   2.255  15.818 -0.3003 -0.4089  0.5576
  758MPD2     H11200   2.265   1.903  15.948 -2.0256 -0.6927 -0.2396
  758MPD2    H111201   2.137   2.300  16.009  0.8961  0.5594  0.1541
  758MPD2    H211202   2.294   2.193  15.640 -2.3599  1.5934 -0.9887
  758MPD2    H311203   2.179   2.354  15.779  1.2213  0.7626  2.6861
  758MPD2     N11204   2.177   2.077  16.143 -0.4968 -0.2420 -0.2727
  758MPD2    H511205   2.117   2.148  16.184 -0.8506 -0.0785 -1.0789
  758MPD2    N111206   2.342   1.922  15.717 -0.3823 -0.3605  0.2211
  758MPD2    H711207   2.348   1.830  15.759 -0.2480 -1.0065 -1.2071
  759MPD2     C11208   1.494   0.821   9.936 -0.5278 -0.0508 -0.0832
  759MPD2    C111209   1.395   0.748   9.879  0.6610  0.5528 -0.5082
  759MPD2    C211210   1.405   0.725   9.743 -0.1921  0.5690 -0.4532
  759MPD2    C311211   1.510   0.759   9.659  0.4689  0.0887 -0.6200
  759MPD2    C411212   1.611   0.832   9.723  0.1627 -0.0980  0.1154
  759MPD2    C511213   1.596   0.862   9.856 -0.2128  0.0701 -0.1414
  759MPD2     H11214   1.328   0.667   9.692 -1.2422  0.6339  1.0621
  759MPD2    H111215   1.693   0.879   9.670 -0.8586  0.9152 -0.5583
  759MPD2    H211216   1.495   0.853  10.040  1.5483 -0.6789  0.0788
  759MPD2    H311217   1.661   0.929   9.910 -3.4733  1.6697  1.8197
  759MPD2     N11218   1.504   0.732   9.524 -0.9287 -0.6394 -0.1822
  759MPD2    H511219   1.427   0.686   9.477  0.2851 -3.2130  0.3534
  759MPD2    N111220   1.289   0.692   9.956  0.3677  0.3655 -0.7999
  759MPD2    H711221   1.232   0.633   9.896  1.2597 -0.3243 -0.9634
  760MPD2     C11222   0.860   2.651  11.519 -0.4406 -0.2430  0.5821
  760MPD2    C111223   0.823   2.630  11.651  0.7360 -0.1998 -0.2237
  760MPD2    C211224   0.790   2.504  11.700 -0.0138 -0.4317  0.8440
  760MPD2    C311225   0.806   2.392  11.615  0.5789 -0.8971  0.6668
  760MPD2    C411226   0.843   2.414  11.483 -0.2414 -0.2132  0.0289
  760MPD2    C511227   0.865   2.543  11.433 -0.4751  0.2490 -0.4742
  760MPD2     H11228   0.772   2.474  11.803 -0.0903 -0.9263  0.6896
  760MPD2    H111229   0.844   2.327  11.418 -0.8594  0.1831 -0.5107
  760MPD2    H211230   0.898   2.747  11.486  0.8806 -0.7396  0.6621
  760MPD2    H311231   0.900   2.562  11.333  1.4678 -0.3940  0.0834
  760MPD2     N11232   0.793   2.254  11.659  0.0611  0.4434 -0.7073
  760MPD2    H511233   0.823   2.187  11.589  0.4766 -0.8099  0.6788
  760MPD2    N111234   0.847   2.738  11.738 -0.1802 -0.1327 -0.0378
  760MPD2    H711235   0.890   2.813  11.685 -0.4157  1.2580  1.7325
  761MPD2     C11236   2.066   1.811  11.345  0.1115 -0.1230  0.0103
  761MPD2    C111237   2.142   1.753  11.243  0.5153 -0.4138  0.8134
  761MPD2    C211238   2.259   1.812  11.208 -0.1975 -1.1578 -0.1905
  761MPD2    C311239   2.293   1.930  11.265  0.1080  0.1348  0.1087
  761MPD2    C411240   2.207   1.988  11.357  0.1868 -0.1862  0.2265
  761MPD2    C511241   2.095   1.927  11.404 -0.4437  0.1216  0.0177
  761MPD2     H11242   2.322   1.768  11.132 -2.4115 -1.8932 -1.5978
  761MPD2    H111243   2.228   2.083  11.405 -0.5440  1.1162 -2.0183
  761MPD2    H211244   1.967   1.776  11.374 -1.3285  3.4010 -0.5707
  761MPD2    H311245   2.024   1.979  11.467 -0.0118  1.1191 -0.3360
  761MPD2     N11246   2.412   1.995  11.229  0.5896  0.0311 -0.0364
  761MPD2    H511247   2.430   2.089  11.264  0.8252  1.0959 -3.0666
  761MPD2    N111248   2.093   1.632  11.186 -0.7067 -0.6758  0.7647
  761MPD2    H711249   2.022   1.590  11.244 -1.3648 -0.3756  0.1773
  762MPD2     C11250   2.362   0.876  10.669 -0.1310  0.0934  0.2616
  762MPD2    C111251   2.402   1.003  10.709 -0.5822 -0.1438  0.2783
  762MPD2    C211252   2.509   1.058  10.642 -0.1402 -0.0553 -0.1439
  762MPD2    C311253   2.586   0.991  10.548 -0.0440  0.1101 -0.4745
  762MPD2    C411254   2.559   0.863  10.518  0.3501 -0.2946 -0.1938
  762MPD2    C511255   2.444   0.811  10.577  0.2095 -0.2415 -0.0327
  762MPD2     H11256   2.543   1.155  10.677 -0.1122  0.7674 -2.5019
  762MPD2    H111257   2.621   0.810  10.446  1.2969 -0.2565  0.5857
  762MPD2    H211258   2.281   0.821  10.715  1.1239 -1.3206  0.8015
  762MPD2    H311259   2.422   0.708  10.550 -0.1760 -0.6752  1.9803
  762MPD2     N11260   2.697   1.057  10.487  0.6020  0.2752  0.6012
  762MPD2    H511261   2.714   1.156  10.501 -0.0501  0.4123  0.4529
  762MPD2    N111262   2.313   1.066  10.808  0.0425  0.0957 -0.1107
  762MPD2    H711263   2.249   1.007  10.862  0.5578  0.4306  0.8654
  763MPD2     C11264   4.098   1.557  16.392 -0.0312  0.6798  0.1475
  763MPD2    C111265   4.037   1.643  16.313 -0.1231 -0.3226 -0.1848
  763MPD2    C211266   4.030   1.779  16.340  0.2724  0.4958 -0.7003
  763MPD2    C311267   4.094   1.832  16.451  0.3342 -0.7198 -0.3695
  763MPD2    C411268   4.146   1.738  16.533  0.0061 -0.0284 -0.4300
  763MPD2    C511269   4.141   1.605  16.509  0.4051 -0.1827 -0.0653
  763MPD2     H11270   3.988   1.849  16.269  3.6605  0.0287 -3.1913
  763MPD2    H111271   4.193   1.766  16.626 -0.6583  0.4784 -0.2468
  763MPD2    H211272   4.110   1.451  16.371 -0.5035  1.0776 -2.2029
  763MPD2    H311273   4.199   1.537  16.570  0.8506 -0.8401 -1.2310
  763MPD2     N11274   4.095   1.971  16.482  0.4998  0.4148  0.0485
  763MPD2    H511275   4.165   1.996  16.551  1.6167  0.3752 -1.0747
  763MPD2    N111276   3.987   1.590  16.193  0.4133  0.1344 -0.1485
  763MPD2    H711277   4.021   1.499  16.163  0.4291 -0.0675  0.4810
  764MPD2     C11278   1.306   4.046  17.606  1.1873  0.2171 -0.0970
  764MPD2    C111279   1.316   3.930  17.544  0.3420 -0.0883 -0.4801
  764MPD2    C211280   1.284   3.817  17.613  0.2930  0.5183 -0.2624
  764MPD2    C311281   1.231   3.826   0.047 -0.3906  0.1958 -0.7178
  764MPD2    C411282   1.209   3.946   0.107  0.3117  0.5190  0.3029
  764MPD2    C511283   1.250   4.054   0.039  0.0189 -0.3214  0.4861
  764MPD2     H11284   1.288   3.724  17.556 -0.0689  0.0738  0.4411
  764MPD2    H111285   1.151   3.968   0.196 -0.7095  1.6780 -0.6436
  764MPD2    H211286   1.344   4.140  17.569 -0.5009  0.4529 -1.2470
  764MPD2    H311287   1.239   4.158   0.066 -0.0426  0.4881 -2.6277
  764MPD2     N11288   1.215   3.708   0.115 -0.6466 -0.1232 -0.2784
  764MPD2    H511289   1.235   3.620   0.068 -1.8435 -0.4241 -0.2364
  764MPD2    N111290   1.360   3.915  17.415 -0.2680  0.3150  0.2968
  764MPD2    H711291   1.356   3.818  17.386  0.1923  0.7594 -1.2479
  765MPD2     C11292   1.807   1.373  15.700  0.9332 -0.0363 -0.5553
  765MPD2    C111293   1.906   1.473  15.692 -0.6680 -0.3826  0.1684
  765MPD2    C211294   2.021   1.443  15.622  0.0279 -0.0552 -0.0852
  765MPD2    C311295   2.031   1.316  15.561  0.2209 -0.3122 -0.3004
  765MPD2    C411296   1.932   1.219  15.581  0.0097 -0.7220  1.0814
  765MPD2    C511297   1.827   1.253  15.649  0.2383  0.1820  0.1926
  765MPD2     H11298   2.101   1.516  15.628 -0.5393  0.4321  1.4431
  765MPD2    H111299   1.934   1.117  15.544  0.9511 -0.4262  0.3125
  765MPD2    H211300   1.712   1.406  15.739  1.7514 -0.5120  1.8160
  765MPD2    H311301   1.754   1.174  15.664  0.4941 -0.0836  0.0597
  765MPD2     N11302   2.155   1.280  15.502 -0.2967  0.2494 -0.0962
  765MPD2    H511303   2.234   1.336  15.531 -0.2219 -0.2520  0.6568
  765MPD2    N111304   1.884   1.601  15.754  0.5083 -0.7392  1.0448
  765MPD2    H711305   1.797   1.607  15.805  0.2282 -0.7246  0.5618
  766MPD2     C11306   1.375   1.705  15.602  0.1437 -0.0910 -0.1270
  766MPD2    C111307   1.509   1.721  15.584 -0.0323 -0.4471 -0.0867
  766MPD2    C211308   1.574   1.661  15.479 -0.2597  0.6880  0.1904
  766MPD2    C311309   1.503   1.598  15.372  0.3324 -0.4291 -0.4504
  766MPD2    C411310   1.371   1.595  15.388  0.0949 -0.4127 -0.0859
  766MPD2    C511311   1.311   1.633  15.502 -0.3867 -0.9983  0.3269
  766MPD2     H11312   1.682   1.666  15.474 -0.2123 -0.9480 -0.3650
  766MPD2    H111313   1.315   1.546  15.309 -0.2886  0.2829 -0.2373
  766MPD2    H211314   1.324   1.736  15.692  0.5809  0.1086  0.0531
  766MPD2    H311315   1.206   1.610  15.511 -0.3776 -0.0707  3.1052
  766MPD2     N11316   1.562   1.552  15.246 -0.0367 -0.2776 -0.2901
  766MPD2    H511317   1.499   1.517  15.174  1.4732 -1.5600 -0.9947
  766MPD2    N111318   1.589   1.778  15.681  0.3794 -0.0120 -0.5130
  766MPD2    H711319   1.687   1.775  15.652  0.5813 -0.3592  0.1927
  767MPD2     C11320   1.204   1.729  15.142 -0.9457  0.2046 -0.8223
  767MPD2    C111321   1.309   1.750  15.052 -0.0853  0.3009  0.2609
  767MPD2    C211322   1.324   1.662  14.944 -1.0801  0.1799 -0.3404
  767MPD2    C311323   1.223   1.571  14.916  0.6878 -0.8057  0.1998
  767MPD2    C411324   1.115   1.558  15.003 -0.3051  0.1110  0.2972
  767MPD2    C511325   1.111   1.629  15.117 -0.3988  0.5723 -0.4523
  767MPD2     H11326   1.400   1.674  14.867 -1.5161 -0.6359 -0.9001
  767MPD2    H111327   1.028   1.495  14.988 -0.8887  0.9376  0.2235
  767MPD2    H211328   1.187   1.797  15.225  1.3424  0.5662 -0.6439
  767MPD2    H311329   1.018   1.619  15.171 -0.0784 -1.5335 -0.3030
  767MPD2     N11330   1.234   1.486  14.803 -0.1352 -0.1583 -0.4982
  767MPD2    H511331   1.327   1.488  14.763  0.7365  2.0098  1.6473
  767MPD2    N111332   1.407   1.840  15.092 -0.2264  0.1384  0.4888
  767MPD2    H711333   1.399   1.878  15.186  0.7516  1.1557  0.1558
  768MPD2     C11334   2.697   0.156  10.529 -0.4170  0.2268  0.1448
  768MPD2    C111335   2.667   0.068  10.631  0.3530  0.0464 -0.1267
  768MPD2    C211336   2.765   0.041  10.728  0.2060 -0.3941 -0.4313
  768MPD2    C311337   2.891   0.088  10.718  0.1303  0.5698  0.0953
  768MPD2    C411338   2.917   0.172  10.611  0.1060 -0.9623  0.4426
  768MPD2    C511339   2.828   0.191  10.510  0.5486 -0.0067  0.2272
  768MPD2     H11340   2.742   4.710  10.819  1.1836 -0.0025  0.0477
  768MPD2    H111341   3.015   0.217  10.606  0.4391 -1.3886  2.8711
  768MPD2    H211342   2.625   0.188  10.455 -1.1462 -0.5551  0.5173
  768MPD2    H311343   2.841   0.259  10.427 -0.0212  0.6009  0.6322
  768MPD2     N11344   2.987   0.074  10.826 -0.5480  0.0098 -0.5020
  768MPD2    H511345   3.079   0.115  10.813 -0.4363  1.0348  3.3271
  768MPD2    N111346   2.537   0.027  10.655  0.3124  0.0579 -0.8631
  768MPD2    H711347   2.537   4.672  10.720  1.0234  1.4523  0.8172
  769MPD2     C11348   3.392   2.845  15.001  0.0277  0.1469 -0.1549
  769MPD2    C111349   3.256   2.873  15.009  0.2452 -0.5099 -0.5451
  769MPD2    C211350   3.220   2.973  15.107  0.4924  0.7315 -0.1635
  769MPD2    C311351   3.315   3.049  15.176  0.5078  0.1736 -0.5378
  769MPD2    C411352   3.446   3.022  15.145  0.1666  0.1691  0.0045
  769MPD2    C511353   3.490   2.919  15.066 -0.5183  0.5540 -1.0367
  769MPD2     H11354   3.118   2.977  15.144  0.3854 -1.2550 -0.2454
  769MPD2    H111355   3.531   3.082  15.175  1.9996 -2.9583  1.1450
  769MPD2    H211356   3.422   2.775  14.924  0.8608  1.8079 -1.3615
  769MPD2    H311357   3.596   2.912  15.043  0.0828  0.4247  1.6969
  769MPD2     N11358   3.268   3.140  15.269  0.7746 -0.4048 -0.7596
  769MPD2    H511359   3.168   3.146  15.287  1.0751 -0.1954  0.7946
  769MPD2    N111360   3.168   2.792  14.930 -0.4950  0.2512 -0.0403
  769MPD2    H711361   3.201   2.725  14.860  1.3152  0.8810  0.2063
  770MPD2     C11362   2.934   1.944  14.481  0.6871 -0.0758  0.1154
  770MPD2    C111363   2.818   1.973  14.546  0.4511  1.0708  0.5312
  770MPD2    C211364   2.810   2.097  14.607  0.5557 -0.0636  0.1608
  770MPD2    C311365   2.907   2.194  14.583  0.5675 -0.0980  0.0913
  770MPD2    C411366   3.018   2.158  14.514  0.2544 -0.3115 -0.6550
  770MPD2    C511367   3.031   2.034  14.466  1.0286  0.0329  0.1532
  770MPD2     H11368   2.724   2.126  14.667 -0.0293 -0.2696 -0.5840
  770MPD2    H111369   3.093   2.232  14.487  0.7393 -0.3070  0.6545
  770MPD2    H211370   2.962   1.846  14.443  0.8302 -0.5279  1.4055
  770MPD2    H311371   3.115   1.999  14.407  0.7070  1.4734 -1.1551
  770MPD2     N11372   2.884   2.318  14.635  0.3318  0.3258 -0.4562
  770MPD2    H511373   2.792   2.338  14.673  0.0323 -0.1348 -0.9368
  770MPD2    N111374   2.719   1.874  14.567 -0.5186 -0.1809  0.1473
  770MPD2    H711375   2.726   1.789  14.513 -0.5970  1.0152 -1.7699
  771MPD2     C11376   3.729   0.909  13.828 -0.1959 -0.2901 -0.1523
  771MPD2    C111377   3.668   0.988  13.733 -0.3910 -0.0394  0.4990
  771MPD2    C211378   3.570   0.924  13.655  0.0196 -0.0667 -0.2120
  771MPD2    C311379   3.539   0.791  13.664  0.5117  0.5070 -0.1896
  771MPD2    C411380   3.604   0.711  13.763 -0.7761 -0.5767 -0.2673
  771MPD2    C511381   3.701   0.777  13.840 -0.1069 -0.6248  0.4444
  771MPD2     H11382   3.529   0.986  13.577 -0.3218  0.2964  0.2552
  771MPD2    H111383   3.602   0.602  13.763 -0.5229 -0.5814  0.7105
  771MPD2    H211384   3.804   0.946  13.897 -0.3892  0.2872 -0.2441
  771MPD2    H311385   3.756   0.721  13.915  0.5884 -1.0778 -0.4070
  771MPD2     N11386   3.449   0.740  13.570  0.5182 -0.0486  0.2682
  771MPD2    H511387   3.420   0.803  13.496 -0.1823  1.3848  1.7562
  771MPD2    N111388   3.682   1.117  13.702 -0.9393  0.1775 -0.0784
  771MPD2    H711389   3.617   1.146  13.630  0.3741  1.6009 -0.6826
  772MPD2     C11390   3.221   1.636  13.498 -0.5674 -0.6858 -0.8546
  772MPD2    C111391   3.265   1.560  13.608  0.0509  0.1949 -1.0838
  772MPD2    C211392   3.168   1.528  13.700  0.5108 -1.0504  0.3109
  772MPD2    C311393   3.037   1.568  13.689 -0.0088 -0.0102 -0.0523
  772MPD2    C411394   3.003   1.649  13.585  0.9696  0.2859 -0.0398
  772MPD2    C511395   3.095   1.684  13.494 -0.1096 -0.6390 -0.1366
  772MPD2     H11396   3.197   1.479  13.793  0.5932 -1.8551 -0.1366
  772MPD2    H111397   2.900   1.682  13.581  1.1501  0.9716  0.8081
  772MPD2    H211398   3.287   1.675  13.421 -0.2351  0.7448  0.1589
  772MPD2    H311399   3.054   1.743  13.413  0.5813  2.0293  1.4521
  772MPD2     N11400   2.941   1.538  13.788 -0.7408  0.1238  0.2464
  772MPD2    H511401   2.847   1.553  13.752 -1.3089  0.5200  1.9110
  772MPD2    N111402   3.397   1.517  13.629  0.3998 -0.3934 -0.0731
  772MPD2    H711403   3.413   1.437  13.690 -1.8815 -1.8622 -1.4124
  773MPD2     C11404   2.900   2.189   0.508 -0.5066 -0.1466 -0.0760
  773MPD2    C111405   2.822   2.096   0.438 -0.0123 -0.0491 -0.1336
  773MPD2    C211406   2.856   1.962   0.443  0.2162  0.2327 -0.1191
  773MPD2    C311407   2.960   1.914   0.530  0.8820 -0.3147  0.4696
  773MPD2    C411408   3.031   2.006   0.608  0.3372 -0.4381 -0.3218
  773MPD2    C511409   2.993   2.138   0.598 -0.1592  0.5140 -0.0062
  773MPD2     H11410   2.810   1.894   0.371 -1.6789 -0.6140  1.8863
  773MPD2    H111411   3.110   1.974   0.675 -1.8190 -2.4552  1.2132
  773MPD2    H211412   2.872   2.293   0.512 -2.2018 -0.5946  0.0186
  773MPD2    H311413   3.042   2.203   0.669 -1.3156  2.5531 -1.0860
  773MPD2     N11414   2.986   1.771   0.533  0.1826  0.1419 -0.6366
  773MPD2    H511415   2.929   1.713   0.472  0.1367 -1.1404  0.6276
  773MPD2    N111416   2.733   2.148   0.343 -0.1829 -0.5647  0.0800
  773MPD2    H711417   2.675   2.077   0.298  0.0301 -0.6592 -0.0426
  774MPD2     C11418   1.970   1.348  13.056 -0.1654  0.7508  0.0922
  774MPD2    C111419   1.998   1.409  13.174  0.5629 -0.5207 -0.5978
  774MPD2    C211420   2.103   1.494  13.177 -0.1101  0.2914 -0.2661
  774MPD2    C311421   2.174   1.525  13.062 -0.7077  0.3032 -0.5238
  774MPD2    C411422   2.151   1.459  12.944  0.3681 -0.2452  0.2495
  774MPD2    C511423   2.047   1.367  12.944 -0.8129  0.0027  0.4977
  774MPD2     H11424   2.121   1.520  13.281 -0.7120  1.6958 -0.5159
  774MPD2    H111425   2.217   1.458  12.858 -2.1900 -1.0110 -1.7093
  774MPD2    H211426   1.885   1.284  13.036  1.3785 -1.5139  0.7998
  774MPD2    H311427   2.031   1.316  12.849 -2.5557  3.3683 -0.9992
  774MPD2     N11428   2.284   1.612  13.086  0.5097 -0.7686 -0.0595
  774MPD2    H511429   2.281   1.659  13.176 -0.5083 -0.7620 -0.0966
  774MPD2    N111430   1.931   1.384  13.299 -0.1416 -0.3233 -0.2461
  774MPD2    H711431   1.970   1.423  13.384 -0.8152 -0.5330  0.1648
  775MPD2     C11432   3.264   2.987  15.937  0.0986 -0.4093 -0.4285
  775MPD2    C111433   3.242   3.112  15.992 -0.2073  0.2303  0.8485
  775MPD2    C211434   3.337   3.211  15.959  0.1224  0.0518 -0.4745
  775MPD2    C311435   3.452   3.185  15.888  0.2351 -0.3573  0.0048
  775MPD2    C411436   3.464   3.064  15.822 -0.4519 -0.3103 -0.1330
  775MPD2    C511437   3.380   2.961  15.862 -0.3645 -0.4166  0.2043
  775MPD2     H11438   3.334   3.310  16.005 -1.2568 -0.7740  1.1993
  775MPD2    H111439   3.556   3.051  15.766  0.5117  2.2435  0.8174
  775MPD2    H211440   3.196   2.904  15.949 -0.2006 -0.3365 -1.6103
  775MPD2    H311441   3.392   2.860  15.825 -0.0532 -0.3695  0.1775
  775MPD2     N11442   3.560   3.274  15.873  0.6227  0.7004  0.1880
  775MPD2    H511443   3.633   3.257  15.804  2.3629  2.1906  1.6426
  775MPD2    N111444   3.123   3.142  16.067  0.2490 -0.0598  0.7254
  775MPD2    H711445   3.059   3.066  16.088  2.9171 -2.3432  0.5665
  776MPD2     C11446   3.052   3.305  12.031 -0.7799  0.1019  0.1951
  776MPD2    C111447   2.977   3.308  11.916 -0.2913  0.6489  0.2109
  776MPD2    C211448   3.034   3.382  11.810 -0.1334  0.4299  0.5387
  776MPD2    C311449   3.160   3.446  11.822  0.9604 -0.2236  0.7636
  776MPD2    C411450   3.233   3.433  11.943 -0.2514 -0.4538  0.0223
  776MPD2    C511451   3.179   3.357  12.046 -0.6426 -0.1928  0.5806
  776MPD2     H11452   2.977   3.378  11.717  0.3041 -2.8492  0.4211
  776MPD2    H111453   3.326   3.486  11.956 -0.1409 -0.4243 -0.9553
  776MPD2    H211454   3.018   3.244  12.114 -2.0859  3.6372  2.2355
  776MPD2    H311455   3.228   3.345  12.142 -0.8311 -0.6603  0.6223
  776MPD2     N11456   3.229   3.513  11.721 -0.6245 -0.1889 -0.6611
  776MPD2    H511457   3.328   3.533  11.728 -0.6054 -0.9171  1.0051
  776MPD2    N111458   2.864   3.224  11.903  0.2518 -0.3770 -0.1133
  776MPD2    H711459   2.841   3.185  11.993 -1.9703  1.2754  0.0327
  777MPD2     C11460   2.613   0.817   0.736 -0.0100  0.4766 -0.3579
  777MPD2    C111461   2.493   0.802   0.796 -0.0638 -0.4014  0.3456
  777MPD2    C211462   2.396   0.718   0.740 -0.1714 -0.5729 -0.2939
  777MPD2    C311463   2.416   0.645   0.621 -0.0933 -0.6911 -0.2377
  777MPD2    C411464   2.541   0.668   0.556 -0.0736  0.0255  0.1136
  777MPD2    C511465   2.634   0.755   0.613  0.6568  0.0347 -0.1293
  777MPD2     H11466   2.309   0.695   0.800 -0.3758  1.5726  0.2274
  777MPD2    H111467   2.565   0.620   0.462  2.9769 -1.5311  1.6889
  777MPD2    H211468   2.703   0.858   0.781 -0.1372  0.0633  0.2603
  777MPD2    H311469   2.722   0.769   0.552  0.8714 -1.2309 -0.1134
  777MPD2     N11470   2.325   0.556   0.577 -0.6835 -0.1429 -0.0649
  777MPD2    H511471   2.245   0.552   0.640 -2.3997  1.1909 -2.1270
  777MPD2    N111472   2.482   0.865   0.918  0.0086  0.3771  0.5320
  777MPD2    H711473   2.563   0.922   0.943  0.2076  0.0724  0.5877
  778MPD2     C11474   3.835   0.632  15.345  0.6635  0.2053  0.3250
  778MPD2    C111475   3.767   0.588  15.227  0.2457 -0.2753 -0.4889
  778MPD2    C211476   3.815   0.640  15.109  0.3318 -0.5097  0.0593
  778MPD2    C311477   3.918   0.732  15.104 -0.0094 -0.4690  0.0974
  778MPD2    C411478   3.968   0.786  15.223  0.0359 -0.1193  0.4374
  778MPD2    C511479   3.934   0.726  15.341  0.3453  0.5979 -0.3402
  778MPD2     H11480   3.764   0.610  15.018 -0.8067  2.7097 -0.3640
  778MPD2    H111481   4.054   0.852  15.223 -2.3770  3.0722  3.1228
  778MPD2    H211482   3.803   0.611  15.446  0.9014  2.8957  0.9628
  778MPD2    H311483   3.981   0.747  15.436 -1.0849 -0.2527  0.5598
  778MPD2     N11484   3.957   0.790  14.987 -0.1902 -0.0318 -0.1868
  778MPD2    H511485   3.922   0.751  14.900  0.1046 -0.8485  0.0564
  778MPD2    N111486   3.660   0.492  15.236 -0.0873 -0.1646  0.3153
  778MPD2    H711487   3.622   0.475  15.144 -1.7456  2.0795  0.6005
  779MPD2     C11488   3.412   4.261  14.818  0.1063  0.0139 -0.4103
  779MPD2    C111489   3.544   4.252  14.783  0.4756 -0.1063 -0.7551
  779MPD2    C211490   3.609   4.367  14.740 -0.2369 -0.2934 -0.0152
  779MPD2    C311491   3.545   4.483  14.732 -0.2990 -0.5693 -0.1142
  779MPD2    C411492   3.413   4.497  14.775  0.2833 -0.0698 -0.3464
  779MPD2    C511493   3.347   4.383  14.813 -0.2569 -0.2883  0.4446
  779MPD2     H11494   3.707   4.366  14.693 -0.0119  0.8492  0.4490
  779MPD2    H111495   3.361   4.592  14.784 -1.2323 -0.9752  0.2785
  779MPD2    H211496   3.350   4.180  14.852 -1.3272  1.2938  0.0284
  779MPD2    H311497   3.242   4.391  14.840 -0.4152 -2.2981  0.3891
  779MPD2     N11498   3.613   4.600  14.674 -0.1577  0.0107  0.2985
  779MPD2    H511499   3.712   4.579  14.661  0.0366 -0.2630  2.2461
  779MPD2    N111500   3.609   4.131  14.762  0.6488 -0.0494 -0.5112
  779MPD2    H711501   3.702   4.136  14.722  0.9905 -0.9101  0.1635
  780MPD2     C11502   2.866   0.312   1.152 -0.0182  0.7413  0.1396
  780MPD2    C111503   2.789   0.219   1.088  0.2562  0.0393 -0.1958
  780MPD2    C211504   2.831   0.169   0.967 -0.6465  0.0783  0.1982
  780MPD2    C311505   2.954   0.202   0.918 -0.0081  0.9711  0.6877
  780MPD2    C411506   3.037   0.294   0.989 -0.3322  0.0479  0.2423
  780MPD2    C511507   2.993   0.348   1.110  0.2104 -0.1956 -0.3854
  780MPD2     H11508   2.756   0.113   0.912 -1.9849  2.4866 -0.4601
  780MPD2    H111509   3.127   0.332   0.944 -1.6346  1.8744 -0.7829
  780MPD2    H211510   2.838   0.362   1.245 -0.4652 -1.6323  1.2822
  780MPD2    H311511   3.055   0.415   1.169  0.9621 -0.2311 -1.1419
  780MPD2     N11512   2.991   0.132   0.803  0.3475  0.2433 -0.3179
  780MPD2    H511513   2.924   0.069   0.761  1.9811 -1.3185 -0.5747
  780MPD2    N111514   2.656   0.188   1.143 -0.3749  0.3949  0.2442
  780MPD2    H711515   2.634   0.231   1.232  1.4648  0.3605  0.7163
  781MPD2     C11516   0.574   1.231  12.001 -0.1225  0.5145  0.0601
  781MPD2    C111517   0.511   1.346  12.037  0.0288  0.2518  0.2611
  781MPD2    C211518   0.508   1.456  11.948 -0.3549  0.6374  0.1353
  781MPD2    C311519   0.580   1.445  11.824  0.3130  0.2706  0.3552
  781MPD2    C411520   0.648   1.330  11.798 -0.1560 -0.1897 -0.3394
  781MPD2    C511521   0.650   1.226  11.882  0.3933  0.3734  0.0505
  781MPD2     H11522   0.449   1.544  11.972 -0.8409  0.3065  0.1545
  781MPD2    H111523   0.700   1.327  11.703 -0.5183 -1.0036 -0.5104
  781MPD2    H211524   0.573   1.138  12.058  2.4016  1.3503  1.4524
  781MPD2    H311525   0.713   1.141  11.861  0.6305  0.3698  0.7556
  781MPD2     N11526   0.575   1.551  11.730 -0.2852  0.1498 -0.0291
  781MPD2    H511527   0.631   1.543  11.646  0.0421 -0.9581  0.2921
  781MPD2    N111528   0.428   1.351  12.146  0.2047 -0.4307 -0.6165
  781MPD2    H711529   0.398   1.444  12.172  1.0969  0.2262 -1.9280
  782MPD2     C11530   3.172   2.334  10.101 -0.3198  0.5840 -0.5191
  782MPD2    C111531   3.243   2.316  10.213  0.0148  0.1940  0.1945
  782MPD2    C211532   3.219   2.407  10.311  0.5542  0.3555 -0.2029
  782MPD2    C311533   3.135   2.512  10.296  0.5072 -0.2429  0.0544
  782MPD2    C411534   3.071   2.535  10.180 -0.1360  0.2589  0.3955
  782MPD2    C511535   3.088   2.443  10.079 -0.2598 -0.0779 -0.5580
  782MPD2     H11536   3.270   2.399  10.406 -1.3313 -1.1134  0.6941
  782MPD2    H111537   3.015   2.625  10.156  1.1594  0.1067 -3.2203
  782MPD2    H211538   3.182   2.260  10.023 -0.0131 -0.0470  0.1240
  782MPD2    H311539   3.033   2.448   9.986 -1.7594  1.2325  0.4104
  782MPD2     N11540   3.131   2.606  10.397  0.5001  1.1016 -0.0463
  782MPD2    H511541   3.169   2.577  10.487 -1.6320 -2.5730 -0.2944
  782MPD2    N111542   3.328   2.210  10.228 -0.5869  0.6934  0.4244
  782MPD2    H711543   3.321   2.136  10.159 -0.7723 -0.8445  2.0750
  783MPD2     C11544   3.030   1.706  10.899 -0.7662  0.3614 -0.2103
  783MPD2    C111545   3.038   1.844  10.885  0.6446 -0.7635 -0.7383
  783MPD2    C211546   3.111   1.892  10.776 -0.4136 -0.0884  0.2653
  783MPD2    C311547   3.174   1.800  10.690  0.4209  0.4929  0.1225
  783MPD2    C411548   3.155   1.662  10.702 -0.1974 -0.8425  1.0307
  783MPD2    C511549   3.085   1.616  10.808 -0.3588  0.4140 -0.2294
  783MPD2     H11550   3.115   1.997  10.753  1.5635  0.4629  3.1381
  783MPD2    H111551   3.193   1.592  10.628 -1.4478  1.0394 -1.3621
  783MPD2    H211552   2.968   1.660  10.975  0.3880 -1.7665 -0.5506
  783MPD2    H311553   3.086   1.508  10.823  1.9998  0.4384 -0.2295
  783MPD2     N11554   3.258   1.860  10.594  0.1809 -0.3372  0.1636
  783MPD2    H511555   3.265   1.961  10.593 -0.0035 -0.3233  0.8094
  783MPD2    N111556   2.951   1.926  10.965  0.3972 -0.3255  0.1071
  783MPD2    H711557   2.895   1.879  11.036  0.0887 -1.9401 -1.2157
  784MPD2     C11558   0.186   2.461   1.172  0.0312 -0.6528 -0.3309
  784MPD2    C111559   0.194   2.587   1.227  0.1905 -0.2385  0.4187
  784MPD2    C211560   0.097   2.684   1.196 -0.2286 -0.1196  0.5883
  784MPD2    C311561   4.710   2.656   1.120 -0.0786  0.0066 -0.9184
  784MPD2    C411562   4.690   2.522   1.089  0.6282 -0.2435 -0.0950
  784MPD2    C511563   0.062   2.429   1.120  0.7545 -0.0577 -0.4940
  784MPD2     H11564   0.108   2.786   1.230  0.2381 -0.0851  0.3228
  784MPD2    H111565   4.597   2.478   1.055  0.8494  0.0342 -1.0451
  784MPD2    H211566   0.258   2.382   1.188  1.2221  0.8082  1.5145
  784MPD2    H311567   0.037   2.324   1.106 -1.3063  0.7635 -2.9552
  784MPD2     N11568   4.629   2.760   1.069  0.5185 -0.5433  0.3042
  784MPD2    H511569   4.625   2.852   1.110  1.1247 -1.0171  1.4195
  784MPD2    N111570   0.304   2.631   1.309 -0.4608  0.5603  0.6942
  784MPD2    H711571   0.293   2.727   1.340  1.5467  0.9452  0.1904
  785MPD2     C11572   1.333   0.767  10.812  0.8093 -0.6664 -0.0282
  785MPD2    C111573   1.274   0.892  10.789  0.2073  0.3979 -0.0419
  785MPD2    C211574   1.142   0.887  10.737  0.2837  0.7771 -0.0264
  785MPD2    C311575   1.075   0.766  10.707  0.4407  0.2115 -0.2103
  785MPD2    C411576   1.138   0.644  10.740  0.8669  0.6391  0.1982
  785MPD2    C511577   1.267   0.651  10.785 -0.5358 -0.2502 -0.3451
  785MPD2     H11578   1.085   0.975  10.709  2.3679  1.8617 -0.8951
  785MPD2    H111579   1.086   0.552  10.716  0.2189  1.0312  0.0630
  785MPD2    H211580   1.427   0.763  10.865  1.4111  1.0402 -0.9545
  785MPD2    H311581   1.325   0.565  10.816  1.2282  0.6907 -1.0349
  785MPD2     N11582   0.952   0.774  10.636  0.1368 -0.8326  0.4831
  785MPD2    H511583   0.915   0.868  10.622 -1.1356 -1.2814  0.8739
  785MPD2    N111584   1.343   1.008  10.839  0.3868  0.2720 -1.0619
  785MPD2    H711585   1.442   0.998  10.862  0.5825  0.1686 -1.9652
  786MPD2     C11586   3.787   3.695  14.919  0.4014 -0.3541 -0.3917
  786MPD2    C111587   3.900   3.615  14.889 -0.5161  0.1651  0.3874
  786MPD2    C211588   4.010   3.630  14.969  0.4452 -1.1647 -0.5315
  786MPD2    C311589   4.020   3.721  15.076  1.1564  0.0973 -0.0206
  786MPD2    C411590   3.919   3.816  15.091  0.3271 -0.6468  0.1934
  786MPD2    C511591   3.807   3.804  15.010 -0.0897  0.2753  0.2897
  786MPD2     H11592   4.095   3.569  14.939  1.3305 -0.0013 -0.3886
  786MPD2    H111593   3.921   3.880  15.178  1.2118  0.5024 -0.6675
  786MPD2    H211594   3.694   3.661  14.874 -0.3358  0.1597  0.7382
  786MPD2    H311595   3.724   3.871  15.028  1.0472  2.1306 -1.3815
  786MPD2     N11596   4.128   3.724  15.168  0.1631 -0.4130 -0.4192
  786MPD2    H511597   4.121   3.801  15.235  0.0514  0.4423 -1.4080
  786MPD2    N111598   3.904   3.512  14.793  0.0418  0.5212 -0.3535
  786MPD2    H711599   3.993   3.467  14.778  0.9019  1.3100  2.3302
  787MPD2     C11600   3.898   2.963  15.032  0.9787 -0.3930 -0.2139
  787MPD2    C111601   3.955   2.948  14.910 -0.1169  0.8289 -0.5401
  787MPD2    C211602   4.066   2.857  14.905  0.2039  0.1033  0.0961
  787MPD2    C311603   4.109   2.776  15.017 -0.3033  0.0156  0.7219
  787MPD2    C411604   4.038   2.794  15.135  0.1039 -0.7620 -0.7012
  787MPD2    C511605   3.939   2.888  15.146  0.3003 -0.5118  0.4362
  787MPD2     H11606   4.116   2.846  14.810  0.1861 -1.3418  0.2546
  787MPD2    H111607   4.065   2.734  15.222 -1.4018  1.3755  1.2110
  787MPD2    H211608   3.817   3.035  15.037  1.4465  0.0347  1.4429
  787MPD2    H311609   3.889   2.907  15.241 -0.7934  0.0665 -0.2543
  787MPD2     N11610   4.218   2.681  14.986  0.5188  0.0611  0.5585
  787MPD2    H511611   4.263   2.679  14.895 -0.5595  0.8886 -0.0022
  787MPD2    N111612   3.912   3.029  14.802  0.0402  0.3375 -0.1509
  787MPD2    H711613   3.844   3.097  14.834  0.1406  0.5882 -0.4648
  788MPD2     C11614   1.156   2.088   0.618  0.1488 -0.1111 -0.1003
  788MPD2    C111615   1.118   1.962   0.565 -0.2549  0.5635  0.5002
  788MPD2    C211616   1.034   1.965   0.454  0.1955  0.5008  0.8303
  788MPD2    C311617   0.968   2.079   0.400  0.2872 -1.0730 -0.1224
  788MPD2    C411618   1.009   2.197   0.455 -0.1407 -0.0146 -0.3559
  788MPD2    C511619   1.097   2.198   0.561 -0.0655 -0.5333 -0.4754
  788MPD2     H11620   1.016   1.867   0.410 -1.2297  0.9930  0.3065
  788MPD2    H111621   0.978   2.294   0.417  0.3110  0.7800  1.3034
  788MPD2    H211622   1.226   2.099   0.700 -0.3102 -1.3995  0.4650
  788MPD2    H311623   1.100   2.293   0.613  0.6815 -0.6524 -0.3009
  788MPD2     N11624   0.897   2.081   0.275  0.2698 -0.0528 -0.1901
  788MPD2    H511625   0.865   2.170   0.238 -0.8122 -1.4080 -2.4822
  788MPD2    N111626   1.162   1.833   0.606  0.8344  0.2639  0.1648
  788MPD2    H711627   1.118   1.754   0.560  0.4235 -0.3448  1.5950
  789MPD2     C11628   1.851   2.010  16.153 -0.1560  0.3760  0.2871
  789MPD2    C111629   1.791   1.918  16.236  0.1789  0.7555 -0.3934
  789MPD2    C211630   1.678   1.954  16.302 -0.9312 -0.8675 -0.2454
  789MPD2    C311631   1.641   2.086  16.301 -0.7112 -0.0956 -0.8725
  789MPD2    C411632   1.703   2.179  16.225 -0.3148  0.5450  1.2894
  789MPD2    C511633   1.810   2.140  16.151  0.5983 -0.2210  0.1919
  789MPD2     H11634   1.614   1.881  16.350 -0.7424 -0.3868  0.7249
  789MPD2    H111635   1.657   2.276  16.209  0.3047  0.3117 -1.7689
  789MPD2    H211636   1.937   1.983  16.092  1.7824  0.0806  3.1154
  789MPD2    H311637   1.860   2.203  16.079 -0.6067  0.3037 -0.1728
  789MPD2     N11638   1.517   2.126  16.362  1.0241 -0.4015 -0.2813
  789MPD2    H511639   1.487   2.218  16.331 -0.2119 -0.7926 -0.2451
  789MPD2    N111640   1.818   1.789  16.234  0.5228 -0.0899  0.2177
  789MPD2    H711641   1.761   1.741  16.304 -1.9434  0.2588 -1.5574
  790MPD2     C11642   2.590   3.712  13.573  0.2261  0.7181 -0.0150
  790MPD2    C111643   2.563   3.584  13.614 -0.7106 -0.9552 -0.3032
  790MPD2    C211644   2.517   3.493  13.522  0.2658 -0.1517 -0.7921
  790MPD2    C311645   2.530   3.518  13.388 -0.8063 -0.1376 -0.2092
  790MPD2    C411646   2.559   3.648  13.347 -0.0443  0.2008 -0.1912
  790MPD2    C511647   2.580   3.746  13.441 -0.4229  0.5775  0.0604
  790MPD2     H11648   2.483   3.397  13.560 -1.3930  0.3955 -0.8824
  790MPD2    H111649   2.559   3.677  13.242 -1.9971  1.2834  0.1200
  790MPD2    H211650   2.634   3.785  13.640 -0.8031  1.5919 -0.2839
  790MPD2    H311651   2.593   3.848  13.408 -2.4398  0.3873 -1.3713
  790MPD2     N11652   2.490   3.422  13.294 -0.0762 -0.4535 -0.5395
  790MPD2    H511653   2.440   3.341  13.329  1.3769 -1.0486  0.1639
  790MPD2    N111654   2.574   3.563  13.754  0.1935 -0.1277  0.2712
  790MPD2    H711655   2.600   3.644  13.810 -0.1813 -1.5371  2.4955
  791MPD2     C11656   1.916   3.333  13.015  1.0679  0.3572  0.2874
  791MPD2    C111657   1.992   3.215  13.000  0.7919 -0.3172 -0.1781
  791MPD2    C211658   1.921   3.100  12.977  0.4488  0.5372 -0.0488
  791MPD2    C311659   1.780   3.101  12.951 -0.5201  0.7160  0.4454
  791MPD2    C411660   1.709   3.213  12.961  0.1000  0.2811 -0.1879
  791MPD2    C511661   1.778   3.328  12.992  0.0053 -0.1752  0.6299
  791MPD2     H11662   1.969   3.003  12.966 -1.0402 -0.1249 -0.7168
  791MPD2    H111663   1.602   3.225  12.949  0.0435  0.2185  0.2804
  791MPD2    H211664   1.967   3.428  13.022 -0.7447  1.4681 -1.6686
  791MPD2    H311665   1.721   3.420  12.998  1.8701  1.0900 -1.0357
  791MPD2     N11666   1.718   2.975  12.928 -0.2597 -0.8315 -0.2928
  791MPD2    H511667   1.769   2.888  12.918  1.2237 -0.0873  0.7744
  791MPD2    N111668   2.129   3.217  13.023 -0.1053 -0.2745  0.7681
  791MPD2    H711669   2.162   3.311  13.040  0.8070 -0.2200 -1.2506
  792MPD2     C11670   2.971   3.324  11.306  0.5617  0.1261 -0.0329
  792MPD2    C111671   2.987   3.252  11.196  0.2938  0.4993 -0.7217
  792MPD2    C211672   2.878   3.187  11.137  0.3618  0.4470 -0.1832
  792MPD2    C311673   2.753   3.195  11.193  0.2148 -0.1615  0.4231
  792MPD2    C411674   2.739   3.279  11.300 -0.6543  0.3142 -0.3331
  792MPD2    C511675   2.851   3.336  11.358  0.0171 -0.4577 -0.5244
  792MPD2     H11676   2.895   3.135  11.043 -1.0397  2.0760 -1.3245
  792MPD2    H111677   2.645   3.309  11.345 -0.4313  1.5754 -0.7010
  792MPD2    H211678   3.048   3.373  11.365 -0.3862  2.5441 -0.8237
  792MPD2    H311679   2.847   3.398  11.446  0.0962 -0.6107 -0.4133
  792MPD2     N11680   2.643   3.118  11.151 -0.0515 -0.0206  0.1554
  792MPD2    H511681   2.557   3.128  11.203  0.5649  1.4485  0.9069
  792MPD2    N111682   3.107   3.240  11.127  0.1536 -0.4772  0.2346
  792MPD2    H711683   3.102   3.191  11.039 -0.2074 -2.0806  1.1534
  793MPD2     C11684   2.270   3.293  10.393  0.4759  0.2429  0.3468
  793MPD2    C111685   2.397   3.235  10.423  0.1653  0.6496 -0.2249
  793MPD2    C211686   2.413   3.150  10.531 -0.0610 -0.1938  0.5283
  793MPD2    C311687   2.305   3.126  10.615 -0.0638 -0.5600  0.1889
  793MPD2    C411688   2.179   3.181  10.590  0.1982  0.6706  0.0947
  793MPD2    C511689   2.168   3.258  10.476 -0.1841 -0.3729 -0.2679
  793MPD2     H11690   2.513   3.113  10.549 -0.2791 -0.1724  1.7790
  793MPD2    H111691   2.096   3.171  10.659 -0.0955 -0.2924 -0.3863
  793MPD2    H211692   2.263   3.363  10.310 -1.6119 -0.6577 -0.2457
  793MPD2    H311693   2.068   3.301  10.473  1.1030  2.5800 -0.3877
  793MPD2     N11694   2.334   3.059  10.739 -0.3192  0.0583  0.3827
  793MPD2    H511695   2.429   3.036  10.769 -0.3992  0.9615  1.3176
  793MPD2    N111696   2.508   3.264  10.349 -0.0040  0.3263 -0.2437
  793MPD2    H711697   2.586   3.204  10.374  0.2396  0.4271 -0.7687
  794MPD2     C11698   2.253   2.824   0.098  0.9972 -0.7555 -0.9781
  794MPD2    C111699   2.232   2.722   0.014 -0.1822 -0.0922  0.0646
  794MPD2    C211700   2.132   2.739  17.610 -0.0509  0.5610 -0.4200
  794MPD2    C311701   2.067   2.865  17.595  0.3753  0.4076 -0.2304
  794MPD2    C411702   2.096   2.962  17.686  0.2159 -0.2183 -0.5225
  794MPD2    C511703   2.179   2.936   0.094  0.5370 -0.3359  0.1076
  794MPD2     H11704   2.109   2.651  17.552 -0.9469  1.0069 -0.7330
  794MPD2    H111705   2.036   3.052   0.001  0.2045 -0.2173 -0.5988
  794MPD2    H211706   2.326   2.818   0.179 -2.5956 -1.1004  2.2379
  794MPD2    H311707   2.191   3.018   0.164  1.6020  0.2052 -0.7041
  794MPD2     N11708   1.979   2.897  17.488 -0.7387  0.5583 -0.2144
  794MPD2    H511709   1.969   2.996  17.465 -1.5875  0.4087 -0.4857
  794MPD2    N111710   2.315   2.603   0.012 -0.0683  0.3830  0.0954
  794MPD2    H711711   2.295   2.541  17.630  0.2860 -0.3674  0.5963
  795MPD2     C11712   0.191   0.260  13.286 -0.3972 -0.1110  0.8206
  795MPD2    C111713   0.150   0.140  13.341 -0.3758  0.3481 -0.7794
  795MPD2    C211714   0.241   0.033  13.333 -0.1077  0.4231 -0.7145
  795MPD2    C311715   0.370   0.049  13.279  0.1655  0.2479  0.3100
  795MPD2    C411716   0.403   0.174  13.233  0.2394  0.3617  0.5779
  795MPD2    C511717   0.317   0.279  13.243  0.2431  0.0018  0.2549
  795MPD2     H11718   0.217   4.664  13.384  1.6494  0.1488 -0.3923
  795MPD2    H111719   0.505   0.193  13.200 -0.2446 -0.2157 -1.2712
  795MPD2    H211720   0.130   0.349  13.272  0.0771 -0.1895 -1.7531
  795MPD2    H311721   0.360   0.372  13.207  2.1465 -0.8447  0.2981
  795MPD2     N11722   0.465   4.668  13.281 -0.6106  0.1150 -0.2327
  795MPD2    H511723   0.440   4.584  13.333  1.1910  1.0038  2.1380
  795MPD2    N111724   0.017   0.117  13.388  0.2713 -0.2978  0.4471
  795MPD2    H711725   0.001   0.021  13.417  2.8927 -0.5177  1.2105
  796MPD2     C11726   4.199   1.830  16.000  0.1534  0.6081 -0.8558
  796MPD2    C111727   4.295   1.906  16.067 -0.4623 -0.0231 -0.3147
  796MPD2    C211728   4.280   2.050  16.071 -0.3407 -0.2921 -0.4282
  796MPD2    C311729   4.169   2.099  16.003  0.3331 -0.6028  0.0384
  796MPD2    C411730   4.077   2.016  15.944 -0.5864 -0.0444  0.5266
  796MPD2    C511731   4.084   1.880  15.947 -0.5240  0.0202 -0.3076
  796MPD2     H11732   4.350   2.108  16.128 -2.2512  1.8872 -0.3095
  796MPD2    H111733   3.986   2.052  15.899 -1.7165 -0.2524  2.6486
  796MPD2    H211734   4.193   1.722  16.006 -0.7284  0.7842  1.1121
  796MPD2    H311735   4.008   1.821  15.897 -1.6719  0.2834  1.1502
  796MPD2     N11736   4.164   2.241  15.970 -0.1438  0.2026 -0.4119
  796MPD2    H511737   4.251   2.291  15.979 -0.1814  0.0862  0.6193
  796MPD2    N111738   4.393   1.818  16.128  0.9258 -0.6151 -0.3124
  796MPD2    H711739   4.379   1.719  16.112  0.6586 -0.7790  0.9282
  797MPD2     C11740   0.389   0.892  17.432  0.4338  0.2554  0.1266
  797MPD2    C111741   0.510   0.959  17.444 -0.0488 -0.2373 -0.5435
  797MPD2    C211742   0.558   1.059  17.367 -0.2322  0.2271 -0.7220
  797MPD2    C311743   0.471   1.114  17.281 -0.5834  0.0141  0.4770
  797MPD2    C411744   0.343   1.064  17.264 -0.2254  0.1821 -0.0213
  797MPD2    C511745   0.309   0.945  17.336  0.8195  0.1626  0.0671
  797MPD2     H11746   0.660   1.088  17.390 -0.7534  1.1792  0.4157
  797MPD2    H111747   0.269   1.098  17.192 -0.3661  0.2044  0.1337
  797MPD2    H211748   0.351   0.815  17.498  0.8558  0.0609  0.1472
  797MPD2    H311749   0.211   0.900  17.322  1.0754 -0.6221  0.7808
  797MPD2     N11750   0.512   1.230  17.209  0.3486  0.1786  0.1973
  797MPD2    H511751   0.608   1.255  17.228  0.5579 -0.3169 -0.2157
  797MPD2    N111752   0.596   0.947  17.552  0.0689  0.3901 -0.0281
  797MPD2    H711753   0.685   0.996  17.547 -0.8734  1.7766 -3.7349
  798MPD2     C11754   1.020   1.567  17.506  0.0054 -0.8634  0.1428
  798MPD2    C111755   0.951   1.469  17.430 -0.2911 -0.1752  0.0932
  798MPD2    C211756   0.931   1.346  17.487  0.4107 -0.8383  0.3014
  798MPD2    C311757   0.968   1.316  17.616 -0.3253  0.5030 -0.8792
  798MPD2    C411758   1.031   1.410  17.691 -0.2095  0.8047 -0.4847
  798MPD2    C511759   1.057   1.533  17.634 -0.0805  0.1143 -1.1683
  798MPD2     H11760   0.866   1.276  17.436 -0.7645  0.4200  0.0650
  798MPD2    H111761   1.049   1.399   0.101  1.9697  0.0084 -0.9565
  798MPD2    H211762   1.027   1.671  17.473  1.6767 -0.7024  0.9689
  798MPD2    H311763   1.102   1.608   0.003  0.8175 -2.6634  1.4035
  798MPD2     N11764   0.917   1.196  17.668 -0.0977 -0.1515 -0.2271
  798MPD2    H511765   0.850   1.142  17.613  0.3366  1.1671 -2.0686
  798MPD2    N111766   0.903   1.513  17.302 -0.1005 -0.0606 -0.3729
  798MPD2    H711767   0.924   1.606  17.267 -0.7661  0.5767  0.9337
  799MPD2     C11768   4.457   2.616  14.539  0.2901  0.8306 -0.2654
  799MPD2    C111769   4.360   2.524  14.568 -0.2877  0.1765 -0.0407
  799MPD2    C211770   4.229   2.542  14.532  0.5604  0.1787  0.1538
  799MPD2    C311771   4.194   2.653  14.467 -0.2150 -0.5431 -0.0757
  799MPD2    C411772   4.291   2.751  14.448  0.5804 -0.0349  0.0229
  799MPD2    C511773   4.418   2.732  14.482  0.3646 -0.1393 -0.4020
  799MPD2     H11774   4.156   2.463  14.543 -0.4378  0.8122 -2.0397
  799MPD2    H111775   4.270   2.830  14.378  1.3824 -0.9212 -1.2127
  799MPD2    H211776   4.564   2.601  14.551  0.0786 -1.2398 -0.9214
  799MPD2    H311777   4.501   2.800  14.466  0.3642  0.1778  0.9483
  799MPD2     N11778   4.069   2.676  14.401 -0.2407 -0.1031 -0.3181
  799MPD2    H511779   4.064   2.766  14.354  2.2184 -0.7305 -1.7782
  799MPD2    N111780   4.390   2.398  14.625 -0.3412  0.7917 -0.0841
  799MPD2    H711781   4.313   2.348  14.668  0.3679  0.8926  1.3090
  800MPD2     C11782   4.614   3.373  14.225  1.1312 -1.1912 -0.3329
  800MPD2    C111783   4.716   3.457  14.199 -0.2240 -0.1219 -0.1403
  800MPD2    C211784   0.024   3.485  14.067  0.4127 -0.7544 -0.5403
  800MPD2    C311785   4.674   3.434  13.967  0.2412  0.1398 -0.4295
  800MPD2    C411786   4.574   3.344  13.986  0.0937 -0.3785  0.0647
  800MPD2    C511787   4.537   3.328  14.123 -0.2936  0.2107  0.2180
  800MPD2     H11788   0.107   3.547  14.037  1.4787 -1.8594  0.1392
  800MPD2    H111789   4.523   3.284  13.911  1.6364  1.0645 -2.1714
  800MPD2    H211790   4.590   3.343  14.326  2.2577 -0.9157  0.0183
  800MPD2    H311791   4.467   3.252  14.156  0.5373 -0.1152  1.2271
  800MPD2     N11792   4.719   3.460  13.837 -0.6329 -0.3440 -0.6064
  800MPD2    H511793   0.073   3.526  13.839 -1.2596  0.3784 -0.3763
  800MPD2    N111794   0.073   3.508  14.308  0.0741  0.5617 -0.5075
  800MPD2    H711795   0.053   3.468  14.399 -0.2454  0.1981 -0.7405
  801MPD2     C11796   0.097   4.081  14.290  0.0981  0.5259  0.2699
  801MPD2    C111797   0.055   4.038  14.415 -0.0049  0.5011 -0.1562
  801MPD2    C211798   4.669   4.081  14.483  0.4377 -0.6569  0.0373
  801MPD2    C311799   4.586   4.163  14.408  0.1969  0.0770  0.0632
  801MPD2    C411800   4.634   4.222  14.295  0.0088 -0.0399  0.1136
  801MPD2    C511801   0.021   4.178  14.232  0.0849 -0.1983  0.6180
  801MPD2     H11802   4.637   4.035  14.576 -0.4575  1.9621  1.0256
  801MPD2    H111803   4.563   4.288  14.246 -0.7780  0.1114  1.4566
  801MPD2    H211804   0.192   4.058  14.244 -0.2207  0.4009 -0.3194
  801MPD2    H311805   0.057   4.222  14.140 -1.3727  1.9585  1.0698
  801MPD2     N11806   4.465   4.219  14.457 -0.2453  0.2582  0.3146
  801MPD2    H511807   4.399   4.262  14.392  2.3366  2.6453 -0.6932
  801MPD2    N111808   0.143   3.943  14.475  0.2018  0.4137 -0.1412
  801MPD2    H711809   0.223   3.911  14.422  1.1975  0.1365  1.5408
  802MPD2     C11810   4.638   0.092   0.372 -0.4292 -0.0645  0.5359
  802MPD2    C111811   4.514   0.067   0.315  0.1743 -0.4454 -0.6307
  802MPD2    C211812   4.492   0.098   0.180 -0.2274  0.3352 -0.8358
  802MPD2    C311813   4.589   0.152   0.098  0.3075 -0.1040 -0.5554
  802MPD2    C411814   4.709   0.180   0.159  0.0928 -0.0166 -0.1112
  802MPD2    C511815   0.002   0.158   0.294 -0.2482  0.7703  0.5317
  802MPD2     H11816   4.395   0.076   0.139 -0.4793 -0.9783  0.4775
  802MPD2    H111817   0.065   0.217   0.096 -1.4221  0.5543 -1.6872
  802MPD2    H211818   4.662   0.085   0.478  0.0564 -0.5701  0.3941
  802MPD2    H311819   0.101   0.170   0.336  0.1139 -2.6857  0.7295
  802MPD2     N11820   4.558   0.156  17.654 -0.3749 -0.3104  0.7191
  802MPD2    H511821   4.465   0.135  17.619 -0.7499 -0.3229  1.7458
  802MPD2    N111822   4.410   0.023   0.394  0.4913  0.0047 -0.3543
  802MPD2    H711823   4.316   0.022   0.355  0.7188 -1.2722 -0.8904
  803MPD2     C11824   0.703   3.221  11.979 -0.2770  0.2041  0.4369
  803MPD2    C111825   0.751   3.207  12.102 -0.3659 -0.0483 -0.3383
  803MPD2    C211826   0.695   3.107  12.177  0.3738 -0.1098 -0.9423
  803MPD2    C311827   0.605   3.014  12.122 -0.2898 -0.6392 -0.2276
  803MPD2    C411828   0.554   3.041  12.001 -0.7500 -0.0354 -0.4597
  803MPD2    C511829   0.606   3.142  11.929  0.2462 -0.0075  0.1971
  803MPD2     H11830   0.714   3.107  12.284 -0.0575  1.8895 -0.8550
  803MPD2    H111831   0.463   2.998  11.961 -0.4601  0.6476 -1.8423
  803MPD2    H211832   0.748   3.277  11.898 -0.4977  0.4399  0.4760
  803MPD2    H311833   0.573   3.165  11.829  2.0344  1.4467 -0.0593
  803MPD2     N11834   0.544   2.914  12.202 -0.1631  0.1951 -0.1162
  803MPD2    H511835   0.455   2.874  12.174  0.8821 -0.0088 -3.2423
  803MPD2    N111836   0.850   3.289  12.153 -0.2743 -0.7492  0.3157
  803MPD2    H711837   0.875   3.276  12.251  2.5497  0.8073 -0.2068
  804MPD2     C11838   0.024   4.639  16.991 -0.2370 -0.0710 -0.0708
  804MPD2    C111839   0.033   4.609  17.128 -0.2348 -0.5755  0.1602
  804MPD2    C211840   0.097   4.702  17.208 -0.4113  0.3016 -0.3751
  804MPD2    C311841   0.139   0.100  17.156  0.3461  0.1042  0.4896
  804MPD2    C411842   0.115   0.137  17.022  0.4086  0.3051  0.2115
  804MPD2    C511843   0.060   0.037  16.944  0.4498 -0.2817 -0.6573
  804MPD2     H11844   0.124   4.675  17.310  1.5372  0.1855 -0.9185
  804MPD2    H111845   0.153   0.227  16.975 -0.4790  1.5831  1.9470
  804MPD2    H211846   4.715   4.570  16.914 -0.0751  0.1100 -0.3020
  804MPD2    H311847   0.047   0.052  16.837 -0.1594 -0.2238 -0.5788
  804MPD2     N11848   0.212   0.189  17.239  0.0242  0.5192 -0.2165
  804MPD2    H511849   0.248   0.147  17.324 -1.9857  0.3701  0.5709
  804MPD2    N111850   4.702   4.484  17.176 -0.1041  0.6475  0.2894
  804MPD2    H711851   4.706   4.462  17.275 -0.1625 -1.1476 -0.1067
  805MPD2     C11852   3.939   2.955  15.566  0.4038 -0.3821  0.0383
  805MPD2    C111853   3.994   2.837  15.527  0.3088  0.4476  1.0844
  805MPD2    C211854   4.131   2.824  15.519  0.2903 -0.2982 -0.4959
  805MPD2    C311855   4.212   2.928  15.541 -0.2653 -0.0994  0.4687
  805MPD2    C411856   4.163   3.045  15.585  0.9730 -0.4588 -0.0796
  805MPD2    C511857   4.021   3.055  15.600  0.1298 -0.2939 -0.4472
  805MPD2     H11858   4.182   2.735  15.483 -0.7077 -0.4798 -1.4764
  805MPD2    H111859   4.227   3.127  15.617 -2.2104  1.8933  0.3021
  805MPD2    H211860   3.836   2.956  15.599  1.5573 -1.6039  3.6351
  805MPD2    H311861   3.976   3.145  15.641  0.1863 -0.1893 -0.6152
  805MPD2     N11862   4.351   2.910  15.526 -0.5333  0.7257  0.3278
  805MPD2    H511863   4.386   2.820  15.495 -0.5664  1.1173 -0.8578
  805MPD2    N111864   3.910   2.729  15.500 -0.0141  0.2392 -0.0695
  805MPD2    H711865   3.959   2.640  15.496 -2.3219 -0.9960 -1.2986
  806MPD2     C11866   4.397   2.413   0.355  0.2772 -0.1383  0.4823
  806MPD2    C111867   4.365   2.510   0.452  0.4723  0.6487 -0.7312
  806MPD2    C211868   4.392   2.645   0.421  0.1489 -0.3691  0.2662
  806MPD2    C311869   4.452   2.680   0.304 -0.6294 -0.0278 -0.0584
  806MPD2    C411870   4.467   2.577   0.205  0.1819 -0.3251 -0.6843
  806MPD2    C511871   4.440   2.443   0.230  1.0878  0.8914 -0.2973
  806MPD2     H11872   4.375   2.729   0.487  0.9831 -1.0614  1.3465
  806MPD2    H111873   4.509   2.606   0.110  0.2300  2.7274  0.2538
  806MPD2    H211874   4.373   2.310   0.378 -2.1529 -0.3496 -3.0774
  806MPD2    H311875   4.464   2.365   0.160 -0.3716  1.6707 -1.6712
  806MPD2     N11876   4.488   2.818   0.293 -0.4747 -0.3840  0.1845
  806MPD2    H511877   4.480   2.879   0.374  0.3444  0.1807 -0.1635
  806MPD2    N111878   4.317   2.472   0.575 -0.5460  0.4248  0.3265
  806MPD2    H711879   4.319   2.371   0.586 -1.8499  0.5372  1.5131
  807MPD2     C11880   3.746   2.419   1.176  0.2115  0.7256 -0.3705
  807MPD2    C111881   3.857   2.348   1.212 -0.0223 -0.5159 -0.4126
  807MPD2    C211882   3.845   2.247   1.303 -0.1855 -0.1915 -0.5129
  807MPD2    C311883   3.726   2.227   1.376 -0.9044  0.1573 -0.7680
  807MPD2    C411884   3.623   2.302   1.336  0.0242 -0.6497  0.8593
  807MPD2    C511885   3.626   2.392   1.240  0.5576  0.1015  0.0300
  807MPD2     H11886   3.926   2.179   1.330 -0.6223 -0.9524 -1.1286
  807MPD2    H111887   3.528   2.293   1.387  0.0746 -0.7251  0.9398
  807MPD2    H211888   3.746   2.498   1.102  1.8155  1.4931  0.4598
  807MPD2    H311889   3.536   2.441   1.201 -0.0489 -0.0671  1.2289
  807MPD2     N11890   3.721   2.125   1.470 -0.2031  0.3261  0.1783
  807MPD2    H511891   3.802   2.064   1.467 -1.8287 -2.0088  3.9060
  807MPD2    N111892   3.978   2.366   1.145 -0.1150 -0.0368 -0.0907
  807MPD2    H711893   4.055   2.316   1.189 -0.5030  0.2647  0.9425
  808MPD2     C11894   0.383   4.077   9.076  0.0154 -0.0025 -0.4280
  808MPD2    C111895   0.397   4.096   9.215  0.3491 -0.6920 -0.5766
  808MPD2    C211896   0.464   4.209   9.264  0.2452  0.5195  0.1424
  808MPD2    C311897   0.517   4.309   9.181 -0.4737 -0.0485 -0.4009
  808MPD2    C411898   0.494   4.291   9.044  0.4781  0.0758  0.1715
  808MPD2    C511899   0.429   4.178   8.999  0.2381 -0.3594  0.3390
  808MPD2     H11900   0.480   4.216   9.371  0.3331  0.5536  0.1277
  808MPD2    H111901   0.538   4.360   8.974 -0.8507 -1.7674 -2.4712
  808MPD2    H211902   0.339   3.991   9.027  1.5198  0.0743 -1.8986
  808MPD2    H311903   0.421   4.169   8.891  1.6874  0.1377  0.1880
  808MPD2     N11904   0.604   4.410   9.215 -0.0115  0.6377 -0.6239
  808MPD2    H511905   0.648   4.463   9.140  0.2494  2.6856  0.9958
  808MPD2    N111906   0.361   3.996   9.310 -0.3016  0.2757 -0.2512
  808MPD2    H711907   0.382   4.013   9.408  0.4151  3.5827 -1.0008
  809MPD2     C11908   1.388   4.647   8.888  0.3679 -0.0471  0.4368
  809MPD2    C111909   1.397   4.667   9.023  0.4509 -0.0105 -0.1468
  809MPD2    C211910   1.280   4.673   9.095  0.2824  0.4708  0.6238
  809MPD2    C311911   1.151   4.650   9.042 -0.3515  0.5406 -0.7675
  809MPD2    C411912   1.147   4.616   8.905  0.0597  0.6678 -0.3641
  809MPD2    C511913   1.270   4.617   8.830  0.4148  0.1056  0.3041
  809MPD2     H11914   1.291   4.683   9.202  0.2974  0.7947  0.5930
  809MPD2    H111915   1.058   4.585   8.852 -0.5077  1.1357  0.3184
  809MPD2    H211916   1.473   4.653   8.821 -1.4649  0.1617 -1.8740
  809MPD2    H311917   1.254   4.600   8.725 -0.5704  2.7681  0.0272
  809MPD2     N11918   1.030   4.649   9.114 -0.7458  0.5650  0.1058
  809MPD2    H511919   0.948   4.622   9.062 -0.2935 -1.0432  0.2254
  809MPD2    N111920   1.518   4.686   9.092  0.1830  0.3158 -0.5422
  809MPD2    H711921   1.501   4.707   9.190 -0.3521  0.5422 -0.6847
  810MPD2     C11922   0.331   3.495   9.847 -0.2973 -0.2020 -0.3248
  810MPD2    C111923   0.238   3.507   9.945  0.4383 -0.7733 -0.4341
  810MPD2    C211924   0.208   3.628  10.000  0.2382 -0.2029 -0.4988
  810MPD2    C311925   0.281   3.736   9.954  0.5918 -0.0791 -0.4922
  810MPD2    C411926   0.388   3.721   9.870 -0.4445  0.1502  0.7877
  810MPD2    C511927   0.405   3.597   9.810  0.1742  0.1239 -0.7496
  810MPD2     H11928   0.126   3.643  10.071  0.0820  2.8177 -1.2882
  810MPD2    H111929   0.446   3.800   9.825 -0.3323 -1.1200 -1.3517
  810MPD2    H211930   0.353   3.395   9.812  0.4578 -0.7865  1.8434
  810MPD2    H311931   0.481   3.580   9.735 -0.1668  0.4586 -1.1744
  810MPD2     N11932   0.276   3.869  10.001 -0.3322  0.2387  0.3384
  810MPD2    H511933   0.355   3.928   9.977 -0.5638  0.7742  0.8885
  810MPD2    N111934   0.161   3.388   9.970 -0.2030 -0.3003  0.3920
  810MPD2    H711935   0.188   3.306   9.918 -3.3742  0.6941 -2.7819
  811MPD2     C11936   4.135   3.138   9.899  0.4806  0.8207 -0.0741
  811MPD2    C111937   4.260   3.192   9.902  0.1773 -0.8340  0.2471
  811MPD2    C211938   4.276   3.319   9.858  0.5029  0.2494 -0.4528
  811MPD2    C311939   4.174   3.388   9.814  0.0328 -0.4418 -0.2134
  811MPD2    C411940   4.048   3.331   9.799 -0.1979  0.4998  0.1600
  811MPD2    C511941   4.029   3.208   9.853  0.3924  0.1877 -0.4773
  811MPD2     H11942   4.374   3.364   9.875  1.2301 -0.3311 -3.0557
  811MPD2    H111943   3.969   3.386   9.751 -0.5706  0.8019  1.1358
  811MPD2    H211944   4.116   3.039   9.940 -1.1806  0.3934 -1.8964
  811MPD2    H311945   3.931   3.160   9.849  0.1645  0.6320 -0.2808
  811MPD2     N11946   4.195   3.530   9.783  0.1117  0.1934 -0.0065
  811MPD2    H511947   4.289   3.564   9.798  0.4951  0.5012 -3.0337
  811MPD2    N111948   4.370   3.114   9.956 -0.3801 -0.2534  0.0307
  811MPD2    H711949   4.344   3.020   9.983 -0.2608 -0.4128 -0.4192
  812MPD2     C11950   3.770   3.067  12.205 -0.1563 -0.6962  0.1952
  812MPD2    C111951   3.662   3.132  12.261  0.5453  0.1795  0.7163
  812MPD2    C211952   3.569   3.057  12.326  0.9184 -0.3839 -0.6882
  812MPD2    C311953   3.590   2.922  12.343  0.9619  0.3481  0.0122
  812MPD2    C411954   3.705   2.859  12.303 -0.7897 -0.6128  0.9592
  812MPD2    C511955   3.798   2.933  12.233 -0.5373 -0.4942  0.0040
  812MPD2     H11956   3.477   3.101  12.365  1.6485  1.5923 -1.2018
  812MPD2    H111957   3.729   2.755  12.322 -3.3090 -1.2773  0.5615
  812MPD2    H211958   3.844   3.123  12.150 -0.7202  0.1462  0.2902
  812MPD2    H311959   3.891   2.886  12.204  0.4351  2.2034 -1.2553
  812MPD2     N11960   3.503   2.861  12.428  0.2273  0.1409  0.1102
  812MPD2    H511961   3.438   2.921  12.478  0.8970  1.1949 -0.2585
  812MPD2    N111962   3.654   3.270  12.241 -0.9317  1.4372  0.0011
  812MPD2    H711963   3.737   3.306  12.196 -2.1126 -0.3252 -3.5478
  813MPD2     C11964   2.146   0.986  12.601 -0.2420 -0.7083  0.1404
  813MPD2    C111965   2.183   0.878  12.679  0.4840  0.3478 -0.5786
  813MPD2    C211966   2.108   0.857  12.790  0.0170 -0.1022  0.1889
  813MPD2    C311967   2.001   0.937  12.825 -0.5619  0.3948 -0.0442
  813MPD2    C411968   1.963   1.035  12.739 -0.3931  0.4640 -0.7080
  813MPD2    C511969   2.031   1.051  12.625  0.1620 -0.0933 -0.4830
  813MPD2     H11970   2.128   0.767  12.847 -0.1381  1.2064  2.3007
  813MPD2    H111971   1.870   1.089  12.753  0.5201  1.5179  1.3202
  813MPD2    H211972   2.214   1.020  12.523  0.9658 -0.7740  1.1698
  813MPD2    H311973   1.984   1.118  12.554  0.1262  3.3026  2.6900
  813MPD2     N11974   1.922   0.918  12.937 -0.2754 -0.3646 -0.4794
  813MPD2    H511975   1.843   0.981  12.948  0.8953  1.1463 -0.6862
  813MPD2    N111976   2.297   0.805  12.645 -0.4361 -0.1232  0.2385
  813MPD2    H711977   2.348   0.828  12.561  1.4715  1.9733  1.9758
  814MPD2     C11978   2.864   2.050  11.954  0.9546 -0.0787  0.2180
  814MPD2    C111979   2.978   2.016  11.886 -0.6544  0.5842  0.3462
  814MPD2    C211980   3.077   2.108  11.890  0.0540 -0.1473 -0.7228
  814MPD2    C311981   3.065   2.234  11.941 -0.7572  0.3410 -0.3938
  814MPD2    C411982   2.952   2.263  12.008  0.2395  0.2199 -0.0467
  814MPD2    C511983   2.844   2.172  12.008 -0.2343 -0.1639 -0.7687
  814MPD2     H11984   3.175   2.077  11.854 -0.0987  1.9689 -2.9462
  814MPD2    H111985   2.943   2.359  12.057  0.9204  0.5426 -0.5529
  814MPD2    H211986   2.793   1.970  11.973  0.2265  0.9906  2.0182
  814MPD2    H311987   2.748   2.183  12.057 -0.2901  0.4723 -1.0199
  814MPD2     N11988   3.164   2.335  11.926 -0.5727  0.2431  0.2085
  814MPD2    H511989   3.147   2.426  11.966  0.7544  0.3497  0.5252
  814MPD2    N111990   2.989   1.894  11.816 -0.4957  0.4510  0.0935
  814MPD2    H711991   3.055   1.892  11.739 -0.9934  2.7245 -0.3947
  815MPD2     C11992   3.792   0.417  11.753 -0.0587  0.6059 -0.5134
  815MPD2    C111993   3.778   0.278  11.744 -0.7067  0.0541 -0.3383
  815MPD2    C211994   3.660   0.221  11.778  0.4219  0.3897  0.3991
  815MPD2    C311995   3.568   0.288  11.855 -0.1783 -0.1016  0.5264
  815MPD2    C411996   3.583   0.420  11.876 -0.5085  0.4934  0.0252
  815MPD2    C511997   3.689   0.482  11.816  0.6960 -0.2656  0.4166
  815MPD2     H11998   3.637   0.120  11.748  0.9047  0.0441  1.1986
  815MPD2    H111999   3.515   0.485  11.930  1.6270  3.6450 -1.0766
  815MPD2    H212000   3.883   0.469  11.725  1.0738 -1.4643 -0.6657
  815MPD2    H312001   3.709   0.588  11.832 -1.2565  0.1938 -0.1897
  815MPD2     N12002   3.456   0.219  11.897  0.1615  0.0102 -0.4942
  815MPD2    H512003   3.453   0.126  11.856  2.4778 -0.4013  0.2855
  815MPD2    N112004   3.877   0.203  11.670  0.1483  0.0775 -0.2322
  815MPD2    H712005   3.955   0.255  11.633  0.3808  2.5853  3.7069
  816MPD2     C12006   3.001   4.302  17.009  0.2730 -0.1626 -0.6276
  816MPD2    C112007   3.055   4.246  17.120  0.6297 -0.2479  0.0161
  816MPD2    C212008   3.177   4.178  17.109  0.1235 -0.1049 -0.1174
  816MPD2    C312009   3.245   4.176  16.989  0.2322 -0.2631  0.2142
  816MPD2    C412010   3.191   4.247  16.880  0.8929  0.1012  0.5103
  816MPD2    C512011   3.067   4.302  16.889  0.5818  0.0906  0.9702
  816MPD2     H12012   3.222   4.135  17.198 -1.1033 -2.8973 -0.8542
  816MPD2    H112013   3.241   4.260  16.784  1.1323 -0.5553  0.5453
  816MPD2    H212014   2.907   4.356  17.019  0.7262  0.9841 -2.6872
  816MPD2    H312015   3.014   4.338  16.801 -0.4970 -2.5359  0.5465
  816MPD2     N12016   3.370   4.104  16.973 -0.3462 -0.3104 -0.2900
  816MPD2    H512017   3.406   4.066  17.059 -1.9407 -1.7993 -0.2795
  816MPD2    N112018   2.982   4.272  17.238 -0.0953 -0.1963  1.1207
  816MPD2    H712019   2.895   4.323  17.231  0.3579  0.4517  0.3047
  817MPD2     C12020   3.591   1.030  10.125  0.0075  0.5795  0.1516
  817MPD2    C112021   3.630   1.054   9.992  0.2689 -0.2001  0.0341
  817MPD2    C212022   3.587   1.164   9.929 -0.2233 -1.3247 -0.0626
  817MPD2    C312023   3.514   1.263   9.997  0.3423 -0.0658  0.2537
  817MPD2    C412024   3.476   1.240  10.130  0.4631  0.2214  0.6323
  817MPD2    C512025   3.512   1.121  10.195 -0.1726  0.8069 -0.3520
  817MPD2     H12026   3.629   1.179   9.830 -1.1243  0.9091 -0.1057
  817MPD2    H112027   3.405   1.298  10.186 -0.2145  0.8547 -0.8714
  817MPD2    H212028   3.613   0.941  10.184  1.2193  0.6876 -0.1364
  817MPD2    H312029   3.475   1.113  10.296 -1.2978 -2.2819 -1.0190
  817MPD2     N12030   3.481   1.377   9.924  0.0442 -0.2358 -0.3044
  817MPD2    H512031   3.535   1.400   9.842 -0.6920 -0.5017 -0.8666
  817MPD2    N112032   3.688   0.944   9.915 -0.7500  0.6046  0.1942
  817MPD2    H712033   3.706   0.965   9.817 -0.8131  0.7364  0.2113
  818MPD2     C12034   2.492   0.995  10.211 -0.0793 -1.0022 -0.7614
  818MPD2    C112035   2.391   0.903  10.222  0.2815 -0.3164  0.1353
  818MPD2    C212036   2.410   0.782  10.152 -0.0068  0.3716 -0.1394
  818MPD2    C312037   2.530   0.752  10.087 -0.0600 -0.1238  0.2678
  818MPD2    C412038   2.627   0.847  10.088  0.0450  0.2325  0.3766
  818MPD2    C512039   2.606   0.969  10.142 -0.2491  0.1611  0.5501
  818MPD2     H12040   2.332   0.707  10.161  1.0799 -0.7817 -0.2966
  818MPD2    H112041   2.717   0.829  10.031 -0.7706  0.6865 -1.0607
  818MPD2    H212042   2.490   1.096  10.251  1.7114 -0.5186 -1.9296
  818MPD2    H312043   2.680   1.048  10.136 -0.1344  0.0862  0.9374
  818MPD2     N12044   2.563   0.621  10.039  0.2603  0.7115  0.0086
  818MPD2    H512045   2.661   0.614  10.014 -0.7229 -2.8763 -2.7985
  818MPD2    N112046   2.270   0.920  10.293  0.0514 -0.5673 -0.5370
  818MPD2    H712047   2.207   0.841  10.290  0.4173 -0.8271 -1.3620
  819MPD2     C12048   0.091   2.352  15.401  0.5415  0.0009  0.0157
  819MPD2    C112049   0.125   2.290  15.519 -0.0045  0.3749 -0.1542
  819MPD2    C212050   0.261   2.309  15.562 -0.1277 -0.4442  0.4461
  819MPD2    C312051   0.357   2.370  15.482  0.3796 -0.2893  0.3690
  819MPD2    C412052   0.317   2.431  15.366 -0.2828  0.2420  0.3325
  819MPD2    C512053   0.184   2.432  15.332  0.0387 -0.3448 -0.4341
  819MPD2     H12054   0.298   2.263  15.653  0.4570 -1.5145 -0.3339
  819MPD2    H112055   0.381   2.477  15.292 -0.3804  2.6068  1.7098
  819MPD2    H212056   4.714   2.340  15.362  0.9316 -1.3294 -0.5997
  819MPD2    H312057   0.143   2.467  15.238 -0.7936 -0.6193 -0.1708
  819MPD2     N12058   0.487   2.385  15.539  0.6649  0.6891  0.3001
  819MPD2    H512059   0.500   2.337  15.628 -0.4855 -1.2563 -0.5763
  819MPD2    N112060   0.022   2.229  15.594  0.0941 -0.0937 -0.6038
  819MPD2    H712061   4.656   2.211  15.549 -0.5664  0.2279  0.5802
  820MPD2     C12062   3.843   1.930  15.475  0.2548  0.4788 -0.3317
  820MPD2    C112063   3.891   2.050  15.528 -0.0803 -0.2972  0.2750
  820MPD2    C212064   4.016   2.054  15.577 -0.1863 -0.3883 -0.1534
  820MPD2    C312065   4.085   1.937  15.598  1.1684 -0.0738  0.4134
  820MPD2    C412066   4.029   1.819  15.543 -0.2393 -0.6265  1.0151
  820MPD2    C512067   3.914   1.813  15.477  0.0917 -0.5545  0.0644
  820MPD2     H12068   4.053   2.147  15.619  1.5225  0.1621 -2.8463
  820MPD2    H112069   4.080   1.724  15.538  0.1347 -0.5009  2.4347
  820MPD2    H212070   3.748   1.916  15.425 -0.7443 -0.4605  1.8196
  820MPD2    H312071   3.867   1.724  15.437  1.2777 -0.5550 -1.3350
  820MPD2     N12072   4.227   1.934  15.633  0.2288 -0.3296 -0.3573
  820MPD2    H512073   4.277   1.846  15.632 -1.2313 -1.1231 -3.9419
  820MPD2    N112074   3.801   2.159  15.519  0.4943 -0.2549 -0.2467
  820MPD2    H712075   3.709   2.142  15.479  1.2561  0.1997 -2.2226
  821MPD2     C12076   4.598   3.717  12.992 -0.2574 -0.8401 -0.3894
  821MPD2    C112077   4.688   3.777  13.084 -0.5095 -0.3238  0.4302
  821MPD2    C212078   0.020   3.898  13.053  0.4320 -0.2784 -0.2939
  821MPD2    C312079   4.698   3.972  12.945  0.3269  0.0997  0.4742
  821MPD2    C412080   4.603   3.922  12.863 -0.6805  0.0455 -0.3848
  821MPD2    C512081   4.554   3.792  12.881 -0.4946 -0.3002 -0.1718
  821MPD2     H12082   0.084   3.942  13.129 -0.6092  1.6499 -0.5207
  821MPD2    H112083   4.570   3.969  12.771  0.8557  0.0041 -0.9514
  821MPD2    H212084   4.566   3.614  12.991 -1.3613 -0.4970 -0.6299
  821MPD2    H312085   4.483   3.744  12.814 -0.5713 -0.0048 -0.3037
  821MPD2     N12086   0.022   4.101  12.908 -0.3383 -0.7797  0.5203
  821MPD2    H512087   0.016   4.130  12.811 -0.2617  0.8398  0.9999
  821MPD2    N112088   0.017   3.723  13.203  0.8700 -0.3353  0.4345
  821MPD2    H712089   0.082   3.784  13.251 -0.6321  2.0519 -0.5443
  822MPD2     C12090   0.650   3.856  15.828 -0.4931 -0.4659  0.0520
  822MPD2    C112091   0.668   3.831  15.969  0.2847 -0.0452 -0.1134
  822MPD2    C212092   0.588   3.910  16.050 -0.5656 -0.2094 -0.6681
  822MPD2    C312093   0.507   4.015  15.999 -0.5718  0.2917  0.5964
  822MPD2    C412094   0.496   4.034  15.865  0.8828 -0.0039  0.0824
  822MPD2    C512095   0.559   3.950  15.779  0.9176  0.0857 -0.8888
  822MPD2     H12096   0.598   3.899  16.157  0.2553  2.4842 -0.4767
  822MPD2    H112097   0.443   4.121  15.828 -1.4793 -1.3904  0.2028
  822MPD2    H212098   0.712   3.805  15.754 -2.9917 -2.4013 -0.7102
  822MPD2    H312099   0.544   3.963  15.672  0.5930  0.6798 -0.7697
  822MPD2     N12100   0.445   4.106  16.091 -0.4814 -0.3468  0.4783
  822MPD2    H512101   0.461   4.081  16.189  2.9695 -0.3805 -0.0966
  822MPD2    N112102   0.768   3.741  16.021 -0.4960 -0.1824  0.0107
  822MPD2    H712103   0.769   3.732  16.122  0.9897  0.5735  0.0671
  823MPD2     C12104   0.326   4.371  16.898 -0.5942  0.1912 -0.1095
  823MPD2    C112105   0.369   4.286  16.796 -0.1897 -0.1846 -0.1021
  823MPD2    C212106   0.420   4.172  16.824  0.4573 -0.3446 -0.0922
  823MPD2    C312107   0.444   4.129  16.950  0.5665  0.6147 -0.6718
  823MPD2    C412108   0.394   4.203  17.053 -0.3309 -0.3238 -0.1476
  823MPD2    C512109   0.335   4.325  17.027  0.2771 -0.6585 -0.0424
  823MPD2     H12110   0.452   4.112  16.739 -4.3471 -2.1898 -0.5691
  823MPD2    H112111   0.414   4.169  17.154 -3.4554  1.2462  1.0208
  823MPD2    H212112   0.285   4.469  16.877  1.4491  1.1489  0.4086
  823MPD2    H312113   0.308   4.396  17.104  0.3727 -2.9504  2.1316
  823MPD2     N12114   0.505   4.014  16.990  1.0710  0.5424 -0.0370
  823MPD2    H512115   0.512   4.016  17.092  2.3476  1.9141 -0.1465
  823MPD2    N112116   0.345   4.331  16.663  0.5529  0.1599 -1.0478
  823MPD2    H712117   0.288   4.415  16.654 -0.7774 -0.4853  1.3511
  824MPD2     C12118   1.054   3.135  15.672  0.1064  0.4973 -0.0590
  824MPD2    C112119   1.157   3.195  15.741  0.4017 -0.4395 -0.0358
  824MPD2    C212120   1.289   3.173  15.702  0.4267  0.4517 -0.0357
  824MPD2    C312121   1.318   3.058  15.634 -0.3664  0.1607 -0.6517
  824MPD2    C412122   1.217   2.982  15.586  1.1552 -0.1644  0.9107
  824MPD2    C512123   1.087   3.024  15.599  0.0057  0.4200 -0.3757
  824MPD2     H12124   1.367   3.241  15.733  0.3548  1.3018 -1.7226
  824MPD2    H112125   1.237   2.892  15.531 -1.9160  1.0224 -2.1599
  824MPD2    H212126   0.950   3.154  15.697 -0.1782 -0.9162 -0.1876
  824MPD2    H312127   1.001   2.969  15.563 -1.1689  1.9077  0.1116
  824MPD2     N12128   1.457   3.024  15.610 -0.4604 -0.1669  0.0735
  824MPD2    H512129   1.524   3.092  15.645  0.4824 -0.5218 -1.0568
  824MPD2    N112130   1.122   3.290  15.835 -0.5842  0.5883  0.3553
  824MPD2    H712131   1.027   3.324  15.846 -0.3751  1.1736  0.3490
  825MPD2     C12132   2.128   3.293  15.128  0.2299 -0.1981 -0.1852
  825MPD2    C112133   2.000   3.300  15.175 -0.5561  0.3678 -0.2130
  825MPD2    C212134   1.913   3.399  15.125  0.4068  0.3654  0.3575
  825MPD2    C312135   1.953   3.492  15.026  0.2259  0.2945 -0.1668
  825MPD2    C412136   2.086   3.481  14.980  0.4687 -0.3214  0.3370
  825MPD2    C512137   2.169   3.386  15.030  0.7540  0.7957 -0.1080
  825MPD2     H12138   1.811   3.388  15.160  0.0480  1.2577 -0.4114
  825MPD2    H112139   2.118   3.551  14.904  1.8783  0.4772  1.6536
  825MPD2    H212140   2.196   3.220  15.171  2.2702  2.1221  0.5595
  825MPD2    H312141   2.265   3.366  14.984  1.3989  1.9556  0.7424
  825MPD2     N12142   1.865   3.587  14.979  0.1095  0.5142 -0.0842
  825MPD2    H512143   1.887   3.653  14.905 -3.1153  1.1275 -0.5260
  825MPD2    N112144   1.954   3.202  15.262 -0.2955 -0.3561  0.1971
  825MPD2    H712145   2.024   3.136  15.295  1.4452  1.5254  0.2720
  826MPD2     C12146   1.658   2.936  13.854 -0.6316 -0.9055 -0.7263
  826MPD2    C112147   1.654   2.970  13.721  0.2009  0.1766 -0.6611
  826MPD2    C212148   1.569   3.071  13.679 -0.3331 -0.4330  0.0746
  826MPD2    C312149   1.486   3.133  13.768 -0.0488  0.7378 -0.1735
  826MPD2    C412150   1.480   3.082  13.894  0.1245 -0.1995 -0.1422
  826MPD2    C512151   1.567   2.988  13.939  0.4046 -0.2684 -0.1057
  826MPD2     H12152   1.577   3.096  13.574  1.5277 -2.2819 -0.2408
  826MPD2    H112153   1.416   3.127  13.970 -0.1214  0.1565 -0.5619
  826MPD2    H212154   1.731   2.866  13.893 -0.1703  0.0488  0.1282
  826MPD2    H312155   1.575   2.964  14.044 -0.1835  0.3673  0.0876
  826MPD2     N12156   1.388   3.226  13.730 -0.0463 -0.1597  0.4620
  826MPD2    H512157   1.331   3.260  13.807 -0.0130 -3.0549  1.7919
  826MPD2    N112158   1.737   2.908  13.624 -0.8143 -0.1156 -0.4559
  826MPD2    H712159   1.738   2.967  13.541 -1.3333 -1.1379 -1.1782
  827MPD2     C12160   2.924   4.708   9.789  0.1013 -0.9651  0.5173
  827MPD2    C112161   2.909   4.585   9.858 -0.2982 -0.4738  0.1244
  827MPD2    C212162   2.791   4.517   9.822  0.4347 -0.4838  0.4332
  827MPD2    C312163   2.691   4.574   9.745  0.0371  0.8072  0.3195
  827MPD2    C412164   2.700   4.703   9.698 -0.0087 -0.7954  0.4011
  827MPD2    C512165   2.826   0.033   9.709  0.3782 -0.1639  0.3464
  827MPD2     H12166   2.765   4.419   9.860 -0.6954 -0.1140  0.6111
  827MPD2    H112167   2.617   0.031   9.651  0.3486  0.8932  1.6134
  827MPD2    H212168   3.014   0.044   9.796 -0.3609 -0.4689  2.2669
  827MPD2    H312169   2.854   0.124   9.656 -0.8514  0.3283  0.5540
  827MPD2     N12170   2.574   4.501   9.724  0.7237  0.1108 -0.1611
  827MPD2    H512171   2.562   4.417   9.780 -1.0936  1.8803  2.0869
  827MPD2    N112172   3.014   4.535   9.936 -0.3589 -0.4817  0.2164
  827MPD2    H712173   3.082   4.603   9.969 -1.5040  0.2615  1.0567
  828MPD2     C12174   0.739   3.939  12.754  0.1896  0.2106 -0.9286
  828MPD2    C112175   0.737   3.995  12.630  0.1119 -0.3342  0.1490
  828MPD2    C212176   0.844   3.979  12.547 -0.2788 -0.0696  0.0221
  828MPD2    C312177   0.957   3.907  12.597 -0.1466  0.3392 -0.5310
  828MPD2    C412178   0.972   3.871  12.728  0.3734  0.3372  0.7424
  828MPD2    C512179   0.855   3.882  12.802  0.0537 -0.1225 -0.6335
  828MPD2     H12180   0.846   4.026  12.450  1.0285  3.3796  1.6933
  828MPD2    H112181   1.060   3.819  12.763 -0.8048 -0.9579  1.7443
  828MPD2    H212182   0.657   3.943  12.826  0.7196 -0.9266 -0.2579
  828MPD2    H312183   0.851   3.837  12.900  0.0705  2.9070  0.7452
  828MPD2     N12184   1.057   3.871  12.513 -0.2024 -0.1359  0.0971
  828MPD2    H512185   1.137   3.832  12.562 -1.3189 -0.6963  1.4827
  828MPD2    N112186   0.625   4.072  12.583 -0.0220 -0.3705  0.5460
  828MPD2    H712187   0.640   4.109  12.490  0.2223 -1.3414  0.2002
  829MPD2     C12188   0.692   4.617  11.926  0.6637 -0.2357  0.2739
  829MPD2    C112189   0.617   4.506  11.905  0.3592  0.5081  0.4741
  829MPD2    C212190   0.547   4.451  12.016  0.0785  0.8762  0.7982
  829MPD2    C312191   0.565   4.502  12.142  0.6566 -0.1317  0.0908
  829MPD2    C412192   0.649   4.606  12.161 -0.4955 -0.4509  0.1774
  829MPD2    C512193   0.710   4.659  12.053 -0.2454 -0.5849  0.1741
  829MPD2     H12194   0.481   4.365  12.007  1.2541 -0.0439  0.9933
  829MPD2    H112195   0.671   4.643  12.260  0.2268 -1.8074  0.5294
  829MPD2    H212196   0.748   4.664  11.846  0.8781 -0.7915  0.0968
  829MPD2    H312197   0.773   0.020  12.080 -0.2462 -0.0405 -1.5410
  829MPD2     N12198   0.506   4.447  12.255  0.0788  0.4378 -0.0215
  829MPD2    H512199   0.536   4.484  12.345 -1.4517  3.5836 -0.8182
  829MPD2    N112200   0.603   4.457  11.774 -0.0224 -0.2928 -0.8702
  829MPD2    H712201   0.646   4.502  11.695  2.5281 -0.4522  0.4378
  830MPD2     C12202   1.386   2.259  15.577  0.1542  0.5800  0.4113
  830MPD2    C112203   1.291   2.269  15.485  0.1086 -0.2574  0.5817
  830MPD2    C212204   1.322   2.316  15.356  0.5278  0.3875  0.4099
  830MPD2    C312205   1.451   2.354  15.329 -0.1814 -0.0361 -0.4495
  830MPD2    C412206   1.544   2.344  15.424  0.7714 -0.4883 -0.1396
  830MPD2    C512207   1.517   2.298  15.548  0.3388  0.4169 -0.0709
  830MPD2     H12208   1.242   2.332  15.285  0.0821 -2.0345  0.3676
  830MPD2    H112209   1.651   2.361  15.415  0.2146  1.1343 -3.6778
  830MPD2    H212210   1.358   2.240  15.680 -2.6954 -1.4458 -0.7266
  830MPD2    H312211   1.591   2.293  15.627  1.6556  1.5961 -1.2305
  830MPD2     N12212   1.495   2.398  15.204  0.8681 -0.6107  0.4078
  830MPD2    H512213   1.590   2.431  15.190  1.3399 -2.1802 -0.1660
  830MPD2    N112214   1.157   2.253  15.540 -0.6501 -0.0313  0.2120
  830MPD2    H712215   1.155   2.243  15.641 -1.4826  2.4215  0.4191
  831MPD2     C12216   0.750   4.204  16.311 -0.2776 -0.7168 -0.6667
  831MPD2    C112217   0.801   4.089  16.259 -0.3619  0.0824  0.1739
  831MPD2    C212218   0.774   3.972  16.318  0.2842  0.2592  0.4393
  831MPD2    C312219   0.695   3.961  16.427  0.1618  0.1684 -0.7614
  831MPD2    C412220   0.652   4.075  16.487 -0.3768 -0.7401 -0.4045
  831MPD2    C512221   0.683   4.190  16.427 -0.4057  0.1835 -0.2776
  831MPD2     H12222   0.812   3.884  16.267  0.3644  0.8190 -0.4667
  831MPD2    H112223   0.588   4.079  16.575  1.3179 -0.7045  0.8290
  831MPD2    H212224   0.762   4.304  16.269  2.8179 -0.3837  1.0179
  831MPD2    H312225   0.640   4.284  16.458  0.6567  0.5317  0.1364
  831MPD2     N12226   0.643   3.842  16.485  0.0908 -0.0645 -1.0811
  831MPD2    H512227   0.568   3.858  16.552 -0.1243  1.1320 -1.6094
  831MPD2    N112228   0.877   4.103  16.140 -0.2202 -0.1911  0.0153
  831MPD2    H712229   0.857   4.181  16.078 -2.6084  0.0851  1.1038
  832MPD2     C12230   3.926   0.586  17.268 -0.1212  0.5137  0.7308
  832MPD2    C112231   3.824   0.676  17.283 -0.1870 -0.1790  0.7338
  832MPD2    C212232   3.691   0.638  17.266  0.4201  0.2095 -0.2955
  832MPD2    C312233   3.665   0.513  17.199  0.0719  0.2894  0.0270
  832MPD2    C412234   3.768   0.427  17.170  0.8372 -0.4484 -0.7325
  832MPD2    C512235   3.895   0.468  17.207 -0.2964 -0.3042 -0.0930
  832MPD2     H12236   3.608   0.701  17.293  0.9015 -0.0189  1.7239
  832MPD2    H112237   3.756   0.336  17.113  0.5226 -2.0463  1.8857
  832MPD2    H212238   4.028   0.608  17.297 -0.9086  3.5096  1.2392
  832MPD2    H312239   3.978   0.405  17.176 -0.7725 -0.8143 -0.3312
  832MPD2     N12240   3.534   0.472  17.173 -1.2370  0.4061  0.1438
  832MPD2    H512241   3.531   0.386  17.119 -0.4575  0.4913 -0.0302
  832MPD2    N112242   3.860   0.793  17.352  0.9329 -0.0575 -0.2254
  832MPD2    H712243   3.957   0.808  17.378  0.1770  0.3704  2.3426
  833MPD2     C12244   0.963   2.041  12.700  0.8708 -0.1981 -0.2658
  833MPD2    C112245   1.007   2.105  12.586  0.6479  0.4118  0.1685
  833MPD2    C212246   1.100   2.050  12.508  0.1836  0.1164  0.3120
  833MPD2    C312247   1.158   1.925  12.550  0.1256  0.7998  0.4519
  833MPD2    C412248   1.113   1.868  12.670 -0.4007  0.8192 -0.2177
  833MPD2    C512249   1.014   1.924  12.740  0.1464  0.0524  0.7473
  833MPD2     H12250   1.116   2.101  12.414 -0.6320 -0.4615 -0.1410
  833MPD2    H112251   1.160   1.783  12.719  0.1558 -0.0697 -2.2870
  833MPD2    H212252   0.880   2.071  12.763  1.2177  0.1447  0.0291
  833MPD2    H312253   0.986   1.874  12.832 -0.2050  0.6738  0.9824
  833MPD2     N12254   1.257   1.860  12.472 -0.0765  0.0511  0.2426
  833MPD2    H512255   1.300   1.774  12.506  0.3642  0.1823  0.0272
  833MPD2    N112256   0.948   2.225  12.550 -0.1056  0.1577  0.6268
  833MPD2    H712257   0.858   2.254  12.586  0.9622  1.5508  2.1450
  834MPD2     C12258   1.278   0.998  11.956 -0.6265 -0.0137  0.0235
  834MPD2    C112259   1.311   1.093  11.871  0.5600  1.1569 -0.3031
  834MPD2    C212260   1.302   1.224  11.908 -0.6889  0.2981  0.3790
  834MPD2    C312261   1.262   1.269  12.037 -0.5191 -0.6452  0.1173
  834MPD2    C412262   1.225   1.164  12.123 -0.5146 -0.4282  0.0313
  834MPD2    C512263   1.237   1.027  12.089 -0.5831  0.0116 -0.3218
  834MPD2     H12264   1.329   1.305  11.841 -0.2491 -0.2359 -0.0885
  834MPD2    H112265   1.174   1.191  12.214 -1.9978 -2.0876 -0.3177
  834MPD2    H212266   1.287   0.893  11.933  1.2307  0.1258  0.1007
  834MPD2    H312267   1.214   0.945  12.157 -0.0791 -0.2092 -0.4240
  834MPD2     N12268   1.264   1.412  12.060  0.4103 -0.6748 -0.0621
  834MPD2    H512269   1.296   1.468  11.981  0.6738  1.2371  1.4154
  834MPD2    N112270   1.353   1.061  11.739 -0.5592  0.0799  0.8879
  834MPD2    H712271   1.330   0.968  11.705 -1.2109  0.1304  1.1904
  835MPD2     C12272   1.504   4.508  11.102 -0.0975  0.1536 -0.6137
  835MPD2    C112273   1.379   4.509  11.042 -0.5208 -0.3275  0.0885
  835MPD2    C212274   1.269   4.551  11.111  0.0739  0.2763 -0.6628
  835MPD2    C312275   1.283   4.603  11.239 -0.0793  0.3138 -0.3260
  835MPD2    C412276   1.405   4.599  11.294  0.0003  0.4028 -0.2407
  835MPD2    C512277   1.516   4.555  11.227 -0.0043 -0.1484 -0.1880
  835MPD2     H12278   1.175   4.546  11.057 -0.4435 -2.1917  0.4714
  835MPD2    H112279   1.434   4.631  11.394 -2.8299  0.9402  0.4077
  835MPD2    H212280   1.590   4.483  11.041  2.0440  1.4876  1.8395
  835MPD2    H312281   1.613   4.560  11.277  1.7890 -1.4525 -3.5741
  835MPD2     N12282   1.179   4.664  11.319  0.4306 -0.0497  0.3980
  835MPD2    H512283   1.198   4.676  11.418  3.2971 -0.5863 -0.0840
  835MPD2    N112284   1.349   4.470  10.904  0.1047 -0.4096  0.5493
  835MPD2    H712285   1.258   4.495  10.867  0.0125 -1.1974  0.2481
  836MPD2     C12286   0.333   4.709  11.202  0.0211 -0.1227  0.3085
  836MPD2    C112287   0.393   4.687  11.323 -0.3580 -0.4683  0.1075
  836MPD2    C212288   0.313   4.650  11.430  0.5905 -0.4443  0.0704
  836MPD2    C312289   0.183   4.633  11.413  0.1328 -0.3003 -0.4909
  836MPD2    C412290   0.124   4.662  11.293 -0.3487 -0.0462 -0.5977
  836MPD2    C512291   0.203   4.694  11.191  0.0543  0.2885  0.2925
  836MPD2     H12292   0.353   4.635  11.530  1.6103 -1.8730 -0.5573
  836MPD2    H112293   0.018   4.650  11.277 -0.2158 -0.1362 -1.4530
  836MPD2    H212294   0.391   0.014  11.115 -0.9047 -0.8187 -0.5203
  836MPD2    H312295   0.158   4.714  11.095 -3.8607 -0.8685  1.8838
  836MPD2     N12296   0.098   4.620  11.528 -0.1866  0.5124  0.3146
  836MPD2    H512297   4.722   4.633  11.509 -0.0834 -0.4211 -0.8282
  836MPD2    N112298   0.528   4.721  11.337  0.4131 -0.2256  0.2570
  836MPD2    H712299   0.578   0.031  11.255 -0.4690  0.4001 -0.0320
  837MPD2     C12300   4.412   4.242  10.039  0.3425 -0.0485 -0.0641
  837MPD2    C112301   4.322   4.232   9.940  0.3718  0.3806  0.0966
  837MPD2    C212302   4.259   4.346   9.899 -0.0881 -0.0855 -0.5007
  837MPD2    C312303   4.307   4.473   9.936 -0.7831  0.5142  0.4436
  837MPD2    C412304   4.388   4.481  10.044  0.3111  0.0479 -0.0217
  837MPD2    C512305   4.443   4.365  10.093 -0.2019  0.3833 -0.1334
  837MPD2     H12306   4.179   4.333   9.826  0.9351 -0.9284 -1.4551
  837MPD2    H112307   4.414   4.567  10.104  0.2815  0.9010 -1.2135
  837MPD2    H212308   4.451   4.151  10.083 -0.7640 -0.9628 -1.0001
  837MPD2    H312309   4.497   4.370  10.187  1.7610 -1.3172 -1.1698
  837MPD2     N12310   4.267   4.585   9.866 -1.1477 -0.0653  0.1717
  837MPD2    H512311   4.198   4.566   9.793  0.4227  2.3838 -1.9647
  837MPD2    N112312   4.286   4.110   9.887 -0.4027 -0.2774 -0.4604
  837MPD2    H712313   4.203   4.099   9.829 -1.0360  0.1415  0.3716
  838MPD2     C12314   2.620   2.366  11.604 -0.4258 -0.0509 -0.2400
  838MPD2    C112315   2.636   2.387  11.738  0.3926  0.0643  0.1315
  838MPD2    C212316   2.544   2.338  11.826  1.0279 -0.5862 -0.2983
  838MPD2    C312317   2.445   2.255  11.782  0.0216  0.0159 -0.2703
  838MPD2    C412318   2.438   2.218  11.650  0.1251 -0.3017 -0.0275
  838MPD2    C512319   2.530   2.280  11.565 -0.7156  0.1753  0.1079
  838MPD2     H12320   2.552   2.362  11.932  0.6777 -2.6853  0.2239
  838MPD2    H112321   2.365   2.144  11.621  0.3459 -0.6331  0.2598
  838MPD2    H212322   2.681   2.412  11.527  0.7182  2.2391  2.0438
  838MPD2    H312323   2.533   2.253  11.460 -1.3684 -0.9141  0.3648
  838MPD2     N12324   2.360   2.193  11.881 -0.2071 -0.6591 -0.3283
  838MPD2    H512325   2.367   2.232  11.974  2.1660 -4.0701  0.9483
  838MPD2    N112326   2.734   2.475  11.786  0.5818  0.0670  0.5923
  838MPD2    H712327   2.713   2.517  11.875 -4.2481  1.8745 -1.4196
  839MPD2     C12328   2.504   1.784  11.621  0.5132  0.7429  0.5744
  839MPD2    C112329   2.574   1.788  11.496 -0.1029 -0.3080 -0.0338
  839MPD2    C212330   2.669   1.886  11.479  0.3697  0.8457  0.6592
  839MPD2    C312331   2.708   1.971  11.583  0.2485 -0.3394  0.2912
  839MPD2    C412332   2.646   1.947  11.707  0.3604 -0.1852 -0.0045
  839MPD2    C512333   2.540   1.861  11.727  0.2424  0.3206  0.0190
  839MPD2     H12334   2.717   1.892  11.382 -0.3048 -0.7504  0.2219
  839MPD2    H112335   2.684   2.007  11.789  1.8748 -0.0910 -0.7827
  839MPD2    H212336   2.416   1.722  11.631  0.4159  0.6798 -0.7229
  839MPD2    H312337   2.492   1.856  11.824  1.5874  2.0826  0.7743
  839MPD2     N12338   2.808   2.076  11.587  0.5672  0.0955  0.2172
  839MPD2    H512339   2.820   2.129  11.673  0.2381 -0.4999  0.6305
  839MPD2    N112340   2.541   1.699  11.390 -0.1788  0.4287 -0.3256
  839MPD2    H712341   2.601   1.694  11.309  1.3448 -0.3244  0.8491
  840MPD2     C12342   3.566   0.088  10.030  0.2303 -0.1267  0.6202
  840MPD2    C112343   3.521   0.029  10.147  1.1104  0.3821 -0.0919
  840MPD2    C212344   3.537   0.091  10.271  0.1447  0.0502  0.3335
  840MPD2    C312345   3.601   0.214  10.271  0.0449  0.1474  0.6476
  840MPD2    C412346   3.641   0.273  10.150  0.7461  0.5405  0.5343
  840MPD2    C512347   3.627   0.206  10.034  0.1723 -0.0341 -0.2090
  840MPD2     H12348   3.500   0.043  10.361  2.8869 -0.8343  0.9918
  840MPD2    H112349   3.682   0.374  10.152 -0.4178  1.0195  0.3022
  840MPD2    H212350   3.551   0.045   9.932  0.1881 -0.0786  0.6060
  840MPD2    H312351   3.654   0.249   9.938 -1.0372  0.6702 -0.2410
  840MPD2     N12352   3.632   0.289  10.387  0.0756 -0.1221 -0.2942
  840MPD2    H512353   3.678   0.379  10.377  0.7299 -0.5214 -0.8202
  840MPD2    N112354   3.449   4.634  10.131  0.9084  0.0756  0.5066
  840MPD2    H712355   3.412   4.604  10.042  0.3216 -0.8192  1.0533
  841MPD2     C12356   2.050   4.708  14.516  0.1838  0.2810 -0.0109
  841MPD2    C112357   2.114   4.648  14.623  0.7998  0.3213 -0.1147
  841MPD2    C212358   2.201   4.722  14.706 -0.1200 -0.1646 -0.6404
  841MPD2    C312359   2.212   0.133  14.691  0.2383  0.1783 -0.0393
  841MPD2    C412360   2.134   0.192  14.590 -0.3690  0.0129  0.4294
  841MPD2    C512361   2.063   0.119  14.497 -0.1240 -0.1994 -0.3021
  841MPD2     H12362   2.255   4.668  14.783 -2.1781 -1.4818 -0.1065
  841MPD2    H112363   2.141   0.299  14.576  0.1737 -0.1108 -0.2311
  841MPD2    H212364   1.984   4.661  14.444 -0.2568  1.2418 -0.2418
  841MPD2    H312365   2.019   0.169  14.413 -0.8855  2.0964  1.4640
  841MPD2     N12366   2.294   0.208  14.783  0.3093  0.3132  0.0591
  841MPD2    H512367   2.364   0.157  14.835 -2.0453 -4.6143 -1.5935
  841MPD2    N112368   2.104   4.506  14.647 -0.1390  0.3723 -0.0582
  841MPD2    H712369   2.147   4.465  14.730 -0.0138 -1.5700 -1.0925
  842MPD2     C12370   3.102   0.813  16.850  0.3203  0.3591  0.2580
  842MPD2    C112371   2.972   0.766  16.824  0.5793 -0.7884 -0.3385
  842MPD2    C212372   2.887   0.733  16.927  0.7207  0.1321  0.3467
  842MPD2    C312373   2.926   0.777  17.054  0.4506 -0.0636  0.7665
  842MPD2    C412374   3.052   0.817  17.086 -0.1678 -0.5181  0.0922
  842MPD2    C512375   3.140   0.829  16.981  0.0079  0.0391  0.0886
  842MPD2     H12376   2.784   0.702  16.916  0.6357  1.0969 -1.4653
  842MPD2    H112377   3.090   0.841  17.184  2.6767 -0.2955 -1.0667
  842MPD2    H212378   3.173   0.833  16.770 -0.5348 -0.8847 -0.8174
  842MPD2    H312379   3.242   0.861  17.003 -0.1151  0.8617 -0.5368
  842MPD2     N12380   2.841   0.768  17.168 -0.4568 -0.4700 -0.0235
  842MPD2    H512381   2.859   0.833  17.243 -1.2689 -0.6299  0.3072
  842MPD2    N112382   2.932   0.752  16.690  0.5695 -0.1539  0.0608
  842MPD2    H712383   3.005   0.786  16.628  1.1147 -0.1855  0.6924
  843MPD2     C12384   4.126   1.165   0.113  0.0440 -0.1940 -0.0869
  843MPD2    C112385   4.175   1.040   0.092 -0.2665 -0.5025 -0.1882
  843MPD2    C212386   4.311   1.030   0.072  0.4745  0.5017  0.2722
  843MPD2    C312387   4.382   1.148   0.046 -0.1394  0.2776 -0.2337
  843MPD2    C412388   4.325   1.273   0.057 -0.3992  0.0446  0.1514
  843MPD2    C512389   4.197   1.282   0.094 -0.4849 -0.4995 -0.2042
  843MPD2     H12390   4.357   0.931   0.072 -2.7434 -1.0037 -2.0524
  843MPD2    H112391   4.381   1.364   0.040 -0.9919  0.5196  0.7584
  843MPD2    H212392   4.021   1.173   0.137  0.0048  1.1230 -0.7066
  843MPD2    H312393   4.150   1.378   0.105  0.9271  0.1533  0.1258
  843MPD2     N12394   4.522   1.147   0.025 -0.1118  0.5877  0.5917
  843MPD2    H512395   4.557   1.237  17.690  0.6521 -0.5391 -1.8131
  843MPD2    N112396   4.095   0.933   0.139 -0.7813 -0.2268  0.9079
  843MPD2    H712397   3.999   0.954   0.165 -0.0859 -0.0344  3.3130
  844MPD2     C12398   3.523   0.174  16.647  0.0125 -1.0722 -0.1019
  844MPD2    C112399   3.661   0.169  16.644 -0.0166  0.0576  0.5413
  844MPD2    C212400   3.736   0.266  16.693  0.2234 -0.1116 -0.0913
  844MPD2    C312401   3.676   0.383  16.749  0.2279 -0.6338 -0.4629
  844MPD2    C412402   3.536   0.390  16.745  0.1731 -0.7045  0.3067
  844MPD2    C512403   3.457   0.288  16.692  0.2692  0.0766 -0.6217
  844MPD2     H12404   3.845   0.259  16.689  0.2556  0.0456  0.4819
  844MPD2    H112405   3.484   0.482  16.765  2.3716  0.6254 -0.1522
  844MPD2    H212406   3.464   0.093  16.605 -1.8249  0.7437 -0.9778
  844MPD2    H312407   3.349   0.292  16.688  0.2300  1.7106  2.3210
  844MPD2     N12408   3.756   0.493  16.795  0.2448  0.3880 -0.2789
  844MPD2    H512409   3.853   0.464  16.796  0.1308 -0.0125 -0.5875
  844MPD2    N112410   3.740   0.071  16.578  0.0596 -0.0805  0.7624
  844MPD2    H712411   3.837   0.095  16.558  0.3709 -1.6825  0.3658
  845MPD2     C12412   3.621   1.451  17.228 -0.1416  0.2590 -0.1629
  845MPD2    C112413   3.545   1.343  17.270  0.1882  0.6546  0.4462
  845MPD2    C212414   3.576   1.218  17.222 -0.0910  0.4997  0.2664
  845MPD2    C312415   3.694   1.201  17.150 -0.0529 -0.0895 -0.5150
  845MPD2    C412416   3.773   1.313  17.118 -0.6428 -0.1675  0.3134
  845MPD2    C512417   3.727   1.439  17.146 -0.7146 -0.8486 -0.0917
  845MPD2     H12418   3.521   1.125  17.235 -1.9263  1.6766  0.8078
  845MPD2    H112419   3.868   1.305  17.066 -1.0948  0.4530 -0.5957
  845MPD2    H212420   3.602   1.549  17.269  2.8415 -0.0476  1.9786
  845MPD2    H312421   3.786   1.527  17.123 -1.4099  0.7780  4.2620
  845MPD2     N12422   3.728   1.068  17.106  1.0191  0.7315 -0.4942
  845MPD2    H512423   3.654   0.998  17.113  0.6352  0.9814 -2.0360
  845MPD2    N112424   3.431   1.371  17.342 -0.4245 -0.4828 -0.6493
  845MPD2    H712425   3.410   1.469  17.360 -0.0802 -0.5473  0.1148
  846MPD2     C12426   0.632   1.428  13.469  0.0098  0.6520 -1.6667
  846MPD2    C112427   0.613   1.551  13.532  0.2942  0.1101 -0.2356
  846MPD2    C212428   0.596   1.551  13.668  0.2288 -0.1377 -0.3550
  846MPD2    C312429   0.615   1.439  13.741  0.6506 -0.9145 -0.0172
  846MPD2    C412430   0.646   1.318  13.679 -1.0762  0.0606 -0.8811
  846MPD2    C512431   0.653   1.318  13.539 -0.1035  0.3553  0.7473
  846MPD2     H12432   0.579   1.644  13.721  0.4765 -0.6130  0.5598
  846MPD2    H112433   0.675   1.226  13.730 -2.7114  0.6406  1.1157
  846MPD2    H212434   0.640   1.417  13.362  1.8614 -2.0563 -1.2311
  846MPD2    H312435   0.681   1.224  13.491  1.2666  1.0106  0.2546
  846MPD2     N12436   0.588   1.444  13.883 -0.7218  1.1264  0.3883
  846MPD2    H512437   0.553   1.531  13.922 -1.8252  0.5167  0.7723
  846MPD2    N112438   0.606   1.671  13.459 -1.1118 -0.3023  0.3478
  846MPD2    H712439   0.610   1.751  13.521  1.6223  1.2692 -1.8650
  847MPD2     C12440   0.688   2.056  14.438  0.3496 -0.6425  0.2153
  847MPD2    C112441   0.767   2.138  14.359  0.1503 -0.2849  0.2733
  847MPD2    C212442   0.883   2.096  14.309 -0.3517 -0.3276  0.0533
  847MPD2    C312443   0.934   1.977  14.352 -0.1407  0.1712 -0.8414
  847MPD2    C412444   0.866   1.897  14.442 -0.0599  0.0176  0.7107
  847MPD2    C512445   0.737   1.939  14.479  0.2951  0.1009 -0.5664
  847MPD2     H12446   0.937   2.162  14.242  2.1121 -1.8215  0.5751
  847MPD2    H112447   0.904   1.810  14.496  0.1602 -0.6536 -0.5208
  847MPD2    H212448   0.592   2.083  14.481 -0.1196  0.6048 -1.6334
  847MPD2    H312449   0.673   1.872  14.536 -1.3315  1.7659 -0.4256
  847MPD2     N12450   1.069   1.939  14.338  0.0250 -0.5743  0.0960
  847MPD2    H512451   1.103   1.855  14.382  0.1266 -1.0327 -0.8563
  847MPD2    N112452   0.737   2.273  14.341 -0.0757 -0.3660 -0.1240
  847MPD2    H712453   0.800   2.331  14.287  2.7739 -2.7008  0.7007
  848MPD2     C12454   3.072   0.476  16.566  1.0134 -0.1342  0.0787
  848MPD2    C112455   3.174   0.543  16.639  0.2096  0.2066  0.1092
  848MPD2    C212456   3.248   0.642  16.580  0.0695  0.2285 -0.2411
  848MPD2    C312457   3.225   0.683  16.453 -0.7842  1.1775 -0.5419
  848MPD2    C412458   3.134   0.621  16.375  0.4931 -0.1788  0.7015
  848MPD2    C512459   3.061   0.520  16.434  0.7596  0.1353 -0.1119
  848MPD2     H12460   3.327   0.694  16.633  1.4276 -1.4112 -0.6364
  848MPD2    H112461   3.122   0.631  16.267  2.3526 -1.4451  0.3781
  848MPD2    H212462   3.016   0.387  16.594  0.0620 -0.7774 -3.9819
  848MPD2    H312463   2.982   0.476  16.374 -0.0986  1.6218 -0.0789
  848MPD2     N12464   3.280   0.806  16.399  0.6413  0.0423 -0.0371
  848MPD2    H512465   3.258   0.821  16.301  0.2430 -1.6705 -0.2015
  848MPD2    N112466   3.199   0.514  16.772  0.0321 -0.0883  0.8398
  848MPD2    H712467   3.266   0.573  16.821  0.9467 -0.7867  0.4326
  849MPD2     C12468   2.363   0.416  14.201 -0.9915 -0.3871  0.2624
  849MPD2    C112469   2.499   0.449  14.179 -0.1943  0.4834 -0.0172
  849MPD2    C212470   2.588   0.393  14.261  0.0915  0.0449 -0.4197
  849MPD2    C312471   2.560   0.314  14.367 -0.7912  0.8518  0.5692
  849MPD2    C412472   2.425   0.289  14.395 -0.2853 -0.0543 -0.0919
  849MPD2    C512473   2.332   0.333  14.306 -0.6854  0.4230  0.2242
  849MPD2     H12474   2.690   0.392  14.225  1.2737  1.1041  2.8970
  849MPD2    H112475   2.402   0.226  14.479 -1.2865 -0.4410 -0.6599
  849MPD2    H212476   2.281   0.436  14.133 -0.4313 -0.1378 -0.3397
  849MPD2    H312477   2.229   0.300  14.308 -0.0398 -1.5110  1.1612
  849MPD2     N12478   2.648   0.238  14.448 -0.4579  0.4123 -0.2815
  849MPD2    H512479   2.606   0.181  14.520  0.2321  1.4690  0.9535
  849MPD2    N112480   2.528   0.529  14.067 -0.3454 -0.0916  0.1057
  849MPD2    H712481   2.447   0.555  14.013  0.1126  0.3656 -0.3670
  850MPD2     C12482   0.675   2.840  14.719 -0.4074 -0.6359 -0.3192
  850MPD2    C112483   0.627   2.953  14.790 -0.0488 -0.0425 -0.2357
  850MPD2    C212484   0.703   3.068  14.808  0.7714 -0.4526  0.6197
  850MPD2    C312485   0.829   3.071  14.749  0.4906  0.4925 -0.6910
  850MPD2    C412486   0.876   2.968  14.674  0.0741 -0.5027 -0.8771
  850MPD2    C512487   0.806   2.853  14.669 -0.2178 -0.2302  0.1965
  850MPD2     H12488   0.666   3.162  14.849  0.6090 -0.0829 -0.3665
  850MPD2    H112489   0.974   2.971  14.628  0.2949  0.2359 -0.3580
  850MPD2    H212490   0.635   2.740  14.708  0.7521 -1.2793  1.3273
  850MPD2    H312491   0.842   2.769  14.611 -2.7101 -0.7294 -0.6328
  850MPD2     N12492   0.925   3.174  14.771  0.0854 -0.1567 -0.5980
  850MPD2    H512493   1.022   3.158  14.747 -0.8164 -2.1963 -2.8493
  850MPD2    N112494   0.497   2.937  14.848 -0.2359  0.2455  0.3698
  850MPD2    H712495   0.451   2.859  14.803 -1.7812  0.1450  2.1393
  851MPD2     C12496   1.157   3.162  15.289 -0.2936  0.0451 -0.1582
  851MPD2    C112497   1.079   3.076  15.205 -0.5053  0.4928 -0.5076
  851MPD2    C212498   1.141   2.986  15.123 -0.2430 -0.0691  0.3574
  851MPD2    C312499   1.281   2.982  15.125  0.5307 -0.4126  0.3817
  851MPD2    C412500   1.357   3.071  15.199  0.1921 -0.2377 -0.0444
  851MPD2    C512501   1.293   3.154  15.285  0.1344  0.3848  0.2175
  851MPD2     H12502   1.083   2.918  15.062  1.3287 -2.2506  1.2973
  851MPD2    H112503   1.465   3.074  15.192 -0.0228  0.5539 -3.0802
  851MPD2    H212504   1.108   3.224  15.363 -0.8218  0.6391 -1.0088
  851MPD2    H312505   1.357   3.208  15.354 -1.0417 -0.0472  1.6428
  851MPD2     N12506   1.338   2.884  15.039 -0.0172 -0.5227 -0.4007
  851MPD2    H512507   1.275   2.841  14.972 -1.4572  2.1827 -0.7871
  851MPD2    N112508   0.937   3.098  15.212 -0.0204 -0.2119 -0.0233
  851MPD2    H712509   0.908   3.166  15.282  0.2167  0.6568 -0.7669
  852MPD2     C12510   0.948   0.880   9.889  0.4599  0.2439 -0.2274
  852MPD2    C112511   0.989   0.940  10.000 -0.2488  0.3435 -0.5516
  852MPD2    C212512   1.098   1.021   9.988  0.3850 -0.8441 -0.0328
  852MPD2    C312513   1.175   1.033   9.877  0.0634  0.0272 -0.1938
  852MPD2    C412514   1.137   0.968   9.761  0.0487 -0.2844  0.3816
  852MPD2    C512515   1.024   0.893   9.775  0.6794 -0.0344 -0.2670
  852MPD2     H12516   1.130   1.082  10.072  0.4549 -1.1417  0.1559
  852MPD2    H112517   1.180   0.980   9.662  0.9251 -2.6291  0.4928
  852MPD2    H212518   0.859   0.819   9.887  1.7767 -1.7395  2.1575
  852MPD2    H312519   0.979   0.838   9.693 -2.2190  0.7607  0.8187
  852MPD2     N12520   1.282   1.129   9.876  0.5773 -0.2988  0.4108
  852MPD2    H512521   1.317   1.167   9.963  0.9879 -1.1399  0.6133
  852MPD2    N112522   0.922   0.930  10.123  0.2319 -0.3161 -0.5237
  852MPD2    H712523   0.957   0.983  10.202 -0.6386 -0.1647 -0.2414
  853MPD2     C12524   2.778   0.825  12.373 -0.4527 -0.4018  0.1072
  853MPD2    C112525   2.715   0.927  12.303 -0.2231  0.5878  0.5341
  853MPD2    C212526   2.714   0.918  12.162 -0.2633 -0.0898  0.1898
  853MPD2    C312527   2.782   0.819  12.094 -0.8531 -0.2363 -0.5664
  853MPD2    C412528   2.849   0.726  12.170  0.3342  0.2324 -0.6545
  853MPD2    C512529   2.850   0.737  12.302 -1.5802 -0.8802  0.6402
  853MPD2     H12530   2.676   0.998  12.099  2.1627  1.6146  0.8784
  853MPD2    H112531   2.908   0.645  12.129  2.2387  1.2782  0.0586
  853MPD2    H212532   2.779   0.820  12.482 -0.1125 -0.6041  0.0976
  853MPD2    H312533   2.909   0.670  12.364  2.5178  1.9565 -0.2697
  853MPD2     N12534   2.778   0.801  11.952 -0.1573  0.1618  0.4920
  853MPD2    H512535   2.827   0.719  11.919  1.0701  1.3078 -0.5151
  853MPD2    N112536   2.657   1.027  12.387  0.8650  0.0336  0.1175
  853MPD2    H712537   2.671   1.008  12.486  0.0858 -0.1260  0.1991
  854MPD2     C12538   3.540   0.965  12.498 -0.4266 -0.6262 -0.0940
  854MPD2    C112539   3.668   1.013  12.519 -0.2408 -0.2143 -0.6497
  854MPD2    C212540   3.735   0.969  12.632  0.2947  0.2381 -0.0536
  854MPD2    C312541   3.680   0.878  12.718  0.3650 -0.2258  0.1926
  854MPD2    C412542   3.554   0.823  12.686 -0.3277  0.1959  0.1103
  854MPD2    C512543   3.483   0.866  12.576  0.7154  0.3909  0.7295
  854MPD2     H12544   3.832   1.012  12.655 -0.1619  0.6168  1.2209
  854MPD2    H112545   3.501   0.743  12.737 -1.8067  0.6095 -0.7797
  854MPD2    H212546   3.484   0.985  12.407 -0.9990  1.2767  0.6673
  854MPD2    H312547   3.394   0.816  12.540  0.5996  0.1262  1.3898
  854MPD2     N12548   3.734   0.829  12.839 -0.9231  0.5699  0.0214
  854MPD2    H512549   3.675   0.761  12.884  1.6067 -0.1303  2.2711
  854MPD2    N112550   3.713   1.112  12.427  0.4940  0.4379 -0.5748
  854MPD2    H712551   3.655   1.143  12.349 -0.4003 -0.1227 -0.1262
  855MPD2     C12552   4.155   0.836  13.779  0.6472 -0.9715 -0.0813
  855MPD2    C112553   4.177   0.710  13.723 -0.1426 -0.1863  0.2871
  855MPD2    C212554   4.155   0.696  13.587  0.0874  0.1151 -0.7336
  855MPD2    C312555   4.091   0.799  13.514 -0.7703  1.0348 -0.1343
  855MPD2    C412556   4.057   0.919  13.582 -0.3372 -0.7384 -0.5494
  855MPD2    C512557   4.092   0.934  13.712 -0.1164 -0.4830  1.0472
  855MPD2     H12558   4.172   0.598  13.545 -1.0273 -0.4278  0.1031
  855MPD2    H112559   4.015   1.006  13.533  0.5249 -0.5217 -0.9089
  855MPD2    H212560   4.169   0.853  13.885 -1.8644  2.1219 -0.2378
  855MPD2    H312561   4.080   1.029  13.763 -3.0261 -0.1263 -0.3023
  855MPD2     N12562   4.054   0.794  13.376 -0.6661 -0.2181 -0.0741
  855MPD2    H512563   3.993   0.866  13.341 -0.7637  0.4452  1.4641
  855MPD2    N112564   4.234   0.595  13.796  0.0715 -0.7289 -0.6050
  855MPD2    H712565   4.252   0.511  13.743 -2.3316 -0.6726 -1.5235
  856MPD2     C12566   1.898   1.717  13.438 -0.4550  0.8536  0.3309
  856MPD2    C112567   1.917   1.749  13.568  0.1378 -0.3834  0.0948
  856MPD2    C212568   1.845   1.853  13.623  0.0015 -0.4478  0.1486
  856MPD2    C312569   1.745   1.912  13.549  0.6269  0.1266  0.3559
  856MPD2    C412570   1.724   1.881  13.417  0.0489 -0.0116  0.2982
  856MPD2    C512571   1.805   1.785  13.362 -0.1007 -0.5768 -0.0448
  856MPD2     H12572   1.874   1.891  13.720  2.0570  0.4554 -0.8159
  856MPD2    H112573   1.642   1.919  13.358 -0.3397  0.3032  1.0357
  856MPD2    H212574   1.952   1.642  13.380  0.2984  1.3986  0.3341
  856MPD2    H312575   1.788   1.747  13.262 -1.9366 -0.1332  0.1108
  856MPD2     N12576   1.661   2.013  13.603 -0.3286  0.2708 -0.4136
  856MPD2    H512577   1.592   2.054  13.541 -0.5178 -1.7351 -1.5373
  856MPD2    N112578   2.014   1.689  13.651 -0.0532  0.4673 -0.3389
  856MPD2    H712579   2.015   1.714  13.750 -1.2703 -0.1109 -0.1749
  857MPD2     C12580   3.214   3.787  12.500 -0.1498  0.0325  0.7900
  857MPD2    C112581   3.340   3.771  12.555  0.2287  0.0528  0.4553
  857MPD2    C212582   3.399   3.881  12.612 -0.2318  0.4713 -0.1455
  857MPD2    C312583   3.340   4.005  12.635  0.5984  0.5090  0.0231
  857MPD2    C412584   3.210   4.015  12.574  0.0504  0.8648  0.4500
  857MPD2    C512585   3.152   3.911  12.512  0.1429  0.5291 -0.1377
  857MPD2     H12586   3.498   3.861  12.650 -0.7336 -1.0306  0.3783
  857MPD2    H112587   3.138   4.094  12.589 -1.0958  0.0204 -0.6871
  857MPD2    H212588   3.158   3.706  12.455  1.0890 -1.6807  2.3297
  857MPD2    H312589   3.051   3.927  12.477  0.2981  1.9348  0.0459
  857MPD2     N12590   3.406   4.097  12.722 -0.2404 -0.3088 -0.1333
  857MPD2    H512591   3.503   4.079  12.747  0.2181  2.0519 -0.2252
  857MPD2    N112592   3.406   3.650  12.544 -0.1967 -0.0490 -0.2978
  857MPD2    H712593   3.351   3.569  12.516 -0.3011 -0.6918  1.7520
  858MPD2     C12594   3.534   2.449  16.727 -0.4441 -0.7659 -0.0927
  858MPD2    C112595   3.660   2.487  16.770 -0.4012  0.1526  0.1569
  858MPD2    C212596   3.677   2.575  16.877 -0.0332  0.0126  0.6779
  858MPD2    C312597   3.567   2.652  16.914 -0.1581  0.6483  0.0976
  858MPD2    C412598   3.438   2.627  16.858  0.1274  1.0792 -0.3186
  858MPD2    C512599   3.429   2.526  16.764  0.3146  0.0380  0.3447
  858MPD2     H12600   3.775   2.607  16.907  0.6740  0.4260 -2.0325
  858MPD2    H112601   3.357   2.688  16.896  0.9655  0.8626  1.7899
  858MPD2    H212602   3.524   2.380  16.644  4.9080  1.2271 -2.3978
  858MPD2    H312603   3.333   2.498  16.720 -0.0721  0.5975  0.8333
  858MPD2     N12604   3.599   2.754  17.004  0.3717  0.1796 -0.2317
  858MPD2    H512605   3.693   2.760  17.040  1.2105  0.2435 -2.4506
  858MPD2    N112606   3.764   2.423  16.698  1.0320 -0.3809  0.8520
  858MPD2    H712607   3.740   2.381  16.609  1.6703 -2.7719  1.8137
  859MPD2     C12608   3.002   0.188  15.801  0.0027  0.8389  0.2412
  859MPD2    C112609   2.901   0.253  15.730 -0.0791  0.0346  0.4183
  859MPD2    C212610   2.772   0.231  15.757 -0.5420  0.4918  0.4643
  859MPD2    C312611   2.738   0.143  15.861 -0.6243 -0.6042  0.1261
  859MPD2    C412612   2.840   0.075  15.928 -0.1828  0.3445  0.6108
  859MPD2    C512613   2.972   0.089  15.893  0.0719  0.2118  0.0584
  859MPD2     H12614   2.694   0.288  15.707  1.7271  2.7238 -0.5731
  859MPD2    H112615   2.820   0.014  16.015 -0.3144 -1.9605 -1.0342
  859MPD2    H212616   3.106   0.210  15.780 -0.4402  2.8411  0.1917
  859MPD2    H312617   3.055   0.048  15.949 -1.5427 -0.5414  1.9543
  859MPD2     N12618   2.609   0.117  15.908  0.8948  0.1806  0.0033
  859MPD2    H512619   2.603   0.056  15.989  0.4591  1.4726  0.9483
  859MPD2    N112620   2.939   0.353  15.638  0.1366  0.3156 -0.1303
  859MPD2    H712621   3.035   0.384  15.648 -0.7631  3.0697 -0.0993
  860MPD2     C12622   0.185   0.266  11.563  0.0915  0.1314 -0.6048
  860MPD2    C112623   0.250   0.332  11.664  0.7234  0.3555  0.8130
  860MPD2    C212624   0.197   0.345  11.786  0.4060 -0.4655  0.1898
  860MPD2    C312625   0.075   0.284  11.809  0.0293  0.0803  0.0162
  860MPD2    C412626   0.007   0.217  11.712 -0.2012 -0.5244  0.2221
  860MPD2    C512627   0.063   0.212  11.587  1.2018 -0.2815 -0.3362
  860MPD2     H12628   0.251   0.401  11.861 -1.5830 -2.1545  2.8408
  860MPD2    H112629   4.639   0.164  11.734 -0.5762  0.9210  2.1998
  860MPD2    H212630   0.242   0.243  11.474  1.4986  2.2487 -0.2486
  860MPD2    H312631   0.015   0.169  11.499  0.5115  2.6834 -1.3880
  860MPD2     N12632   0.028   0.296  11.945  0.1348  0.9190  0.1633
  860MPD2    H512633   0.095   0.329  12.014  0.0465 -0.8740  1.1200
  860MPD2    N112634   0.376   0.385  11.641  0.3449 -0.6150  0.4312
  860MPD2    H712635   0.416   0.432  11.722 -1.3206  0.0069  0.8895
  861MPD2     C12636   4.434   3.662  10.940 -0.0047  0.1152 -0.6639
  861MPD2    C112637   4.315   3.673  11.012  0.6796  0.0205 -0.1762
  861MPD2    C212638   4.192   3.714  10.958 -0.5143  0.9984 -0.4652
  861MPD2    C312639   4.202   3.753  10.818 -0.2306  0.6467  0.3595
  861MPD2    C412640   4.322   3.736  10.753 -0.1971  0.7131  0.1053
  861MPD2    C512641   4.435   3.693  10.811  0.1213  0.2175 -0.0160
  861MPD2     H12642   4.098   3.714  11.011 -0.6569  0.1705 -0.7068
  861MPD2    H112643   4.327   3.761  10.648 -0.4239 -1.1983 -0.3592
  861MPD2    H212644   4.528   3.636  10.988 -0.5022 -0.6650 -0.1193
  861MPD2    H312645   4.522   3.688  10.747 -1.6170 -0.7303 -2.3205
  861MPD2     N12646   4.096   3.812  10.740 -0.9830 -0.0131  0.6281
  861MPD2    H512647   4.120   3.843  10.647  2.0050 -1.6504  0.8455
  861MPD2    N112648   4.323   3.640  11.151  0.3221  0.2734  0.1588
  861MPD2    H712649   4.241   3.667  11.203  1.6194  1.0622  1.7955
  862MPD2     C12650   3.650   3.858  10.253 -0.7771 -0.3249 -0.6022
  862MPD2    C112651   3.764   3.825  10.309  0.1518 -0.2102  0.2600
  862MPD2    C212652   3.789   3.696  10.349  0.1789 -0.0018  0.4006
  862MPD2    C312653   3.681   3.605  10.337 -0.5049 -0.4080 -0.3524
  862MPD2    C412654   3.558   3.645  10.281 -0.2093 -0.1926 -0.2350
  862MPD2    C512655   3.545   3.773  10.237 -0.6509  0.0805  0.4638
  862MPD2     H12656   3.889   3.663  10.374  0.1130  1.1472  2.1390
  862MPD2    H112657   3.464   3.595  10.265 -0.1339 -0.5333  0.3999
  862MPD2    H212658   3.624   3.961  10.230 -0.0983 -0.0146  0.0174
  862MPD2    H312659   3.448   3.815  10.213 -0.9665 -2.0388 -1.9463
  862MPD2     N12660   3.690   3.472  10.389  0.2096 -0.3876 -0.6252
  862MPD2    H512661   3.607   3.413  10.389  0.4885 -0.7838  0.6885
  862MPD2    N112662   3.861   3.919  10.348  0.5564 -0.3183  0.0665
  862MPD2    H712663   3.947   3.877  10.383  1.8706  1.2171 -1.3456
  863MPD2     C12664   2.372   1.424  16.649  0.4469 -0.7356  0.1134
  863MPD2    C112665   2.339   1.549  16.696  0.3232 -0.9592 -0.1050
  863MPD2    C212666   2.369   1.579  16.829 -0.8737  0.1799 -0.9925
  863MPD2    C312667   2.420   1.483  16.907 -0.1928  0.1311  0.6133
  863MPD2    C412668   2.442   1.355  16.861  1.0577  0.1275 -0.5626
  863MPD2    C512669   2.413   1.322  16.733  0.1219 -0.3439 -0.1385
  863MPD2     H12670   2.366   1.684  16.855  0.0648  0.3246 -1.4735
  863MPD2    H112671   2.482   1.273  16.919 -0.0761  0.5388  0.8011
  863MPD2    H212672   2.357   1.407  16.542 -0.2862  1.6675 -0.1633
  863MPD2    H312673   2.429   1.220  16.702 -0.3227  0.7163 -3.9254
  863MPD2     N12674   2.460   1.511  17.044 -0.0549  0.4766  0.3636
  863MPD2    H512675   2.514   1.439  17.089  1.1354  1.4242  0.4529
  863MPD2    N112676   2.277   1.640  16.599  0.2500 -0.3344 -0.2859
  863MPD2    H712677   2.249   1.612  16.506 -0.4202  0.9989 -0.4806
  864MPD2     C12678   2.634   3.691  17.578 -0.3085  0.2197 -0.0453
  864MPD2    C112679   2.634   3.635  17.449  0.0676 -0.2250  0.0055
  864MPD2    C212680   2.713   3.693  17.348 -0.1258 -0.1675  0.2951
  864MPD2    C312681   2.796   3.798  17.370  0.1762 -0.4472 -0.0354
  864MPD2    C412682   2.803   3.846  17.500 -0.0076 -0.5806  0.3526
  864MPD2    C512683   2.735   3.782  17.604 -0.0734  0.0848 -0.3372
  864MPD2     H12684   2.698   3.664  17.245 -0.1957  0.4313  0.1367
  864MPD2    H112685   2.874   3.924  17.524  2.0746 -1.8031 -1.8269
  864MPD2    H212686   2.583   3.653  17.666 -0.9087  0.4015 -0.3164
  864MPD2    H312687   2.747   3.822   0.008 -0.2983 -0.0441 -0.2593
  864MPD2     N12688   2.859   3.870  17.266 -0.1968  0.0467 -0.3671
  864MPD2    H512689   2.923   3.938  17.306  0.9399 -1.0572 -0.2970
  864MPD2    N112690   2.550   3.525  17.429  0.6642  0.1279 -0.2961
  864MPD2    H712691   2.493   3.491  17.505 -1.1169  0.9767 -1.2641
  865MPD2     C12692   2.922   3.847  16.185 -0.0513  0.4016 -0.1000
  865MPD2    C112693   2.867   3.775  16.287  0.9502 -1.2197  0.2399
  865MPD2    C212694   2.868   3.831  16.415  0.1795  0.2194  0.7860
  865MPD2    C312695   2.931   3.951  16.440 -0.3752  0.5746 -0.4459
  865MPD2    C412696   2.986   4.021  16.330 -0.1455  0.1788  0.6087
  865MPD2    C512697   2.990   3.964  16.205 -0.1042 -0.4883 -0.1878
  865MPD2     H12698   2.829   3.772  16.497 -1.8476  0.3048 -0.1237
  865MPD2    H112699   3.038   4.116  16.336 -0.4374  0.4283 -0.6839
  865MPD2    H212700   2.924   3.800  16.087  3.6881  0.0583  0.1211
  865MPD2    H312701   3.039   4.016  16.123 -0.2254  0.7220  0.5068
  865MPD2     N12702   2.952   4.000  16.576  0.0087  0.4818 -0.5851
  865MPD2    H512703   3.027   4.068  16.579 -0.2277  0.8738 -3.0703
  865MPD2    N112704   2.827   3.641  16.255  0.4895  0.7766  0.0682
  865MPD2    H712705   2.833   3.611  16.158  2.3467  1.9043 -0.1689
  866MPD2     C12706   0.045   3.740  11.606 -0.0134  0.0783 -0.4905
  866MPD2    C112707   0.063   3.709  11.474  0.1869  0.6351 -0.2692
  866MPD2    C212708   0.006   3.783  11.373  0.3835  0.2023  0.6187
  866MPD2    C312709   4.656   3.898  11.404  0.0372 -0.1313  0.5747
  866MPD2    C412710   4.647   3.931  11.533 -0.6979  0.2785  0.1126
  866MPD2    C512711   4.703   3.859  11.629 -0.0401  0.3476  0.2230
  866MPD2     H12712   0.012   3.749  11.270 -2.9333 -0.8958  0.7850
  866MPD2    H112713   4.578   4.008  11.565 -0.4616  0.1563  0.9109
  866MPD2    H212714   0.116   3.708  11.682 -1.0271  0.0546  0.4583
  866MPD2    H312715   4.682   3.892  11.730 -5.1230 -2.3577  0.0397
  866MPD2     N12716   4.592   3.981  11.309  0.7753  0.4077  0.9622
  866MPD2    H512717   4.533   4.057  11.340  1.9270  2.6031 -2.3092
  866MPD2    N112718   0.152   3.606  11.446  0.0234  0.2663  0.1266
  866MPD2    H712719   0.187   3.556  11.528 -2.2100  2.0437  2.1736
  867MPD2     C12720   1.629   3.208  16.852 -0.2038 -0.0436  0.8362
  867MPD2    C112721   1.605   3.230  16.986  0.3895 -0.4986 -0.2077
  867MPD2    C212722   1.535   3.340  17.024  0.0627 -0.2616 -0.0951
  867MPD2    C312723   1.504   3.433  16.927 -0.3567  0.0573  0.3306
  867MPD2    C412724   1.525   3.407  16.797 -0.3821  0.5272  0.0630
  867MPD2    C512725   1.597   3.298  16.761 -0.4545 -0.5894  0.0041
  867MPD2     H12726   1.525   3.363  17.129  0.5901  1.6404 -0.4716
  867MPD2    H112727   1.504   3.480  16.720 -2.8093  0.4845  0.6981
  867MPD2    H212728   1.670   3.114  16.817  3.2582  1.7874 -0.0501
  867MPD2    H312729   1.623   3.289  16.656 -0.0080  0.0190  0.0682
  867MPD2     N12730   1.471   3.569  16.950 -0.4336  0.1580  0.2373
  867MPD2    H512731   1.443   3.614  16.863 -3.3831  0.1242  1.1868
  867MPD2    N112732   1.639   3.125  17.075 -0.1750 -0.2732 -0.3314
  867MPD2    H712733   1.671   3.044  17.023 -0.1929  0.9829 -2.3268
  868MPD2     C12734   3.316   1.953  12.880 -0.7265 -0.2880  0.3310
  868MPD2    C112735   3.411   2.048  12.864  0.3480 -0.1016  0.2481
  868MPD2    C212736   3.388   2.175  12.909  0.1062 -0.4008  0.0605
  868MPD2    C312737   3.267   2.204  12.968 -0.5698  0.0017  0.3671
  868MPD2    C412738   3.164   2.111  12.975  0.3074  0.3282  0.8355
  868MPD2    C512739   3.190   1.985  12.926 -0.2661  0.1683 -0.5597
  868MPD2     H12740   3.463   2.253  12.908 -0.5371  0.2580  2.1225
  868MPD2    H112741   3.064   2.125  13.014 -0.6813  0.3641 -1.7114
  868MPD2    H212742   3.329   1.853  12.840 -0.9301  1.3854 -3.9508
  868MPD2    H312743   3.109   1.915  12.938 -0.0119  0.0833  0.6570
  868MPD2     N12744   3.252   2.329  13.028 -0.7455 -0.3641 -0.8391
  868MPD2    H512745   3.343   2.374  13.035 -0.4483 -0.9025 -1.1819
  868MPD2    N112746   3.539   2.004  12.823  0.4258  0.0478 -0.5503
  868MPD2    H712747   3.562   1.906  12.819  4.4167  0.9251  1.3236
  869MPD2     C12748   0.203   0.420   1.402  0.4447  0.2015 -0.3447
  869MPD2    C112749   0.100   0.352   1.470 -0.2159 -0.0848  0.0441
  869MPD2    C212750   4.691   0.388   1.448  0.1938 -0.1939  0.5127
  869MPD2    C312751   4.665   0.486   1.350 -0.3130  0.7500 -0.1883
  869MPD2    C412752   0.043   0.538   1.278  0.3596  0.1664 -0.3770
  869MPD2    C512753   0.172   0.505   1.301 -0.3793 -0.2200 -0.0764
  869MPD2     H12754   4.609   0.326   1.482  0.1085 -0.0479  0.5709
  869MPD2    H112755   0.020   0.605   1.196 -0.3774 -0.1463 -0.4250
  869MPD2    H212756   0.308   0.409   1.426  0.7597  3.8614 -0.0547
  869MPD2    H312757   0.250   0.546   1.239 -0.7396  0.6213  0.0285
  869MPD2     N12758   4.531   0.508   1.311  0.2264  0.1527 -0.1217
  869MPD2    H512759   4.520   0.540   1.215 -1.3576  1.1824  0.4027
  869MPD2    N112760   0.143   0.255   1.564 -0.5336 -0.1812  0.3082
  869MPD2    H712761   0.241   0.231   1.561 -0.4759 -0.1707  2.0318
  870MPD2     C12762   4.435   3.765   1.864  0.1167  0.1522 -0.6481
  870MPD2    C112763   4.379   3.675   1.780  0.3954  0.9194 -0.4860
  870MPD2    C212764   4.264   3.718   1.715 -0.0722 -0.1788 -0.8294
  870MPD2    C312765   4.216   3.850   1.716  0.4504 -0.4051 -0.0030
  870MPD2    C412766   4.283   3.938   1.794 -0.6905  0.2112 -0.0493
  870MPD2    C512767   4.386   3.894   1.862 -0.4599  0.2664  0.3809
  870MPD2     H12768   4.228   3.655   1.634 -1.0571 -0.7810  0.0781
  870MPD2    H112769   4.268   4.045   1.792  0.1997  0.3400 -0.1298
  870MPD2    H212770   4.519   3.743   1.929  0.4999 -1.7352 -1.7707
  870MPD2    H312771   4.437   3.968   1.923  2.3108  0.1255 -1.7630
  870MPD2     N12772   4.107   3.893   1.643 -0.2183 -0.0221  0.0099
  870MPD2    H512773   4.068   3.819   1.585  0.7554 -0.1088 -0.5288
  870MPD2    N112774   4.426   3.544   1.768  0.0684 -0.7353  0.3350
  870MPD2    H712775   4.517   3.518   1.805  0.2412  2.2493  2.0389
  871MPD2     C12776   0.837   3.395  16.580 -1.0339 -0.6748 -0.0869
  871MPD2    C112777   0.788   3.363  16.701 -0.4613 -0.0629  0.2185
  871MPD2    C212778   0.757   3.234  16.732 -0.0993 -0.1165  0.3487
  871MPD2    C312779   0.774   3.132  16.643 -0.5896  0.8579  0.4177
  871MPD2    C412780   0.823   3.164  16.513 -0.2045  0.0617  0.5012
  871MPD2    C512781   0.851   3.296  16.484 -0.2622 -0.7690 -0.1136
  871MPD2     H12782   0.723   3.208  16.831 -0.5476 -2.9178 -0.5497
  871MPD2    H112783   0.839   3.091  16.434  0.5151  0.2553  0.4669
  871MPD2    H212784   0.848   3.498  16.547 -0.8879 -0.3754  0.8738
  871MPD2    H312785   0.894   3.325  16.388 -0.9951 -3.1349 -1.1563
  871MPD2     N12786   0.746   2.997  16.685  0.0937 -0.1003 -0.0981
  871MPD2    H512787   0.715   2.973  16.779 -2.3196  1.2104 -0.5739
  871MPD2    N112788   0.777   3.475  16.791 -0.0729 -0.3675 -0.1770
  871MPD2    H712789   0.790   3.572  16.763  0.2808  0.2165  2.0273
  872MPD2     C12790   1.188   1.442  13.715 -0.7032 -0.0008  0.0399
  872MPD2    C112791   1.271   1.365  13.795 -0.2549 -0.3745  0.2865
  872MPD2    C212792   1.219   1.309  13.907 -0.1556  0.5777 -0.4622
  872MPD2    C312793   1.080   1.288  13.918  0.3767  0.8298 -0.3373
  872MPD2    C412794   0.997   1.356  13.831 -0.0030  0.8299  0.8685
  872MPD2    C512795   1.058   1.437  13.738 -0.2996 -0.3935  0.1251
  872MPD2     H12796   1.295   1.275  13.975 -1.0835  0.3826  0.4808
  872MPD2    H112797   0.890   1.335  13.826 -0.0163  0.4988  2.3717
  872MPD2    H212798   1.231   1.509  13.641  0.2636  0.5074  1.0495
  872MPD2    H312799   0.991   1.482  13.666  0.3894  0.0226 -0.2597
  872MPD2     N12800   1.020   1.205  14.012  0.5646  0.0928  0.3039
  872MPD2    H512801   0.919   1.205  14.014  0.5607  0.9978 -0.0938
  872MPD2    N112802   1.408   1.335  13.761 -0.0813 -0.0378 -0.3885
  872MPD2    H712803   1.465   1.285  13.830 -0.2066 -0.5516 -0.6552
  873MPD2     C12804   3.098   0.969   0.886  0.2433  0.0100 -0.5493
  873MPD2    C112805   2.982   0.954   0.957  0.1318 -0.0646 -0.0502
  873MPD2    C212806   2.919   0.835   0.948 -0.1150 -0.9709  0.2165
  873MPD2    C312807   2.964   0.731   0.868  0.3254 -0.4151  0.1762
  873MPD2    C412808   3.074   0.750   0.795  0.1086 -0.5285  0.1981
  873MPD2    C512809   3.150   0.864   0.816  0.6775 -1.0330  0.0018
  873MPD2     H12810   2.826   0.826   1.003  0.2363 -2.5258  0.5710
  873MPD2    H112811   3.111   0.668   0.734  2.2033  0.7230 -0.2079
  873MPD2    H212812   3.154   1.062   0.891  0.4160 -0.1648  0.6748
  873MPD2    H312813   3.250   0.867   0.773  0.0305 -0.6619 -1.4757
  873MPD2     N12814   2.890   0.615   0.855  0.0417 -0.2970 -0.0124
  873MPD2    H512815   2.919   0.552   0.780  0.3056 -1.7984  1.3379
  873MPD2    N112816   2.933   1.068   1.037  0.3163  0.1382  0.1163
  873MPD2    H712817   3.007   1.132   1.065 -0.4164 -0.2125  2.8431
  874MPD2     C12818   2.865   1.148  15.951  0.9732 -0.0443 -0.8050
  874MPD2    C112819   2.945   1.065  16.026  0.0033 -0.5764  0.7859
  874MPD2    C212820   3.080   1.076  16.020 -0.0537 -0.0834 -0.2587
  874MPD2    C312821   3.134   1.181  15.947 -0.0053 -0.4124  0.1778
  874MPD2    C412822   3.054   1.258  15.869 -0.5790  0.5073 -0.2186
  874MPD2    C512823   2.916   1.240  15.869 -0.3670  0.2216  0.6690
  874MPD2     H12824   3.137   0.997  16.068  2.4496  1.3706 -0.8271
  874MPD2    H112825   3.091   1.337  15.806 -1.9497  1.5991  0.3481
  874MPD2    H212826   2.758   1.145  15.967  1.0982 -1.3156 -0.1811
  874MPD2    H312827   2.851   1.309  15.817  0.9417  0.6459 -0.3971
  874MPD2     N12828   3.273   1.204  15.947 -0.0713  0.2985 -0.8321
  874MPD2    H512829   3.304   1.252  15.863 -2.4717  0.4988 -1.6027
  874MPD2    N112830   2.873   0.974  16.109 -0.0178 -0.0408 -0.0016
  874MPD2    H712831   2.773   0.971  16.091 -0.1692  2.9132  0.4119
  875MPD2     C12832   4.257   3.831  14.587  0.2263  0.0905 -0.0385
  875MPD2    C112833   4.167   3.876  14.686 -0.0287 -0.1590 -0.0097
  875MPD2    C212834   4.212   3.925  14.805  0.0354  0.3909  0.1924
  875MPD2    C312835   4.345   3.922  14.841 -0.2021 -0.1552 -0.0867
  875MPD2    C412836   4.427   3.868  14.747  0.1883 -0.4188 -0.1419
  875MPD2    C512837   4.393   3.828  14.625  0.2209  0.1151 -0.0052
  875MPD2     H12838   4.141   3.986  14.860 -0.4646 -0.6458  0.6797
  875MPD2    H112839   4.534   3.876  14.758  0.4205 -3.1219 -0.4823
  875MPD2    H212840   4.227   3.817  14.484 -2.7869 -0.9313  0.9809
  875MPD2    H312841   4.462   3.827  14.541 -1.0155  1.6208 -1.0317
  875MPD2     N12842   4.399   3.978  14.959  0.2239  0.0653 -0.1387
  875MPD2    H512843   4.500   3.971  14.968 -0.0521 -2.0080  1.2903
  875MPD2    N112844   4.031   3.892  14.668 -0.9963  0.5886  0.2758
  875MPD2    H712845   3.984   3.939  14.744  0.5795  1.5929  0.6227
  876MPD2     C12846   2.913   0.626  15.901  0.1150 -0.1032 -0.4355
  876MPD2    C112847   3.036   0.625  15.949 -0.4513  0.0052 -0.1098
  876MPD2    C212848   3.088   0.524  16.024  0.1612 -0.8977  0.3593
  876MPD2    C312849   3.002   0.427  16.076 -0.9681 -0.0751  0.4545
  876MPD2    C412850   2.863   0.434  16.041  0.3006  0.2281  0.0816
  876MPD2    C512851   2.823   0.540  15.961  1.4100 -0.6358  0.5726
  876MPD2     H12852   3.190   0.527  16.061 -0.0151  1.8724  0.6259
  876MPD2    H112853   2.789   0.364  16.080  0.2256  0.2602 -0.0041
  876MPD2    H212854   2.871   0.699  15.833 -2.5580 -2.2107 -1.0478
  876MPD2    H312855   2.718   0.536  15.934  1.1561  0.3702  1.4333
  876MPD2     N12856   3.056   0.326  16.166 -0.2951  0.1075  0.0913
  876MPD2    H512857   3.156   0.337  16.180 -0.1940 -0.4195 -0.1785
  876MPD2    N112858   3.122   0.720  15.890 -0.3506 -0.2163 -0.0244
  876MPD2    H712859   3.091   0.764  15.804  0.3354 -0.3589 -0.3381
  877MPD2     C12860   3.002   0.983  15.298 -0.6177 -0.4365 -0.2735
  877MPD2    C112861   3.143   0.992  15.313 -0.0775 -0.1478 -0.1558
  877MPD2    C212862   3.227   1.005  15.206  0.3173 -0.2427  0.0063
  877MPD2    C312863   3.175   1.010  15.074  0.2145 -0.3249  0.1448
  877MPD2    C412864   3.037   1.001  15.059 -0.6215  0.4819  0.7413
  877MPD2    C512865   2.957   0.985  15.171 -0.3279  0.0215  0.2632
  877MPD2     H12866   3.335   1.008  15.212  0.2969 -1.8443  0.9824
  877MPD2    H112867   2.984   1.016  14.966  0.0123 -0.3471  0.2431
  877MPD2    H212868   2.938   0.992  15.385  0.8120 -0.5264  0.7906
  877MPD2    H312869   2.849   0.986  15.162 -0.4096  0.0427  1.2281
  877MPD2     N12870   3.251   1.022  14.961  0.2581 -0.9563 -0.1072
  877MPD2    H512871   3.206   1.000  14.873  1.2831 -2.2027 -0.3254
  877MPD2    N112872   3.205   1.008  15.436  0.5379  0.1691  0.3607
  877MPD2    H712873   3.305   1.020  15.421  0.6734 -0.1278  1.0311
  878MPD2     C12874   2.306   0.564  13.137  0.7004 -0.0154  0.6725
  878MPD2    C112875   2.441   0.535  13.128 -0.3018 -0.0255  0.1211
  878MPD2    C212876   2.510   0.513  13.240 -0.1534  0.5626  0.0050
  878MPD2    C312877   2.448   0.520  13.366  0.0806  0.5614  0.0275
  878MPD2    C412878   2.306   0.548  13.378  0.3423 -0.7379 -0.0016
  878MPD2    C512879   2.236   0.571  13.260  1.2221  0.9566 -0.9191
  878MPD2     H12880   2.616   0.491  13.233 -0.8807 -2.0882 -2.8983
  878MPD2    H112881   2.262   0.533  13.476  0.9428  1.0699  0.5389
  878MPD2    H212882   2.245   0.588  13.051  0.3691 -0.4243  0.7951
  878MPD2    H312883   2.130   0.595  13.264  0.3852 -2.6625 -1.3125
  878MPD2     N12884   2.534   0.526  13.481  0.7193  0.4843 -0.0400
  878MPD2    H512885   2.630   0.500  13.462  0.8288 -0.7580  2.2244
  878MPD2    N112886   2.489   0.539  12.991 -0.5716  0.6063  0.1925
  878MPD2    H712887   2.423   0.561  12.918 -0.5597 -0.6504 -0.1882
  879MPD2     C12888   2.872   2.072  16.762  0.3918  0.1066  0.5567
  879MPD2    C112889   2.886   1.965  16.846  0.3525 -0.9214 -0.5882
  879MPD2    C212890   2.883   1.841  16.788  0.1935 -0.3561  0.4655
  879MPD2    C312891   2.877   1.826  16.650  0.2013  1.0833 -0.2801
  879MPD2    C412892   2.875   1.938  16.568  0.6137  0.8794  0.3578
  879MPD2    C512893   2.878   2.062  16.626 -0.2120  0.0428  0.1086
  879MPD2     H12894   2.910   1.753  16.845  3.8790  0.7244  0.4418
  879MPD2    H112895   2.891   1.921  16.462  1.5089 -0.7830  0.7648
  879MPD2    H212896   2.874   2.174  16.797  0.1586  0.8947 -1.7517
  879MPD2    H312897   2.879   2.156  16.572  2.7485  0.7930  1.4612
  879MPD2     N12898   2.877   1.699  16.579  0.2497  0.6642  0.1850
  879MPD2    H512899   2.896   1.693  16.480  3.7296 -0.5931  0.9177
  879MPD2    N112900   2.902   1.985  16.991 -0.2615 -0.1634  0.6111
  879MPD2    H712901   2.906   2.080  17.025  0.9103 -0.4982  1.4011
  880MPD2     C12902   4.221   3.350   0.251  0.0643  0.0858  0.3949
  880MPD2    C112903   4.200   3.408   0.373  0.0808 -0.3876  0.2718
  880MPD2    C212904   4.225   3.337   0.494  0.5856 -0.7696  0.4218
  880MPD2    C312905   4.259   3.199   0.486  0.4499 -0.2592 -0.6011
  880MPD2    C412906   4.263   3.141   0.363  0.8035 -0.2860 -0.3744
  880MPD2    C512907   4.252   3.214   0.250  0.1402 -1.0466  0.8095
  880MPD2     H12908   4.215   3.379   0.594  0.4348 -1.4935  0.7140
  880MPD2    H112909   4.277   3.034   0.367  2.3392 -0.0121  1.8301
  880MPD2    H212910   4.194   3.397   0.157  1.7733  0.9008  0.3078
  880MPD2    H312911   4.264   3.159   0.157  1.1536  2.7687 -1.3121
  880MPD2     N12912   4.282   3.125   0.605  0.4279  0.6883  0.5540
  880MPD2    H512913   4.251   3.178   0.686 -0.0191 -0.2221  0.9769
  880MPD2    N112914   4.154   3.543   0.376 -0.1394  0.2780 -0.0620
  880MPD2    H712915   4.130   3.582   0.286  1.1831 -0.7190 -0.8524
  881MPD2     C12916   4.131   4.354  17.523 -0.2586 -0.4206 -0.4098
  881MPD2    C112917   4.244   4.282  17.567 -0.2845  0.4650  0.1077
  881MPD2    C212918   4.224   4.197  17.677  0.3467  0.0460 -0.1346
  881MPD2    C312919   4.109   4.195   0.049 -0.6474  0.1635 -0.1471
  881MPD2    C412920   4.001   4.273   0.011  0.6056 -0.6611  0.7216
  881MPD2    C512921   4.009   4.346  17.591  0.4037  0.4413  0.5207
  881MPD2     H12922   4.305   4.130   0.009  0.2338  0.5304  1.3405
  881MPD2    H112923   3.919   4.287   0.081 -1.1101 -1.4592 -1.1075
  881MPD2    H212924   4.136   4.410  17.430 -1.4218 -0.9496 -0.8002
  881MPD2    H312925   3.921   4.400  17.557  0.2898 -0.2471 -0.2917
  881MPD2     N12926   4.095   4.111   0.167 -0.5263 -0.1514 -0.7503
  881MPD2    H512927   4.008   4.121   0.216  0.8915  1.9485  1.3056
  881MPD2    N112928   4.360   4.283  17.485 -0.3345  0.4943  0.0158
  881MPD2    H712929   4.356   4.347  17.407  1.9756  0.1983 -0.3672
  882MPD2     C12930   3.244   0.876  14.170 -1.0217  0.5828  0.8565
  882MPD2    C112931   3.189   0.921  14.284 -0.7369 -0.3336  0.5910
  882MPD2    C212932   3.056   0.958  14.285 -0.2024  0.4751  0.1756
  882MPD2    C312933   2.978   0.946  14.169 -0.2624  0.5751  0.5492
  882MPD2    C412934   3.033   0.890  14.056 -0.3801  0.0484 -0.3767
  882MPD2    C512935   3.170   0.863  14.054 -0.5356 -0.4516 -0.5017
  882MPD2     H12936   3.008   1.003  14.371  0.0513  2.3997 -0.6927
  882MPD2    H112937   2.976   0.880  13.965 -2.3329  0.4125  0.8148
  882MPD2    H212938   3.350   0.856  14.160 -1.7615 -3.4657  1.4977
  882MPD2    H312939   3.215   0.807  13.973  1.2257 -0.4397  0.4652
  882MPD2     N12940   2.842   0.980  14.161 -0.5115 -0.8483 -0.5170
  882MPD2    H512941   2.800   0.972  14.069 -3.1915 -0.1135  0.6377
  882MPD2    N112942   3.270   0.914  14.403 -0.3094 -0.4380 -0.0347
  882MPD2    H712943   3.358   0.870  14.379  1.1273  1.6654  1.4321
  883MPD2     C12944   0.127   0.955  16.390 -0.2337 -0.1598 -0.8624
  883MPD2    C112945   0.192   0.992  16.277  0.1196 -0.7350 -0.0519
  883MPD2    C212946   0.331   0.969  16.279 -0.4706 -0.0614  0.1500
  883MPD2    C312947   0.403   0.924  16.386 -0.2608 -0.1867 -0.2504
  883MPD2    C412948   0.332   0.879  16.494 -0.7891 -0.0812 -0.7134
  883MPD2    C512949   0.199   0.905  16.498 -0.1352 -0.1978  0.2872
  883MPD2     H12950   0.390   0.991  16.191 -1.2892 -0.7040 -0.5697
  883MPD2    H112951   0.378   0.848  16.587  5.7790  3.8732 -2.6137
  883MPD2    H212952   0.019   0.962  16.404 -0.0383 -1.0238  1.0975
  883MPD2    H312953   0.151   0.874  16.590 -1.0266 -1.2430 -0.5232
  883MPD2     N12954   0.545   0.903  16.380 -0.2437 -0.3864  0.1276
  883MPD2    H512955   0.584   0.932  16.291 -0.1521  2.3364  1.0311
  883MPD2    N112956   0.127   1.023  16.158 -0.1702 -0.4357 -0.0606
  883MPD2    H712957   0.179   1.042  16.073 -2.1819  0.7154 -1.0264
  884MPD2     C12958   2.228   1.665  15.283 -0.5139  0.9737  0.1257
  884MPD2    C112959   2.206   1.720  15.159  0.2768 -0.1780 -0.1984
  884MPD2    C212960   2.102   1.810  15.147  0.3340  0.2367  0.0883
  884MPD2    C312961   2.023   1.829  15.255  0.5251  1.1401  0.9426
  884MPD2    C412962   2.041   1.773  15.377 -0.7812  0.0419 -0.1507
  884MPD2    C512963   2.147   1.691  15.386  0.1969 -0.1324 -0.7125
  884MPD2     H12964   2.078   1.868  15.059  2.1191  1.3600  0.3486
  884MPD2    H112965   1.981   1.786  15.467 -0.8261  0.7859 -0.2840
  884MPD2    H212966   2.310   1.597  15.299 -0.7489  0.3139 -1.4889
  884MPD2    H312967   2.169   1.655  15.486  2.1850 -1.0515 -1.4758
  884MPD2     N12968   1.926   1.918  15.234  0.4981  0.5496  0.4239
  884MPD2    H512969   1.931   1.952  15.138 -2.3027 -1.1915 -0.3312
  884MPD2    N112970   2.293   1.679  15.055  0.1310  0.2070  0.4428
  884MPD2    H712971   2.378   1.629  15.079  0.8758  0.6472 -1.2567
  885MPD2     C12972   0.067   2.286   0.107 -0.8565 -0.2191  0.5067
  885MPD2    C112973   0.143   2.189   0.056  0.2743  0.5299 -0.1862
  885MPD2    C212974   0.169   2.184  17.614 -0.3415 -0.6511 -0.0416
  885MPD2    C312975   0.143   2.299  17.540  0.5224 -0.1642 -0.6649
  885MPD2    C412976   0.058   2.396  17.598  0.0057  0.9638  0.3930
  885MPD2    C512977   0.016   2.387   0.034 -0.0836  0.4132 -0.6704
  885MPD2     H12978   0.234   2.108  17.571 -0.8320 -0.3079 -1.3723
  885MPD2    H112979   0.030   2.489  17.551 -0.5855 -0.3465 -1.8260
  885MPD2    H212980   0.063   2.298   0.214  0.7934  0.2777  0.5136
  885MPD2    H312981   4.698   2.478   0.076  1.5314  0.7812  0.1193
  885MPD2     N12982   0.199   2.309  17.411 -0.2414 -0.4161 -0.1971
  885MPD2    H512983   0.261   2.234  17.383 -1.5832 -1.5329 -0.1833
  885MPD2    N112984   0.179   2.089   0.148  0.5389 -0.1156 -0.0686
  885MPD2    H712985   0.158   2.110   0.245  1.5490 -0.2262  0.1735
  886MPD2     C12986   1.585   0.919  15.758  0.6803  0.0807 -0.7928
  886MPD2    C112987   1.715   0.876  15.733 -0.7706 -0.3687 -0.6484
  886MPD2    C212988   1.763   0.887  15.607 -0.4817  0.5964 -0.0169
  886MPD2    C312989   1.688   0.923  15.505  0.6235 -0.3937  0.9338
  886MPD2    C412990   1.560   0.980  15.531  0.3902  0.3311  0.3511
  886MPD2    C512991   1.507   0.973  15.659 -0.9246  0.1766  0.5651
  886MPD2     H12992   1.867   0.858  15.594 -0.7648 -0.6010  0.3788
  886MPD2    H112993   1.498   1.024  15.454  0.5305  1.1015  0.6788
  886MPD2    H212994   1.541   0.917  15.857  0.8477 -1.9988 -0.7739
  886MPD2    H312995   1.407   1.015  15.671 -1.7660 -1.6621 -0.0207
  886MPD2     N12996   1.741   0.916  15.373 -0.1025 -0.5855  0.5086
  886MPD2    H512997   1.680   0.956  15.303  1.7723  0.3035 -0.5965
  886MPD2    N112998   1.797   0.809  15.826  0.4750  0.5114 -0.7240
  886MPD2    H712999   1.878   0.759  15.791 -0.6632 -1.7432 -0.0950
  887MPD2     C13000   2.432   0.533  15.794  0.1657  0.9962 -0.1469
  887MPD2    C113001   2.317   0.600  15.765  0.3242  0.3241  0.2067
  887MPD2    C213002   2.318   0.674  15.648  0.2083  0.1950  0.4106
  887MPD2    C313003   2.431   0.697  15.575  0.5176  0.2614  0.2669
  887MPD2    C413004   2.547   0.632  15.608  0.4265 -0.4561  0.2265
  887MPD2    C513005   2.546   0.545  15.719  0.1463  0.5762  0.2317
  887MPD2     H13006   2.231   0.732  15.621  1.1275  0.8309 -1.2370
  887MPD2    H113007   2.641   0.631  15.554  0.8308 -3.5734  1.0117
  887MPD2    H213008   2.440   0.459  15.873 -1.5395 -0.6651 -1.5270
  887MPD2    H313009   2.629   0.481  15.747  0.5545  0.8300 -0.4059
  887MPD2     N13010   2.431   0.797  15.481  0.5486  0.9522  0.3086
  887MPD2    H513011   2.337   0.833  15.470 -0.5590 -1.7521  1.1101
  887MPD2    N113012   2.204   0.591  15.851  0.3964  0.2177  0.3698
  887MPD2    H713013   2.120   0.636  15.816  0.1583 -0.3543  0.2041
  888MPD2     C13014   4.130   0.410  14.927 -0.4666  0.4894  0.2330
  888MPD2    C113015   4.141   0.461  15.054 -0.3163 -0.4330  0.7313
  888MPD2    C213016   4.215   0.581  15.073 -0.3139 -0.0545  0.6194
  888MPD2    C313017   4.290   0.644  14.965 -0.6022 -0.1750  0.3660
  888MPD2    C413018   4.293   0.578  14.837  0.6485 -0.0330 -0.6271
  888MPD2    C513019   4.210   0.461  14.830  0.1179 -0.7913 -0.4758
  888MPD2     H13020   4.212   0.639  15.164 -2.1827  1.1371 -0.2147
  888MPD2    H113021   4.333   0.616  14.744  0.1482  0.8399 -0.4817
  888MPD2    H213022   4.091   0.312  14.900 -1.0484  0.0151  2.7472
  888MPD2    H313023   4.200   0.437  14.725 -1.4861 -0.2031 -0.4618
  888MPD2     N13024   4.356   0.763  14.997 -0.2278 -0.2189 -0.2993
  888MPD2    H513025   4.334   0.797  15.090 -3.0924 -2.0558 -0.3193
  888MPD2    N113026   4.070   0.411  15.163 -0.4870 -0.6012 -0.0452
  888MPD2    H713027   4.073   0.459  15.252  0.8007 -0.5783 -0.1022
  889MPD2     C13028   3.143   0.084  12.872  0.5437  0.2565  0.2006
  889MPD2    C113029   3.234   0.051  12.968 -0.3386  0.5104 -1.0208
  889MPD2    C213030   3.246   0.128  13.082 -0.3558 -0.2532  0.5039
  889MPD2    C313031   3.170   0.245  13.087  0.5127  0.4489 -0.2574
  889MPD2    C413032   3.099   0.293  12.976  0.0189 -0.2998 -0.8129
  889MPD2    C513033   3.084   0.206  12.874 -0.7813  0.0143  0.3478
  889MPD2     H13034   3.297   0.091  13.170 -2.9163 -1.0435  1.6536
  889MPD2    H113035   3.050   0.389  12.971 -0.8372 -0.6475  0.9540
  889MPD2    H213036   3.119   0.018  12.790 -2.4219  1.0998  0.4038
  889MPD2    H313037   3.017   0.244  12.798 -0.2809 -0.3379 -0.2664
  889MPD2     N13038   3.176   0.311  13.210 -0.5704  0.0116  0.2399
  889MPD2    H513039   3.232   0.272  13.286  0.1507 -0.3451 -0.4814
  889MPD2    N113040   3.290   4.648  12.960  0.0106 -0.6997 -0.6703
  889MPD2    H713041   3.254   4.586  12.888 -1.3462 -0.2303 -0.4059
  890MPD2     C13042   3.253   1.707  14.267  0.9405  0.4224 -0.5634
  890MPD2    C113043   3.305   1.794  14.361  0.3757 -0.0753 -0.0229
  890MPD2    C213044   3.319   1.744  14.494 -0.4351  0.2388 -0.1417
  890MPD2    C313045   3.288   1.611  14.522  0.4958  0.0152 -0.3571
  890MPD2    C413046   3.238   1.524  14.423  0.0703  0.2944  1.6090
  890MPD2    C513047   3.215   1.579  14.302  0.4319 -0.1926 -0.0840
  890MPD2     H13048   3.333   1.806  14.582 -1.0182 -1.2799  1.0114
  890MPD2    H113049   3.217   1.419  14.437  2.2129 -0.1245  1.7261
  890MPD2    H213050   3.236   1.735  14.164 -0.7896 -2.3018 -1.0447
  890MPD2    H313051   3.150   1.520  14.239  0.6761 -1.3529  0.7521
  890MPD2     N13052   3.327   1.575  14.653  0.8596  0.3847 -0.3996
  890MPD2    H513053   3.377   1.648  14.703  1.5972 -1.1043  1.0291
  890MPD2    N113054   3.340   1.928  14.324  0.2624  0.0681 -0.4602
  890MPD2    H713055   3.342   1.951  14.225  0.1849 -1.3184 -0.7871
  891MPD2     C13056   1.016   4.610  16.826 -0.1287 -0.5492 -0.1899
  891MPD2    C113057   1.007   0.005  16.892 -0.4311  0.3997  0.5776
  891MPD2    C213058   1.059   0.012  17.022  0.1253  0.0955  0.1198
  891MPD2    C313059   1.133   4.631  17.078 -0.2055  0.3990  0.0892
  891MPD2    C413060   1.146   4.510  17.010 -0.1090  0.7772 -0.3329
  891MPD2    C513061   1.094   4.503  16.880  0.2887  0.1512  0.0870
  891MPD2     H13062   1.052   0.095  17.092  1.8180 -0.0262  0.4320
  891MPD2    H113063   1.196   4.424  17.052 -1.6385 -0.6378 -1.4359
  891MPD2    H213064   0.983   4.609  16.723  1.7334  0.6168 -0.7981
  891MPD2    H313065   1.098   4.411  16.824 -1.2749  0.2292 -0.1771
  891MPD2     N13066   1.174   4.645  17.208  0.0038 -0.4481  0.2625
  891MPD2    H513067   1.155   0.014  17.244 -1.5682 -0.8215  0.3783
  891MPD2    N113068   0.920   0.099  16.832 -0.3946 -0.3969 -0.1544
  891MPD2    H713069   0.894   0.090  16.734  0.4644  0.9999 -0.5020
  892MPD2     C13070   2.276   1.235  14.913 -0.4171 -0.2052  0.1134
  892MPD2    C113071   2.212   1.303  14.812  0.1966  0.9235 -0.8932
  892MPD2    C213072   2.259   1.282  14.682 -0.2459 -0.2571  0.0445
  892MPD2    C313073   2.366   1.198  14.656  0.0943  0.3048 -0.7124
  892MPD2    C413074   2.424   1.127  14.757 -0.0433  0.2099 -0.1393
  892MPD2    C513075   2.371   1.139  14.882 -0.0818  0.2565 -0.2695
  892MPD2     H13076   2.204   1.324  14.598  2.3716  0.8885 -1.0928
  892MPD2    H113077   2.506   1.062  14.730 -0.9010  0.0096 -2.2901
  892MPD2    H213078   2.269   1.262  15.017 -1.6709 -1.0327  0.2313
  892MPD2    H313079   2.427   1.087  14.959  1.3187  3.5833  0.9702
  892MPD2     N13080   2.410   1.173  14.525 -0.0653 -0.1441 -0.1117
  892MPD2    H513081   2.494   1.116  14.518 -0.1561 -0.4631  1.3091
  892MPD2    N113082   2.125   1.402  14.845  0.1964 -0.0106  0.2602
  892MPD2    H713083   2.091   1.462  14.770  2.6011  1.9083  0.7289
  893MPD2     C13084   4.140   3.612   2.018 -0.1755 -0.4007  0.3245
  893MPD2    C113085   4.021   3.670   1.987  0.2141  0.2544  0.1101
  893MPD2    C213086   3.906   3.591   1.956 -0.4931  0.0858  0.2867
  893MPD2    C313087   3.915   3.451   1.947  0.3310 -0.7043 -0.0193
  893MPD2    C413088   4.043   3.398   1.973 -0.5450  0.5365  0.4584
  893MPD2    C513089   4.153   3.475   2.005 -0.1087 -0.2344  0.4668
  893MPD2     H13090   3.808   3.636   1.943 -0.1213  0.9161  0.3625
  893MPD2    H113091   4.068   3.294   1.958 -0.2233  0.2860  2.6629
  893MPD2    H213092   4.235   3.663   2.026 -0.2955  0.3894 -3.2236
  893MPD2    H313093   4.253   3.434   1.990  0.0311 -0.3436  1.7072
  893MPD2     N13094   3.809   3.364   1.911 -0.9259  0.3084  0.1158
  893MPD2    H513095   3.836   3.266   1.908  0.0031  0.5697  0.0695
  893MPD2    N113096   4.021   3.813   1.998  0.5630  0.1610 -0.5508
  893MPD2    H713097   4.103   3.856   2.038 -0.6859  2.2111 -0.1982
  894MPD2     C13098   1.592   2.003   0.482  0.2485  0.1299 -0.2220
  894MPD2    C113099   1.647   2.098   0.573  0.7167 -0.3061 -0.2156
  894MPD2    C213100   1.726   2.198   0.521  0.2470  0.3659 -0.4267
  894MPD2    C313101   1.732   2.219   0.385 -0.6140  0.1642  0.2354
  894MPD2    C413102   1.694   2.120   0.303  0.3497  0.0553 -0.1262
  894MPD2    C513103   1.624   2.006   0.350  0.3013 -0.4102  0.5616
  894MPD2     H13104   1.776   2.276   0.579  0.2008  1.2291 -1.5529
  894MPD2    H113105   1.714   2.118   0.197  0.4416  0.5130 -0.1167
  894MPD2    H213106   1.535   1.917   0.516  0.3682  0.6059  1.1812
  894MPD2    H313107   1.589   1.927   0.286  2.4115 -2.4233  1.9056
  894MPD2     N13108   1.796   2.341   0.338  0.1449 -0.2303  0.5684
  894MPD2    H513109   1.833   2.403   0.409 -2.2980  0.7315  1.0347
  894MPD2    N113110   1.622   2.080   0.713 -0.1725  0.1205  0.0010
  894MPD2    H713111   1.557   2.004   0.730 -1.3391  0.3756 -3.3118
  895MPD2     C13112   1.286   0.475  13.599  0.1604  0.3524 -0.5144
  895MPD2    C113113   1.251   0.479  13.466 -0.1920  0.1760  0.4982
  895MPD2    C213114   1.334   0.413  13.377  0.2467  0.1298 -0.1434
  895MPD2    C313115   1.451   0.357  13.419 -0.2983 -0.3194  0.0237
  895MPD2    C413116   1.484   0.354  13.554 -0.3182 -0.4077  0.2027
  895MPD2    C513117   1.405   0.414  13.643 -0.5690  0.3720  0.0596
  895MPD2     H13118   1.317   0.424  13.270 -0.4504 -0.9613 -0.1473
  895MPD2    H113119   1.567   0.303  13.602  0.3818 -0.4096 -1.0116
  895MPD2    H213120   1.214   0.513  13.671 -0.1824  1.7534 -1.5847
  895MPD2    H313121   1.423   0.401  13.749  2.1007  1.7348 -0.2500
  895MPD2     N13122   1.535   0.316  13.317  0.3731 -0.1352 -0.1591
  895MPD2    H513123   1.500   0.324  13.222  1.4145  0.7856 -0.4659
  895MPD2    N113124   1.134   0.543  13.421 -0.1560  0.1419  0.0156
  895MPD2    H713125   1.115   0.543  13.321  0.4953  0.5885 -0.1062
  896MPD2     C13126   3.161   3.160   1.136  0.4507  0.1777  0.2876
  896MPD2    C113127   3.226   3.107   1.027 -0.1737 -0.3133 -0.3923
  896MPD2    C213128   3.146   3.037   0.937 -0.2130 -0.9618  0.5223
  896MPD2    C313129   3.015   3.016   0.959 -0.2467 -0.0986 -0.0183
  896MPD2    C413130   2.952   3.060   1.073 -0.2753  0.2637  0.7362
  896MPD2    C513131   3.027   3.130   1.163 -0.8573 -0.1969 -0.2894
  896MPD2     H13132   3.191   2.994   0.848  0.9870  0.5314  0.3916
  896MPD2    H113133   2.848   3.039   1.094 -0.3495 -0.2481 -0.1157
  896MPD2    H213134   3.211   3.234   1.197  2.3209  1.3068 -2.6006
  896MPD2    H313135   2.972   3.187   1.237 -0.3078 -0.8130  0.5968
  896MPD2     N13136   2.942   2.946   0.859  0.4362 -0.2955  0.0669
  896MPD2    H513137   2.990   2.902   0.782 -0.2622  0.0529 -0.5634
  896MPD2    N113138   3.364   3.130   1.026 -0.1608  0.9632 -0.1294
  896MPD2    H713139   3.406   3.195   1.092 -1.3761 -1.2678  2.9012
  897MPD2     C13140   0.100   4.469  10.140  0.1456 -0.1537 -0.3791
  897MPD2    C113141   0.055   4.597  10.183 -0.6126 -0.4831  0.6672
  897MPD2    C213142   4.698   4.604  10.299  1.0192 -0.4529 -0.0171
  897MPD2    C313143   4.683   4.494  10.383  0.0099  0.4838 -0.0282
  897MPD2    C413144   0.015   4.373  10.346 -0.1388  0.6507  0.5235
  897MPD2    C513145   0.074   4.358  10.223  0.1222  0.1536  0.3568
  897MPD2     H13146   4.672   4.702  10.339 -1.2148 -0.9394 -0.2447
  897MPD2    H113147   0.000   4.291  10.415 -1.8727  2.6504  2.5293
  897MPD2    H213148   0.161   4.464  10.050 -0.8550 -0.1037 -1.0542
  897MPD2    H313149   0.115   4.261  10.197  1.3875  0.8359 -0.1946
  897MPD2     N13150   4.613   4.515  10.504 -0.1944  0.1444 -0.7984
  897MPD2    H513151   4.576   4.609  10.520 -0.1090  0.2783 -1.4146
  897MPD2    N113152   0.104   4.715  10.117 -0.5003 -0.4387  0.2809
  897MPD2    H713153   0.150   4.707  10.026 -0.1523 -2.8075  0.6720
  898MPD2     C13154   1.802   0.362   0.060  0.0828 -0.3463  0.6043
  898MPD2    C113155   1.724   0.477   0.082  0.4624 -0.4527 -0.4077
  898MPD2    C213156   1.642   0.524  17.675 -0.1659  0.2901  0.3833
  898MPD2    C313157   1.622   0.449  17.560  0.9563  0.4962 -1.1427
  898MPD2    C413158   1.681   0.318  17.555 -0.0021  0.4274 -0.0759
  898MPD2    C513159   1.777   0.284  17.649  0.0593  0.4358  0.1713
  898MPD2     H13160   1.597   0.621  17.692 -3.4299 -1.1970  0.1722
  898MPD2    H113161   1.674   0.250  17.471  3.7065  1.6412 -1.3543
  898MPD2    H213162   1.873   0.325   0.133  1.5532  0.6777 -0.3049
  898MPD2    H313163   1.830   0.189  17.652 -2.0603 -0.7689 -0.2177
  898MPD2     N13164   1.549   0.504  17.449  0.0632 -1.2326 -0.3766
  898MPD2    H513165   1.512   0.596  17.473 -1.7140 -2.5531  1.9493
  898MPD2    N113166   1.733   0.550   0.200 -0.3731 -0.1525  0.2791
  898MPD2    H713167   1.663   0.621   0.220  3.7530  3.4242  2.0357
  899MPD2     C13168   2.480   1.086  17.485 -0.0084  0.3480  0.1209
  899MPD2    C113169   2.463   1.201  17.553 -0.5472 -0.5090  0.1283
  899MPD2    C213170   2.419   1.196  17.683 -0.0758 -0.1642  0.5273
  899MPD2    C313171   2.383   1.076   0.049  0.6056 -0.1996 -0.8833
  899MPD2    C413172   2.389   0.959  17.667  0.1557 -0.3051 -0.3135
  899MPD2    C513173   2.444   0.971  17.547  1.1176 -0.1431  0.6254
  899MPD2     H13174   2.408   1.290   0.041  1.0156  0.6790 -0.7200
  899MPD2    H113175   2.375   0.861   0.014 -3.5465  0.7624  0.9695
  899MPD2    H213176   2.524   1.092  17.386 -1.5663 -4.2510 -0.8300
  899MPD2    H313177   2.462   0.881  17.490  0.5224  1.1405 -1.5978
  899MPD2     N13178   2.324   1.075   0.179 -0.0424 -0.7784 -0.6651
  899MPD2    H513179   2.259   1.006   0.214  0.0417 -0.7037 -0.3660
  899MPD2    N113180   2.496   1.317  17.483 -0.7684 -0.1710 -0.5606
  899MPD2    H713181   2.519   1.305  17.385  3.4200  0.7283  0.2952
  900MPD2     C13182   2.457   3.135  12.416  0.2947  0.6991 -0.1387
  900MPD2    C113183   2.412   3.048  12.519 -0.7474 -0.1481 -0.7140
  900MPD2    C213184   2.278   3.063  12.554  0.0912  0.1846 -0.8520
  900MPD2    C313185   2.201   3.166  12.526  0.3015 -0.4844 -0.2156
  900MPD2    C413186   2.252   3.256  12.428 -0.7337 -0.2566  0.7538
  900MPD2    C513187   2.379   3.237  12.375 -0.3091  0.0997  0.1341
  900MPD2     H13188   2.232   2.995  12.625  0.0032 -0.8625 -1.9089
  900MPD2    H113189   2.191   3.342  12.401  0.0833  0.4968  1.3147
  900MPD2    H213190   2.560   3.132  12.382  0.5631 -0.4996  0.7800
  900MPD2    H313191   2.419   3.305  12.300  0.1337  0.4012  0.6448
  900MPD2     N13192   2.070   3.167  12.581  0.1624 -0.6823 -0.5570
  900MPD2    H513193   2.039   3.079  12.622  0.0921 -0.2700  0.2799
  900MPD2    N113194   2.494   2.940  12.547  0.1017  0.5421 -0.0156
  900MPD2    H713195   2.573   2.923  12.485 -1.1936  0.0273 -1.5012
  901MPD2     C13196   2.624   1.873  12.601 -0.1140 -0.0533  0.0965
  901MPD2    C113197   2.746   1.930  12.624 -0.2352  0.2205 -0.2270
  901MPD2    C213198   2.756   2.068  12.644  0.6894  0.2721 -1.0666
  901MPD2    C313199   2.640   2.149  12.643 -0.0768 -0.0508 -0.1136
  901MPD2    C413200   2.519   2.091  12.622  0.8752  0.1390 -0.1399
  901MPD2    C513201   2.514   1.953  12.602  0.8436  0.9311 -0.4058
  901MPD2     H13202   2.852   2.118  12.648  0.6281  0.0126  3.3737
  901MPD2    H113203   2.424   2.144  12.621  1.8004  1.8252  0.9625
  901MPD2    H213204   2.616   1.767  12.578  2.4000 -0.2195 -0.0162
  901MPD2    H313205   2.418   1.907  12.581  0.9245  0.1844  0.8204
  901MPD2     N13206   2.665   2.284  12.662  0.0812 -0.2529  0.1178
  901MPD2    H513207   2.761   2.314  12.675  1.0048 -2.8250 -0.7338
  901MPD2    N113208   2.861   1.842  12.630  0.1372  0.3423 -0.7482
  901MPD2    H713209   2.838   1.743  12.625  1.1951 -0.0178  1.5573
  902MPD2     C13210   1.100   0.868  12.409  0.0125 -0.4629  0.6126
  902MPD2    C113211   1.223   0.930  12.424  0.1697 -0.1937 -0.1130
  902MPD2    C213212   1.331   0.858  12.359  0.2629  0.3740  0.3450
  902MPD2    C313213   1.301   0.742  12.293  0.4579 -0.6535 -0.6320
  902MPD2    C413214   1.183   0.678  12.297 -0.5190 -0.2782  0.0385
  902MPD2    C513215   1.073   0.745  12.353  0.1957 -0.3301 -0.2476
  902MPD2     H13216   1.430   0.898  12.342  0.4386 -0.8968 -1.5807
  902MPD2    H113217   1.175   0.579  12.255  0.6163 -0.8002  1.0605
  902MPD2    H213218   1.014   0.913  12.458  0.1736  2.0007 -1.3723
  902MPD2    H313219   0.970   0.714  12.338 -0.3257  1.9585 -1.3764
  902MPD2     N13220   1.393   0.674  12.212 -0.3719  0.2078 -0.2107
  902MPD2    H513221   1.361   0.595  12.158 -1.0676  0.9138 -0.8291
  902MPD2    N113222   1.226   1.059  12.479 -0.4375 -0.2092 -0.3439
  902MPD2    H713223   1.137   1.088  12.518 -0.8182 -0.6232 -0.9123
  903MPD2     C13224   1.402   0.229  11.558 -0.4731 -0.5706 -0.1928
  903MPD2    C113225   1.363   0.304  11.669 -0.5229  0.2306  0.4528
  903MPD2    C213226   1.234   0.351  11.674  0.4999 -0.2381 -0.5831
  903MPD2    C313227   1.154   0.333  11.568  0.0436 -0.1542 -0.7983
  903MPD2    C413228   1.188   0.253  11.456 -0.3085 -0.3428 -0.4508
  903MPD2    C513229   1.312   0.196  11.452  0.6945  0.0389 -0.5031
  903MPD2     H13230   1.184   0.398  11.758 -1.8882  0.1266 -2.2208
  903MPD2    H113231   1.130   0.243  11.365  0.0791  2.1351 -0.9891
  903MPD2    H213232   1.505   0.196  11.551 -0.2219 -0.4122  2.7853
  903MPD2    H313233   1.345   0.143  11.363 -1.2555  2.4760 -2.7062
  903MPD2     N13234   1.027   0.395  11.569 -0.1670 -0.5864  0.1958
  903MPD2    H513235   1.004   0.461  11.643  2.4721 -0.3872  0.8427
  903MPD2    N113236   1.458   0.319  11.780  0.0441 -0.2318  0.5696
  903MPD2    H713237   1.537   0.257  11.774 -2.1368 -2.6395 -3.2899
  904MPD2     C13238   1.255   4.402  13.746 -0.0881 -0.2438 -0.6640
  904MPD2    C113239   1.287   4.533  13.726  0.2137  0.4142  0.2069
  904MPD2    C213240   1.418   4.569  13.730  0.4007 -0.1230  0.4880
  904MPD2    C313241   1.522   4.477  13.758 -0.0020 -0.6050  0.2520
  904MPD2    C413242   1.492   4.345  13.777 -0.2239  0.5143  0.2459
  904MPD2    C513243   1.358   4.314  13.782  0.6515 -0.0018 -0.1257
  904MPD2     H13244   1.441   4.669  13.697  0.6302  0.3117  1.9429
  904MPD2    H113245   1.570   4.273  13.799 -0.5907 -0.8311 -2.9689
  904MPD2    H213246   1.152   4.368  13.739  0.1281 -1.2691  0.9563
  904MPD2    H313247   1.333   4.212  13.808  0.6104  0.2688  0.9217
  904MPD2     N13248   1.652   4.525  13.754  0.0457 -0.3643  0.0148
  904MPD2    H513249   1.662   4.612  13.703 -0.1930  0.2085  0.9560
  904MPD2    N113250   1.186   4.633  13.696  0.1449 -0.2272  0.5475
  904MPD2    H713251   1.213   0.008  13.701  0.8096 -0.3989  0.3708
  905MPD2     C13252   0.956   0.293  13.080  0.8536 -0.3786  0.6032
  905MPD2    C113253   1.015   0.193  13.158  0.2949  0.2133 -0.2525
  905MPD2    C213254   1.140   0.150  13.124 -0.2352 -0.0221  0.3218
  905MPD2    C313255   1.215   0.212  13.017  0.2691 -0.2796  0.2357
  905MPD2    C413256   1.149   0.314  12.950 -0.4792 -0.8816 -0.2741
  905MPD2    C513257   1.023   0.352  12.978  0.4703  0.5250  0.1479
  905MPD2     H13258   1.185   0.069  13.181 -1.4772  0.3672  1.8589
  905MPD2    H113259   1.195   0.383  12.880 -0.6910  2.0037  2.4170
  905MPD2    H213260   0.858   0.334  13.104  0.3487  1.0373 -3.7290
  905MPD2    H313261   0.976   0.439  12.935 -1.1357 -0.3606  0.1057
  905MPD2     N13262   1.350   0.186  12.999 -0.3663 -0.3810 -0.3195
  905MPD2    H513263   1.402   0.256  12.947 -0.1305 -0.8006 -0.6461
  905MPD2    N113264   0.958   0.137  13.272 -0.5924 -0.0772 -0.3352
  905MPD2    H713265   1.019   0.066  13.311  2.8903  1.6500 -2.7242
  906MPD2     C13266   3.637   0.230  11.251  0.2488  0.2000  0.3034
  906MPD2    C113267   3.618   0.170  11.121 -0.4508 -0.3039 -0.4524
  906MPD2    C213268   3.611   0.029  11.124 -0.3031 -0.1749 -0.2562
  906MPD2    C313269   3.638   4.676  11.234  0.3423 -1.3185 -1.2101
  906MPD2    C413270   3.654   0.014  11.362 -0.2500  0.3309 -0.3786
  906MPD2    C513271   3.643   0.149  11.363  0.3005 -0.0099  0.0665
  906MPD2     H13272   3.603   4.710  11.025  0.3120  0.4828 -0.5912
  906MPD2    H113273   3.647   4.691  11.460 -0.5591 -0.4606 -0.7723
  906MPD2    H213274   3.640   0.337  11.267 -0.3217  0.7921 -3.5387
  906MPD2    H313275   3.647   0.203  11.457 -0.3338  0.1702 -0.0058
  906MPD2     N13276   3.627   4.535  11.218  0.4442 -0.3348  0.0282
  906MPD2    H513277   3.610   4.497  11.126  3.3482 -2.7016  0.4881
  906MPD2    N113278   3.599   0.248  11.004 -0.0462 -0.1029 -0.1239
  906MPD2    H713279   3.596   0.194  10.918 -2.2520  1.3892 -0.9786
  907MPD2     C13280   1.293   4.077  15.353  0.2758  0.2654  0.0237
  907MPD2    C113281   1.417   4.013  15.342 -0.2780 -0.0992 -0.1917
  907MPD2    C213282   1.503   4.007  15.449  0.2653  0.4006 -0.2890
  907MPD2    C313283   1.473   4.084  15.559  0.1783  0.7039  0.7966
  907MPD2    C413284   1.352   4.148  15.568 -0.5936 -0.0248 -0.3244
  907MPD2    C513285   1.258   4.147  15.470 -0.1755 -0.4227  0.0437
  907MPD2     H13286   1.596   3.954  15.438  0.5984  0.8484  0.3910
  907MPD2    H113287   1.323   4.193  15.663  2.7692 -1.9885  1.6003
  907MPD2    H213288   1.219   4.083  15.274  1.5980  1.8717 -1.0802
  907MPD2    H313289   1.163   4.200  15.464 -1.1135 -2.3165 -1.8049
  907MPD2     N13290   1.586   4.097  15.645  0.4281  0.7515 -0.6055
  907MPD2    H513291   1.662   4.030  15.636 -0.5617 -0.9390  3.9982
  907MPD2    N113292   1.464   3.945  15.224 -0.1395  0.3152  0.0785
  907MPD2    H713293   1.562   3.919  15.230 -0.4408 -1.4906 -2.9083
  908MPD2     C13294   0.179   0.101   9.254 -0.6423  0.2158  0.3279
  908MPD2    C113295   0.210   4.711   9.333 -0.3233 -0.4445  0.5157
  908MPD2    C213296   0.239   0.010   9.466 -0.1471 -0.2778 -0.4394
  908MPD2    C313297   0.215   0.143   9.518  0.3205 -0.3162 -0.0230
  908MPD2    C413298   0.165   0.246   9.436  0.3273 -0.0573 -0.0748
  908MPD2    C513299   0.154   0.226   9.300  0.0037 -0.1215 -0.3763
  908MPD2     H13300   0.273   4.658   9.536 -0.2336  0.6742  0.6312
  908MPD2    H113301   0.127   0.343   9.464 -0.8195 -0.0804 -1.5666
  908MPD2    H213302   0.161   0.091   9.148 -0.2793  1.3434  0.1633
  908MPD2    H313303   0.124   0.294   9.221  1.4667  0.6762 -0.2606
  908MPD2     N13304   0.235   0.153   9.654 -0.3835 -0.4518  0.0539
  908MPD2    H513305   0.239   0.066   9.705 -2.1584 -0.4072  0.2687
  908MPD2    N113306   0.211   4.581   9.286 -0.2006  0.3700 -0.5655
  908MPD2    H713307   0.233   4.510   9.356  1.7117  2.1486  0.6470
  909MPD2     C13308   0.333   2.591  11.703  0.1896  0.7008  0.3984
  909MPD2    C113309   0.344   2.728  11.702  0.1811 -0.0810  0.0106
  909MPD2    C213310   0.259   2.803  11.785 -0.2895  0.0857 -0.0485
  909MPD2    C313311   0.170   2.739  11.872 -0.5114  0.6348  0.3512
  909MPD2    C413312   0.160   2.606  11.864 -0.0392 -0.2098  0.5981
  909MPD2    C513313   0.241   2.528  11.785 -0.2244 -0.1810  0.4737
  909MPD2     H13314   0.250   2.910  11.781  0.8019  0.1705 -0.0663
  909MPD2    H113315   0.095   2.551  11.931 -0.5901  0.5728  0.7064
  909MPD2    H213316   0.392   2.527  11.639 -0.2859  0.7803 -0.1246
  909MPD2    H313317   0.234   2.420  11.779  1.3437 -0.3072  0.7980
  909MPD2     N13318   0.087   2.821  11.949 -0.8246  0.2448  0.4932
  909MPD2    H513319   0.091   2.920  11.927 -1.2521  0.3008  0.6828
  909MPD2    N113320   0.429   2.805  11.621  0.2088 -0.2640 -0.2473
  909MPD2    H713321   0.425   2.904  11.643  0.6903 -0.2158 -0.3880
  910MPD2     C13322   1.042   4.438  15.862  0.6556 -0.0258  0.1190
  910MPD2    C113323   1.168   4.409  15.830  0.0994 -0.3189  0.5164
  910MPD2    C213324   1.210   4.430  15.697 -0.2363 -0.0782  0.1387
  910MPD2    C313325   1.109   4.451  15.603 -0.1707  0.1475  0.4038
  910MPD2    C413326   0.974   4.467  15.635 -0.0876  0.4738  0.0116
  910MPD2    C513327   0.948   4.474  15.768 -0.4707 -1.0638 -0.1837
  910MPD2     H13328   1.313   4.402  15.677 -0.6306  0.2121 -2.2610
  910MPD2    H113329   0.899   4.487  15.559 -0.8948 -0.0319  0.6740
  910MPD2    H213330   1.016   4.433  15.967  0.2775 -1.7205 -0.0514
  910MPD2    H313331   0.843   4.485  15.791  0.6233  4.0837  2.1903
  910MPD2     N13332   1.138   4.461  15.472  0.7377 -0.1931  0.0064
  910MPD2    H513333   1.064   4.456  15.403  1.2837 -2.5392 -0.4151
  910MPD2    N113334   1.264   4.370  15.928 -1.1461  0.0701  0.1250
  910MPD2    H713335   1.358   4.344  15.900 -2.0986  1.2017 -4.1984
  911MPD2     C13336   4.187   0.844  16.715 -0.1883  0.0267 -0.5943
  911MPD2    C113337   4.149   0.729  16.656 -0.3123  0.2099  0.4369
  911MPD2    C213338   4.031   0.737  16.582 -0.1487 -0.4840 -0.1273
  911MPD2    C313339   3.946   0.844  16.578 -0.0712 -0.8061  0.2064
  911MPD2    C413340   3.979   0.951  16.660  0.2673  0.5393  0.4597
  911MPD2    C513341   4.101   0.949  16.723  0.2733  0.3438  0.3411
  911MPD2     H13342   3.990   0.659  16.519  2.9658  1.0298 -4.0496
  911MPD2    H113343   3.920   1.042  16.663  0.7748  0.8819  0.0339
  911MPD2    H213344   4.279   0.857  16.770  0.2128 -1.5548 -0.9059
  911MPD2    H313345   4.132   1.042  16.768  1.4142  0.0633  0.1402
  911MPD2     N13346   3.828   0.832  16.498 -0.5678 -0.0443  0.1309
  911MPD2    H513347   3.821   0.747  16.444 -2.6673 -0.2707  0.7523
  911MPD2    N113348   4.234   0.620  16.651  0.3541  0.7998  0.0839
  911MPD2    H713349   4.324   0.639  16.694  0.3206 -2.0237  1.4384
  912MPD2     C13350   3.890   0.538  15.893  0.0557 -0.5573  1.1832
  912MPD2    C113351   3.796   0.530  15.996  0.3853  0.4085  0.6464
  912MPD2    C213352   3.806   0.422  16.085  0.1098  0.2456  0.3343
  912MPD2    C313353   3.898   0.321  16.065  0.1796 -0.4508  0.6833
  912MPD2    C413354   3.995   0.341  15.972 -0.0077  0.0499  0.5950
  912MPD2    C513355   3.986   0.445  15.879  0.4270 -0.0604  0.4480
  912MPD2     H13356   3.746   0.405  16.174 -0.4906  1.1534  0.1086
  912MPD2    H113357   4.080   0.276  15.956 -0.4681 -1.2171  3.2834
  912MPD2    H213358   3.886   0.613  15.815  1.9749 -1.5218  0.1582
  912MPD2    H313359   4.057   0.457  15.798 -2.2280 -0.3672 -1.9385
  912MPD2     N13360   3.892   0.216  16.160 -0.1770 -0.3761  0.6070
  912MPD2    H513361   3.806   0.207  16.212 -2.1701  0.9123 -2.4665
  912MPD2    N113362   3.722   0.640  16.016 -0.3415 -0.2598 -0.5535
  912MPD2    H713363   3.743   0.725  15.964 -0.5398 -1.1183 -2.0294
  913MPD2     C13364   4.677   1.575   9.566  0.1380  0.2513  0.1839
  913MPD2    C113365   0.018   1.626   9.677 -0.5168 -0.7304  0.4603
  913MPD2    C213366   0.130   1.703   9.656 -0.0988 -0.4875  0.5484
  913MPD2    C313367   0.167   1.732   9.524 -0.0003  0.1338  0.1461
  913MPD2    C413368   0.115   1.657   9.420  0.1510  0.0330 -0.3754
  913MPD2    C513369   0.002   1.584   9.441 -0.3868 -0.5071 -0.4127
  913MPD2     H13370   0.171   1.754   9.743  4.3724 -0.9130 -1.2926
  913MPD2    H113371   0.141   1.676   9.316 -1.5710  2.3035 -0.3875
  913MPD2    H213372   4.597   1.503   9.581  0.0225  0.3152 -0.1340
  913MPD2    H313373   4.702   1.527   9.351  2.1049  1.7635 -2.5062
  913MPD2     N13374   0.267   1.820   9.489  0.0155  0.1970 -0.0572
  913MPD2    H513375   0.287   1.824   9.390  3.0700 -0.3936  0.5170
  913MPD2    N113376   4.691   1.604   9.806  0.0975 -0.4464  0.0609
  913MPD2    H713377   4.605   1.552   9.822 -0.0850  0.5818  2.4214
  914MPD2     C13378   2.572   1.526  12.091 -0.1261  0.4632  0.0223
  914MPD2    C113379   2.597   1.655  12.132 -0.1806 -0.1668  0.2930
  914MPD2    C213380   2.726   1.677  12.189 -0.9406  0.1507 -1.1402
  914MPD2    C313381   2.823   1.583  12.207  0.1857  0.2579 -0.2102
  914MPD2    C413382   2.789   1.448  12.165  0.9178 -0.3177 -0.0536
  914MPD2    C513383   2.666   1.430  12.112  0.0762 -0.5536  0.1547
  914MPD2     H13384   2.753   1.781  12.208 -0.3991 -0.2757  0.3650
  914MPD2    H113385   2.852   1.360  12.159 -0.3797 -1.3215  0.9832
  914MPD2    H213386   2.483   1.495  12.037 -0.3979  3.2732 -1.1728
  914MPD2    H313387   2.625   1.331  12.096 -1.3030 -0.2812  1.9150
  914MPD2     N13388   2.947   1.626  12.267 -0.1427  0.7566  0.1155
  914MPD2    H513389   2.940   1.725  12.289  3.8732  0.9922  0.3723
  914MPD2    N113390   2.494   1.752  12.115 -0.6609  0.4907  0.8257
  914MPD2    H713391   2.401   1.725  12.085 -0.0755 -0.4135 -0.1778
  915MPD2     C13392   0.872   1.956  16.046  0.0263  0.5712 -0.5249
  915MPD2    C113393   0.761   1.980  15.971  0.0154  0.5800  0.3937
  915MPD2    C213394   0.643   2.025  16.027 -0.8370 -0.1885 -0.4506
  915MPD2    C313395   0.633   2.035  16.163 -0.1431  0.1538 -0.8893
  915MPD2    C413396   0.744   2.010  16.244  0.8504 -0.6569 -0.1850
  915MPD2    C513397   0.861   1.971  16.185 -0.1137  1.0406 -0.0951
  915MPD2     H13398   0.553   2.030  15.966 -0.2370  1.0578 -1.2210
  915MPD2    H113399   0.746   2.021  16.352 -0.3494 -2.1339 -0.0113
  915MPD2    H213400   0.956   1.902  16.004  0.5740  1.4297 -0.5462
  915MPD2    H313401   0.948   1.970  16.250 -1.6138  0.4228  1.8896
  915MPD2     N13402   0.511   2.075  16.225  0.5127  0.1286  0.0068
  915MPD2    H513403   0.432   2.096  16.165  0.1143  0.3998  0.6202
  915MPD2    N113404   0.763   1.930  15.835 -0.4144 -0.4527  0.3094
  915MPD2    H713405   0.836   1.868  15.801 -0.8272 -0.0336 -1.3379
  916MPD2     C13406   3.616   0.142  15.986 -0.2428  0.0192  0.2167
  916MPD2    C113407   3.550   0.043  16.053 -0.4725 -0.4890 -0.3066
  916MPD2    C213408   3.602   4.637  16.030  0.5554  0.6351 -0.7551
  916MPD2    C313409   3.707   4.597  15.945  0.7364 -0.4904  0.2042
  916MPD2    C413410   3.766   4.701  15.882 -0.2274  0.1811 -0.8804
  916MPD2    C513411   3.713   0.103  15.896 -0.1000  0.4386  0.5227
  916MPD2     H13412   3.559   4.560  16.093  0.8953  1.4096  0.4084
  916MPD2    H113413   3.847   4.685  15.811 -0.6813 -0.2225 -1.3100
  916MPD2    H213414   3.605   0.246  16.015 -0.0818 -0.4201  1.8795
  916MPD2    H313415   3.763   0.184  15.844 -1.9596  0.4254 -1.3221
  916MPD2     N13416   3.739   4.461  15.946 -0.3220  0.4480  0.0981
  916MPD2    H513417   3.667   4.402  15.987 -0.0577 -0.7514 -1.1583
  916MPD2    N113418   3.452   0.076  16.154  0.4813  0.7118 -0.3832
  916MPD2    H713419   3.425   0.173  16.149 -1.1489  0.3047  0.4945
  917MPD2     C13420   3.942   2.156  10.991 -0.7437 -0.0797  0.0253
  917MPD2    C113421   3.963   2.244  11.095 -0.3556  0.5440 -0.6801
  917MPD2    C213422   4.086   2.301  11.105 -0.4939 -0.0644  0.4109
  917MPD2    C313423   4.192   2.275  11.016  0.1067  0.0875  0.7605
  917MPD2    C413424   4.166   2.201  10.908 -0.5157 -0.2324 -0.4309
  917MPD2    C513425   4.043   2.144  10.894 -0.2431 -0.3799 -0.1130
  917MPD2     H13426   4.097   2.370  11.188  2.1141 -2.6097  2.1983
  917MPD2    H113427   4.240   2.189  10.830 -0.4629  2.1733 -0.7412
  917MPD2    H213428   3.848   2.104  10.973 -1.3239  0.4022  1.6489
  917MPD2    H313429   4.025   2.092  10.801  0.1634 -0.2490 -0.2674
  917MPD2     N13430   4.318   2.334  11.029 -0.3463 -0.0080 -0.2855
  917MPD2    H513431   4.370   2.343  10.942 -2.8003 -1.5808 -1.9076
  917MPD2    N113432   3.852   2.266  11.188 -0.1913 -0.0980  0.0171
  917MPD2    H713433   3.759   2.229  11.168  0.1157 -0.6340 -0.4349
  918MPD2     C13434   3.917   2.857  11.908 -0.1446  0.1197  0.2178
  918MPD2    C113435   3.975   2.749  11.846  0.1815 -0.1783 -0.7402
  918MPD2    C213436   3.914   2.695  11.739  0.5858  0.4829  0.1478
  918MPD2    C313437   3.780   2.718  11.715 -0.1163  0.2669 -0.2852
  918MPD2    C413438   3.712   2.815  11.789  0.0998 -0.6547  0.3723
  918MPD2    C513439   3.787   2.883  11.880  0.4472  0.6143  0.3766
  918MPD2     H13440   3.967   2.626  11.675 -0.1993  0.0110  0.0068
  918MPD2    H113441   3.609   2.843  11.775  0.4234  0.4307  0.1895
  918MPD2    H213442   3.963   2.898  11.997 -0.7892 -0.2510  0.7287
  918MPD2    H313443   3.729   2.958  11.933  0.0772  2.1189 -2.1758
  918MPD2     N13444   3.726   2.658  11.600  0.0857 -0.1617  0.3990
  918MPD2    H513445   3.789   2.590  11.557  0.5026  3.0780 -3.9917
  918MPD2    N113446   4.106   2.716  11.893  0.5587 -0.4329  0.9253
  918MPD2    H713447   4.129   2.756  11.984  3.5837  3.2915 -1.5173
  919MPD2     C13448   4.508   1.650  11.573 -0.0987 -0.7175 -0.3977
  919MPD2    C113449   4.544   1.519  11.543 -0.3719  0.0989 -0.5715
  919MPD2    C213450   4.584   1.484  11.414  0.6808  0.1818 -0.3169
  919MPD2    C313451   4.586   1.575  11.309  0.0671 -0.4670 -0.2499
  919MPD2    C413452   4.550   1.707  11.339 -0.3308 -0.1926 -0.5703
  919MPD2    C513453   4.514   1.743  11.471  0.4374 -0.2407 -0.3188
  919MPD2     H13454   4.603   1.378  11.401  0.3176 -0.1059  1.4742
  919MPD2    H113455   4.551   1.792  11.272 -1.7965 -0.1517 -0.5351
  919MPD2    H213456   4.488   1.694  11.670  0.0956 -0.6126 -0.4033
  919MPD2    H313457   4.483   1.844  11.496 -2.4016 -0.9297 -1.0300
  919MPD2     N13458   4.614   1.539  11.174  0.3480  0.8432 -0.0137
  919MPD2    H513459   4.581   1.602  11.102 -0.2987  0.5172 -0.0023
  919MPD2    N113460   4.542   1.414  11.641  0.4383  0.0252 -0.1576
  919MPD2    H713461   4.561   1.321  11.605 -1.0221 -0.2481 -0.2356
  920MPD2     C13462   4.401   1.773  10.238 -0.5303 -0.3111 -0.7084
  920MPD2    C113463   4.302   1.695  10.293  0.0102 -0.2577  0.3117
  920MPD2    C213464   4.330   1.634  10.419  0.1416  0.1579  0.9256
  920MPD2    C313465   4.447   1.651  10.489  0.5822  0.3280  0.8995
  920MPD2    C413466   4.547   1.730  10.424  0.3659 -0.9960  0.1699
  920MPD2    C513467   4.518   1.794  10.306 -0.3797 -0.1664 -0.9178
  920MPD2     H13468   4.252   1.575  10.467 -0.9260  0.5279 -0.3400
  920MPD2    H113469   4.636   1.767  10.473 -0.4148 -1.7479  2.1400
  920MPD2    H213470   4.390   1.826  10.144 -0.8160 -0.9124 -1.0196
  920MPD2    H313471   4.595   1.858  10.263  0.1554  0.9071  1.6224
  920MPD2     N13472   4.464   1.579  10.605  0.6474  0.1062 -0.2420
  920MPD2    H513473   4.390   1.513  10.627 -1.2964  2.8947  1.5228
  920MPD2    N113474   4.170   1.688  10.251 -0.0580  0.0307 -0.4715
  920MPD2    H713475   4.097   1.645  10.307  0.2120 -0.8194 -0.7590
  921MPD2     C13476   0.272   0.774  16.875 -0.0850 -0.4770  0.1248
  921MPD2    C113477   0.285   0.641  16.895  1.2889 -0.6340 -0.6237
  921MPD2    C213478   0.176   0.559  16.876  0.0988 -0.6342  0.3838
  921MPD2    C313479   0.058   0.615  16.829  0.4489  0.1080  0.2500
  921MPD2    C413480   0.043   0.752  16.820  1.1274 -0.2527  0.0701
  921MPD2    C513481   0.150   0.829  16.848  0.2101 -0.0981  0.6797
  921MPD2     H13482   0.180   0.455  16.905 -0.1319 -0.4629  1.0348
  921MPD2    H113483   4.667   0.792  16.806  0.6759 -1.5171 -0.3245
  921MPD2    H213484   0.361   0.833  16.896  0.6747 -0.6444 -2.5878
  921MPD2    H313485   0.137   0.936  16.848  2.5698  0.1851  3.3325
  921MPD2     N13486   4.672   0.538  16.785  0.0643  0.1061  0.4182
  921MPD2    H513487   4.588   0.586  16.752  2.5528  3.0930 -1.5410
  921MPD2    N113488   0.412   0.595  16.901  0.6886 -0.1089 -0.1201
  921MPD2    H713489   0.494   0.653  16.887  0.3034  0.3343 -0.5469
  922MPD2     C13490   0.074   2.861   0.704  0.0822  0.1999 -0.2666
  922MPD2    C113491   0.192   2.932   0.674 -0.6649  0.3433 -0.6392
  922MPD2    C213492   0.227   2.943   0.544 -0.2514  0.8224 -0.2789
  922MPD2    C313493   0.162   2.878   0.434  0.5448  0.2077 -0.3471
  922MPD2    C413494   0.052   2.797   0.465  0.7457  0.4300  0.2822
  922MPD2    C513495   0.014   2.793   0.595 -0.6840  0.2485 -0.4070
  922MPD2     H13496   0.319   2.996   0.520 -0.7543  0.7220 -2.4783
  922MPD2    H113497   4.720   2.739   0.393 -0.1865 -2.7595  3.5615
  922MPD2    H213498   0.033   2.834   0.801  0.8027 -1.1983 -0.3570
  922MPD2    H313499   4.651   2.738   0.631 -0.3047  0.1987  0.4165
  922MPD2     N13500   0.215   2.896   0.304  0.1875  0.3555  0.0397
  922MPD2    H513501   0.294   2.959   0.295  0.9229 -0.2322  2.5611
  922MPD2    N113502   0.274   2.989   0.777 -0.3895  0.2358  0.5207
  922MPD2    H713503   0.363   3.035   0.758 -0.5030 -0.1459 -0.9544
  923MPD2     C13504   2.784   0.452   8.862 -0.3097  0.1571 -0.1173
  923MPD2    C113505   2.850   0.547   8.939  0.7083 -0.2822  0.2367
  923MPD2    C213506   2.963   0.504   9.013  0.3882 -0.5316  0.5060
  923MPD2    C313507   3.005   0.373   9.004  0.0837 -0.1695  0.7127
  923MPD2    C413508   2.936   0.284   8.923 -0.0048 -0.1708  0.1412
  923MPD2    C513509   2.825   0.325   8.853 -0.3181  0.7225 -0.4919
  923MPD2     H13510   3.001   0.577   9.084 -2.3229  1.4542 -0.0857
  923MPD2    H113511   2.968   0.181   8.909 -0.9038 -0.4667  0.2005
  923MPD2    H213512   2.687   0.481   8.825 -0.0566  0.9799 -0.1326
  923MPD2    H313513   2.758   0.260   8.798  0.7561  1.1583 -2.3165
  923MPD2     N13514   3.112   0.321   9.081  0.7891  0.3478  0.0773
  923MPD2    H513515   3.130   0.222   9.080 -0.3462  0.1417 -0.1827
  923MPD2    N113516   2.788   0.666   8.951 -0.4021 -0.4589  0.0964
  923MPD2    H713517   2.712   0.673   8.884 -0.5976  0.2601  0.3875
  924MPD2     C13518   2.080   3.445  15.929  0.0046  0.3727  0.2158
  924MPD2    C113519   2.083   3.542  16.028  0.3037 -0.1942  0.2386
  924MPD2    C213520   2.036   3.670  16.000  0.0304 -0.1792  0.6691
  924MPD2    C313521   1.994   3.702  15.870  0.0970  0.0154  0.2577
  924MPD2    C413522   1.991   3.596  15.770  0.3208 -0.2414 -0.1696
  924MPD2    C513523   2.039   3.469  15.802  0.0843 -0.1103  0.1932
  924MPD2     H13524   2.053   3.751  16.071  0.2456 -0.2825  0.7370
  924MPD2    H113525   1.947   3.613  15.673 -0.2700  2.0921  0.4998
  924MPD2    H213526   2.109   3.343  15.947 -1.5230 -0.7813 -3.7529
  924MPD2    H313527   2.035   3.391  15.726  0.7359 -1.5617  1.6611
  924MPD2     N13528   1.954   3.834  15.835  0.1192  0.1333  0.5191
  924MPD2    H513529   1.907   3.836  15.745 -0.4122  0.4286  0.8059
  924MPD2    N113530   2.142   3.507  16.153 -0.3575  0.3985  0.4472
  924MPD2    H713531   2.172   3.412  16.169  1.6377  1.3869  2.5080
  925MPD2     C13532   1.036   0.568  14.658  0.3332  0.0337 -0.5782
  925MPD2    C113533   0.928   0.659  14.652  0.3991  0.5825  0.2594
  925MPD2    C213534   0.828   0.647  14.745  0.3401  0.0283 -0.2119
  925MPD2    C313535   0.830   0.556  14.845  0.1048 -0.6639 -0.3593
  925MPD2    C413536   0.952   0.485  14.858 -0.1415 -0.1256  0.2428
  925MPD2    C513537   1.050   0.486  14.765  0.5799 -0.0964 -0.1427
  925MPD2     H13538   0.738   0.709  14.744  0.8100  0.7449  1.4277
  925MPD2    H113539   0.964   0.412  14.937 -0.4363  0.2838  0.6654
  925MPD2    H213540   1.108   0.579  14.578  2.0805 -1.1693  0.8250
  925MPD2    H313541   1.133   0.416  14.771 -0.6602 -1.5898 -0.3601
  925MPD2     N13542   0.734   0.535  14.942  0.0523  0.4295  0.0418
  925MPD2    H513543   0.760   0.464  15.010 -2.0310 -0.7219 -0.3659
  925MPD2    N113544   0.918   0.758  14.553  0.3907 -0.1528  0.6464
  925MPD2    H713545   0.829   0.805  14.555  0.4111 -0.0918 -0.1760
  926MPD2     C13546   4.536   3.962  13.584 -0.3447 -0.7805 -0.8316
  926MPD2    C113547   4.427   3.999  13.522 -0.5479 -0.3665  0.2199
  926MPD2    C213548   4.420   4.059  13.396  0.0475  0.0298  0.5018
  926MPD2    C313549   4.537   4.079  13.331  0.1198 -0.4190 -0.0561
  926MPD2    C413550   4.653   4.038  13.399  0.5944 -0.8910 -0.7387
  926MPD2    C513551   4.656   3.991  13.528  0.2361  0.1560  0.0312
  926MPD2     H13552   4.328   4.103  13.358 -0.4452  0.2076  1.8945
  926MPD2    H113553   0.021   4.042  13.341  2.4699  2.2450  2.4623
  926MPD2    H213554   4.524   3.924  13.685  2.6725  0.4518  0.0215
  926MPD2    H313555   0.024   3.960  13.577  0.1233 -1.4813 -0.7792
  926MPD2     N13556   4.546   4.151  13.206 -0.2907  0.2253  0.3227
  926MPD2    H513557   4.634   4.201  13.196  0.2250 -0.5056  1.1398
  926MPD2    N113558   4.303   3.995  13.586  0.1509  0.0294 -0.4914
  926MPD2    H713559   4.227   4.041  13.536  0.4879 -0.7533 -1.7190
  927MPD2     C13560   4.431   2.092  17.576  0.5701 -0.0604 -0.4962
  927MPD2    C113561   4.350   1.979  17.559 -0.3527 -0.1028  0.4762
  927MPD2    C213562   4.391   1.883  17.460 -0.1632 -0.2852  0.0168
  927MPD2    C313563   4.517   1.891  17.398 -0.4127 -0.0320  0.5341
  927MPD2    C413564   4.599   2.004  17.421 -0.0198  0.4655 -0.2436
  927MPD2    C513565   4.548   2.103  17.501 -0.6091  0.3348  0.5571
  927MPD2     H13566   4.337   1.791  17.444  0.0865 -0.4082 -0.1147
  927MPD2    H113567   4.701   2.023  17.391 -0.1305  1.2644 -0.1324
  927MPD2    H213568   4.425   2.170  17.651 -1.6352  1.6442 -2.4622
  927MPD2    H313569   4.613   2.187  17.521  0.9893 -0.5686 -0.9060
  927MPD2     N13570   4.566   1.785  17.321  0.2166 -0.0053  0.4054
  927MPD2    H513571   4.502   1.710  17.299 -0.0194  1.3000 -3.3454
  927MPD2    N113572   4.232   1.965  17.639 -0.0160 -0.0003 -0.1275
  927MPD2    H713573   4.227   2.028   0.023  0.7478  0.6302 -0.5808
  928MPD2     C13574   1.395   0.322   0.380  0.2827 -0.6116  0.3111
  928MPD2    C113575   1.447   0.358   0.503 -0.0384  0.1091 -0.1925
  928MPD2    C213576   1.582   0.337   0.523  0.4657  0.5125  0.0514
  928MPD2    C313577   1.657   0.282   0.422  0.6820  0.5414  0.2019
  928MPD2    C413578   1.599   0.233   0.306 -0.3924 -0.2092 -0.2269
  928MPD2    C513579   1.467   0.257   0.285 -0.1649 -0.3676 -0.2552
  928MPD2     H13580   1.640   0.364   0.611  1.6428 -1.0784 -0.2365
  928MPD2    H113581   1.658   0.186   0.229  0.4449 -1.6617  1.3132
  928MPD2    H213582   1.291   0.339   0.353  1.0998  2.0924 -1.1331
  928MPD2    H313583   1.418   0.234   0.191  3.1432  0.7546 -2.2451
  928MPD2     N13584   1.797   0.265   0.429  0.2773  0.3041  0.2476
  928MPD2    H513585   1.834   0.210   0.351 -0.1460  0.4532 -0.0592
  928MPD2    N113586   1.362   0.428   0.601  0.3512  0.5630  0.1487
  928MPD2    H713587   1.263   0.423   0.579  0.6122  3.0952 -1.6514
  929MPD2     C13588   3.261   0.310  10.352  0.5068 -0.5435 -0.0161
  929MPD2    C113589   3.197   0.190  10.346 -0.1300  1.1595 -0.1647
  929MPD2    C213590   3.091   0.192  10.256 -0.3500 -0.1856 -0.1214
  929MPD2    C313591   3.053   0.297  10.172 -0.2799 -0.2615 -0.6571
  929MPD2    C413592   3.136   0.404  10.166 -0.9232  0.3983 -0.2416
  929MPD2    C513593   3.230   0.407  10.263 -0.3700 -0.5652  1.2119
  929MPD2     H13594   3.033   0.102  10.237  0.5161 -0.1456 -2.9831
  929MPD2    H113595   3.118   0.485  10.097 -0.4704 -0.6253 -1.5848
  929MPD2    H213596   3.339   0.313  10.427 -1.3193 -0.1769  1.8743
  929MPD2    H313597   3.295   0.493  10.260 -0.6013 -0.4108  0.7728
  929MPD2     N13598   2.943   0.295  10.088 -0.5611 -0.1489 -0.3106
  929MPD2    H513599   2.932   0.365  10.016  2.5286  0.2226 -0.4164
  929MPD2    N113600   3.226   0.091  10.440  0.6307  0.6900  0.1726
  929MPD2    H713601   3.295   0.121  10.507 -0.4174  1.4613  0.9032
  930MPD2     C13602   3.884   2.117  14.385  0.0943  0.3385  0.1140
  930MPD2    C113603   3.899   2.151  14.252  0.1904 -0.4754 -0.3825
  930MPD2    C213604   3.852   2.062  14.154  0.0534  0.6035 -0.4692
  930MPD2    C313605   3.781   1.950  14.190  0.1915  0.5080  0.2047
  930MPD2    C413606   3.769   1.916  14.321 -0.3061 -0.6200 -0.4778
  930MPD2    C513607   3.828   2.001  14.422 -0.5327  0.5758 -0.1123
  930MPD2     H13608   3.877   2.081  14.050 -2.1371 -0.6391 -1.2285
  930MPD2    H113609   3.712   1.831  14.358 -1.2285 -0.5067 -1.6361
  930MPD2    H213610   3.929   2.177  14.463 -1.1388 -1.0648  1.9052
  930MPD2    H313611   3.819   1.960  14.522  0.2533 -0.1306 -0.3236
  930MPD2     N13612   3.762   1.848  14.087 -1.2673 -0.1553  0.4007
  930MPD2    H513613   3.745   1.752  14.117  1.1886 -0.0357  2.1698
  930MPD2    N113614   3.987   2.254  14.221  0.0690  0.3858  0.0019
  930MPD2    H713615   4.010   2.308  14.303  0.3012 -2.6224  1.9221
  931MPD2     C13616   4.254   1.523   0.414  0.1751  0.4421 -0.3904
  931MPD2    C113617   4.158   1.621   0.457  0.4421 -0.0767  0.7506
  931MPD2    C213618   4.103   1.621   0.585 -1.0591  0.2524  0.2387
  931MPD2    C313619   4.135   1.519   0.674  0.2760  0.6101  0.1409
  931MPD2    C413620   4.227   1.424   0.633  0.2420  0.3622 -0.3065
  931MPD2    C513621   4.286   1.421   0.503 -0.3135 -0.0453  0.3399
  931MPD2     H13622   4.038   1.696   0.627  0.0155  1.0479  0.4709
  931MPD2    H113623   4.249   1.340   0.698 -0.6205  1.4161  1.3404
  931MPD2    H213624   4.296   1.529   0.314 -1.3224  0.6917 -0.9963
  931MPD2    H313625   4.359   1.344   0.483 -0.1419 -0.1904  1.5130
  931MPD2     N13626   4.075   1.495   0.800  0.2551  0.3060 -1.2086
  931MPD2    H513627   4.111   1.413   0.847 -2.0415 -0.6036 -1.0095
  931MPD2    N113628   4.125   1.713   0.360 -0.5126  0.0602  0.8021
  931MPD2    H713629   4.183   1.707   0.277  2.0336 -0.0261  2.5717
  932MPD2     C13630   1.288   0.547  11.178  0.3553 -0.2493  0.7660
  932MPD2    C113631   1.379   0.648  11.175 -0.1355 -0.1716  0.2562
  932MPD2    C213632   1.508   0.629  11.129 -0.0708 -0.2998 -1.1477
  932MPD2    C313633   1.548   0.498  11.091 -0.0648  0.2736  0.0479
  932MPD2    C413634   1.463   0.394  11.112 -0.0457 -0.0461 -0.3945
  932MPD2    C513635   1.331   0.422  11.138  0.4206 -0.6364 -0.0038
  932MPD2     H13636   1.584   0.706  11.132  0.1110 -0.5014 -0.6412
  932MPD2    H113637   1.494   0.292  11.090  0.4260  0.1408 -0.5904
  932MPD2    H213638   1.185   0.562  11.209  0.0965  1.4762 -0.8972
  932MPD2    H313639   1.266   0.335  11.140  0.7583 -0.8590  1.7171
  932MPD2     N13640   1.678   0.469  11.051  0.0698 -0.6046 -0.2110
  932MPD2    H513641   1.722   0.377  11.044  1.4392  0.2624 -3.0316
  932MPD2    N113642   1.354   0.771  11.229 -0.0139  0.3339 -0.5057
  932MPD2    H713643   1.422   0.845  11.220  0.3166  0.1763  0.6851
  933MPD2     C13644   0.758   0.292   0.748 -0.2194  0.0599 -0.6738
  933MPD2    C113645   0.790   0.424   0.794 -0.6822  0.5704 -0.1675
  933MPD2    C213646   0.697   0.527   0.774  0.0430  0.2693  0.5508
  933MPD2    C313647   0.570   0.502   0.729 -0.5251  0.0354  0.4038
  933MPD2    C413648   0.542   0.371   0.687 -0.3077  0.0924 -0.2702
  933MPD2    C513649   0.637   0.265   0.687  0.5290  0.3319 -0.8695
  933MPD2     H13650   0.724   0.629   0.797 -2.3320  1.2904 -1.1735
  933MPD2    H113651   0.447   0.353   0.639 -0.2395  2.9889 -1.4579
  933MPD2    H213652   0.826   0.208   0.753  0.5333  0.6660 -0.5517
  933MPD2    H313653   0.616   0.165   0.652 -1.5647  0.6037 -0.4493
  933MPD2     N13654   0.480   0.608   0.729  0.5678 -0.5379  0.2685
  933MPD2    H513655   0.516   0.697   0.762  1.0882 -1.5398  2.3972
  933MPD2    N113656   0.925   0.444   0.839  0.5901  0.3795  0.8727
  933MPD2    H713657   0.984   0.364   0.819 -0.6397  0.1868 -2.0808
  934MPD2     C13658   2.640   3.194   1.456  0.2128 -0.4716 -0.0946
  934MPD2    C113659   2.747   3.122   1.421  0.1405 -0.3964 -0.5297
  934MPD2    C213660   2.733   3.005   1.350  0.3347  0.4038 -0.5688
  934MPD2    C313661   2.606   2.963   1.309 -0.2032 -0.1229 -1.1139
  934MPD2    C413662   2.502   3.044   1.332 -0.5799  0.1996 -0.3827
  934MPD2    C513663   2.515   3.155   1.411 -0.3425 -0.0113  0.3803
  934MPD2     H13664   2.826   2.951   1.335  0.1192 -0.1035 -0.0830
  934MPD2    H113665   2.401   3.021   1.301 -1.8624  3.0137  1.7495
  934MPD2    H213666   2.642   3.293   1.500 -1.2744  0.6536 -2.4977
  934MPD2    H313667   2.431   3.220   1.431  2.0706  2.5405  2.1668
  934MPD2     N13668   2.581   2.847   1.239  0.3183 -0.2206  0.3741
  934MPD2    H513669   2.484   2.832   1.214  0.3720 -1.0219  0.6509
  934MPD2    N113670   2.873   3.163   1.454 -0.2398 -0.3685  0.1411
  934MPD2    H713671   2.948   3.100   1.430  1.0679 -0.0898  3.4742
  935MPD2     C13672   3.203   2.092   0.969 -0.6365  0.0977  0.3560
  935MPD2    C113673   3.076   2.039   0.973  0.3100 -0.1344 -0.6271
  935MPD2    C213674   2.966   2.125   0.967  1.0119 -0.0195 -0.4172
  935MPD2    C313675   2.977   2.263   0.976 -0.4580  0.1301 -0.4307
  935MPD2    C413676   3.107   2.313   0.993  0.2395 -0.0870  0.3718
  935MPD2    C513677   3.212   2.230   0.980 -0.3791  0.2942  0.2555
  935MPD2     H13678   2.864   2.087   0.967  1.0335 -0.0560 -2.0730
  935MPD2    H113679   3.126   2.418   1.015  3.4694 -0.9068  1.3947
  935MPD2    H213680   3.292   2.031   0.972 -1.4759 -1.0836  1.2869
  935MPD2    H313681   3.313   2.268   0.992 -0.1114 -0.7863  1.3722
  935MPD2     N13682   2.865   2.354   0.979  0.2048 -0.4301 -0.2800
  935MPD2    H513683   2.896   2.450   0.988 -0.1008 -0.4204  0.6256
  935MPD2    N113684   3.051   1.897   0.969 -0.0082  0.3867 -0.3686
  935MPD2    H713685   2.954   1.869   0.952 -1.0331  2.1866  2.4496
  936MPD2     C13686   1.395   0.341  12.509 -0.2134  0.2052 -1.0072
  936MPD2    C113687   1.425   0.212  12.474 -0.0923 -0.2040  0.1894
  936MPD2    C213688   1.537   0.177  12.408  0.3564  0.3463 -0.4521
  936MPD2    C313689   1.619   0.273  12.359 -0.3441 -0.1582  0.0526
  936MPD2    C413690   1.598   0.405  12.401 -0.3785  0.5853 -0.6909
  936MPD2    C513691   1.490   0.434  12.479 -0.0348  0.8114 -0.6165
  936MPD2     H13692   1.559   0.074  12.381  1.6012  0.4253  0.2832
  936MPD2    H113693   1.666   0.482  12.366  2.0611 -1.7775 -1.1917
  936MPD2    H213694   1.308   0.367  12.569 -0.8129 -1.1771 -1.2748
  936MPD2    H313695   1.484   0.531  12.527  1.4125  1.0725 -0.9717
  936MPD2     N13696   1.726   0.235  12.274  0.3227 -0.0648  0.4068
  936MPD2    H513697   1.733   0.134  12.266 -0.7766 -0.1029 -0.0354
  936MPD2    N113698   1.341   0.107  12.510  0.3784 -0.1773  0.0887
  936MPD2    H713699   1.383   0.023  12.470 -0.4151 -2.5533  4.2649
  937MPD2     C13700   4.436   0.750  11.440  0.6852  0.5531 -0.6648
  937MPD2    C113701   4.497   0.876  11.449  0.4946 -0.7377 -0.8386
  937MPD2    C213702   4.611   0.901  11.385  0.0414 -0.0584  0.8968
  937MPD2    C313703   4.664   0.815  11.289  0.5392 -0.3915 -0.3264
  937MPD2    C413704   4.592   0.696  11.266  0.0325  0.6835  0.0144
  937MPD2    C513705   4.485   0.664  11.346 -0.0819  0.9760 -0.9997
  937MPD2     H13706   4.656   0.997  11.409  1.5974 -0.4329 -0.4838
  937MPD2    H113707   4.645   0.617  11.213  0.5164 -0.5429  2.3263
  937MPD2    H213708   4.352   0.720  11.500  1.9649 -1.1228  0.3052
  937MPD2    H313709   4.441   0.565  11.331  0.7539  0.2580  1.3606
  937MPD2     N13710   0.060   0.855  11.220 -0.0272 -0.0624  0.7021
  937MPD2    H513711   0.102   0.944  11.241  0.7275 -0.2933  0.1545
  937MPD2    N113712   4.474   0.975  11.552  0.0637  0.4131 -0.5619
  937MPD2    H713713   4.550   1.041  11.563 -0.4904  0.9680 -0.0392
  938MPD2     C13714   1.812   1.621   0.679  0.3721 -0.4128  0.2546
  938MPD2    C113715   1.857   1.749   0.693 -0.2320  0.8618 -0.0672
  938MPD2    C213716   1.866   1.803   0.826  0.0243  0.4224  0.4387
  938MPD2    C313717   1.812   1.727   0.926 -0.1537  0.9752 -0.0250
  938MPD2    C413718   1.760   1.607   0.905 -0.1411 -0.3069 -0.1515
  938MPD2    C513719   1.772   1.553   0.785  0.3815  0.5710  0.4888
  938MPD2     H13720   1.909   1.901   0.847 -1.0647  0.9263  0.2867
  938MPD2    H113721   1.708   1.559   0.988 -0.5299  2.1643  1.0664
  938MPD2    H213722   1.796   1.574   0.583  0.5450  1.9238 -0.9296
  938MPD2    H313723   1.720   1.460   0.762  1.2605  0.0864  0.4756
  938MPD2     N13724   1.813   1.768   1.061  0.0891 -0.2146 -0.3168
  938MPD2    H513725   1.790   1.702   1.134 -1.4286  0.7641  0.1126
  938MPD2    N113726   1.899   1.837   0.589 -0.1290  0.0483 -0.1019
  938MPD2    H713727   1.952   1.918   0.618 -0.4779 -0.0678  0.8638
  939MPD2     C13728   2.674   3.307   0.865  0.3599  0.0123 -0.1213
  939MPD2    C113729   2.768   3.350   0.953 -0.1166 -0.6185 -0.2277
  939MPD2    C213730   2.900   3.345   0.908  0.7141  0.3855  0.0364
  939MPD2    C313731   2.936   3.300   0.784 -0.1412 -0.0771  0.1721
  939MPD2    C413732   2.839   3.270   0.692 -0.3549  0.0233 -0.0448
  939MPD2    C513733   2.709   3.267   0.737  0.6555  0.2777  0.3651
  939MPD2     H13734   2.981   3.372   0.975  0.9162  0.2119 -0.1371
  939MPD2    H113735   2.855   3.237   0.590  0.8392  0.3467  0.0285
  939MPD2    H213736   2.569   3.299   0.890  0.5778 -0.6052  0.5825
  939MPD2    H313737   2.627   3.237   0.673  1.7047 -0.4100 -0.6673
  939MPD2     N13738   3.074   3.303   0.753  0.5881 -0.4735 -0.5100
  939MPD2    H513739   3.131   3.363   0.812 -0.6414 -0.1785  0.3965
  939MPD2    N113740   2.732   3.400   1.083 -0.1433 -0.2680  0.2451
  939MPD2    H713741   2.641   3.387   1.125 -0.1776 -1.1888 -0.1305
  940MPD2     C13742   2.244   3.833  13.467  0.8317 -0.4774 -0.5178
  940MPD2    C113743   2.217   3.702  13.431  0.4927 -0.4562  0.2122
  940MPD2    C213744   2.179   3.670  13.299 -0.0966 -0.1988  0.0079
  940MPD2    C313745   2.188   3.768  13.202  0.1770  0.5244 -0.0006
  940MPD2    C413746   2.203   3.898  13.234 -0.2317  0.0205 -0.2761
  940MPD2    C513747   2.226   3.925  13.369 -0.2446 -0.1458  0.0077
  940MPD2     H13748   2.153   3.569  13.268  0.6732 -0.1380 -0.8115
  940MPD2    H113749   2.198   3.982  13.166  1.7199  1.1749  1.0004
  940MPD2    H213750   2.261   3.877  13.564 -1.8227  1.6623 -1.0251
  940MPD2    H313751   2.237   4.029  13.398  0.4546  0.2185 -1.6023
  940MPD2     N13752   2.195   3.738  13.059  0.2775  0.1038  0.7701
  940MPD2    H513753   2.192   3.818  12.997 -1.8134 -0.6616 -0.1270
  940MPD2    N113754   2.213   3.594  13.524  0.3825 -0.4154  0.2655
  940MPD2    H713755   2.186   3.499  13.499 -1.3289  0.5093 -1.3948
  941MPD2     C13756   2.357   3.377   9.634 -0.1600 -0.2075  0.2993
  941MPD2    C113757   2.369   3.389   9.768  0.2790 -0.7883  0.0433
  941MPD2    C213758   2.281   3.316   9.847 -0.5943 -0.2079  0.3158
  941MPD2    C313759   2.180   3.233   9.796 -1.2605 -0.1489 -0.0338
  941MPD2    C413760   2.181   3.219   9.659 -0.4396  0.3806  0.4894
  941MPD2    C513761   2.270   3.287   9.579 -0.0071 -0.2785 -0.4218
  941MPD2     H13762   2.297   3.310   9.954  1.9060 -1.4794 -0.1063
  941MPD2    H113763   2.110   3.159   9.603  0.5487 -0.1367 -0.2039
  941MPD2    H213764   2.432   3.422   9.570  0.0731  1.4707  1.7615
  941MPD2    H313765   2.270   3.278   9.471  0.1786  0.6411 -0.4955
  941MPD2     N13766   2.094   3.168   9.877  0.1679 -0.4066  0.3109
  941MPD2    H513767   2.041   3.090   9.839 -4.0471  2.3203  0.5908
  941MPD2    N113768   2.465   3.472   9.836  0.0868 -0.0934 -0.3911
  941MPD2    H713769   2.464   3.486   9.936 -0.8307  2.5386 -0.7551
  942MPD2     C13770   1.636   0.361   9.339  0.0295  0.7908  0.4020
  942MPD2    C113771   1.641   0.372   9.202  0.4663  0.0226  0.0206
  942MPD2    C213772   1.757   0.397   9.137  0.2043 -0.5436  0.0655
  942MPD2    C313773   1.870   0.422   9.212  0.2704  0.7778  1.2471
  942MPD2    C413774   1.870   0.408   9.349  0.3861 -0.7431  0.3755
  942MPD2    C513775   1.757   0.367   9.408  0.1261 -0.7093 -0.5279
  942MPD2     H13776   1.753   0.421   9.031 -1.5694  0.9817  0.4704
  942MPD2    H113777   1.954   0.405   9.417 -0.8591 -2.6849  1.8701
  942MPD2    H213778   1.546   0.330   9.390  0.3231 -1.9327 -0.7186
  942MPD2    H313779   1.754   0.351   9.516  1.5186  2.2328 -0.0646
  942MPD2     N13780   1.994   0.442   9.144  0.4324  0.1087  0.5473
  942MPD2    H513781   1.990   0.441   9.043 -0.0951 -1.5060  0.5951
  942MPD2    N113782   1.527   0.361   9.120 -1.0678  0.3160 -1.0154
  942MPD2    H713783   1.536   0.382   9.021  0.8330  0.3031 -0.8435
  943MPD2     C13784   0.837   3.604   9.907 -0.7196 -0.2278 -0.1945
  943MPD2    C113785   0.749   3.499   9.911 -0.0543  0.2841  0.4137
  943MPD2    C213786   0.652   3.508  10.004 -0.1934 -1.0842  0.0400
  943MPD2    C313787   0.648   3.615  10.097 -0.2978 -0.4301  0.1148
  943MPD2    C413788   0.742   3.714  10.090 -0.1365  0.6185  0.3455
  943MPD2    C513789   0.838   3.706   9.993  0.4861  0.6374 -0.2104
  943MPD2     H13790   0.575   3.432   9.996  0.6173 -1.9972  0.8266
  943MPD2    H113791   0.743   3.808  10.145 -0.8501 -0.0152  1.4417
  943MPD2    H213792   0.923   3.599   9.841  0.1779  1.7924  0.8079
  943MPD2    H313793   0.910   3.787   9.988  1.5933 -0.2930  0.5486
  943MPD2     N13794   0.553   3.619  10.203 -0.2637  0.0809  0.2310
  943MPD2    H513795   0.559   3.694  10.272  1.3381 -0.4841  0.7034
  943MPD2    N113796   0.769   3.386   9.821  0.2598  0.3713  0.0634
  943MPD2    H713797   0.853   3.390   9.764  0.4722 -2.0064  0.2438
  944MPD2     C13798   0.237   1.452  10.920 -1.0345 -0.1275  0.6433
  944MPD2    C113799   0.230   1.582  10.962 -0.0994  0.3522 -0.0206
  944MPD2    C213800   0.236   1.614  11.100  0.1527 -0.6246 -0.4255
  944MPD2    C313801   0.239   1.518  11.198 -0.0568 -0.2654 -0.1492
  944MPD2    C413802   0.259   1.386  11.156 -0.2373 -0.6244 -0.6859
  944MPD2    C513803   0.241   1.356  11.016 -0.1655 -0.6900 -0.6400
  944MPD2     H13804   0.231   1.718  11.133 -0.4939 -0.0146 -2.4622
  944MPD2    H113805   0.266   1.302  11.223  0.7620  0.3951  0.4847
  944MPD2    H213806   0.215   1.419  10.819 -0.3089 -1.4380  0.9131
  944MPD2    H313807   0.244   1.254  10.981 -1.2429 -0.1765 -2.2234
  944MPD2     N13808   0.232   1.554  11.334 -0.1069  0.2563 -0.6639
  944MPD2    H513809   0.221   1.652  11.356 -0.7256  1.0937 -4.8032
  944MPD2    N113810   0.210   1.669  10.859  0.5737 -0.0166  0.2352
  944MPD2    H713811   0.235   1.631  10.768  1.0300  2.0784 -0.5140
    1TCq1    O113812   3.131   2.542  14.297  0.5587  0.2141 -0.2705
    1TCq1    C113813   3.003   2.537  14.354  0.8533  0.4702 -0.3267
    1TCq1    O213814   2.927   2.452  14.319  0.0643  1.1876  0.0893
    1TCq1    C213815   2.974   2.679  14.379  0.5973  0.5421  0.6103
    1TCq1    C313816   2.870   2.717  14.306 -0.2546  0.3578  0.0419
    1TCq1    C413817   2.822   2.847  14.319 -0.0084  0.1506 -0.0553
    1TCq1    C513818   2.872   2.933  14.418 -0.5821  0.0754 -0.1792
    1TCq1    C613819   2.989   2.886  14.484  0.4076 -0.2850  0.4549
    1TCq1    C713820   3.045   2.761  14.460  0.2922  0.4661 -1.1080
    1TCq1    C813821   3.053   2.980  14.579 -0.0383 -0.4955  0.6047
    1TCq1    O413822   3.153   2.939  14.632  0.5564  0.0298  0.2242
    1TCq1    C913823   2.702   2.886  14.252  0.0765 -0.2011 -0.8577
    1TCq1    O513824   2.638   2.789  14.195  0.1018  0.2293 -0.3044
    1TCq1    O613825   2.665   3.004  14.251 -0.1610  0.5033 -0.1321
    1TCq1    H113826   3.182   2.621  14.323  2.3434 -0.5896 -1.3525
    1TCq1    H213827   2.821   2.649  14.237 -1.3377 -0.6093  1.7802
    1TCq1    H313828   2.834   3.031  14.443 -0.0112  0.5675 -1.2139
    1TCq1    H413829   3.124   2.721  14.521 -0.4838  1.8394  0.7901
    2MPD2     C13830   3.074   3.402  14.878  0.1822 -0.3956  0.3136
    2MPD2    C113831   3.004   3.432  14.768 -0.1695 -0.0452 -0.5439
    2MPD2    C213832   2.979   3.334  14.678  0.5071  0.2525 -0.4828
    2MPD2    C313833   3.017   3.199  14.700 -0.0459 -0.4805 -0.0078
    2MPD2    C413834   3.101   3.179  14.808  0.7307 -0.2800 -0.2038
    2MPD2    C513835   3.130   3.277  14.896 -0.2976  0.5021 -0.2917
    2MPD2     H13836   2.937   3.361  14.582  2.0781 -0.9789 -1.5298
    2MPD2    H113837   3.136   3.078  14.823 -3.4521 -1.7185 -0.1083
    2MPD2    H213838   3.096   3.478  14.951  2.4723 -0.6780 -0.0836
    2MPD2    H313839   3.199   3.253  14.976  0.7961 -0.6172 -1.5736
    2MPD2     N13840   2.985   3.098  14.608  0.0886 -0.0588 -0.0856
    2MPD2    H513841   2.912   3.119  14.542  0.8910  3.0928  0.0270
    2MPD2    N113842   2.963   3.567  14.746  0.3999  0.2421 -0.3425
    2MPD2    H713843   3.002   3.633  14.812 -0.5011  1.0596 -0.6231
    3TMC2    C113844   2.853   3.753  14.647 -0.2453  0.2904 -0.0224
    3TMC2    C213845   2.734   3.800  14.595  0.5558 -0.6260  0.6602
    3TMC2    C313846   2.733   3.928  14.545  0.4137  0.2819  0.1043
    3TMC2    C413847   2.964   3.829  14.647  0.5402  0.1267  0.0652
    3TMC2    C513848   2.954   3.960  14.601  0.3500  0.0820  0.4842
    3TMC2    C613849   2.836   4.009  14.559 -0.1162  0.2417  0.6389
    3TMC2     C13850   2.862   3.613  14.665 -0.3617 -0.2513  0.2019
    3TMC2     O13851   2.783   3.554  14.596  0.9177  0.7101 -0.6873
    3TMC2     H13852   2.654   3.729  14.614  0.1285 -0.1026  0.8160
    3TMC2    H113853   3.060   3.781  14.661  1.0213  0.9950 -0.2435
    3TMC2    H213854   2.819   4.116  14.550 -1.3816  0.0688  0.9608
    3TMC2    C713855   3.083   4.023  14.565  0.1781  0.3541  0.0538
    3TMC2    C813856   2.603   3.990  14.549  0.2284  0.0540  0.0152
    3TMC2    O113857   3.186   3.987  14.621  0.3264  0.2330 -0.0216
    3TMC2    O213858   2.594   4.091  14.620  0.0738 -0.2667  0.2078
    3TMC2    O513859   2.510   3.892  14.542 -0.0539  0.1562  0.5859
    3TMC2    H513860   2.536   3.816  14.485 -0.9720  0.3932 -0.1353
    4MPD2     C13861   2.342   0.225  13.639  0.4510  0.4423 -0.1915
    4MPD2    C113862   2.436   0.189  13.548  0.0542  0.1390  0.0014
    4MPD2    C213863   2.566   0.160  13.588  0.1328 -0.1775 -0.4014
    4MPD2    C313864   2.598   0.169  13.716 -0.9275  0.3554  0.0282
    4MPD2    C413865   2.508   0.218  13.810  0.1060  0.2285  0.2169
    4MPD2    C513866   2.382   0.256  13.767 -0.2424  0.2710 -0.5238
    4MPD2     H13867   2.642   0.121  13.520 -0.4762  1.5342 -2.0662
    4MPD2    H113868   2.535   0.241  13.912  1.6667  0.2925 -0.2195
    4MPD2    H213869   2.242   0.251  13.606  0.3383  1.1760  0.7380
    4MPD2    H313870   2.311   0.306  13.833 -0.0951 -1.0374  0.6258
    4MPD2     N13871   2.719   0.115  13.752 -0.4051 -0.3823 -1.0082
    4MPD2    H513872   2.788   0.090  13.682  0.3418  0.0890 -0.4447
    4MPD2    N113873   2.387   0.169  13.416  0.6546  0.6672 -0.0632
    4MPD2    H713874   2.287   0.175  13.406  1.0111  1.4030 -3.0472
    5TCq2    C113875   2.754   0.080  13.881 -0.1076 -0.6772  0.5777
    5TCq2    O213876   2.695   0.092  13.989  0.5707  0.4069  0.1836
    5TCq2    C213877   2.878   0.007  13.880  0.4377  0.0463  0.4373
    5TCq2    C313878   2.971   0.022  13.780  0.2129  0.0290 -0.2188
    5TCq2    C413879   3.089   4.662  13.784  0.4900 -0.3973  0.0105
    5TCq2    C513880   3.117   4.577  13.883 -0.4229  0.0871 -0.6701
    5TCq2    C613881   3.023   4.570  13.978 -0.2297 -0.5276  0.3173
    5TCq2    C713882   2.904   4.641  13.980 -0.1579 -0.1362  0.0323
    5TCq2    C813883   3.027   4.462  14.085 -0.4963  0.6071  0.1584
    5TCq2    O413884   2.925   4.432  14.143 -0.7442  0.1573 -0.1607
    5TCq2    C913885   3.178   4.677  13.666  0.4043  0.1200 -0.2102
    5TCq2    O513886   3.280   4.601  13.662 -0.2558 -0.5299 -0.8092
    5TCq2    O613887   3.149   0.033  13.574 -0.6508 -0.3889 -0.1625
    5TCq2    H213888   2.962   0.101  13.707  1.7103  1.2831  0.9515
    5TCq2    H313889   3.196   4.504  13.877 -1.6595 -1.1305 -2.0187
    5TCq2    H413890   2.826   4.603  14.045 -0.6874 -0.0632 -0.5596
    6MPD1     C13891   1.653   1.408  12.202  0.1496  0.0686  0.2950
    6MPD1    C113892   1.790   1.384  12.201  0.4550 -0.7487 -0.0334
    6MPD1    C213893   1.830   1.251  12.209  0.2931 -1.3543 -0.3645
    6MPD1    C313894   1.735   1.151  12.242 -0.0446  0.3223 -0.4947
    6MPD1    C413895   1.599   1.177  12.233 -0.3498  0.0954  0.6894
    6MPD1    C513896   1.560   1.309  12.223 -0.1589  0.0248  0.1075
    6MPD1     H13897   1.934   1.221  12.198 -0.5254 -4.3366  0.0280
    6MPD1    H113898   1.533   1.092  12.241 -0.3265 -0.0013 -0.1757
    6MPD1    H213899   1.617   1.510  12.206  1.3734  0.5095 -0.1113
    6MPD1    H313900   1.456   1.337  12.233 -0.2047  0.3069 -1.1754
    6MPD1     N13901   1.773   1.015  12.278 -0.0183 -0.3613 -0.4072
    6MPD1    H513902   1.696   0.949  12.283  0.2374 -0.4757  1.6406
    6MPD1    N113903   1.885   1.485  12.181  0.2437 -0.1833  0.1314
    6MPD1    H613904   1.869   1.580  12.214  2.4446  0.2364  0.0523
    6MPD1    H713905   1.981   1.463  12.207 -0.6778 -4.7547 -0.4893
    7MPD2     C13906   1.730   0.587  12.938 -0.5063 -0.1022  0.7732
    7MPD2    C113907   1.834   0.541  12.860  0.3020 -0.2530 -0.9117
    7MPD2    C213908   1.930   0.454  12.918 -0.3343  0.0565 -0.1006
    7MPD2    C313909   1.923   0.407  13.052  0.0943 -0.5227 -0.6299
    7MPD2    C413910   1.823   0.463  13.122 -0.3176  0.6324 -0.4697
    7MPD2    C513911   1.724   0.547  13.068  0.8385 -0.1825  0.1478
    7MPD2     H13912   2.006   0.417  12.850 -0.2462 -1.7813  0.9819
    7MPD2    H113913   1.802   0.448  13.228  1.9349  1.5059  0.1068
    7MPD2    H213914   1.661   0.663  12.905 -1.1589 -0.9931  0.0611
    7MPD2    H313915   1.638   0.576  13.128  1.2845 -1.4986  1.4143
    7MPD2     N13916   2.008   0.303  13.104 -0.4907 -0.0963 -0.5360
    7MPD2    H513917   2.011   0.282  13.204 -0.4130  2.7902  0.0755
    7MPD2    N113918   1.848   0.575  12.721  0.5986 -0.2287 -0.5048
    7MPD2    H713919   1.922   0.522  12.677 -1.1173 -0.2916 -3.2995
    8TMC3    C113920   2.182   0.136  13.088 -0.2671 -0.0366 -0.4718
    8TMC3    C213921   2.256   0.186  13.191  1.0033  0.5241  0.5078
    8TMC3    C313922   2.389   0.153  13.185 -0.2688 -0.4095 -0.5123
    8TMC3    C413923   2.231   0.039  13.004  0.0244 -0.6285  0.2230
    8TMC3    C513924   2.368   0.020  12.990 -0.1642 -0.4272  0.1873
    8TMC3    C613925   2.447   0.073  13.088 -0.1891 -0.0429 -0.9004
    8TMC3     C13926   2.083   0.220  13.021 -0.0771 -0.6700  0.3634
    8TMC3     O13927   2.070   0.201  12.905 -0.0871 -0.1346  0.4721
    8TMC3     H13928   2.219   0.265  13.256 -0.4366  0.1909  0.0856
    8TMC3    H113929   2.176   4.720  12.921 -3.3605 -0.0435  2.1513
    8TMC3    H213930   2.551   0.050  13.073 -0.1295 -0.2184 -0.2234
    8TMC3    C713931   2.424   0.066  12.868  0.0010 -0.5357  0.1795
    8TMC3    C813932   2.469   0.165  13.304  0.0684 -0.0784  0.1936
    8TMC3    O113933   2.541   0.036  12.837 -0.2602  0.6690 -0.4960
    8TMC3    O213934   2.592   0.158  13.294  0.0042 -0.6230  0.4702
    9TMC3    C113935   1.902   0.834  12.353  0.5920 -0.1741  0.3734
    9TMC3    C213936   2.004   0.749  12.320 -0.3536 -0.3005  0.6263
    9TMC3    C313937   2.015   0.630  12.393  0.0120  0.3662 -0.1991
    9TMC3    C413938   1.812   0.801  12.447  1.1366 -0.1326  0.4592
    9TMC3    C513939   1.826   0.688  12.515  0.4913  0.1429 -1.0135
    9TMC3    C613940   1.933   0.602  12.493 -0.2442 -0.3306  0.1440
    9TMC3     C13941   1.903   0.970  12.301  0.5841 -0.1031 -0.5355
    9TMC3     O13942   2.012   1.013  12.256  0.0606 -0.3334  0.5079
    9TMC3     H13943   2.086   0.770  12.253  0.6197  0.7627  2.1592
    9TMC3    H113944   1.754   0.880  12.492  1.1020 -0.7840  1.5457
    9TMC3    H213945   1.909   0.497  12.503  0.1184 -0.3220  1.1118
    9TMC3    C713946   1.775   0.669  12.645 -0.3531 -0.1371 -0.5759
    9TMC3    C813947   2.137   0.552  12.382 -0.0398  0.4177 -0.4168
    9TMC3    O113948   1.674   0.729  12.670  0.1695 -0.1077 -0.2221
    9TMC3    O213949   2.228   0.586  12.303  0.3350  0.0246 -0.3597
   10MPD2     C13950   2.478   0.235  12.610  0.7566  0.1291 -0.1535
   10MPD2    C113951   2.362   0.225  12.679 -0.3801  0.2726 -0.0352
   10MPD2    C213952   2.247   0.292  12.629  0.6136  0.2037 -0.3371
   10MPD2    C313953   2.254   0.386  12.527  0.2757 -0.0481  0.5101
   10MPD2    C413954   2.378   0.395  12.469 -0.5658 -1.2119 -0.4058
   10MPD2    C513955   2.487   0.316  12.499  0.2887 -0.2653  0.2777
   10MPD2     H13956   2.150   0.281  12.678  0.5097 -0.6846 -0.7396
   10MPD2    H113957   2.395   0.460  12.384  0.7955  0.1779  0.9495
   10MPD2    H213958   2.565   0.180  12.643  3.7793  4.5399 -0.7555
   10MPD2    H313959   2.580   0.321  12.444  0.6769 -2.0338  0.7659
   10MPD2     N13960   2.141   0.461  12.482  0.0976  0.5343  0.4197
   10MPD2    H513961   2.054   0.443  12.532  0.3772 -0.5739  0.4942
   10MPD2    N113962   2.337   0.152  12.802 -0.1298 -0.1349  0.2655
   10MPD2    H713963   2.238   0.150  12.824 -0.5321  0.9633 -1.4450
   11MPD2     C13964   3.288   4.213  14.450  0.0206 -1.0899 -0.1024
   11MPD2    C113965   3.161   4.194  14.406  0.3565 -0.9950  0.7303
   11MPD2    C213966   3.119   4.276  14.308 -0.6006 -0.3152  0.4742
   11MPD2    C313967   3.194   4.367  14.235  0.1868 -0.3378 -0.5350
   11MPD2    C413968   3.324   4.386  14.285  0.6393 -0.0587 -0.0574
   11MPD2    C513969   3.365   4.306  14.385  0.0770  0.0561 -0.3522
   11MPD2     H13970   3.024   4.244  14.268 -0.5167 -1.7326  1.4172
   11MPD2    H113971   3.390   4.463  14.247  0.2779  0.9616  1.4247
   11MPD2    H213972   3.336   4.144  14.519 -1.4014 -3.1435 -1.1661
   11MPD2    H313973   3.468   4.318  14.416 -0.3868 -0.4344  1.3730
   11MPD2     N13974   3.155   4.439  14.128  0.1173 -0.4534 -0.0392
   11MPD2    H513975   3.227   4.491  14.080 -0.2965 -0.0499 -0.2322
   11MPD2    N113976   3.059   4.105  14.462 -0.1115 -0.5456 -0.3223
   11MPD2    H713977   2.969   4.098  14.417 -0.3240 -0.1638  0.0467
    1MPD1     C13978   0.094   1.308  16.374  0.2111 -0.7819 -0.5261
    1MPD1    C113979   0.210   1.347  16.318 -0.0397 -0.3989 -0.2190
    1MPD1    C213980   0.323   1.328  16.383  0.3524 -0.2378  0.7557
    1MPD1    C313981   0.324   1.271  16.510 -0.0533  0.1610  0.1348
    1MPD1    C413982   0.212   1.234  16.576 -0.7644  0.2721 -0.2220
    1MPD1    C513983   0.099   1.257  16.500  0.0171  0.6063  0.0452
    1MPD1     H13984   0.417   1.358  16.339 -1.2253  1.4272 -1.4496
    1MPD1    H113985   0.201   1.193  16.675 -0.6828 -1.0043 -0.7483
    1MPD1    H213986   0.003   1.315  16.315  0.2189 -1.1631 -0.5849
    1MPD1    H313987   0.001   1.225  16.535  0.4814 -0.8899 -0.0577
    1MPD1     N13988   0.443   1.239  16.580  0.1540  0.6224  0.5696
    1MPD1    H513989   0.436   1.205  16.675 -0.1038  0.3032  0.4366
    1MPD1    N113990   0.219   1.376  16.180 -0.1715  0.1791 -0.6666
    1MPD1    H613991   0.137   1.426  16.145 -1.4867 -2.2365 -1.0689
    1MPD1    H713992   0.309   1.413  16.150  1.1500 -1.5411  1.2296
    2MPD1     C13993   0.758   0.524  17.173  0.6802  0.7226  0.1982
    2MPD1    C113994   0.861   0.535  17.087  0.4411 -0.1416  0.1039
    2MPD1    C213995   0.861   0.644  16.999  0.1727  0.5419 -0.3496
    2MPD1    C313996   0.760   0.736  16.988  0.3622 -0.3233  0.0828
    2MPD1    C413997   0.660   0.727  17.084  0.3074  0.2290 -0.3422
    2MPD1    C513998   0.658   0.615  17.167  0.2038 -0.1576 -0.1478
    2MPD1     H13999   0.947   0.656  16.933  2.0354 -0.2381  1.9526
    2MPD1    H114000   0.570   0.788  17.082 -0.5238 -0.9252  1.2606
    2MPD1    H214001   0.751   0.444  17.246 -0.1010 -2.4340 -3.3182
    2MPD1    H314002   0.572   0.604  17.232  0.1106 -0.0725 -0.2580
    2MPD1     N14003   0.763   0.836  16.894  0.2478  0.3529 -0.2175
    2MPD1    H514004   0.840   0.841  16.828  0.9066  0.9985  0.6031
    2MPD1    N114005   0.971   0.449  17.096  0.1843  0.4215  0.1570
    2MPD1    H614006   1.023   0.436  17.010 -1.8746 -0.6225 -0.9393
    2MPD1    H714007   0.942   0.356  17.128 -1.8792  0.4802 -1.5619
    3TMC3    C114008   0.723   1.054  16.788  0.8371  0.0429 -0.1205
    3TMC3    C214009   0.855   1.089  16.778 -0.2125 -0.8973  0.1694
    3TMC3    C314010   0.881   1.194  16.692  0.6830  0.1717  0.0090
    3TMC3    C414011   0.624   1.111  16.709 -0.3055 -0.1230  0.2972
    3TMC3    C514012   0.664   1.206  16.618 -0.2514 -0.0510  1.1348
    3TMC3    C614013   0.789   1.260  16.615 -0.7808 -0.1766 -0.4847
    3TMC3     C14014   0.677   0.942  16.880 -0.1966 -0.0447  0.1818
    3TMC3     O14015   0.564   0.952  16.921  0.1057 -0.0366 -0.4937
    3TMC3     H14016   0.933   1.041  16.835  0.3519  0.7312  0.7849
    3TMC3    H114017   0.526   1.064  16.700  0.1887 -1.0831 -0.0262
    3TMC3    H214018   0.818   1.330  16.538  0.1226  0.5588  0.5356
    3TMC3    C714019   0.569   1.249  16.529 -0.3079  0.4484 -0.2517
    3TMC3    C814020   1.020   1.241  16.691  0.5221  0.1373  0.2742
    3TMC3    O114021   0.616   1.288  16.422  0.4523 -0.5888  0.0693
    3TMC3    O214022   1.115   1.170  16.724  0.2050 -0.8926  0.0947
    4MPD1     C14023   1.347   1.633  16.755  0.2041  0.0232  0.0847
    4MPD1    C114024   1.224   1.690  16.727 -0.1724 -0.8161  0.3464
    4MPD1    C214025   1.115   1.607  16.702  0.3659  0.1119  0.2728
    4MPD1    C314026   1.132   1.468  16.702 -0.1015 -0.1461 -0.2987
    4MPD1    C414027   1.261   1.420  16.731 -0.5341  0.0172 -0.4762
    4MPD1    C514028   1.367   1.500  16.768 -0.1586  0.4411  0.1676
    4MPD1     H14029   1.023   1.661  16.687 -0.2328 -0.2137  2.7884
    4MPD1    H114030   1.274   1.312  16.732 -3.3838 -0.3282 -0.4634
    4MPD1    H214031   1.435   1.692  16.775 -0.6335  0.2980  2.9490
    4MPD1    H314032   1.459   1.453  16.802 -1.6899 -2.2810  0.5170
    4MPD1     N14033   1.021   1.383  16.682  0.8256  0.0841 -0.8934
    4MPD1    H514034   0.937   1.441  16.686  1.8354  1.5350 -0.6698
    4MPD1    N114035   1.216   1.829  16.744  0.0622 -0.2094  0.2742
    4MPD1    H614036   1.166   1.867  16.664 -1.5715  1.2235  1.9644
    4MPD1    H714037   1.308   1.869  16.726  0.1401  0.2067  1.6282
    1TCq1    O114038   4.581   0.581  11.818  0.0963  0.4314  0.1335
    1TCq1    C114039   4.623   0.572  11.691  0.4358  0.0860 -0.4688
    1TCq1    O214040   4.564   0.521  11.599 -0.7078 -0.0892  0.1723
    1TCq1    C214041   4.712   0.683  11.665  0.2937  0.4343  0.3127
    1TCq1    C314042   4.703   0.795  11.743 -0.2093 -0.2831  0.7214
    1TCq1    C414043   0.061   0.903  11.713  0.0170  0.4347  0.9402
    1TCq1    C514044   0.164   0.881  11.624  0.5531  0.3663 -0.0060
    1TCq1    C614045   0.180   0.759  11.557  0.0040 -0.1079 -0.1254
    1TCq1    C714046   0.090   0.656  11.582 -0.1275 -0.7834  0.7467
    1TCq1    C814047   0.288   0.721  11.478 -0.4587 -0.3230  0.7500
    1TCq1    O414048   0.272   0.620  11.409  0.2284  0.1601  0.1288
    1TCq1    C914049   0.061   1.024  11.799  0.2008 -0.4051 -0.4398
    1TCq1    O514050   0.113   1.132  11.759 -0.1007  0.2046 -0.0595
    1TCq1    O614051   4.711   1.016  11.901 -0.1228  0.0231 -0.5239
    1TCq1    H114052   4.660   0.599  11.874  0.2409 -0.9505  0.3629
    1TCq1    H214053   4.617   0.808  11.808 -1.4443  2.3951 -1.4673
    1TCq1    H314054   0.224   0.966  11.595  0.5729 -1.1300 -4.3991
    1TCq1    H414055   0.096   0.555  11.545 -1.0181 -1.1020  1.4682
    2MPD1     C14056   0.762   0.821  11.307 -0.3933 -0.3570  0.0395
    2MPD1    C114057   0.715   0.929  11.383 -0.3479  0.7700  0.2793
    2MPD1    C214058   0.597   0.914  11.456  0.4398  0.0792  0.4252
    2MPD1    C314059   0.520   0.805  11.433  0.3050  0.1548 -0.2140
    2MPD1    C414060   0.565   0.691  11.368 -0.6170  0.0537  0.0369
    2MPD1    C514061   0.687   0.703  11.297 -0.5973 -0.3213  0.1868
    2MPD1     H14062   0.557   0.989  11.523  0.5687 -0.2770  0.9030
    2MPD1    H114063   0.503   0.602  11.361  0.0068 -0.2813 -1.2920
    2MPD1    H214064   0.848   0.824  11.241  0.8167  1.3112  1.7123
    2MPD1    H314065   0.737   0.618  11.252  0.5900 -0.4400  1.7330
    2MPD1     N14066   0.392   0.809  11.494 -0.0909 -0.4716  0.1274
    2MPD1    H514067   0.372   0.889  11.553  1.0722  0.8743 -1.2900
    2MPD1    N114068   0.802   1.037  11.400 -1.0059 -0.5846 -0.2952
    2MPD1    H614069   0.758   1.112  11.453 -1.0537 -0.2648 -0.7891
    2MPD1    H714070   0.837   1.078  11.314 -1.7566 -2.6377 -1.5822
    1TCq1    O114071   4.185   1.873   0.921  0.2106  0.0108 -0.1805
    1TCq1    C114072   4.309   1.817   0.922 -0.6729  0.5810  0.3143
    1TCq1    O214073   4.351   1.742   1.006  0.1158  0.1798 -0.1741
    1TCq1    C214074   4.363   1.833   0.789 -0.3210  0.5459  0.1490
    1TCq1    C314075   4.328   1.936   0.712  0.0820  0.0031 -0.1250
    1TCq1    C414076   4.394   1.954   0.596  0.3325  0.1565 -0.2359
    1TCq1    C514077   4.493   1.868   0.556  0.8737 -0.2420 -0.3249
    1TCq1    C614078   4.514   1.750   0.635  0.5391 -0.1916  0.4800
    1TCq1    C714079   4.454   1.737   0.749 -0.1522  0.4238  0.1423
    1TCq1    C814080   4.615   1.654   0.603  0.7895 -0.2020  0.1116
    1TCq1    O414081   4.642   1.568   0.684  0.3233 -0.6171  0.8124
    1TCq1    C914082   4.410   2.089   0.555 -0.4966 -0.2433 -0.1838
    1TCq1    O514083   4.345   2.178   0.614 -0.1362  0.4716 -0.5448
    1TCq1    O614084   4.498   2.108   0.470 -0.2512  0.0617 -0.6244
    1TCq1    H114085   4.160   1.909   0.834 -0.1261  2.1013  0.7880
    1TCq1    H214086   4.276   2.017   0.760  2.2124  1.9433 -1.0830
    1TCq1    H314087   4.566   1.891   0.480  1.9445 -0.7664  0.5463
    1TCq1    H414088   4.467   1.648   0.808 -0.1759 -1.5395 -2.8049
    2MPD1     C14089   0.168   1.435   0.228  0.2522 -0.2769 -0.1106
    2MPD1    C114090   0.109   1.548   0.178  0.0347  0.8556 -0.2502
    2MPD1    C214091   0.032   1.623   0.265 -0.1221  0.0587 -0.1440
    2MPD1    C314092   0.010   1.591   0.398 -0.2736 -0.2473 -0.0086
    2MPD1    C414093   0.078   1.479   0.445  0.0653  0.5106  0.1113
    2MPD1    C514094   0.153   1.405   0.357 -0.0619  0.2956 -0.1321
    2MPD1     H14095   4.696   1.700   0.218  1.5904  0.7715 -1.1375
    2MPD1    H114096   0.070   1.442   0.547 -1.3611 -1.0376 -0.5571
    2MPD1    H214097   0.209   1.361   0.160  1.1160 -0.7843  0.9572
    2MPD1    H314098   0.201   1.316   0.395 -0.1585  0.6194  0.7406
    2MPD1     N14099   4.645   1.670   0.473  0.5297 -0.1247  0.3714
    2MPD1    H514100   4.581   1.730   0.421  0.5600  1.0347  1.6993
    2MPD1    N114101   0.101   1.558   0.037 -0.3618  0.0381  0.0043
    2MPD1    H614102   0.191   1.524   0.003  0.2908  1.0233  0.7573
    2MPD1    H714103   0.085   1.654   0.008 -0.1929 -0.2341 -0.9859
    1MPD1     C14104   2.841   0.119  12.582 -0.0339 -0.3695 -0.1199
    1MPD1    C114105   2.866   0.256  12.572 -0.5473  0.4610 -0.2378
    1MPD1    C214106   2.996   0.293  12.531 -0.1902  0.3923  0.4961
    1MPD1    C314107   3.076   0.198  12.475  0.3671 -0.3490 -0.2366
    1MPD1    C414108   3.030   0.068  12.445  0.9769 -0.0374  0.1953
    1MPD1    C514109   2.914   0.029  12.512 -0.0795  0.1623 -0.2657
    1MPD1     H14110   3.046   0.387  12.549  1.4067 -0.3585 -0.0795
    1MPD1    H114111   3.096   4.715  12.405  0.5173 -1.3721  1.9998
    1MPD1    H214112   2.750   0.086  12.630  1.1122  0.4395  2.6083
    1MPD1    H314113   2.864   4.657  12.501  0.1878  0.0170 -0.2161
    1MPD1     N14114   3.201   0.238  12.434 -0.0779  0.1223 -0.6015
    1MPD1    H514115   3.224   0.335  12.456  1.4606 -0.4076  0.1519
    1MPD1    N114116   2.795   0.345  12.650  0.1222  0.3575 -0.1940
    1MPD1    H614117   2.697   0.321  12.667  0.3573  0.6955  1.5865
    1MPD1    H714118   2.815   0.442  12.626  0.5459  0.5276  0.8466
    2MPD1     C14119   3.013   1.000  11.859 -0.7499  0.0080 -0.0466
    2MPD1    C114120   2.968   1.031  11.731  0.1435 -0.5288  0.3789
    2MPD1    C214121   3.046   0.987  11.624  0.1947  0.3633 -0.7242
    2MPD1    C314122   3.150   0.899  11.645  0.2921  0.8531 -0.3523
    2MPD1    C414123   3.190   0.873  11.774 -0.1954 -0.8501 -0.2553
    2MPD1    C514124   3.121   0.924  11.880  0.2225  0.0660 -0.6573
    2MPD1     H14125   3.026   1.014  11.521 -2.4950  3.7401  0.7189
    2MPD1    H114126   3.281   0.819  11.801  0.2022 -0.1475 -0.1752
    2MPD1    H214127   2.963   1.035  11.948  0.1742  0.3122  0.3448
    2MPD1    H314128   3.151   0.904  11.983 -0.0036  2.0315 -0.2068
    2MPD1     N14129   3.230   0.839  11.540  0.0673  0.4613 -0.5939
    2MPD1    H514130   3.302   0.782  11.584  1.2202  0.6679 -2.2232
    2MPD1    N114131   2.868   1.127  11.712  0.4676  0.3070  0.6675
    2MPD1    H614132   2.794   1.119  11.782  0.4710  4.0228  1.0927
    2MPD1    H714133   2.833   1.141  11.617 -0.9971  1.1095  1.3313
    3MPD1     C14134   3.765   0.946  10.582  0.2603 -0.0190 -1.1995
    3MPD1    C114135   3.852   0.948  10.688 -0.3298 -0.1814  0.0211
    3MPD1    C214136   3.805   0.945  10.820 -0.6403 -0.3407 -0.0053
    3MPD1    C314137   3.668   0.919  10.834 -0.2049  0.0256  0.0768
    3MPD1    C414138   3.584   0.912  10.728 -0.5469  0.3105 -0.2242
    3MPD1    C514139   3.638   0.927  10.602  0.2941 -0.4679  0.5348
    3MPD1     H14140   3.873   0.951  10.904  1.4871 -1.6830 -1.6139
    3MPD1    H114141   3.478   0.887  10.729 -0.7669  1.2760  0.8452
    3MPD1    H214142   3.798   0.959  10.479 -0.4851 -1.2379 -1.5844
    3MPD1    H314143   3.574   0.910  10.515 -1.2893  1.4661  1.3142
    3MPD1     N14144   3.620   0.897  10.966  0.4297 -0.4675  0.4327
    3MPD1    H514145   3.700   0.901  11.028  1.1132  2.5094 -0.6391
    3MPD1    N114146   3.984   0.963  10.655 -0.0353 -0.1219 -0.2026
    3MPD1    H614147   4.041   0.945  10.738  1.5839  2.3455 -0.7609
    3MPD1    H714148   4.019   0.922  10.569 -1.6426 -1.9057 -0.0087
    4MPD2     C14149   3.550   0.846  12.152 -0.7871  0.1331 -0.2297
    4MPD2    C114150   3.653   0.758  12.192 -0.0228 -0.0131  0.4606
    4MPD2    C214151   3.783   0.803  12.184  0.4073 -0.2234  0.2155
    4MPD2    C314152   3.813   0.934  12.137 -0.1411 -0.0257  0.3477
    4MPD2    C414153   3.711   1.016  12.100  0.1879 -0.6624 -0.9571
    4MPD2    C514154   3.582   0.965  12.112 -0.2883 -0.5984  0.2249
    4MPD2     H14155   3.862   0.732  12.208  0.2236 -0.4107  0.2599
    4MPD2    H114156   3.716   1.117  12.061  0.4636 -0.2469  0.1415
    4MPD2    H214157   3.445   0.818  12.148 -1.3171  1.9850  1.1399
    4MPD2    H314158   3.502   1.023  12.068 -0.7333 -0.1114  1.6802
    4MPD2     N14159   3.945   0.970  12.109 -0.6577  0.1886 -0.2671
    4MPD2    H514160   3.967   1.038  12.037 -1.4606 -1.0358 -1.6826
    4MPD2    N114161   3.633   0.623  12.224  0.4009  0.5410  0.3903
    4MPD2    H714162   3.718   0.568  12.233  0.1759  0.4296  1.8155
    5TMC3    C114163   3.523   0.418  12.266 -0.1701  0.1047 -0.2242
    5TMC3    C214164   3.413   0.359  12.330 -0.5419  0.4048 -0.1863
    5TMC3    C314165   3.421   0.224  12.344 -0.1900 -0.3919 -0.9625
    5TMC3    C414166   3.620   0.350  12.206 -0.3714  0.6943 -0.1600
    5TMC3    C514167   3.632   0.216  12.239  0.8642 -0.1382 -0.1700
    5TMC3    C614168   3.530   0.151  12.309  0.4607 -0.0633 -0.1535
    5TMC3     C14169   3.513   0.566  12.252  0.2497  0.4697  0.8912
    5TMC3     O14170   3.403   0.623  12.259  0.4834 -0.1994 -0.3138
    5TMC3     H14171   3.327   0.422  12.351  0.2276  2.1487 -2.2601
    5TMC3    H114172   3.697   0.405  12.153  0.0266 -1.9575 -2.3464
    5TMC3    H214173   3.535   0.044  12.325  0.9250  0.0719  0.5833
    5TMC3    C714174   3.745   0.143  12.177  0.1315  0.9171 -0.3460
    5TMC3    C814175   3.303   0.153  12.388 -0.2974 -0.0547 -0.2042
    5TMC3    O114176   3.727   0.030  12.133  0.0129 -0.3315 -0.5044
    5TMC3    O214177   3.308   0.028  12.384 -0.5579 -1.3741 -0.8082
    6TMC3    C114178   3.330   0.806  11.330 -1.1210 -0.0442 -0.1985
    6TMC3    C214179   3.356   0.860  11.208  0.4273  0.1798 -0.7798
    6TMC3    C314180   3.471   0.826  11.139 -0.3445 -0.4543  0.3311
    6TMC3    C414181   3.420   0.709  11.380  0.3823 -0.8759 -0.1571
    6TMC3    C514182   3.536   0.671  11.310  0.3781 -0.0137 -0.1171
    6TMC3    C614183   3.559   0.731  11.186  0.1310 -0.2147  0.3858
    6TMC3     C14184   3.226   0.865  11.404  0.2172  1.2794  0.0861
    6TMC3     O14185   3.156   0.945  11.344  0.2456 -0.0426  0.4421
    6TMC3     H14186   3.288   0.935  11.169 -0.9246 -0.6934 -0.0867
    6TMC3    H114187   3.402   0.681  11.483 -0.1287 -1.3540 -0.3757
    6TMC3    H214188   3.655   0.717  11.139 -0.5148 -0.8666 -0.7217
    6TMC3    C714189   3.651   0.647  11.395 -0.2225  0.1525 -0.4386
    6TMC3    C814190   3.491   0.881  11.000  0.4586  0.3733 -0.5498
    6TMC3    O114191   3.646   0.679  11.509  0.4491  0.2418 -0.2972
    6TMC3    O214192   3.388   0.887  10.933 -0.7684  0.6341  0.0236
    7MPD2     C14193   4.178   0.196  11.930  0.0831 -0.7156  0.0045
    7MPD2    C114194   4.161   0.312  12.002 -1.0705  0.4019 -0.3510
    7MPD2    C214195   4.051   0.304  12.087 -0.4785  0.0081  1.3816
    7MPD2    C314196   3.965   0.198  12.093 -0.9750  0.3826 -0.8039
    7MPD2    C414197   3.979   0.091  12.013 -0.1876  0.5216 -0.1849
    7MPD2    C514198   4.088   0.090  11.935 -0.1901  0.4300  0.0885
    7MPD2     H14199   4.027   0.388  12.151 -0.8146 -0.5686  2.0060
    7MPD2    H114200   3.926   4.721  12.030  1.0788 -0.2944 -0.7579
    7MPD2    H214201   4.271   0.187  11.876  0.8124  0.2548  1.0949
    7MPD2    H314202   4.112   4.723  11.881 -0.4144 -0.1131  0.8975
    7MPD2     N14203   3.854   0.223  12.170 -0.1754 -0.1575  1.3286
    7MPD2    H514204   3.846   0.313  12.218  2.4078  0.5633  0.3733
    7MPD2    N114205   4.250   0.421  12.007  0.1174 -0.3287  0.0094
    7MPD2    H714206   4.314   0.437  11.930 -0.9806 -0.5809 -0.9568
    8TMC3    C114207   4.265   0.650  12.018 -0.6422  0.0689 -0.4843
    8TMC3    C214208   4.229   0.660  11.884 -0.2843  1.3823  0.4466
    8TMC3    C314209   4.150   0.761  11.845 -0.0766 -0.1724  0.2959
    8TMC3    C414210   4.233   0.755  12.104  0.0209  0.6471  0.1212
    8TMC3    C514211   4.151   0.857  12.061 -0.7875  0.3229 -0.0187
    8TMC3    C614212   4.108   0.860  11.928 -0.2273 -0.4846  0.0467
    8TMC3     C14213   4.227   0.527  12.086  0.3013  0.3487  0.2385
    8TMC3     O14214   4.183   0.538  12.200 -0.0685 -0.2898 -0.4819
    8TMC3     H14215   4.262   0.575  11.826  1.2847  3.0914 -1.1765
    8TMC3    H114216   4.256   0.751  12.210  2.5581  0.3490 -0.4423
    8TMC3    H214217   4.048   0.936  11.879  2.5110  0.3939 -1.9158
    8TMC3    C714218   4.052   0.902  12.160 -0.1225  0.3750  0.7243
    8TMC3    C814219   4.064   0.742  11.722 -0.0869  0.7185  0.2950
    8TMC3    O114220   4.067   0.856  12.275  0.2463 -0.2151  0.1942
    8TMC3    O214221   3.976   0.821  11.695 -0.1198  0.1501 -0.3394
    9MPD2     C14222   4.121   0.476  11.477 -0.2790 -0.3658 -0.3207
    9MPD2    C114223   4.049   0.576  11.540 -0.0978  0.3725 -0.7875
    9MPD2    C214224   3.924   0.612  11.492  0.2930  0.7156  0.2133
    9MPD2    C314225   3.879   0.551  11.378  0.7287  0.1747 -0.4006
    9MPD2    C414226   3.949   0.457  11.312  0.2266 -0.1148  0.2607
    9MPD2    C514227   4.073   0.417  11.366  0.5541  0.1660  0.6496
    9MPD2     H14228   3.867   0.693  11.535  1.1488  0.8315  1.1219
    9MPD2    H114229   3.901   0.398  11.235 -1.2203  2.7069 -0.9803
    9MPD2    H214230   4.223   0.460  11.507 -0.6232 -0.2848  0.8688
    9MPD2    H314231   4.131   0.342  11.314 -0.1603  0.1415 -0.1208
    9MPD2     N14232   3.751   0.584  11.327  1.0540  0.6394 -0.3462
    9MPD2    H514233   3.737   0.550  11.232  1.5147  0.4011 -0.3237
    9MPD2    N114234   4.101   0.627  11.657 -0.0816 -0.1062  0.0684
    9MPD2    H714235   4.191   0.587  11.682  0.1125 -0.1807 -0.7450
    1MPD1     C14236   4.223   0.270  17.353  0.2276  0.1344 -0.4884
    1MPD1    C114237   4.187   0.282  17.480 -0.1490 -0.0170  0.3659
    1MPD1    C214238   4.090   0.196  17.532 -0.0729  0.2420 -0.3328
    1MPD1    C314239   4.016   0.116  17.447  1.1089 -0.4237  0.2029
    1MPD1    C414240   4.045   0.118  17.314 -0.9017  0.0664  0.2725
    1MPD1    C514241   4.147   0.196  17.264 -0.1362  0.0711  0.0305
    1MPD1     H14242   4.061   0.207  17.636  0.5680  0.4129 -0.1702
    1MPD1    H114243   3.991   0.057  17.243  0.9598 -1.4014  0.1179
    1MPD1    H214244   4.311   0.322  17.316  0.7489  0.8500  1.7372
    1MPD1    H314245   4.176   0.192  17.160  0.0038 -0.3641  0.0873
    1MPD1     N14246   3.903   0.032  17.485  0.6294 -0.5067 -0.0649
    1MPD1    H514247   3.845   4.715  17.412  1.5464 -1.4115 -0.2876
    1MPD1    N114248   4.271   0.358  17.569 -0.5873  0.2939 -0.4996
    1MPD1    H614249   4.220   0.398  17.647 -0.8445 -0.9335 -0.0392
    1MPD1    H714250   4.306   0.439  17.518  0.1899  1.2756  1.6010
    2MPD1     C14251   3.377   4.534  16.937  0.1036  0.2882  0.1663
    2MPD1    C114252   3.508   4.569  16.952  0.6700  0.2364  0.2712
    2MPD1    C214253   3.562   4.577  17.080  0.1881  0.3021  0.4549
    2MPD1    C314254   3.474   4.565  17.190 -0.0148 -0.6923  0.5226
    2MPD1    C414255   3.346   4.530  17.166 -0.3620  0.5393  0.7055
    2MPD1    C514256   3.291   4.535  17.042  0.1391 -0.3171  0.1938
    2MPD1     H14257   3.667   4.596  17.099 -0.4631  1.6684  2.7454
    2MPD1    H114258   3.277   4.509  17.247  1.3321 -2.9161  1.2136
    2MPD1    H214259   3.334   4.520  16.839 -1.0571 -1.0605  0.8579
    2MPD1    H314260   3.189   4.500  17.035  0.4334 -1.0240 -0.6625
    2MPD1     N14261   3.534   4.558  17.317 -0.6615  0.0974 -0.2642
    2MPD1    H514262   3.633   4.579  17.320 -0.9632  1.2674  1.2220
    2MPD1    N114263   3.586   4.555  16.837 -0.3296  0.1866 -0.2562
    2MPD1    H614264   3.679   4.590  16.859 -0.8470  1.0635  0.5118
    2MPD1    H714265   3.553   4.594  16.749  2.6579 -0.6725 -1.7640
    3TCq2    C114266   3.467   4.549  17.436  0.4315 -0.2601 -0.0173
    3TCq2    O214267   3.350   4.512  17.463  0.3821 -0.1739 -0.2011
    3TCq2    C214268   3.561   4.562  17.546  0.0535  0.5216  0.3561
    3TCq2    C314269   3.549   4.477  17.648  0.0529  0.1260  0.1072
    3TCq2    C414270   3.642   4.478   0.049 -0.1989  0.4058  0.2109
    3TCq2    C514271   3.746   4.564   0.050 -1.0259  0.1121 -0.4465
    3TCq2    C614272   3.765   4.636  17.629  0.5282 -0.3375 -0.2570
    3TCq2    C714273   3.681   4.626  17.521 -0.2792 -0.5419 -0.2663
    3TCq2    C814274   3.888   4.710  17.614 -0.1700 -0.3926  0.6920
    3TCq2    O414275   3.965   0.001   0.012  0.4090 -0.0100 -0.3865
    3TCq2    C914276   3.617   4.402   0.173  0.1520  0.6603  0.0999
    3TCq2    O514277   3.512   4.336   0.194  0.1125 -0.4792  0.0522
    3TCq2    O614278   3.706   4.401   0.264  0.3894 -0.4295  0.1005
    3TCq2    H214279   3.461   4.414  17.655 -0.3453  0.8445  1.4970
    3TCq2    H314280   3.811   4.579   0.135  0.1293  1.6074 -1.5898
    3TCq2    H414281   3.683   4.704  17.445 -0.8049 -1.4889 -1.2546
    1TCq1    O114282   1.309   3.714  12.695  0.1633  0.2114  0.8938
    1TCq1    C114283   1.402   3.755  12.768  0.4692  0.5397 -0.4779
    1TCq1    O214284   1.457   3.864  12.752  0.2868  0.0364  0.0473
    1TCq1    C214285   1.392   3.675  12.889  0.1904 -0.6932  0.0257
    1TCq1    C314286   1.316   3.559  12.890 -0.0451  0.1501 -0.5263
    1TCq1    C414287   1.363   3.466  12.986  0.3155  0.1164 -0.1283
    1TCq1    C514288   1.471   3.484  13.069  0.4999  0.5189  0.3573
    1TCq1    C614289   1.534   3.601  13.066  0.1838 -0.6841  0.4027
    1TCq1    C714290   1.492   3.698  12.970  0.7657 -0.8318  0.3819
    1TCq1    C814291   1.648   3.632  13.155  0.8327 -0.0515  0.7444
    1TCq1    O414292   1.708   3.736  13.126 -0.1073  0.3456 -0.4570
    1TCq1    C914293   1.284   3.342  12.997 -0.0104 -0.1295 -0.5285
    1TCq1    O514294   1.307   3.269  13.098 -0.5426  0.2788  0.5380
    1TCq1    O614295   1.191   3.319  12.914  0.4344 -0.2862 -0.1753
    1TCq1    H114296   1.285   3.619  12.702  2.5577 -0.6363 -2.3688
    1TCq1    H214297   1.226   3.531  12.836 -1.9416  1.9481  1.7303
    1TCq1    H314298   1.493   3.400  13.134  1.7405  0.5748  0.0074
    1TCq1    H414299   1.534   3.798  12.970  1.4194 -1.1049  0.0953
    2MPD2     C14300   1.820   3.685  13.405 -0.6468  0.0209 -0.2153
    2MPD2    C114301   1.711   3.596  13.398  0.6515 -0.0149  0.0578
    2MPD2    C214302   1.685   3.529  13.519  0.0438  0.0524 -0.7148
    2MPD2    C314303   1.748   3.564  13.641  0.0477  0.4184  0.3440
    2MPD2    C414304   1.861   3.639  13.641 -0.3410 -0.2505 -0.1228
    2MPD2    C514305   1.892   3.701  13.522  0.1918  0.4534  0.5417
    2MPD2     H14306   1.604   3.458  13.524 -0.0892  0.4599  2.9399
    2MPD2    H114307   1.921   3.674  13.724  0.6510 -0.7216 -0.6346
    2MPD2    H214308   1.863   3.726  13.315  0.1768  1.3054  0.7564
    2MPD2    H314309   1.979   3.766  13.529  0.1685  0.4012  1.4202
    2MPD2     N14310   1.686   3.518  13.760 -0.5615  0.0051  0.7699
    2MPD2    H514311   1.596   3.471  13.752 -0.7856  0.4129  0.8736
    2MPD2    N114312   1.641   3.566  13.274 -0.3681  0.2267 -0.0652
    2MPD2    H714313   1.564   3.501  13.282 -0.6592  0.8609  2.4169
    3TCq1    O114314   1.863   3.263  14.299  0.1517  0.2200  0.4640
    3TCq1    C114315   1.729   3.267  14.305  0.7059  0.3292  0.6438
    3TCq1    O214316   1.651   3.222  14.394  0.1366  0.7078  0.5302
    3TCq1    C214317   1.675   3.362  14.207  0.6565 -0.4149 -0.4513
    3TCq1    C314318   1.539   3.359  14.195 -0.2546 -0.0983 -0.7017
    3TCq1    C414319   1.477   3.398  14.081  0.0120  0.2320 -0.1009
    3TCq1    C514320   1.541   3.449  13.979 -0.1332 -0.2009 -0.5988
    3TCq1    C614321   1.676   3.458  13.987  0.7925  1.0712  0.2777
    3TCq1    C714322   1.748   3.407  14.100  0.8387 -0.3560  0.3573
    3TCq1    C814323   1.756   3.506  13.876 -0.4715  0.1823  0.0656
    3TCq1    O414324   1.873   3.533  13.906 -0.1599  0.0933  0.1275
    3TCq1    C914325   1.334   3.362  14.062  0.0325  0.1128 -0.7644
    3TCq1    O514326   1.291   3.372  13.945 -0.8241 -0.3055  0.0524
    3TCq1    O614327   1.290   3.288  14.155 -0.5882 -0.2326  0.2385
    3TCq1    H114328   1.909   3.289  14.216 -1.2932 -0.1693 -0.4559
    3TCq1    H214329   1.481   3.328  14.281  0.4637 -1.3128 -0.6548
    3TCq1    H314330   1.485   3.468  13.888 -0.4388 -0.9135 -0.5552
    3TCq1    H414331   1.856   3.396  14.102  0.7078 -1.7912 -0.4140
    1MPD2     C14332   1.015   3.801  14.940 -0.3128 -0.5079 -0.6597
    1MPD2    C114333   0.897   3.772  14.868  0.6768  1.0619  0.2860
    1MPD2    C214334   0.902   3.699  14.750  0.4124  0.1558 -0.6644
    1MPD2    C314335   1.027   3.657  14.702 -0.4618  0.3609 -0.4853
    1MPD2    C414336   1.136   3.680  14.785 -0.1907  0.3156 -0.2822
    1MPD2    C514337   1.133   3.752  14.898  0.4811 -0.0849  0.2475
    1MPD2     H14338   0.815   3.680  14.688  0.6759 -1.6186 -0.5086
    1MPD2    H114339   1.234   3.644  14.754 -0.1642 -1.5250  1.9584
    1MPD2    H214340   0.997   3.854  15.033 -1.2464  0.0863 -1.1690
    1MPD2    H314341   1.227   3.758  14.952  0.5209 -0.8128  0.2553
    1MPD2     N14342   1.043   3.573  14.592 -0.2680 -0.4772  0.2087
    1MPD2    H514343   1.138   3.538  14.583  0.4141  1.0824  1.3729
    1MPD2    N114344   0.776   3.816  14.918 -0.0667 -0.2204 -0.6980
    1MPD2    H714345   0.777   3.850  15.014  0.6356 -1.7626 -0.1582
    2TMC3    C114346   0.550   3.821  14.976 -0.6591  0.7199  0.2584
    2TMC3    C214347   0.492   3.694  14.974  0.3165  0.1222 -0.4528
    2TMC3    C314348   0.352   3.678  14.957 -0.6889  0.0419 -0.3964
    2TMC3    C414349   0.471   3.927  14.943 -0.2717 -0.0231  0.2374
    2TMC3    C514350   0.333   3.912  14.942  1.0031 -0.2432  0.3559
    2TMC3    C614351   0.271   3.784  14.956  0.0753  0.6501  0.0182
    2TMC3     C14352   0.651   3.803  14.869  0.7146  0.3234 -0.0626
    2TMC3     O14353   0.614   3.740  14.772  0.1620 -0.3034  1.0825
    2TMC3     H14354   0.559   3.610  14.981 -0.3971 -0.5444 -1.5132
    2TMC3    H114355   0.528   4.018  14.939 -2.7166  1.4571 -0.9751
    2TMC3    H214356   0.166   3.773  14.931  0.2647  0.1992 -0.5873
    2TMC3    C714357   0.256   4.016  14.872 -0.1353  0.2255 -0.2999
    2TMC3    C814358   0.310   3.563  14.876  0.3069  0.6159 -0.4656
    2TMC3    O114359   0.135   4.001  14.877 -0.3655  0.3984  1.3827
    2TMC3    O214360   0.194   3.524  14.866  0.4904  0.0697  0.8266
    3TCq1    O114361   0.871   0.135  14.138 -0.1618 -0.0279  0.1570
    3TCq1    C114362   0.757   0.100  14.207 -0.1153  0.2069 -0.1909
    3TCq1    O214363   0.654   0.161  14.228  0.4064  0.5028  0.0105
    3TCq1    C214364   0.763   4.680  14.226 -0.7599 -0.0047 -0.4057
    3TCq1    C314365   0.878   4.635  14.295  0.3072  0.0182  0.1893
    3TCq1    C414366   0.866   4.519  14.370 -0.7481  0.4916 -0.0922
    3TCq1    C514367   0.742   4.454  14.369  1.2161  0.2023 -0.6462
    3TCq1    C614368   0.635   4.501  14.298  0.0217  0.2337  0.1154
    3TCq1    C714369   0.644   4.619  14.232 -0.5507  0.2622 -0.4944
    3TCq1    C814370   0.498   4.469  14.349 -0.3306 -0.0964  0.4429
    3TCq1    O414371   0.399   4.521  14.293  0.2906  0.1835 -0.0347
    3TCq1    C914372   0.970   4.466  14.453  0.0453  0.3207 -0.2278
    3TCq1    O514373   1.070   4.535  14.474 -0.0609 -0.1049  0.4115
    3TCq1    O614374   0.928   4.373  14.528 -0.2624  0.4716  0.3260
    3TCq1    H114375   0.932   0.070  14.098 -2.3628 -3.0315  1.7186
    3TCq1    H214376   0.965   4.699  14.304 -0.4699  0.9249  1.1794
    3TCq1    H314377   0.743   4.360  14.424  1.2429  1.3002  1.2158
    3TCq1    H414378   0.560   4.663  14.180  0.4386  0.3768 -1.9898
    4MPD2     C14379   0.262   4.410  14.517  0.2436  0.7068 -0.0228
    4MPD2    C114380   0.390   4.358  14.536 -0.2449  0.6364 -0.0329
    4MPD2    C214381   0.407   4.256  14.623 -0.5446 -0.1377 -0.5700
    4MPD2    C314382   0.310   4.192  14.690  0.0406  0.0369 -0.4194
    4MPD2    C414383   0.184   4.235  14.659 -0.8852 -0.4983  0.2001
    4MPD2    C514384   0.155   4.336  14.569  0.0588  0.1019  0.0629
    4MPD2     H14385   0.507   4.214  14.633  0.1347  1.3973 -1.0200
    4MPD2    H114386   0.099   4.194  14.712 -0.6929 -1.2247 -0.0541
    4MPD2    H214387   0.248   4.494  14.450 -1.4202 -0.2318 -0.8502
    4MPD2    H314388   0.054   4.367  14.544 -0.4742 -1.1726  0.6581
    4MPD2     N14389   0.339   4.092  14.785 -0.2589  0.3038 -0.4515
    4MPD2    H514390   0.439   4.085  14.801 -0.3321  4.1303  1.6876
    4MPD2    N114391   0.506   4.393  14.462  0.3616 -0.5979 -0.3745
    4MPD2    H714392   0.595   4.351  14.485  2.6975  3.7296 -1.4838
    5TMC2    C114393   0.860   3.279  14.318 -0.7539  0.0791 -0.3991
    5TMC2    C214394   0.961   3.197  14.352 -0.4044  0.6246 -0.1216
    5TMC2    C314395   1.085   3.249  14.371  0.4692  0.6510 -0.0655
    5TMC2    C414396   0.885   3.418  14.310 -0.2659 -0.3749 -0.3341
    5TMC2    C514397   0.993   3.466  14.382  0.6515 -0.7127  0.3036
    5TMC2    C614398   1.099   3.384  14.401  0.6338 -0.4061 -0.4787
    5TMC2     C14399   0.731   3.237  14.381 -0.2636 -0.2310 -1.0035
    5TMC2     O14400   0.692   3.130  14.342 -0.0849  0.5440  0.1007
    5TMC2     H14401   0.951   3.089  14.348 -0.2368  0.6340 -0.9600
    5TMC2    H114402   0.804   3.487  14.292 -0.1083 -0.0484  0.2026
    5TMC2    H214403   1.194   3.416  14.443 -1.4163  2.9367  1.6025
    5TMC2    C714404   0.949   3.554  14.491  0.0729  0.3321  0.4698
    5TMC2    C814405   1.178   3.148  14.415 -0.1464 -0.2620 -0.3820
    5TMC2    O114406   0.828   3.571  14.494  0.3796 -0.1298 -0.5144
    5TMC2    O214407   1.155   3.099  14.528 -0.1188 -0.1785 -0.0273
    5TMC2    O514408   1.297   3.195  14.379 -0.3082 -0.3436 -0.1116
    5TMC2    H514409   1.283   3.236  14.291  0.4991 -0.2417 -0.1967
    6MPD2     C14410   0.330   3.323  14.683  0.1957 -0.7017  0.0300
    6MPD2    C114411   0.423   3.427  14.697 -0.5057  1.1294 -0.3769
    6MPD2    C214412   0.545   3.421  14.633  0.1808 -0.7462 -0.9466
    6MPD2    C314413   0.570   3.325  14.544  0.2709  0.5975  0.1173
    6MPD2    C414414   0.479   3.227  14.522  0.8180  0.4519  0.2784
    6MPD2    C514415   0.365   3.215  14.600 -0.2780  0.3702 -0.2596
    6MPD2     H14416   0.623   3.495  14.647 -0.5427  0.1264 -1.5169
    6MPD2    H114417   0.496   3.140  14.459  0.0468  0.3731  0.1687
    6MPD2    H214418   0.240   3.322  14.742 -0.1711  0.1927 -0.5143
    6MPD2    H314419   0.297   3.131  14.592 -0.4440  0.5684 -0.8979
    6MPD2     N14420   0.689   3.331  14.471 -0.3616  0.5786 -0.1107
    6MPD2    H514421   0.747   3.412  14.491  0.6340 -0.2475  0.3094
    6MPD2    N114422   0.414   3.527  14.794 -0.5832  0.2965  0.5423
    6MPD2    H714423   0.495   3.588  14.804 -1.5501  1.2816  2.2492
  945NH3     N114424   0.895   4.318  12.196  0.2118 -0.1279 -0.1257
  945NH3     H214425   0.823   4.377  12.157 -0.2273 -0.8710 -0.4565
  945NH3     H314426   0.838   4.265  12.262 -1.2027 -0.5149 -1.6475
  945NH3     H414427   0.957   4.378  12.249  1.9944 -1.4284 -0.7482
  946SOD     NA14428   3.912   1.410  15.162  0.4033  0.1510 -0.0175
  947SOD     NA14429   3.224   3.881  14.818  0.1798  0.4461 -0.0759
  948SOD     NA14430   4.650   0.881  13.543 -0.5912  0.2564  0.0707
  949SOD     NA14431   1.629   3.561  12.383  0.3669  0.0863  0.0247
  950SOD     NA14432   0.266   2.445  10.906 -0.1157 -0.3111 -0.3989
  951SOD     NA14433   3.660   4.352   0.777 -0.1989 -0.1976 -0.0092
  952SOD     NA14434   1.395   3.111  13.203 -0.0625  0.0362  0.1359
  953SOD     NA14435   1.716   2.983  10.653 -0.2688  0.3531 -0.2427
  954SOD     NA14436   0.460   0.797   9.443  0.2134  0.0972  0.2363
  955SOD     NA14437   1.689   1.286  17.013 -0.3005 -0.1654 -0.9045
  956SOD     NA14438   1.407   1.651   0.266 -0.1650 -0.8720  0.4383
  957SOD     NA14439   0.104   3.086  10.799 -0.1874 -0.4076 -0.1804
  958SOD     NA14440   3.710   3.521  13.897  0.2400 -0.0315 -0.3905
  959SOD     NA14441   1.072   4.448  14.691  0.2701 -0.0606 -0.0781
  960SOD     NA14442   2.472   0.857  11.113 -0.1526  0.1678  0.3343
  961SOD     NA14443   3.360   2.303   2.605 -0.2256 -0.0832 -0.1299
  962SOD     NA14444   0.519   2.408   1.810  0.0031 -0.0091  0.2077
  963SOD     NA14445   3.953   3.611   1.005 -0.2121  0.1149  0.4794
  964SOD     NA14446   3.957   2.880  11.049  0.1367  0.5446  0.3556
  965SOD     NA14447   2.198   0.456  10.215  0.4002 -0.4022 -0.4203
  966SOD     NA14448   4.588   4.210  15.808  0.4770 -0.2085  0.1429
  967SOD     NA14449   1.475   4.085  12.740 -0.0833  0.3903  0.2139
  968SOD     NA14450   3.453   4.254  13.875 -0.3106  0.2691 -0.3795
  969SOD     NA14451   1.134   2.305   9.558 -0.0359  0.4608  0.3209
  970SOD     NA14452   4.627   1.214   8.801  0.0890  0.6424  0.0443
  971SOD     NA14453   3.170   2.143  12.477  0.5974  0.3673  0.3112
  972SOD     NA14454   0.334   3.862  10.818 -0.2666  0.0576  0.1045
  973SOD     NA14455   1.299   1.965   3.382 -0.1604  0.3621  0.0836
  974SOD     NA14456   1.194   3.293  12.701 -0.1078 -0.3840  0.4092
  975SOD     NA14457   4.658   3.880   9.953 -0.3840 -0.1919  0.1913
  976SOD     NA14458   3.621   4.130  12.445  0.5532  0.1620 -0.3661
  977SOD     NA14459   3.004   0.041  13.411 -0.3264 -0.0049 -0.0557
  978SOD     NA14460   3.098   2.820   0.240  0.0234  0.2058  0.5592
  979SOD     NA14461   0.629   3.295  13.362 -0.2975 -0.2267 -0.1870
  980SOD     NA14462   2.397   2.252  14.286  0.1486 -0.0169  0.0720
  981SOD     NA14463   1.505   4.358   0.226  0.5902 -0.2467 -0.0255
  982SOD     NA14464   0.052   2.533  12.716 -0.3709 -0.2043 -0.4727
  983SOD     NA14465   1.171   2.378  16.017 -0.3299  0.6248 -0.0359
  984SOD     NA14466   3.182   0.994   6.925 -0.0604  0.3045 -0.1636
  985SOD     NA14467   0.668   3.785  10.597  0.1523 -0.3075  0.4539
  986SOD     NA14468   0.168   0.549   6.649 -0.0884 -0.1143 -0.1883
  987SOD     NA14469   0.713   4.178   1.082 -0.1199 -0.0688  0.3172
  988SOD     NA14470   1.504   2.936  10.427  0.0126 -0.5286  0.1256
  989SOD     NA14471   1.154   3.518   3.869  0.1447  0.0738 -0.1345
  990SOD     NA14472   2.997   3.707   1.829 -0.0923  0.2168 -0.3988
  991SOD     NA14473   2.988   2.976   0.463  0.1225 -0.2058 -0.1340
  992SOD     NA14474   1.223   4.702  14.481 -0.2715 -0.2260 -0.2063
  993SOD     NA14475   1.550   4.086  11.325 -0.3401 -0.0671  0.2913
  994SOD     NA14476   1.058   2.281  10.799 -0.2986 -0.0435 -0.3249
  995SOD     NA14477   3.121   3.333  17.275  0.0286 -0.0778  0.4286
  996SOD     NA14478   1.708   2.626   8.865  0.3446 -0.1087 -0.6111
  997SOD     NA14479   4.137   1.101   5.595  0.0454  0.6226 -0.1133
  998SOD     NA14480   1.790   0.717   8.067 -0.2746 -0.3090 -0.0614
  999SOD     NA14481   2.521   4.164  13.378 -0.2603  0.2221  0.3451
 1000SOD     NA14482   0.943   2.127  15.184 -0.0593  0.6339  0.5586
 1001SOD     NA14483   3.594   1.957   0.745 -0.0569  0.1584  0.2241
 1002SOD     NA14484   3.461   3.552  13.069  0.0045 -0.4491  0.1128
 1003SOD     NA14485   1.235   2.243  10.520 -0.4892 -0.3245 -0.0759
 1004SOD     NA14486   1.854   2.578  12.176 -0.1503  0.5497  0.5601
 1005SOD     NA14487   2.635   3.381  14.565 -0.2207  0.5355 -0.0150
 1006SOD     NA14488   1.852   1.754  16.993 -0.1228 -0.0916  0.0351
 1007SOD     NA14489   1.972   4.454   1.507  0.2068  0.3517  0.2804
 1008SOD     NA14490   2.633   0.405  16.721 -0.2162 -0.2438  0.3022
 1009SOD     NA14491   1.820   2.267  17.597  0.6028  0.1244 -0.3831
 1010SOD     NA14492   3.446   0.800   0.338  0.4237  0.4339  0.2668
 1011SOD     NA14493   1.667   2.662   1.181 -0.5724 -0.2646  0.4030
 1012SOL     OW14494   3.817   2.296   4.460  0.0435  0.2235 -0.4257
 1012SOL    HW114495   3.906   2.292   4.427  0.8742  0.5633  1.7784
 1012SOL    HW214496   3.777   2.305   4.373  1.2865 -1.9069 -1.1941
 1013SOL     OW14497   2.792   0.153   7.504  0.6390  0.5905  0.2853
 1013SOL    HW114498   2.734   0.221   7.539 -1.9236 -1.4145 -0.0513
 1013SOL    HW214499   2.836   0.193   7.429  1.3809  1.3789  1.1386
 1014SOL     OW14500   0.595   4.432   4.883  0.3817 -0.0145 -0.3142
 1014SOL    HW114501   0.529   4.499   4.863 -2.1404 -3.1818 -2.6026
 1014SOL    HW214502   0.677   4.481   4.896  2.6118 -3.5926 -0.9814
 1015SOL     OW14503   2.805   4.145   8.048  0.2085  0.1074  0.0593
 1015SOL    HW114504   2.784   4.238   8.061  1.5299  0.1592  1.8055
 1015SOL    HW214505   2.873   4.125   8.113  0.2584 -2.5340 -0.8186
 1016SOL     OW14506   0.103   0.177  16.431  0.0235 -0.2925  0.2769
 1016SOL    HW114507   0.146   0.254  16.394  0.4420  1.4867  4.5116
 1016SOL    HW214508   0.163   0.104  16.413  1.6596  1.0407  0.3157
 1017SOL     OW14509   4.269   0.531   6.799  0.1131 -0.0822 -0.0023
 1017SOL    HW114510   4.269   0.557   6.707  4.7545 -0.9847 -0.2879
 1017SOL    HW214511   4.179   0.499   6.804  0.2969 -0.6629 -0.4873
 1018SOL     OW14512   1.717   2.148  10.196  0.0868  0.3438  0.4569
 1018SOL    HW114513   1.691   2.165  10.287  1.1592 -1.6132  1.1101
 1018SOL    HW214514   1.634   2.103  10.176 -0.3314  1.4426 -0.3243
 1019SOL     OW14515   3.782   4.376   8.079 -0.2136 -0.3414  0.2310
 1019SOL    HW114516   3.861   4.326   8.061  1.2036  1.6969  0.8004
 1019SOL    HW214517   3.786   4.388   8.174 -2.2641 -0.5248  0.3339
 1020SOL     OW14518   4.055   3.064   1.791 -0.6826  0.2271 -0.4622
 1020SOL    HW114519   4.150   3.056   1.789 -0.7871 -1.3555  0.8674
 1020SOL    HW214520   4.033   3.106   1.707  0.1286  0.7874 -0.3910
 1021SOL     OW14521   1.693   1.989   2.715 -0.1670  0.6000  0.0442
 1021SOL    HW114522   1.634   2.050   2.671  1.1246  3.4654  2.2768
 1021SOL    HW214523   1.758   1.984   2.645 -0.2049  1.9726 -0.0842
 1022SOL     OW14524   0.134   3.780   7.227  0.1505  0.3150  0.1368
 1022SOL    HW114525   0.195   3.776   7.153  1.6360  0.9407  1.3027
 1022SOL    HW214526   0.058   3.764   7.172  0.4212 -2.5278  0.6101
 1023SOL     OW14527   2.541   0.468   3.589 -0.2865 -0.5558  0.2834
 1023SOL    HW114528   2.633   0.475   3.562 -0.8531 -2.2415 -2.1458
 1023SOL    HW214529   2.502   0.489   3.504 -0.2769  0.6073  0.5686
 1024SOL     OW14530   4.334   3.271   4.871 -0.1655 -0.0429  0.1427
 1024SOL    HW114531   4.388   3.349   4.864  1.0393 -0.7517  1.6445
 1024SOL    HW214532   4.249   3.308   4.895  0.9635  2.6034  0.0104
 1025SOL     OW14533   0.572   2.255   3.722  0.2437  0.6567 -0.2344
 1025SOL    HW114534   0.636   2.183   3.718  3.3351  3.3466  1.0875
 1025SOL    HW214535   0.630   2.320   3.761  0.5879  0.7839 -0.9629
 1026SOL     OW14536   3.340   1.994  12.510 -0.2860  0.1979  0.0370
 1026SOL    HW114537   3.402   1.921  12.499 -0.8707 -0.3895  0.6337
 1026SOL    HW214538   3.401   2.062  12.537  0.7876 -0.4231 -0.8231
 1027SOL     OW14539   3.931   4.307  15.420 -0.7330 -0.0807  0.5426
 1027SOL    HW114540   3.844   4.319  15.382  0.1728  1.1707 -1.1480
 1027SOL    HW214541   3.920   4.223  15.463 -1.2423  0.8419  2.2366
 1028SOL     OW14542   2.050   0.056  14.160  0.0500 -0.3075  0.0699
 1028SOL    HW114543   2.048   0.034  14.067  0.3909 -0.1400  0.0231
 1028SOL    HW214544   2.054   4.694  14.203  1.4931 -0.9877 -1.4089
 1029SOL     OW14545   1.927   0.070   7.056 -0.8883 -0.4793  0.0635
 1029SOL    HW114546   1.865   0.120   7.110  0.5146  0.2850  0.9720
 1029SOL    HW214547   2.005   0.117   7.086  0.1415 -4.0347  2.9519
 1030SOL     OW14548   0.149   0.007  15.285  0.0159 -0.3682 -0.1604
 1030SOL    HW114549   0.186   4.696  15.367  1.9460 -1.9134 -1.6824
 1030SOL    HW214550   0.131   4.648  15.240  0.3314 -0.5380  0.0206
 1031SOL     OW14551   3.553   2.363  12.231 -0.1034 -0.4763 -0.5687
 1031SOL    HW114552   3.553   2.351  12.326 -0.3677  0.8958 -0.4030
 1031SOL    HW214553   3.580   2.276  12.202  0.8737 -0.4554  0.2865
 1032SOL     OW14554   1.713   2.944   3.666 -0.1499  0.7420 -0.4016
 1032SOL    HW114555   1.736   3.034   3.644 -0.8262  0.5577 -1.8406
 1032SOL    HW214556   1.773   2.891   3.614  0.8246 -0.2750  1.7255
 1033SOL     OW14557   0.561   2.513   2.957  0.0891 -0.7671  0.0783
 1033SOL    HW114558   0.591   2.519   3.048  0.9245 -0.7597 -0.1986
 1033SOL    HW214559   0.531   2.423   2.949 -3.1900  0.4301 -1.5436
 1034SOL     OW14560   1.654   0.775   6.965 -0.7626 -0.1004 -0.1567
 1034SOL    HW114561   1.728   0.791   6.907 -0.9606 -4.2866 -1.5925
 1034SOL    HW214562   1.649   0.679   6.961 -1.7157 -0.0189 -1.1147
 1035SOL     OW14563   0.931   1.954  10.483 -0.2322 -0.2436 -0.3985
 1035SOL    HW114564   0.851   2.004  10.501  0.7342  1.1522  0.0351
 1035SOL    HW214565   0.967   1.970  10.396  1.4274  1.0943  0.5116
 1036SOL     OW14566   1.184   1.110  15.549  0.3880 -0.8488  0.4724
 1036SOL    HW114567   1.097   1.107  15.510  1.7354  0.1613 -2.5482
 1036SOL    HW214568   1.231   1.171  15.493 -1.4385  1.3299  1.3095
 1037SOL     OW14569   3.574   3.645  13.226  0.0930  0.2998 -0.1991
 1037SOL    HW114570   3.670   3.645  13.218  0.2289  0.7282  1.5130
 1037SOL    HW214571   3.557   3.709  13.294 -3.0278 -1.6444  0.8650
 1038SOL     OW14572   2.685   0.609   1.489  0.1377  0.1239 -0.2445
 1038SOL    HW114573   2.728   0.526   1.509  1.2994  0.8716  0.3450
 1038SOL    HW214574   2.756   0.663   1.523  1.4115 -1.4711 -0.4006
 1039SOL     OW14575   4.198   4.248   6.233  0.1590 -0.2908 -0.3193
 1039SOL    HW114576   4.121   4.246   6.290  0.2454 -2.2267 -0.2402
 1039SOL    HW214577   4.180   4.172   6.176 -0.5263 -1.4563  1.4304
 1040SOL     OW14578   4.343   1.264   8.486 -0.2663 -0.1744  0.2925
 1040SOL    HW114579   4.364   1.312   8.566  1.5920 -1.4679  0.5834
 1040SOL    HW214580   4.346   1.340   8.429 -3.1118 -0.6253 -0.4485
 1041SOL     OW14581   0.365   2.606   6.578 -0.2888  0.5804  0.1410
 1041SOL    HW114582   0.440   2.553   6.606 -1.2851 -0.7105  0.3703
 1041SOL    HW214583   0.295   2.570   6.633 -1.0303  0.4673 -0.8600
 1042SOL     OW14584   2.593   0.584   8.426 -0.2295 -0.1230  0.1462
 1042SOL    HW114585   2.611   0.492   8.441  1.2537 -0.0035 -0.8562
 1042SOL    HW214586   2.682   0.615   8.410 -0.0372 -1.5271 -1.4858
 1043SOL     OW14587   4.385   0.104   8.406 -0.1479 -0.1594 -0.3024
 1043SOL    HW114588   4.428   0.101   8.491 -0.8309 -0.3040  0.0383
 1043SOL    HW214589   4.365   0.197   8.401  2.1773  0.2956 -1.0444
 1044SOL     OW14590   0.990   4.094   9.648  0.1236 -0.0491 -0.4687
 1044SOL    HW114591   1.049   4.019   9.647 -1.5795 -1.3858 -1.6622
 1044SOL    HW214592   1.013   4.132   9.732  1.6243 -1.4625 -0.2547
 1045SOL     OW14593   4.394   4.387   5.190 -0.7342  0.7009  0.6108
 1045SOL    HW114594   4.355   4.473   5.171 -2.4278 -0.0097  0.8429
 1045SOL    HW214595   4.462   4.425   5.245  0.6356  1.6990 -1.7868
 1046SOL     OW14596   3.245   2.132   9.137 -0.0034 -0.2580 -0.3026
 1046SOL    HW114597   3.325   2.129   9.189 -0.5877 -1.1914  0.5398
 1046SOL    HW214598   3.280   2.152   9.050  0.2617 -2.0866 -0.6367
 1047SOL     OW14599   0.570   1.151  15.559  0.6859  0.0013 -0.0604
 1047SOL    HW114600   0.588   1.058  15.570 -1.8104 -0.5379 -0.3711
 1047SOL    HW214601   0.483   1.155  15.600  1.0100 -0.2793  0.6452
 1048SOL     OW14602   1.445   0.713   8.233  0.3906  0.1187  0.2544
 1048SOL    HW114603   1.436   0.652   8.306  0.1274 -0.7565 -0.5032
 1048SOL    HW214604   1.365   0.689   8.185  0.3070 -2.7040  1.8394
 1049SOL     OW14605   1.882   3.506   0.891  0.0838  0.1854 -0.4141
 1049SOL    HW114606   1.912   3.425   0.849 -0.3464 -0.5086  0.5972
 1049SOL    HW214607   1.826   3.545   0.824  1.1990  2.1288 -0.2185
 1050SOL     OW14608   2.299   0.223  16.466 -0.2340  0.8690  0.4076
 1050SOL    HW114609   2.262   0.152  16.519 -2.2887 -0.2468 -2.5146
 1050SOL    HW214610   2.377   0.250  16.515  1.2067 -1.0215 -0.8370
 1051SOL     OW14611   2.081   2.140  17.466 -0.0142 -0.1066  0.0735
 1051SOL    HW114612   2.157   2.183  17.506 -0.7437  0.3742  0.9328
 1051SOL    HW214613   2.036   2.112  17.546  0.6663 -0.9612  0.1534
 1052SOL     OW14614   3.691   2.959   7.046 -0.6707 -0.4121  0.1577
 1052SOL    HW114615   3.632   2.911   7.103 -0.7665  2.1419  2.1636
 1052SOL    HW214616   3.741   3.018   7.103  2.7306 -1.3172 -1.8361
 1053SOL     OW14617   0.420   0.754   7.641  0.2759  0.1034 -0.1206
 1053SOL    HW114618   0.413   0.675   7.695 -0.2027  1.2177  1.4760
 1053SOL    HW214619   0.329   0.773   7.619  0.2159  0.0188  0.0484
 1054SOL     OW14620   1.133   3.805   7.038 -0.1800 -0.1578  0.2604
 1054SOL    HW114621   1.148   3.796   7.132  1.5684  0.4354  0.0395
 1054SOL    HW214622   1.177   3.885   7.009 -0.7293  1.0143  2.6184
 1055SOL     OW14623   4.598   1.106   8.594 -0.1926  0.1945 -0.4966
 1055SOL    HW114624   4.517   1.069   8.627 -1.3066  3.0367 -0.0100
 1055SOL    HW214625   4.569   1.157   8.517 -1.9912 -2.9934 -1.9198
 1056SOL     OW14626   1.646   4.414   4.268  0.6344  0.6805  0.1096
 1056SOL    HW114627   1.737   4.439   4.287  0.6269  2.1468 -1.7220
 1056SOL    HW214628   1.664   4.348   4.201  2.3540  1.2778 -0.0308
 1057SOL     OW14629   1.725   3.084  12.024 -0.6966  0.0613 -0.2677
 1057SOL    HW114630   1.764   3.172  12.018 -1.2466  0.2943 -0.4112
 1057SOL    HW214631   1.632   3.103  12.012 -0.6346  0.5839  0.0501
 1058SOL     OW14632   3.852   3.232   5.862 -0.2970  0.1619  0.8355
 1058SOL    HW114633   3.866   3.169   5.791 -2.4210  1.5778 -0.8049
 1058SOL    HW214634   3.777   3.284   5.833 -1.6069 -1.7163  0.8815
 1059SOL     OW14635   2.605   2.494   3.538  0.2669 -0.4227  0.0265
 1059SOL    HW114636   2.599   2.430   3.609  1.3377  0.6275  1.0602
 1059SOL    HW214637   2.691   2.529   3.561  0.5793  0.0587 -1.8776
 1060SOL     OW14638   0.199   2.631   3.837  0.1184 -0.5395 -0.1835
 1060SOL    HW114639   0.106   2.621   3.816  0.4421 -0.7437 -1.5176
 1060SOL    HW214640   0.212   2.562   3.903 -2.8932 -0.2763  0.7072
 1061SOL     OW14641   4.536   2.901  17.212  0.0882 -0.6651  0.1021
 1061SOL    HW114642   4.549   2.823  17.267 -0.8105 -1.2318 -0.5049
 1061SOL    HW214643   4.470   2.952  17.258  0.3338  0.1201 -0.4152
 1062SOL     OW14644   2.417   3.327   7.660 -0.4392  0.9456 -0.3292
 1062SOL    HW114645   2.372   3.406   7.689 -1.1974  0.0481  0.9304
 1062SOL    HW214646   2.413   3.328   7.564  0.4364 -1.3564 -0.4099
 1063SOL     OW14647   3.075   0.434   4.316  0.4404 -0.4244  0.0986
 1063SOL    HW114648   3.106   0.370   4.379  1.0104 -0.0685  0.1878
 1063SOL    HW214649   2.988   0.462   4.345  0.7136  1.2243 -0.6329
 1064SOL     OW14650   2.643   3.734   9.076 -0.4527  0.3603  0.6000
 1064SOL    HW114651   2.709   3.743   9.008  0.5443  2.7654  1.8554
 1064SOL    HW214652   2.691   3.771   9.150 -1.4297  0.9218  0.9667
 1065SOL     OW14653   4.349   0.618  17.418 -0.0116  0.1316  0.5026
 1065SOL    HW114654   4.391   0.656  17.341 -0.1482  1.7396  1.2286
 1065SOL    HW214655   4.412   0.634  17.488 -0.7293  1.1837  0.9118
 1066SOL     OW14656   3.086   3.944   4.314  0.0960  0.8719 -0.0147
 1066SOL    HW114657   3.112   3.961   4.404  1.8636  0.9643 -0.5364
 1066SOL    HW214658   3.174   3.954   4.277  0.9978 -3.2717  1.0376
 1067SOL     OW14659   0.628   3.928   1.687  0.4017 -0.4519  0.6055
 1067SOL    HW114660   0.718   3.929   1.720  0.8291 -0.2605 -0.5736
 1067SOL    HW214661   0.624   4.015   1.647  1.0468 -0.8150 -0.2360
 1068SOL     OW14662   1.447   0.054   9.385 -0.2031  0.2060 -0.2501
 1068SOL    HW114663   1.470   0.080   9.474  0.7768 -0.1936 -0.3911
 1068SOL    HW214664   1.399   0.134   9.360  1.0852  0.4913 -1.7869
 1069SOL     OW14665   3.874   0.347   5.446 -0.0276  0.2224 -0.6434
 1069SOL    HW114666   3.802   0.290   5.471  0.5632  0.5726  1.8675
 1069SOL    HW214667   3.944   0.296   5.405 -0.2252 -1.5460  1.2339
 1070SOL     OW14668   4.586   2.403   1.759 -0.6871 -0.5555 -0.2012
 1070SOL    HW114669   4.614   2.314   1.739 -1.0064 -0.3291 -1.6641
 1070SOL    HW214670   4.550   2.424   1.673  0.3645  2.8993  0.2243
 1071SOL     OW14671   2.294   3.600   5.398 -0.2325  0.7843 -0.5730
 1071SOL    HW114672   2.263   3.524   5.348 -1.1739  0.5622  0.3451
 1071SOL    HW214673   2.348   3.653   5.340 -0.9147 -0.8024 -2.6379
 1072SOL     OW14674   4.345   1.933   3.790 -0.4231 -0.5953  0.1102
 1072SOL    HW114675   4.381   1.931   3.702  0.9086  2.6452  0.5912
 1072SOL    HW214676   4.390   1.857   3.827 -0.4674 -1.3124 -1.3072
 1073SOL     OW14677   2.086   0.124   1.538  0.4269 -0.6362 -0.1600
 1073SOL    HW114678   2.018   0.155   1.478 -0.6679 -0.2799  1.2623
 1073SOL    HW214679   2.159   0.182   1.519 -2.1206  2.2798 -1.1320
 1074SOL     OW14680   3.652   2.645   3.074 -0.0112  0.4891 -0.0767
 1074SOL    HW114681   3.732   2.593   3.078 -0.4492 -0.3377 -1.8570
 1074SOL    HW214682   3.658   2.710   3.144 -1.2156 -0.9050  1.2882
 1075SOL     OW14683   1.418   0.692   2.700 -0.4337 -0.4216 -0.6171
 1075SOL    HW114684   1.345   0.710   2.760 -1.4441 -0.4194 -1.8537
 1075SOL    HW214685   1.427   0.779   2.662  1.1737  0.1104  0.9453
 1076SOL     OW14686   1.314   0.654   5.024  0.6554 -0.2452  0.6126
 1076SOL    HW114687   1.392   0.709   5.023 -0.8118  1.7837 -2.3887
 1076SOL    HW214688   1.342   0.568   4.992 -0.3877 -0.2815 -0.2041
 1077SOL     OW14689   3.566   0.682  17.560 -0.5986  0.2950  0.2592
 1077SOL    HW114690   3.533   0.670  17.471  4.5457  1.9251 -1.9111
 1077SOL    HW214691   3.594   0.774  17.562  2.2255 -0.5813  1.6728
 1078SOL     OW14692   1.099   2.672   2.480  0.2745 -0.4368  0.3201
 1078SOL    HW114693   1.192   2.685   2.495  0.2889  0.6431 -0.7271
 1078SOL    HW214694   1.082   2.588   2.523 -0.2729 -0.6655 -0.3356
 1079SOL     OW14695   1.451   3.105  14.835  0.1482  0.4706 -0.5445
 1079SOL    HW114696   1.362   3.076  14.854  0.9831 -0.5922  1.7536
 1079SOL    HW214697   1.461   3.097  14.740 -0.7310 -1.1234 -0.4959
 1080SOL     OW14698   4.331   4.348  13.815 -0.6568  0.3711  0.1636
 1080SOL    HW114699   4.391   4.286  13.858  1.6467  2.8452  0.5253
 1080SOL    HW214700   4.290   4.384  13.894  1.0244  1.9797  0.3163
 1081SOL     OW14701   3.532   0.877   0.537  0.2998 -0.2163 -0.8028
 1081SOL    HW114702   3.542   0.929   0.616 -1.3144  0.9219 -1.3484
 1081SOL    HW214703   3.600   0.814   0.562  1.3236  1.1749 -0.1426
 1082SOL     OW14704   1.897   2.304   9.596  0.1507  0.0735  0.2953
 1082SOL    HW114705   1.909   2.316   9.502 -0.3323 -1.8521 -0.0135
 1082SOL    HW214706   1.958   2.231   9.607  0.0744 -0.1822 -1.0136
 1083SOL     OW14707   1.349   2.393   3.645 -0.2649 -0.4069  0.3119
 1083SOL    HW114708   1.358   2.456   3.716 -0.4950 -2.2377  1.9597
 1083SOL    HW214709   1.264   2.350   3.656 -0.7223 -0.2166 -2.4457
 1084SOL     OW14710   4.706   1.309   1.088 -0.0715  0.0974  0.0505
 1084SOL    HW114711   4.641   1.240   1.105 -1.8237  1.4082 -1.4046
 1084SOL    HW214712   4.686   1.334   0.998 -0.0110  1.0279  0.3028
 1085SOL     OW14713   2.840   2.431   4.923  0.7812 -0.2320  0.6176
 1085SOL    HW114714   2.816   2.419   4.831 -0.4864 -0.0064  0.9271
 1085SOL    HW214715   2.903   2.502   4.916 -1.2441  1.5505  0.7098
 1086SOL     OW14716   3.123   3.555  16.393  0.3733 -0.0667  0.1454
 1086SOL    HW114717   3.210   3.550  16.354 -0.6775 -2.2099 -1.9151
 1086SOL    HW214718   3.121   3.482  16.454  0.4510  1.8406  2.4247
 1087SOL     OW14719   4.111   1.499   2.005  0.0546 -0.1554 -0.0446
 1087SOL    HW114720   4.132   1.525   1.916  0.4205  0.7962  0.3160
 1087SOL    HW214721   4.076   1.413   1.982 -0.3206  0.4693 -1.7654
 1088SOL     OW14722   0.725   2.371   0.243 -0.6729  0.2970  0.9484
 1088SOL    HW114723   0.655   2.386   0.307  2.1124  3.0704  3.3247
 1088SOL    HW214724   0.684   2.383   0.157 -1.3605 -0.7049  1.1312
 1089SOL     OW14725   3.830   0.007   4.790  0.0686  0.0780 -0.3671
 1089SOL    HW114726   3.895   4.661   4.804 -0.3990 -0.6644 -1.8807
 1089SOL    HW214727   3.788   0.020   4.875  0.5159  0.1997 -0.1643
 1090SOL     OW14728   0.633   4.195   8.618  0.3065  0.1705  0.2502
 1090SOL    HW114729   0.704   4.155   8.668  0.4492  0.2782  0.1334
 1090SOL    HW214730   0.651   4.286   8.642  0.6053 -0.1617  1.2857
 1091SOL     OW14731   0.244   1.880   6.521  0.0102 -0.2726 -0.5982
 1091SOL    HW114732   0.246   1.847   6.431 -1.7164 -0.9274 -0.3903
 1091SOL    HW214733   0.208   1.803   6.565  2.8763 -0.1769  1.9184
 1092SOL     OW14734   1.396   3.516   1.909  0.7453  0.6474 -0.1762
 1092SOL    HW114735   1.353   3.440   1.949 -1.3920  1.0780 -1.6722
 1092SOL    HW214736   1.325   3.580   1.896 -0.1050 -0.2281  0.1353
 1093SOL     OW14737   4.443   2.046   1.931  0.0347  0.8310 -0.4197
 1093SOL    HW114738   4.530   2.024   1.963  0.0694  1.2022 -0.2667
 1093SOL    HW214739   4.463   2.119   1.873 -0.0779  1.9746  0.9881
 1094SOL     OW14740   0.799   3.465  10.980 -0.2277 -0.0657 -0.2165
 1094SOL    HW114741   0.728   3.455  10.916 -0.1599 -1.8476  0.0086
 1094SOL    HW214742   0.865   3.418  10.930  0.9099  2.7181 -1.3599
 1095SOL     OW14743   2.323   0.334   4.430  0.2086  0.5326 -0.0541
 1095SOL    HW114744   2.338   0.382   4.348 -1.7398  1.1037 -0.0624
 1095SOL    HW214745   2.352   0.246   4.408  1.0015  0.8327 -0.2444
 1096SOL     OW14746   1.131   0.306   1.942  0.5476 -0.5291  0.7639
 1096SOL    HW114747   1.089   0.365   2.004 -1.0594 -0.7050 -0.1659
 1096SOL    HW214748   1.081   0.226   1.956  1.7367 -1.5013 -0.4873
 1097SOL     OW14749   2.209   0.795  13.566 -0.0541  0.0797  0.3743
 1097SOL    HW114750   2.249   0.801  13.479  2.6457  0.1370  1.6269
 1097SOL    HW214751   2.258   0.728  13.614  1.9156  1.8280  0.8032
 1098SOL     OW14752   3.754   4.374   5.268 -0.0181  0.3604 -0.4499
 1098SOL    HW114753   3.677   4.390   5.214 -0.8993  1.7912  1.2206
 1098SOL    HW214754   3.750   4.282   5.295  0.8317  0.2726 -0.6409
 1099SOL     OW14755   4.002   3.465   1.636 -0.0770 -0.2833  0.0923
 1099SOL    HW114756   4.097   3.463   1.629 -0.0192  0.4291  0.6395
 1099SOL    HW214757   3.993   3.455   1.731  0.6636  4.7069  0.6738
 1100SOL     OW14758   3.881   3.135   4.062 -0.1945 -0.0763 -0.2088
 1100SOL    HW114759   3.860   3.055   4.110  0.1115  0.0432  0.1310
 1100SOL    HW214760   3.801   3.160   4.016 -0.8282  0.9383  1.4568
 1101SOL     OW14761   2.942   4.491   5.170 -0.6331 -0.3999 -0.3787
 1101SOL    HW114762   2.855   4.490   5.130 -1.4427  0.6168  1.3313
 1101SOL    HW214763   2.996   4.458   5.099  0.5740  2.6858 -0.8651
 1102SOL     OW14764   2.010   3.773  14.821 -0.1184 -0.4050  0.1790
 1102SOL    HW114765   2.031   3.844  14.882  1.0663 -0.7537  0.1752
 1102SOL    HW214766   1.972   3.823  14.749 -0.2039  0.7108  0.9992
 1103SOL     OW14767   0.731   2.505   7.782  0.4360 -0.1498 -0.4727
 1103SOL    HW114768   0.816   2.480   7.819 -0.5854 -0.7494  1.4918
 1103SOL    HW214769   0.748   2.577   7.722  0.8966  1.0725  1.0940
 1104SOL     OW14770   3.341   0.705   9.089 -0.4771  0.4039  0.5251
 1104SOL    HW114771   3.275   0.645   9.124 -0.6116 -0.0216 -0.4554
 1104SOL    HW214772   3.417   0.646   9.091  1.2814  2.6096 -2.0156
 1105SOL     OW14773   4.621   0.344  16.224 -0.0747  0.7844  0.3581
 1105SOL    HW114774   4.693   0.328  16.285  0.4037  1.7682  0.0607
 1105SOL    HW214775   4.535   0.337  16.265  0.1341  1.3879  0.9061
 1106SOL     OW14776   3.202   2.975   2.304  0.0430 -0.6131  0.1259
 1106SOL    HW114777   3.253   3.054   2.323  0.6787 -1.0793  0.3540
 1106SOL    HW214778   3.202   2.940   2.393  0.4819  3.4968  1.7794
 1107SOL     OW14779   2.360   1.292   2.458 -0.1913  0.1185  0.6492
 1107SOL    HW114780   2.314   1.271   2.540 -1.3390 -0.9712 -0.2789
 1107SOL    HW214781   2.335   1.219   2.402 -1.3186 -0.7421  2.2835
 1108SOL     OW14782   2.325   4.395   4.207 -0.1221 -0.1239 -0.0773
 1108SOL    HW114783   2.266   4.370   4.136 -2.6623 -0.6416  2.2111
 1108SOL    HW214784   2.349   4.484   4.180 -0.4825 -0.2492 -0.8075
 1109SOL     OW14785   3.233   1.075   4.228 -0.2325  0.0524 -0.4263
 1109SOL    HW114786   3.285   1.014   4.281 -2.0881 -3.0306 -2.1137
 1109SOL    HW214787   3.292   1.105   4.159 -0.5113  1.5295 -0.0174
 1110SOL     OW14788   1.908   4.501   4.740  0.1084  0.1137  0.3011
 1110SOL    HW114789   1.878   4.418   4.702 -0.8383  0.5126  0.1625
 1110SOL    HW214790   1.965   4.525   4.668  0.0183 -1.3848 -0.2717
 1111SOL     OW14791   1.450   2.618  10.939 -0.1633  0.5239 -0.3894
 1111SOL    HW114792   1.395   2.614  11.018  0.3926 -0.7812 -0.0613
 1111SOL    HW214793   1.390   2.572  10.880  0.6198 -2.4089  1.0720
 1112SOL     OW14794   0.435   0.325   8.009  0.4463  0.2455 -0.6355
 1112SOL    HW114795   0.340   0.331   8.019  0.4256  0.0603 -0.7358
 1112SOL    HW214796   0.466   0.338   8.099 -0.0910  0.5420 -0.4888
 1113SOL     OW14797   4.590   3.404   9.269 -0.7277  0.2685 -0.3560
 1113SOL    HW114798   4.511   3.372   9.224  0.6660 -0.6648 -2.1294
 1113SOL    HW214799   4.539   3.443   9.339 -0.1029  0.4173  0.0147
 1114SOL     OW14800   0.033   0.955   2.962  0.0589 -0.2134  0.9038
 1114SOL    HW114801   4.674   1.000   2.980  0.0342 -0.2435  0.8655
 1114SOL    HW214802   0.090   1.028   2.936 -0.1949 -0.4418 -0.2875
 1115SOL     OW14803   0.787   3.514  11.259  0.0491 -0.0016  0.3762
 1115SOL    HW114804   0.879   3.488  11.257 -0.3144 -1.1446 -0.8216
 1115SOL    HW214805   0.769   3.496  11.167 -0.0127 -0.3316  0.4536
 1116SOL     OW14806   1.996   3.528   8.192 -0.5284 -0.0892  0.5479
 1116SOL    HW114807   2.071   3.543   8.249  0.2601 -0.1627 -0.4751
 1116SOL    HW214808   1.979   3.436   8.212  2.4556 -0.6366  0.5323
 1117SOL     OW14809   3.876   3.855   3.954  0.5826  0.2686 -0.3375
 1117SOL    HW114810   3.894   3.777   4.007  0.7337 -1.4674 -2.9137
 1117SOL    HW214811   3.817   3.899   4.014 -0.6080 -1.7783 -0.0096
 1118SOL     OW14812   0.996   0.644   6.292  0.4405  0.1636 -0.3963
 1118SOL    HW114813   0.982   0.675   6.382 -0.1165  0.9349 -0.7423
 1118SOL    HW214814   0.989   0.732   6.255  1.2029 -0.0123 -0.9588
 1119SOL     OW14815   3.718   2.911   5.290  0.0790  0.1297 -0.1684
 1119SOL    HW114816   3.662   2.884   5.217  0.4605 -0.9044 -0.0832
 1119SOL    HW214817   3.651   2.963   5.334 -0.0286 -0.2606  0.1285
 1120SOL     OW14818   2.740   1.397   4.023 -0.4966  0.2865  0.2303
 1120SOL    HW114819   2.703   1.422   3.938  1.1469  0.7245 -0.3560
 1120SOL    HW214820   2.725   1.302   4.029  2.6028 -0.3378 -1.9037
 1121SOL     OW14821   2.315   3.141   6.348  0.3357 -0.1870 -0.3507
 1121SOL    HW114822   2.368   3.187   6.413 -0.9803  0.8498 -0.0074
 1121SOL    HW214823   2.241   3.112   6.402  2.3765 -0.1423  2.5092
 1122SOL     OW14824   4.332   1.750   9.370  0.2068  0.1655 -0.1640
 1122SOL    HW114825   4.311   1.662   9.401 -1.6815  1.1016  1.2034
 1122SOL    HW214826   4.333   1.737   9.275  1.6573  1.7984 -0.3694
 1123SOL     OW14827   1.439   3.603  16.497  0.0075  0.3641 -0.3286
 1123SOL    HW114828   1.352   3.565  16.484  0.0655  0.4117 -0.8502
 1123SOL    HW214829   1.481   3.552  16.429 -0.5610 -1.5133  0.7437
 1124SOL     OW14830   4.101   1.030   4.047  0.2852  0.0330 -0.3367
 1124SOL    HW114831   4.190   1.066   4.057  0.6098 -1.0844  0.7834
 1124SOL    HW214832   4.062   1.048   4.132  0.2373  0.2674 -0.4093
 1125SOL     OW14833   3.048   3.686   3.449 -0.3994  0.3067  0.6302
 1125SOL    HW114834   3.089   3.616   3.398  1.0643  1.6431 -0.0313
 1125SOL    HW214835   3.013   3.740   3.378 -3.0588 -1.5301  0.5627
 1126SOL     OW14836   1.855   3.648   5.969  0.7115  0.4793  0.0915
 1126SOL    HW114837   1.818   3.640   6.056 -3.5928  0.8491 -1.7165
 1126SOL    HW214838   1.921   3.718   5.978 -1.5077  2.8142 -1.6873
 1127SOL     OW14839   1.976   0.854  16.878  0.4314 -0.3285 -0.5246
 1127SOL    HW114840   1.984   0.918  16.949  1.1264 -0.7425 -0.2295
 1127SOL    HW214841   2.023   0.897  16.807  1.6343 -1.8469 -0.6338
 1128SOL     OW14842   3.047   3.736   2.062  0.3225  0.0428 -0.1045
 1128SOL    HW114843   3.033   3.717   2.155  0.2427  2.2298  0.3187
 1128SOL    HW214844   3.109   3.808   2.077 -2.2857  2.4940 -1.1568
 1129SOL     OW14845   0.878   0.437   4.068 -0.6012 -0.2472 -0.3710
 1129SOL    HW114846   0.956   0.490   4.083  1.3705 -3.7398  1.8915
 1129SOL    HW214847   0.903   0.351   4.103  2.4063  0.7175 -0.1034
 1130SOL     OW14848   0.206   3.691   8.944 -0.1159 -0.7483  0.2791
 1130SOL    HW114849   0.271   3.714   8.877 -1.5071  2.7631  0.0995
 1130SOL    HW214850   0.240   3.738   9.020  1.9997  0.3469 -1.3542
 1131SOL     OW14851   0.562   2.596   3.779 -0.0560  0.1111  0.2107
 1131SOL    HW114852   0.505   2.624   3.850  1.4826 -0.4414  1.6626
 1131SOL    HW214853   0.623   2.538   3.826  1.1689  1.7073  0.5846
 1132SOL     OW14854   1.241   1.855   6.415  0.4407 -0.1573 -0.3479
 1132SOL    HW114855   1.270   1.834   6.326  2.1975 -3.0785  0.8872
 1132SOL    HW214856   1.322   1.829   6.458  0.6293  0.5798 -0.2585
 1133SOL     OW14857   1.566   3.235   1.510 -0.4963  0.0264  0.4458
 1133SOL    HW114858   1.653   3.273   1.522 -0.3486  0.0488 -0.6487
 1133SOL    HW214859   1.512   3.267   1.582  0.2605 -0.4680  1.2366
 1134SOL     OW14860   4.576   4.645  12.460  0.3531 -0.6272  0.0088
 1134SOL    HW114861   4.635   4.591  12.514 -2.2872 -0.3217  3.2030
 1134SOL    HW214862   4.608   4.638  12.370  0.2922 -0.8019 -0.0003
 1135SOL     OW14863   1.438   3.388   6.966 -0.4764  0.5844  0.0780
 1135SOL    HW114864   1.480   3.361   7.047  2.4797 -0.9584 -1.9718
 1135SOL    HW214865   1.487   3.469   6.954 -0.3828  0.5962  0.5323
 1136SOL     OW14866   1.223   1.265   7.101  0.2758  0.1617 -0.0596
 1136SOL    HW114867   1.246   1.206   7.172 -0.7544  0.2221  0.3290
 1136SOL    HW214868   1.251   1.346   7.143  2.4685 -1.2311  1.1163
 1137SOL     OW14869   3.257   4.146   0.718 -0.0500 -0.1094 -0.2405
 1137SOL    HW114870   3.170   4.165   0.685 -1.1030 -2.7412  1.0911
 1137SOL    HW214871   3.288   4.070   0.669  0.2319 -0.0918 -0.0935
 1138SOL     OW14872   2.990   0.909   6.037  0.3345  0.6160  0.4016
 1138SOL    HW114873   3.060   0.861   6.082  1.0511 -0.8437 -2.2379
 1138SOL    HW214874   2.905   0.865   6.038  1.8206 -2.2653  1.5253
 1139SOL     OW14875   3.624   1.649   4.794  0.1776  0.5625 -0.0443
 1139SOL    HW114876   3.677   1.708   4.740  0.8645 -1.3160 -1.4132
 1139SOL    HW214877   3.533   1.677   4.789  0.0696  0.0422 -0.9814
 1140SOL     OW14878   0.572   2.974   7.771 -0.4464  0.5905  0.2176
 1140SOL    HW114879   0.592   2.940   7.858 -3.0037 -0.9974  0.1900
 1140SOL    HW214880   0.644   3.037   7.770 -0.7698  0.9463 -1.9583
 1141SOL     OW14881   3.926   2.132   5.581 -0.5841  0.0234  0.2112
 1141SOL    HW114882   3.916   2.101   5.671 -0.1239 -1.4104 -0.2379
 1141SOL    HW214883   3.882   2.056   5.544  0.6237 -0.0532 -1.0768
 1142SOL     OW14884   0.535   0.114   7.549  0.0167 -0.4650  0.6040
 1142SOL    HW114885   0.583   0.197   7.555 -1.0966  0.1577  0.8688
 1142SOL    HW214886   0.510   0.111   7.642 -0.6401  0.9510  0.4702
 1143SOL     OW14887   2.062   2.421  14.928 -0.0233  0.5526 -0.0715
 1143SOL    HW114888   2.091   2.512  14.922 -0.8758  0.9707  1.9431
 1143SOL    HW214889   2.005   2.428  15.005 -0.8097  0.7097 -0.6664
 1144SOL     OW14890   1.630   4.412   5.615  0.4102 -0.1464  0.2757
 1144SOL    HW114891   1.578   4.375   5.687  0.9990  1.5037  1.5450
 1144SOL    HW214892   1.562   4.446   5.556  0.3468  1.7509  1.4570
 1145SOL     OW14893   3.215   1.911   7.543 -0.2115 -0.2972 -0.0480
 1145SOL    HW114894   3.170   1.973   7.486 -0.7515  0.2918  1.0351
 1145SOL    HW214895   3.305   1.935   7.519 -1.1122  2.4481 -0.6736
 1146SOL     OW14896   1.910   2.588   1.761  0.6018 -0.2998  0.5300
 1146SOL    HW114897   1.873   2.624   1.681  2.4331 -1.6138 -0.9184
 1146SOL    HW214898   1.964   2.662   1.788 -0.2467  0.3760  0.3711
 1147SOL     OW14899   1.297   2.930   6.225 -0.5059  0.0067 -0.2412
 1147SOL    HW114900   1.221   2.889   6.182 -0.4291 -1.0799  0.6498
 1147SOL    HW214901   1.308   2.891   6.312  2.3466 -0.5825 -0.8440
 1148SOL     OW14902   0.890   2.107   1.797  0.2861 -0.0653 -0.3911
 1148SOL    HW114903   0.916   2.034   1.741  0.2639  0.2256 -0.7797
 1148SOL    HW214904   0.926   2.080   1.881 -1.7638 -0.3752  0.3958
 1149SOL     OW14905   3.522   0.504   9.074 -0.7840 -0.0167  0.4394
 1149SOL    HW114906   3.524   0.500   8.978 -0.2839  1.9289  0.3640
 1149SOL    HW214907   3.601   0.452   9.092 -0.6686 -0.4513 -1.2738
 1150SOL     OW14908   4.590   1.739   2.629 -0.6994 -0.5678 -0.0046
 1150SOL    HW114909   4.606   1.810   2.566 -0.9708 -0.9930 -0.5502
 1150SOL    HW214910   4.525   1.782   2.686  0.3678  1.2081 -0.1219
 1151SOL     OW14911   2.625   4.697   7.002 -0.7168  0.0797 -0.1018
 1151SOL    HW114912   2.669   4.624   6.959  2.0773  1.3284  0.6256
 1151SOL    HW214913   2.551   4.697   6.943  0.7511 -0.1698 -1.9325
 1152SOL     OW14914   0.746   1.943   3.836  0.4185  0.7109  0.4797
 1152SOL    HW114915   0.754   1.974   3.746  0.3054  0.9438  0.5503
 1152SOL    HW214916   0.796   2.004   3.889  1.1986 -0.1375  0.7225
 1153SOL     OW14917   3.714   1.908   7.290  0.2961  0.0150  0.1596
 1153SOL    HW114918   3.780   1.968   7.326  1.7835 -1.5788  0.0664
 1153SOL    HW214919   3.746   1.894   7.201 -1.2177  1.0873 -0.5614
 1154SOL     OW14920   1.294   2.183   6.453  0.2817  0.7517  0.3845
 1154SOL    HW114921   1.257   2.095   6.443 -0.5554  1.0155  1.1316
 1154SOL    HW214922   1.364   2.183   6.388 -0.3033  1.2330 -0.2421
 1155SOL     OW14923   3.698   2.728  16.338 -0.1207  0.6245 -0.3684
 1155SOL    HW114924   3.635   2.753  16.271  1.2922 -1.4558 -2.4742
 1155SOL    HW214925   3.689   2.798  16.403  0.4917 -0.5906  1.0183
 1156SOL     OW14926   1.349   2.633  16.543  0.6403  0.3833 -0.4367
 1156SOL    HW114927   1.363   2.728  16.541  1.2752  0.3018  0.1557
 1156SOL    HW214928   1.342   2.620  16.637  0.9720 -1.7551 -0.7098
 1157SOL     OW14929   1.908   1.534   3.355  0.0713 -0.1298 -0.0283
 1157SOL    HW114930   1.943   1.448   3.381  2.0532  0.5686 -0.3800
 1157SOL    HW214931   1.859   1.501   3.279 -0.2706  1.9441 -0.6914
 1158SOL     OW14932   1.179   0.335   8.276 -0.5266  0.3471 -0.3332
 1158SOL    HW114933   1.089   0.361   8.259 -0.9274 -1.2043 -0.5915
 1158SOL    HW214934   1.198   0.274   8.204 -0.9564 -1.2999  0.9725
 1159SOL     OW14935   1.935   1.997   8.712  0.2182  0.1093 -0.1439
 1159SOL    HW114936   1.971   1.909   8.705 -0.8617 -0.1016 -3.1198
 1159SOL    HW214937   1.848   1.961   8.728  0.1787 -0.3486 -1.3838
 1160SOL     OW14938   0.211   0.053   3.760  0.2692  0.2537 -0.2453
 1160SOL    HW114939   0.127   0.010   3.776  0.3009 -0.5053 -2.0551
 1160SOL    HW214940   0.217   0.114   3.833 -0.2457 -1.3138  1.1089
 1161SOL     OW14941   4.288   3.011  14.697  0.1595 -0.2138 -0.3214
 1161SOL    HW114942   4.208   3.019  14.645  0.8050 -0.4115 -1.3449
 1161SOL    HW214943   4.272   3.069  14.772  1.0603  2.0055 -1.8575
 1162SOL     OW14944   1.901   3.979   4.905  0.6685  0.3105  0.4961
 1162SOL    HW114945   1.944   3.937   4.831  2.8108  1.8805  0.8615
 1162SOL    HW214946   1.969   3.963   4.970 -0.7057  1.2794  2.1778
 1163SOL     OW14947   4.702   1.443  15.116  0.1754  0.1449 -0.0279
 1163SOL    HW114948   4.717   1.534  15.092  0.0414  0.8589  2.5955
 1163SOL    HW214949   0.041   1.441  15.189  0.8543  0.8899 -0.5913
 1164SOL     OW14950   2.643   0.121   4.596  0.4594 -0.1694 -0.1240
 1164SOL    HW114951   2.671   0.212   4.593 -1.6026  0.4293 -1.1509
 1164SOL    HW214952   2.642   0.107   4.691  0.9625 -1.2966 -0.2873
 1165SOL     OW14953   1.420   2.405  12.056  0.5324  0.0565  0.7978
 1165SOL    HW114954   1.360   2.350  12.107 -1.1578  0.4902 -0.7123
 1165SOL    HW214955   1.370   2.487  12.058 -1.0616 -0.8811 -0.8370
 1166SOL     OW14956   0.053   0.154   8.605 -0.0255  0.0436  0.7310
 1166SOL    HW114957   0.031   0.124   8.693 -1.1891 -2.8042 -0.5553
 1166SOL    HW214958   0.132   0.204   8.624 -0.3060  0.3636  1.0566
 1167SOL     OW14959   3.443   1.947   8.587  0.0902 -0.4012  0.2911
 1167SOL    HW114960   3.388   1.880   8.547 -0.0345 -1.6374  2.5335
 1167SOL    HW214961   3.519   1.940   8.528 -1.2456 -0.1169 -1.4634
 1168SOL     OW14962   1.394   2.760   3.196 -0.2468  0.0292  0.3096
 1168SOL    HW114963   1.475   2.710   3.205  0.8037  1.4172 -1.2181
 1168SOL    HW214964   1.392   2.782   3.103 -0.3350 -0.7504  0.1352
 1169SOL     OW14965   3.119   0.513   1.911  0.7403  0.4374 -0.0910
 1169SOL    HW114966   3.131   0.441   1.849 -1.1747 -0.1861  0.2845
 1169SOL    HW214967   3.143   0.599   1.875 -0.4736  0.6898 -0.2824
 1170SOL     OW14968   0.007   4.276  13.831 -0.1419 -0.2996  0.0477
 1170SOL    HW114969   0.080   4.243  13.779 -0.7343 -2.1527  0.3616
 1170SOL    HW214970   4.659   4.246  13.775  1.1533  0.4239 -1.9673
 1171SOL     OW14971   1.679   0.375   2.990  0.2591  0.1644  0.7127
 1171SOL    HW114972   1.673   0.302   2.929 -0.0633  0.7178  0.0781
 1171SOL    HW214973   1.630   0.334   3.061 -1.1757  1.0037  0.2185
 1172SOL     OW14974   3.525   3.798   5.641  0.0980  0.4404  0.1781
 1172SOL    HW114975   3.496   3.753   5.562 -1.4531  0.8136  0.5296
 1172SOL    HW214976   3.443   3.836   5.672 -0.7097 -0.5846 -0.7278
 1173SOL     OW14977   0.421   1.902   2.789 -0.4615 -0.6873  0.1830
 1173SOL    HW114978   0.332   1.938   2.788  0.3108  1.1314 -2.7898
 1173SOL    HW214979   0.419   1.835   2.858 -0.4161  1.1428  1.9557
 1174SOL     OW14980   3.596   0.388   4.755  0.3266  0.0693  0.3123
 1174SOL    HW114981   3.661   0.451   4.724 -0.7042  1.3317  0.7300
 1174SOL    HW214982   3.598   0.401   4.850 -1.3587 -0.1940  0.3834
 1175SOL     OW14983   0.514   1.449   1.850 -0.0938  0.1378 -0.3709
 1175SOL    HW114984   0.465   1.482   1.775 -1.9508 -1.7907 -0.0191
 1175SOL    HW214985   0.510   1.516   1.919 -3.9285  1.0848 -1.4613
 1176SOL     OW14986   3.512   4.009   8.643  0.4622 -0.0465 -0.5090
 1176SOL    HW114987   3.462   4.050   8.713 -1.5579 -0.4120 -1.7318
 1176SOL    HW214988   3.477   4.063   8.571  0.9233 -0.8756 -1.3572
 1177SOL     OW14989   2.358   1.557  14.473 -0.5225  0.1971 -0.0694
 1177SOL    HW114990   2.440   1.590  14.435 -0.1578  0.2607  0.7520
 1177SOL    HW214991   2.358   1.469  14.434 -0.1663  0.7535 -1.3053
 1178SOL     OW14992   3.105   4.227   3.207 -0.1197 -0.4543  0.6364
 1178SOL    HW114993   3.138   4.304   3.253 -1.2289  0.8983 -0.8503
 1178SOL    HW214994   3.170   4.215   3.138  0.5866 -3.6010  1.8230
 1179SOL     OW14995   4.297   2.856   2.508  0.2998 -0.3607  0.3111
 1179SOL    HW114996   4.252   2.772   2.496 -1.7074  1.0032 -1.4532
 1179SOL    HW214997   4.301   2.867   2.603 -0.1948  1.5323  0.0943
 1180SOL     OW14998   3.682   4.317  10.230 -0.2750  0.5580 -0.4868
 1180SOL    HW114999   3.697   4.367  10.310  0.8321  1.5468 -1.3134
 1180SOL    HW215000   3.665   4.232  10.270  2.0157  0.1773 -0.3506
 1181SOL     OW15001   4.265   1.219   4.633 -0.2999 -0.5494  0.0076
 1181SOL    HW115002   4.300   1.143   4.588 -1.5334 -0.7795 -0.5821
 1181SOL    HW215003   4.284   1.290   4.571 -0.4967 -0.5153 -0.0155
 1182SOL     OW15004   0.441   2.681   3.546 -0.2318  0.8874 -0.2670
 1182SOL    HW115005   0.491   2.668   3.626  1.9785 -0.8264 -1.9306
 1182SOL    HW215006   0.495   2.623   3.493 -0.3367  0.5252  0.0225
 1183SOL     OW15007   4.090   0.176   2.768 -0.7399 -0.4537  0.6596
 1183SOL    HW115008   4.106   0.246   2.704  0.1848  0.8948  2.3798
 1183SOL    HW215009   4.096   0.099   2.712 -0.5154  0.3791 -0.4717
 1184SOL     OW15010   0.546   1.225   3.416 -0.5408 -0.2341 -0.3305
 1184SOL    HW115011   0.543   1.144   3.467  1.2173  1.2288  2.0297
 1184SOL    HW215012   0.549   1.187   3.328 -1.6590  0.0822 -0.5153
 1185SOL     OW15013   0.392   4.154  14.307  0.0414  0.4148 -0.6443
 1185SOL    HW115014   0.486   4.132  14.308 -0.3023 -1.0684 -0.7334
 1185SOL    HW215015   0.371   4.200  14.388  1.7659 -2.6856  1.5861
 1186SOL     OW15016   1.283   0.146   3.560 -0.2100 -0.3234  0.2220
 1186SOL    HW115017   1.304   0.053   3.571  0.0205 -0.2885  0.0827
 1186SOL    HW215018   1.189   0.146   3.577 -0.0369  1.3303  1.2134
 1187SOL     OW15019   4.642   2.876   8.962  0.3639  0.1054  0.2839
 1187SOL    HW115020   4.638   2.832   8.877  1.0639  1.6105 -0.5380
 1187SOL    HW215021   4.603   2.963   8.950  1.9626  1.4616  4.7411
 1188SOL     OW15022   0.942   2.996  12.389  0.4362 -0.2210 -0.7710
 1188SOL    HW115023   0.867   2.953  12.348 -1.8658  2.5488  0.5376
 1188SOL    HW215024   0.973   2.922  12.442  2.6482  0.5434 -0.9901
 1189SOL     OW15025   4.006   2.374   5.694  0.0868 -0.0517 -0.5850
 1189SOL    HW115026   3.985   2.304   5.632  1.0360 -1.2578  0.4603
 1189SOL    HW215027   3.919   2.390   5.728  0.3108  0.9526 -0.4903
 1190SOL     OW15028   4.360   1.066   5.222  0.8394 -0.1580 -0.1474
 1190SOL    HW115029   4.401   0.995   5.271 -0.6221 -0.1798  1.0346
 1190SOL    HW215030   4.316   1.008   5.160 -0.0645 -1.8260  2.0403
 1191SOL     OW15031   2.868   1.764   1.462  0.3472 -0.0446  0.8953
 1191SOL    HW115032   2.940   1.818   1.427  0.9665 -1.0756  0.5894
 1191SOL    HW215033   2.903   1.677   1.480  1.4335 -0.0438 -1.1854
 1192SOL     OW15034   1.160   1.459   3.814  0.5923 -0.3356 -0.0767
 1192SOL    HW115035   1.162   1.373   3.771 -1.2938  0.4604 -1.8034
 1192SOL    HW215036   1.114   1.440   3.896 -2.1716 -1.1735 -1.8043
 1193SOL     OW15037   3.978   3.975   6.179 -0.4175 -0.2229  0.3335
 1193SOL    HW115038   4.073   3.981   6.166 -0.6561 -0.3824 -1.5029
 1193SOL    HW215039   3.964   3.885   6.151 -0.1904 -0.0587 -0.3214
 1194SOL     OW15040   0.869   4.633   5.731 -0.2283 -0.0165 -0.6132
 1194SOL    HW115041   0.835   4.588   5.654  0.2087  2.0896 -2.0284
 1194SOL    HW215042   0.806   4.704   5.736  2.1485  1.8866  2.0597
 1195SOL     OW15043   0.868   0.824   4.103  0.7551  0.2749  0.3186
 1195SOL    HW115044   0.908   0.826   4.016  0.0349  0.1026 -0.0241
 1195SOL    HW215045   0.950   0.826   4.151  0.1182 -0.3963  1.4303
 1196SOL     OW15046   1.202   2.111   2.197  0.5486  0.0256  0.6016
 1196SOL    HW115047   1.286   2.072   2.222  1.4209  0.0770 -2.2368
 1196SOL    HW215048   1.138   2.042   2.215 -1.9881  2.0895 -0.5304
 1197SOL     OW15049   4.144   4.662   7.255  0.2778  0.5534  0.4240
 1197SOL    HW115050   4.090   4.588   7.285  0.5934  0.8117  1.6155
 1197SOL    HW215051   4.079   0.007   7.271 -0.5446 -0.1766  0.2319
 1198SOL     OW15052   2.754   1.907   2.554 -0.6702 -0.0970 -0.7775
 1198SOL    HW115053   2.686   1.971   2.531 -1.3530 -1.0593 -1.4472
 1198SOL    HW215054   2.832   1.948   2.518 -0.3898 -0.4205 -0.5354
 1199SOL     OW15055   2.762   3.257   5.170 -0.2994  0.5392  0.0200
 1199SOL    HW115056   2.695   3.319   5.144 -1.1691 -1.1107 -1.6384
 1199SOL    HW215057   2.825   3.285   5.104 -0.5493  0.8072 -0.1044
 1200SOL     OW15058   1.281   1.817  16.244  0.5095  0.2083  0.1562
 1200SOL    HW115059   1.189   1.796  16.229  0.3614  1.3785 -0.5230
 1200SOL    HW215060   1.283   1.908  16.216 -1.1975  0.9588  2.3938
 1201SOL     OW15061   0.005   0.758   4.445 -0.2284  1.0825 -0.1136
 1201SOL    HW115062   0.070   0.826   4.428  0.9049  0.4455  1.6658
 1201SOL    HW215063   0.028   0.698   4.374  1.7712 -1.2528  2.5182
 1202SOL     OW15064   3.730   0.083  14.265 -0.0525  0.3730  0.8180
 1202SOL    HW115065   3.640   0.112  14.255  0.1031  1.1877  1.7606
 1202SOL    HW215066   3.719   4.722  14.309  1.3688  0.2758  0.9868
 1203SOL     OW15067   2.194   0.930   3.321 -0.3717  0.8984 -0.0537
 1203SOL    HW115068   2.250   0.975   3.258  2.0354 -0.4340  1.1345
 1203SOL    HW215069   2.229   0.962   3.404  0.6781 -1.8267  0.5413
 1204SOL     OW15070   0.031   3.884   4.227 -0.3198 -0.1906  0.0389
 1204SOL    HW115071   0.015   3.872   4.320 -0.1292 -1.6375 -0.1103
 1204SOL    HW215072   0.124   3.904   4.222 -0.8966  2.7372  0.9437
 1205SOL     OW15073   3.999   3.728   8.646  0.4307 -0.3729  0.4609
 1205SOL    HW115074   3.930   3.695   8.704 -0.6691 -2.3564 -1.9820
 1205SOL    HW215075   4.081   3.699   8.683 -0.7770 -2.6024  1.3652
 1206SOL     OW15076   3.941   0.977   8.410  0.3241  0.0684  0.2938
 1206SOL    HW115077   3.916   0.948   8.497 -1.8554  2.2720  0.4005
 1206SOL    HW215078   4.035   0.996   8.420  0.8832 -1.8564 -1.3366
 1207SOL     OW15079   2.327   3.261  15.542 -0.1031 -0.0075  0.1041
 1207SOL    HW115080   2.314   3.355  15.555 -0.1336 -0.1557  1.1646
 1207SOL    HW215081   2.419   3.252  15.564  0.4835  1.6773 -1.6007
 1208SOL     OW15082   0.258   3.556   7.667 -0.2025  0.6248  0.3142
 1208SOL    HW115083   0.165   3.578   7.666 -0.3553 -0.0172  0.3945
 1208SOL    HW215084   0.293   3.618   7.603 -0.1954  0.7898  0.4759
 1209SOL     OW15085   1.763   3.678  16.773  0.0610 -0.7270 -0.8195
 1209SOL    HW115086   1.834   3.741  16.770  0.1553 -0.9184 -2.4763
 1209SOL    HW215087   1.785   3.638  16.858  2.0752 -0.9537 -1.4482
 1210SOL     OW15088   4.654   1.671   5.754 -0.5817 -0.0014 -0.3615
 1210SOL    HW115089   4.646   1.589   5.804  2.6274 -1.4383 -2.2019
 1210SOL    HW215090   4.690   1.734   5.816  3.0581 -2.9043  0.5156
 1211SOL     OW15091   2.800   4.105  10.017  0.0325  0.4428 -0.5954
 1211SOL    HW115092   2.847   4.186  10.033  2.9007 -0.5800 -3.9650
 1211SOL    HW215093   2.847   4.035  10.062 -1.9371 -0.0569  0.6699
 1212SOL     OW15094   0.741   1.717   9.487  0.2199 -0.2378  0.0719
 1212SOL    HW115095   0.711   1.687   9.401  2.0750 -0.6343 -0.4510
 1212SOL    HW215096   0.833   1.690   9.486  0.6704  1.2814  2.1580
 1213SOL     OW15097   4.060   0.578   7.876 -0.1673  0.1694 -0.6466
 1213SOL    HW115098   4.003   0.655   7.885  1.3482  1.1009  0.8474
 1213SOL    HW215099   3.996   0.513   7.848 -1.9891  1.1260  1.2923
 1214SOL     OW15100   0.545   0.001   0.414 -0.0191 -0.0759 -0.0863
 1214SOL    HW115101   0.637   4.701   0.402  0.4375  0.4587  2.4482
 1214SOL    HW215102   0.532   4.699   0.505 -0.0234 -0.8762 -0.3167
 1215SOL     OW15103   3.874   0.267   7.267 -0.0358  0.2289 -0.1544
 1215SOL    HW115104   3.910   0.192   7.314 -0.9288 -1.6623 -2.4641
 1215SOL    HW215105   3.838   0.314   7.342 -0.6661 -0.7251  0.1278
 1216SOL     OW15106   2.074   2.375   4.746 -0.2339 -0.2605  0.2725
 1216SOL    HW115107   2.011   2.366   4.818 -2.1295  1.2499 -1.2163
 1216SOL    HW215108   2.047   2.297   4.698 -0.7580  0.0363  0.0914
 1217SOL     OW15109   0.510   2.796   6.437 -0.3477  0.3801  0.5423
 1217SOL    HW115110   0.520   2.782   6.343  1.2976 -3.0114  1.2235
 1217SOL    HW215111   0.478   2.713   6.472  0.0057  0.1620  0.3462
 1218SOL     OW15112   3.440   0.529   7.155 -0.5830 -0.1560 -0.3619
 1218SOL    HW115113   3.519   0.580   7.139 -1.4897  1.2803 -0.2378
 1218SOL    HW215114   3.473   0.442   7.176 -0.7871  0.3326  1.9486
 1219SOL     OW15115   0.700   0.548  12.322  0.7546 -1.0995  0.2256
 1219SOL    HW115116   0.611   0.563  12.354  0.3384  0.1327 -1.4967
 1219SOL    HW215117   0.695   0.465  12.275 -1.1589  0.2076 -1.9202
 1220SOL     OW15118   3.403   0.854   2.978 -0.0464  0.2404  0.4062
 1220SOL    HW115119   3.422   0.761   2.969  0.7001  0.2990  1.4498
 1220SOL    HW215120   3.364   0.877   2.894 -1.3176 -2.2311  0.3149
 1221SOL     OW15121   2.123   3.168  11.908  0.3617  0.2597  0.5331
 1221SOL    HW115122   2.052   3.233  11.911  0.9201  0.8625  0.8100
 1221SOL    HW215123   2.201   3.224  11.913 -0.0403  0.5981  2.9507
 1222SOL     OW15124   0.639   2.600   9.097 -0.0916 -0.0964 -0.0558
 1222SOL    HW115125   0.658   2.596   9.191 -2.4200 -1.1644  0.3863
 1222SOL    HW215126   0.654   2.692   9.079 -1.9502 -0.0273 -1.2182
 1223SOL     OW15127   0.959   4.361   9.067  0.1412 -0.4825  0.6971
 1223SOL    HW115128   0.942   4.311   8.987  1.1397  0.4341 -0.0688
 1223SOL    HW215129   1.053   4.351   9.083 -0.2403 -1.2206  2.4765
 1224SOL     OW15130   2.821   4.635  13.507 -0.0746 -0.0941 -0.0811
 1224SOL    HW115131   2.732   4.616  13.537  0.3308  1.5679  2.2079
 1224SOL    HW215132   2.847   4.566  13.447  3.1421 -0.3798  1.6594
 1225SOL     OW15133   4.191   2.886  16.764 -0.5833 -0.4057  0.1916
 1225SOL    HW115134   4.147   2.887  16.679 -1.5417  2.4897  0.6997
 1225SOL    HW215135   4.240   2.804  16.759  1.3042  0.7953 -1.0918
 1226SOL     OW15136   3.504   3.437   2.189 -0.1122 -0.4329  0.2686
 1226SOL    HW115137   3.441   3.496   2.147  1.5259 -0.1201 -1.7417
 1226SOL    HW215138   3.465   3.351   2.205 -1.1147  0.4406  2.4660
 1227SOL     OW15139   0.952   0.373   6.223 -0.0861  0.5163 -0.5539
 1227SOL    HW115140   0.957   0.450   6.280 -3.7850  0.6470 -0.3966
 1227SOL    HW215141   0.905   0.402   6.145 -0.1811 -0.8127 -0.9934
 1228SOL     OW15142   1.500   4.043   4.747  0.3483 -0.0179  0.0932
 1228SOL    HW115143   1.573   4.037   4.809 -1.6210 -1.3049  2.3028
 1228SOL    HW215144   1.500   3.955   4.709  0.8888 -0.2466  0.6366
 1229SOL     OW15145   0.544   0.360  14.103 -0.4615 -0.8218 -0.4322
 1229SOL    HW115146   0.569   0.281  14.152  0.6482 -0.3852 -0.3003
 1229SOL    HW215147   0.629   0.389  14.070 -1.5328  0.8790 -1.6444
 1230SOL     OW15148   3.100   3.996   3.368  0.2057 -0.0636  0.0050
 1230SOL    HW115149   3.091   4.078   3.320 -0.0547 -0.7053 -1.0354
 1230SOL    HW215150   3.011   3.962   3.356  0.4324  0.4189 -3.0341
 1231SOL     OW15151   4.269   1.458   4.516  0.1392 -0.3708  0.4330
 1231SOL    HW115152   4.259   1.515   4.591 -1.0272 -0.7152  0.5324
 1231SOL    HW215153   4.352   1.495   4.484  1.4358 -1.6936  2.2052
 1232SOL     OW15154   2.827   0.069  13.257 -0.5852  0.4678  0.4259
 1232SOL    HW115155   2.735   0.087  13.274 -0.3583 -1.1072  3.3149
 1232SOL    HW215156   2.839   0.098  13.166 -0.5409 -0.8165  0.0102
 1233SOL     OW15157   3.123   2.679  16.143  0.0545  0.0700  0.0905
 1233SOL    HW115158   3.132   2.712  16.232 -1.1271 -1.5564  0.8202
 1233SOL    HW215159   3.212   2.663  16.110 -0.1208 -0.0842 -0.3093
 1234SOL     OW15160   3.377   0.534   3.285 -0.0347 -0.0458  0.0046
 1234SOL    HW115161   3.471   0.545   3.276  0.2377 -1.3549  1.2711
 1234SOL    HW215162   3.351   0.513   3.195  2.6535 -2.3257 -0.2153
 1235SOL     OW15163   0.147   2.838   2.541  0.9196  0.1841  0.2994
 1235SOL    HW115164   0.087   2.905   2.573 -1.3209 -1.4325 -0.4710
 1235SOL    HW215165   0.219   2.855   2.601 -0.7339  1.1563  1.9810
 1236SOL     OW15166   0.405   2.191   9.129 -0.2632  0.1594  0.5056
 1236SOL    HW115167   0.410   2.259   9.195  0.3462  0.6633 -0.0566
 1236SOL    HW215168   0.496   2.179   9.100 -0.1067  0.3496  0.9191
 1237SOL     OW15169   1.370   2.061   4.126 -0.4436  0.1460  0.3524
 1237SOL    HW115170   1.337   1.987   4.177 -1.8979  0.1600 -0.5718
 1237SOL    HW215171   1.412   2.121   4.187  0.3383  0.3000 -0.3536
 1238SOL     OW15172   2.390   3.161  11.308  0.1773  0.1399 -0.4735
 1238SOL    HW115173   2.308   3.111  11.299  0.2483 -0.6399  3.0520
 1238SOL    HW215174   2.365   3.233  11.366  2.7133 -0.7770  1.7463
 1239SOL     OW15175   4.098   2.240   0.668  1.1771  0.7048  0.6703
 1239SOL    HW115176   4.188   2.216   0.649  0.4874 -0.8501 -0.6134
 1239SOL    HW215177   4.061   2.157   0.697  0.8672  0.7694  0.4564
 1240SOL     OW15178   1.595   1.541  15.901 -0.5183 -0.5469  0.1539
 1240SOL    HW115179   1.596   1.445  15.906 -0.4567 -0.6096 -0.9982
 1240SOL    HW215180   1.526   1.555  15.966 -0.5572 -1.8464  0.3910
 1241SOL     OW15181   0.593   0.528   6.565 -0.5394  0.6807  0.1316
 1241SOL    HW115182   0.598   0.438   6.534 -2.4581  0.7189 -0.2384
 1241SOL    HW215183   0.675   0.525   6.615  0.9957  2.5931 -2.2644
 1242SOL     OW15184   1.907   1.529  11.375 -0.0290 -0.1411 -0.3891
 1242SOL    HW115185   1.951   1.513  11.459  1.8157 -0.3148 -1.3994
 1242SOL    HW215186   1.838   1.465  11.391 -1.8518  2.0177  0.5525
 1243SOL     OW15187   3.415   4.702   2.057  0.0071 -0.1691 -0.0443
 1243SOL    HW115188   3.454   0.065   2.047 -2.7636  0.8543 -2.0413
 1243SOL    HW215189   3.331   0.002   2.018  0.2864 -2.6407 -2.1256
 1244SOL     OW15190   3.661   1.767   6.417  0.7858 -0.3623 -0.1374
 1244SOL    HW115191   3.600   1.757   6.343  0.8071 -1.4804 -0.0131
 1244SOL    HW215192   3.593   1.766   6.485 -1.4657 -0.2254 -2.3799
 1245SOL     OW15193   3.144   1.751   2.058 -0.4261  0.5979  0.6990
 1245SOL    HW115194   3.224   1.792   2.025  0.6618 -1.3085  0.9250
 1245SOL    HW215195   3.103   1.830   2.092  1.4399  1.5386  0.7677
 1246SOL     OW15196   1.650   1.348   8.170 -0.9791 -0.7068 -0.0006
 1246SOL    HW115197   1.716   1.279   8.172 -1.1517 -0.8406  1.2924
 1246SOL    HW215198   1.576   1.302   8.210 -1.0577  0.5193  1.2861
 1247SOL     OW15199   2.863   1.970  12.334 -0.2252 -0.4184 -0.3647
 1247SOL    HW115200   2.771   1.976  12.309 -0.2701 -0.2538 -0.1567
 1247SOL    HW215201   2.860   1.999  12.425 -1.0811  0.0815 -0.5488
 1248SOL     OW15202   4.610   0.759   8.118  0.0388  0.6250  0.5749
 1248SOL    HW115203   4.587   0.844   8.157 -1.6372  0.2209  0.4641
 1248SOL    HW215204   4.665   0.721   8.187  2.2162  1.2501 -0.7942
 1249SOL     OW15205   0.184   0.559  15.646  0.0132  0.5228 -0.0219
 1249SOL    HW115206   0.264   0.545  15.696  0.6896 -3.8266 -2.2601
 1249SOL    HW215207   0.222   0.610  15.575 -0.2130  0.8258  0.0756
 1250SOL     OW15208   3.657   0.385   5.913 -0.2727 -0.3684 -0.4754
 1250SOL    HW115209   3.565   0.362   5.900 -0.8049  1.1542  0.6495
 1250SOL    HW215210   3.696   0.299   5.901 -0.4033 -0.4944  0.0002
 1251SOL     OW15211   1.987   3.961   0.016  0.0809 -0.6435  0.2641
 1251SOL    HW115212   2.019   4.050   0.006 -0.4420 -0.5072 -0.1928
 1251SOL    HW215213   2.063   3.911  17.681  1.1692  1.0259  0.2603
 1252SOL     OW15214   4.322   4.682   7.529 -0.4083  0.0023  0.4816
 1252SOL    HW115215   4.237   4.656   7.566  0.1721 -0.5241  1.4615
 1252SOL    HW215216   4.298   0.018   7.458 -1.6674  1.3391  2.0241
 1253SOL     OW15217   4.705   2.664   4.696 -0.9426  0.0143 -0.2752
 1253SOL    HW115218   4.714   2.753   4.664  0.0656 -0.0270 -0.0884
 1253SOL    HW215219   4.612   2.645   4.682 -1.0081  0.0130  0.1567
 1254SOL     OW15220   4.304   4.366  16.244 -0.0418  0.3035  0.0370
 1254SOL    HW115221   4.217   4.332  16.224 -0.9947  2.3123  0.8025
 1254SOL    HW215222   4.353   4.285  16.257  1.4335  1.2345  0.2202
 1255SOL     OW15223   0.320   0.047  14.154  0.1904  0.2347  0.4980
 1255SOL    HW115224   0.348   4.699  14.211  0.0601 -1.4593 -1.5667
 1255SOL    HW215225   0.232   0.019  14.127  0.3669 -0.2878  0.4621
 1256SOL     OW15226   2.228   4.478  11.016  0.2085 -0.0605  0.2033
 1256SOL    HW115227   2.317   4.508  10.998  0.5841 -0.3772  1.5221
 1256SOL    HW215228   2.197   4.457  10.928 -1.8920 -0.0077  0.9294
 1257SOL     OW15229   4.116   2.187   7.043  0.0727  0.1195  0.1007
 1257SOL    HW115230   4.100   2.256   6.979 -0.2739 -1.7532 -1.8042
 1257SOL    HW215231   4.210   2.174   7.031  0.4123 -0.1045  2.9185
 1258SOL     OW15232   0.205   3.086  16.015  0.3908  0.1812 -0.0402
 1258SOL    HW115233   0.196   3.166  15.964  0.1045 -0.2678 -0.6924
 1258SOL    HW215234   0.296   3.100  16.042  0.1780 -0.3018  0.9350
 1259SOL     OW15235   0.764   0.006  13.877 -0.0400 -0.5539  0.3425
 1259SOL    HW115236   0.710   4.655  13.904 -0.6404  0.1893  1.1747
 1259SOL    HW215237   0.844   4.713  13.927  0.1509 -1.9614 -0.4385
 1260SOL     OW15238   2.529   1.707   7.838  0.4086  0.2474  0.0772
 1260SOL    HW115239   2.581   1.637   7.798  0.6727  0.8208 -0.5899
 1260SOL    HW215240   2.450   1.662   7.865  0.2920 -0.8597 -2.1669
 1261SOL     OW15241   2.629   4.361  13.387  0.0157  0.4272 -0.2870
 1261SOL    HW115242   2.594   4.405  13.464  1.3942  1.9747 -0.5258
 1261SOL    HW215243   2.674   4.435  13.345 -0.1591  0.9302  0.4192
 1262SOL     OW15244   4.408   3.585   6.386  0.1944  0.1011 -0.0240
 1262SOL    HW115245   4.341   3.653   6.391 -0.5900 -0.7114  0.4120
 1262SOL    HW215246   4.477   3.641   6.352 -1.9754  0.4424 -3.8682
 1263SOL     OW15247   2.599   4.111   1.811  0.4366  0.0749 -0.4613
 1263SOL    HW115248   2.615   4.031   1.761 -1.3691  0.2054 -1.2396
 1263SOL    HW215249   2.503   4.114   1.812  0.4034 -1.0396 -0.2650
 1264SOL     OW15250   0.291   1.787   5.645  0.1394 -0.3718 -0.0298
 1264SOL    HW115251   0.376   1.826   5.662 -0.4207  0.5798  0.5493
 1264SOL    HW215252   0.292   1.811   5.552  2.3060  1.6143  0.5266
 1265SOL     OW15253   3.532   2.235  16.182  0.1048 -0.1699  1.0064
 1265SOL    HW115254   3.495   2.212  16.097  1.3854 -2.4277  1.0529
 1265SOL    HW215255   3.624   2.211  16.173 -0.0186 -0.6778  1.1111
 1266SOL     OW15256   3.696   1.840   0.577 -0.2663  0.0422 -0.1378
 1266SOL    HW115257   3.785   1.821   0.548  0.3866  0.8944  1.3290
 1266SOL    HW215258   3.643   1.776   0.530  2.1237 -0.6517 -1.8983
 1267SOL     OW15259   2.030   0.799   2.816 -0.2301 -0.2271  0.1782
 1267SOL    HW115260   1.988   0.858   2.879 -0.7089 -1.4027  0.9630
 1267SOL    HW215261   2.090   0.865   2.781  0.9002 -1.0788  0.5273
 1268SOL     OW15262   0.890   4.085   5.092 -0.0421 -0.0238 -0.2115
 1268SOL    HW115263   0.894   3.995   5.060 -2.8980 -0.8721  1.8886
 1268SOL    HW215264   0.805   4.118   5.063  0.0562  1.5568  1.2726
 1269SOL     OW15265   2.151   3.388   5.273  0.9971  0.0996 -0.3510
 1269SOL    HW115266   2.057   3.381   5.257  1.2744 -0.9009 -1.6081
 1269SOL    HW215267   2.176   3.296   5.276  0.6251  0.1112  3.1311
 1270SOL     OW15268   0.861   3.226   3.709 -0.2162  0.0053  0.7823
 1270SOL    HW115269   0.824   3.144   3.742 -1.5472  0.3502  0.1276
 1270SOL    HW215270   0.900   3.200   3.626  0.6715 -1.7691  1.7362
 1271SOL     OW15271   2.327   1.307   8.908  0.0617 -0.3153  0.2197
 1271SOL    HW115272   2.306   1.221   8.872  0.8886 -0.4052 -0.0397
 1271SOL    HW215273   2.353   1.350   8.827  0.4663  1.4949  1.2884
 1272SOL     OW15274   2.519   2.785   8.803  0.2035  0.1111  0.5405
 1272SOL    HW115275   2.613   2.774   8.820  0.5399 -1.0414 -2.0686
 1272SOL    HW215276   2.526   2.799   8.708  2.6985 -0.4330  0.6486
 1273SOL     OW15277   0.305   0.697   9.295 -0.8313 -0.1588 -0.1431
 1273SOL    HW115278   0.246   0.724   9.224  0.7215  3.0450 -0.2027
 1273SOL    HW215279   0.368   0.645   9.245  0.2075 -1.9940  3.1055
 1274SOL     OW15280   3.387   1.081   6.503 -0.0369 -0.0867 -0.7091
 1274SOL    HW115281   3.337   0.999   6.504  0.9793 -0.7001 -0.0868
 1274SOL    HW215282   3.477   1.052   6.488 -0.2192 -0.8586 -0.3470
 1275SOL     OW15283   1.483   0.602   7.400  0.0254  0.5863  0.4311
 1275SOL    HW115284   1.526   0.634   7.320 -0.8561  0.6801 -0.0060
 1275SOL    HW215285   1.398   0.580   7.363 -0.4912 -0.2976  2.1418
 1276SOL     OW15286   4.604   1.121   4.748  0.4360  0.5631 -0.0407
 1276SOL    HW115287   4.593   1.056   4.817 -0.3195  1.1886  0.4221
 1276SOL    HW215288   4.599   1.077   4.663 -0.5879  1.8327 -0.6413
 1277SOL     OW15289   1.587   4.306   4.822 -0.4382 -0.7414 -0.1347
 1277SOL    HW115290   1.513   4.246   4.811 -0.4547 -0.6723 -0.4186
 1277SOL    HW215291   1.587   4.348   4.736  1.8617 -1.3626 -0.4282
 1278SOL     OW15292   2.044   2.301   5.058  0.9867  0.5723 -0.1262
 1278SOL    HW115293   2.112   2.234   5.065 -0.0792 -0.4248  0.6001
 1278SOL    HW215294   1.969   2.258   5.098  1.8944 -2.8452 -2.0959
 1279SOL     OW15295   0.907   0.492  12.120  0.2480  0.2401  0.6012
 1279SOL    HW115296   0.986   0.524  12.075  0.0124 -1.1598 -0.8241
 1279SOL    HW215297   0.875   0.575  12.157 -1.5335 -0.4224  0.5408
 1280SOL     OW15298   3.906   2.240   2.210 -0.0636 -0.1021  0.1146
 1280SOL    HW115299   3.836   2.272   2.155  0.0828 -0.1966 -0.1264
 1280SOL    HW215300   3.876   2.250   2.301  0.5921 -1.2975  0.4717
 1281SOL     OW15301   0.255   3.598   5.846 -0.3152  0.4746  0.5446
 1281SOL    HW115302   0.244   3.586   5.941  1.1925  2.0004  0.9047
 1281SOL    HW215303   0.175   3.559   5.811 -0.1332  0.3443  0.2768
 1282SOL     OW15304   1.722   0.138  15.730  0.2777  0.2438  0.1016
 1282SOL    HW115305   1.768   0.105  15.653 -2.1776 -0.3263 -1.1242
 1282SOL    HW215306   1.788   0.188  15.778  0.7522  0.0453 -0.3503
 1283SOL     OW15307   1.358   3.048   8.051 -0.3011 -0.0878 -0.3054
 1283SOL    HW115308   1.316   3.099   7.981 -0.0748  0.3036 -0.1555
 1283SOL    HW215309   1.413   3.109   8.098  1.4293 -1.7849 -0.1280
 1284SOL     OW15310   3.238   2.796   7.172 -0.4328  0.4389  0.1996
 1284SOL    HW115311   3.164   2.736   7.165  1.8063 -2.0643 -1.6576
 1284SOL    HW215312   3.264   2.797   7.265 -1.2260  1.8995  0.4004
 1285SOL     OW15313   1.761   1.613   3.056  0.1809  0.1640 -0.8478
 1285SOL    HW115314   1.671   1.647   3.051 -0.5935 -1.4035  2.1542
 1285SOL    HW215315   1.799   1.700   3.073 -1.7653  0.7094  0.7530
 1286SOL     OW15316   1.071   0.540   2.128 -0.1607 -0.0689 -0.4098
 1286SOL    HW115317   1.154   0.518   2.168 -0.1886 -2.0885 -1.4899
 1286SOL    HW215318   1.010   0.551   2.201 -0.0315 -0.1866 -0.2837
 1287SOL     OW15319   2.440   3.350  15.890  0.2758 -1.0950  0.2050
 1287SOL    HW115320   2.405   3.437  15.870 -0.4988 -2.0735 -2.7329
 1287SOL    HW215321   2.534   3.355  15.872  0.4820 -0.3009  1.4853
 1288SOL     OW15322   4.408   0.469   0.171  0.0836 -0.3451 -0.0119
 1288SOL    HW115323   4.458   0.547   0.194 -0.0235 -0.1241 -0.5234
 1288SOL    HW215324   4.433   0.468   0.079 -0.7015 -1.7147 -0.2141
 1289SOL     OW15325   2.645   4.105   8.363 -0.1784  0.0361 -0.4113
 1289SOL    HW115326   2.636   4.025   8.414  0.5434 -0.6609 -1.3900
 1289SOL    HW215327   2.728   4.132   8.401 -0.3265  0.0024 -0.0654
 1290SOL     OW15328   1.359   0.998   2.137 -0.4225  0.0171 -0.2169
 1290SOL    HW115329   1.342   1.062   2.067 -0.1400  1.2979  0.8800
 1290SOL    HW215330   1.280   0.946   2.155 -0.6261 -0.5319 -2.7624
 1291SOL     OW15331   1.060   3.480   1.860  0.4959  0.6922  0.1138
 1291SOL    HW115332   1.088   3.568   1.883  1.2440  0.9222 -1.6223
 1291SOL    HW215333   0.981   3.518   1.822 -0.3855 -0.1284  1.1459
 1292SOL     OW15334   0.782   3.460   5.732 -0.0655  0.6923  0.3454
 1292SOL    HW115335   0.795   3.367   5.715 -0.5165  0.5185  0.9355
 1292SOL    HW215336   0.791   3.465   5.827 -2.5535  0.6996  0.5892
 1293SOL     OW15337   2.963   3.970   1.854  0.3311 -0.5947 -0.3088
 1293SOL    HW115338   2.965   4.062   1.830 -0.9643 -0.0544  1.6391
 1293SOL    HW215339   3.026   3.951   1.784 -1.0379 -3.1621 -0.8337
 1294SOL     OW15340   1.953   0.978  14.167  0.2037 -0.4894  0.5730
 1294SOL    HW115341   2.016   0.952  14.100 -0.8348 -1.4746 -0.0301
 1294SOL    HW215342   1.975   1.071  14.163  0.6766 -0.6469 -0.4859
 1295SOL     OW15343   0.060   3.565   2.510  0.0022 -0.4093  0.1718
 1295SOL    HW115344   4.720   3.500   2.479 -0.6754 -0.0673  0.8646
 1295SOL    HW215345   0.099   3.589   2.425  0.6804 -0.0492  0.5800
 1296SOL     OW15346   3.221   3.246   5.962  0.2233  0.3699 -0.5438
 1296SOL    HW115347   3.198   3.223   5.872 -2.4197 -2.7293  0.9131
 1296SOL    HW215348   3.231   3.164   6.010 -0.6632 -0.0053 -1.0017
 1297SOL     OW15349   1.527   1.748   2.401 -0.0112 -0.0397 -0.1187
 1297SOL    HW115350   1.610   1.707   2.424 -1.6206 -1.8534  2.4291
 1297SOL    HW215351   1.478   1.672   2.369  0.0834  0.1228 -0.6623
 1298SOL     OW15352   3.189   1.450   2.548  0.3724  0.3848 -0.4399
 1298SOL    HW115353   3.165   1.498   2.627  2.0717  1.5321 -0.6130
 1298SOL    HW215354   3.140   1.370   2.566  0.2930  0.8213  1.2949
 1299SOL     OW15355   3.105   3.621   2.997  0.1882  0.2345  0.4307
 1299SOL    HW115356   3.079   3.611   2.906 -2.2386  2.1547  0.8954
 1299SOL    HW215357   3.128   3.528   3.005 -0.2416  0.1916  1.2005
 1300SOL     OW15358   2.658   0.223   7.142 -0.6242  0.0868 -0.8424
 1300SOL    HW115359   2.643   0.143   7.091 -0.5118 -0.0805 -0.6134
 1300SOL    HW215360   2.722   0.266   7.085  0.8079 -2.7654 -1.4137
 1301SOL     OW15361   2.595   3.928  13.955  0.2703 -0.0976 -0.0442
 1301SOL    HW115362   2.522   3.937  13.895  0.7102  2.5304 -0.1672
 1301SOL    HW215363   2.555   3.887  14.032 -0.7716 -2.6282 -1.9615
 1302SOL     OW15364   3.800   4.584   6.601 -0.3376 -0.3567 -0.0372
 1302SOL    HW115365   3.830   4.654   6.659 -0.3573  0.8381 -1.4768
 1302SOL    HW215366   3.743   4.630   6.539 -0.8010 -1.5636 -0.5093
 1303SOL     OW15367   4.157   4.678   8.346  0.4500 -0.0047  0.1605
 1303SOL    HW115368   4.191   4.653   8.260  3.4820 -1.3693  1.7621
 1303SOL    HW215369   4.236   4.717   8.382  1.9024 -0.7067 -2.2672
 1304SOL     OW15370   3.228   0.048   3.647  0.1242  0.1158 -0.2330
 1304SOL    HW115371   3.220   0.069   3.740  1.2288  0.9706 -0.3339
 1304SOL    HW215372   3.324   0.045   3.649  0.1589  0.8444 -0.6777
 1305SOL     OW15373   1.533   1.991   8.220  0.2618  0.2723 -0.1633
 1305SOL    HW115374   1.515   1.963   8.130  1.4626 -2.1543  0.3617
 1305SOL    HW215375   1.518   2.085   8.209 -0.2298  0.2379  0.2327
 1306SOL     OW15376   2.308   2.627  10.307 -0.4238 -0.7258 -0.3515
 1306SOL    HW115377   2.334   2.536  10.323 -0.4198 -0.8250 -0.9244
 1306SOL    HW215378   2.298   2.620  10.212  0.4899  1.5302 -0.6009
 1307SOL     OW15379   2.083   1.609   2.018 -0.5883 -0.4960  0.0641
 1307SOL    HW115380   2.100   1.649   2.103  0.5528  1.7513 -1.2262
 1307SOL    HW215381   1.994   1.575   2.014 -0.3447 -1.1449  0.1541
 1308SOL     OW15382   4.021   3.034   4.626 -0.3718 -0.2153  0.1677
 1308SOL    HW115383   4.104   3.071   4.596 -0.7493  0.5025 -0.0099
 1308SOL    HW215384   4.005   2.958   4.571 -0.0945 -0.2968  0.2019
 1309SOL     OW15385   2.343   2.266   7.631  0.2363 -0.5595 -0.0046
 1309SOL    HW115386   2.383   2.290   7.714  0.9841  0.6586 -0.7126
 1309SOL    HW215387   2.252   2.251   7.657 -0.0180 -1.6325 -1.4450
 1310SOL     OW15388   1.332   2.825  16.842 -0.4848 -0.3582  0.1593
 1310SOL    HW115389   1.360   2.853  16.755 -0.1897  2.7560  1.2463
 1310SOL    HW215390   1.416   2.810  16.886 -0.2792 -2.2776 -0.8896
 1311SOL     OW15391   0.387   2.164   0.517  0.0761  0.3993  0.4333
 1311SOL    HW115392   0.329   2.212   0.577 -0.1526 -0.0295  0.5503
 1311SOL    HW215393   0.422   2.097   0.576  2.3789 -0.3702 -1.8285
 1312SOL     OW15394   0.822   4.588  17.148 -0.0911  0.3780 -0.9204
 1312SOL    HW115395   0.912   4.597  17.115 -0.2437 -0.5174 -1.5550
 1312SOL    HW215396   0.772   4.635  17.082 -1.2131  1.3694  0.6262
 1313SOL     OW15397   3.183   2.685   3.774 -0.5639 -0.5200  0.1180
 1313SOL    HW115398   3.242   2.722   3.709 -1.6977  1.3711  0.1637
 1313SOL    HW215399   3.200   2.594   3.750  0.7385 -0.2900  0.1607
 1314SOL     OW15400   0.836   2.297   7.499 -0.0895 -0.0536  0.4220
 1314SOL    HW115401   0.910   2.263   7.448 -1.5937  0.8339 -2.3702
 1314SOL    HW215402   0.886   2.340   7.569 -1.5565  2.0945  0.1599
 1315SOL     OW15403   1.026   0.548   9.241 -0.0442  0.3109 -0.0609
 1315SOL    HW115404   1.079   0.625   9.220 -0.1804  0.6706  0.9199
 1315SOL    HW215405   1.017   0.560   9.335  0.9369 -0.1502  0.0987
 1316SOL     OW15406   0.185   1.554   6.877  0.8840 -0.3686  0.3822
 1316SOL    HW115407   0.190   1.458   6.884  0.0261 -0.1814  3.4325
 1316SOL    HW215408   0.181   1.571   6.971 -0.0095  3.5628 -0.3684
 1317SOL     OW15409   4.192   0.764   8.356 -0.3731 -0.6852 -0.4656
 1317SOL    HW115410   4.195   0.847   8.403  0.5414 -0.1732 -1.4166
 1317SOL    HW215411   4.273   0.721   8.383 -0.0172 -0.3358 -0.9646
 1318SOL     OW15412   3.723   1.260  11.500 -0.0544 -0.0566 -0.0333
 1318SOL    HW115413   3.692   1.203  11.429 -1.2198  0.0931  0.3584
 1318SOL    HW215414   3.702   1.220  11.584  0.1082  0.0882  0.0766
 1319SOL     OW15415   0.814   0.591   1.220  0.0199  0.3478  0.0301
 1319SOL    HW115416   0.843   0.601   1.130  4.0310  0.6439  1.3869
 1319SOL    HW215417   0.722   0.581   1.194 -0.4355  0.3748  1.6440
 1320SOL     OW15418   2.725   4.227   8.979 -0.5435 -0.3089  0.2719
 1320SOL    HW115419   2.765   4.179   9.052  1.3155 -0.4387 -0.8320
 1320SOL    HW215420   2.740   4.160   8.913  0.5934  0.5438 -0.3534
 1321SOL     OW15421   1.799   1.202   2.846 -0.2788  0.2374 -0.3887
 1321SOL    HW115422   1.850   1.280   2.823  0.3431 -0.0794 -0.0810
 1321SOL    HW215423   1.739   1.242   2.909 -2.7752  1.3317 -3.4251
 1322SOL     OW15424   1.376   4.257   2.562 -0.4611  0.2388 -0.4276
 1322SOL    HW115425   1.353   4.167   2.586  0.2132  0.1040 -0.2879
 1322SOL    HW215426   1.445   4.287   2.621  1.6837  0.4759 -3.0217
 1323SOL     OW15427   3.675   4.236   0.574 -0.1393 -0.1144 -0.0728
 1323SOL    HW115428   3.637   4.237   0.486  1.4485  1.0623 -0.7561
 1323SOL    HW215429   3.675   4.141   0.590 -2.1851 -0.9017 -4.7467
 1324SOL     OW15430   2.526   0.599   1.243  0.1524  0.6259 -0.0365
 1324SOL    HW115431   2.578   0.614   1.322 -0.0375 -0.8205  0.3575
 1324SOL    HW215432   2.593   0.620   1.178 -0.6347  0.1875 -0.9917
 1325SOL     OW15433   4.671   0.066   2.453  0.3822  0.1895  0.2049
 1325SOL    HW115434   4.671   0.159   2.475  1.0282 -0.1804  1.7990
 1325SOL    HW215435   4.580   0.036   2.456  1.2040 -2.1795  1.8555
 1326SOL     OW15436   1.669   2.715   6.764  0.5166  0.5128  0.0196
 1326SOL    HW115437   1.618   2.711   6.845 -0.1542 -0.2269 -0.4426
 1326SOL    HW215438   1.757   2.720   6.801 -0.3203 -1.6837  2.3061
 1327SOL     OW15439   2.972   3.597   6.222  0.2247  0.0440 -0.6422
 1327SOL    HW115440   2.880   3.586   6.197 -0.0279  0.0683  0.2696
 1327SOL    HW215441   2.966   3.581   6.316  1.0652  1.6914 -0.3031
 1328SOL     OW15442   0.494   0.920   3.593  0.3993  0.2291  0.1052
 1328SOL    HW115443   0.432   0.934   3.521 -2.1389 -2.5487  1.7817
 1328SOL    HW215444   0.461   0.838   3.629 -2.2288  0.7871 -1.0067
 1329SOL     OW15445   2.847   1.512   7.526 -0.3172 -0.2660  0.1821
 1329SOL    HW115446   2.783   1.458   7.574 -0.5366 -0.0502  0.1329
 1329SOL    HW215447   2.926   1.459   7.536  0.2181  0.4811 -0.1428
 1330SOL     OW15448   0.304   4.427  10.547 -0.3827 -0.1381  0.4357
 1330SOL    HW115449   0.296   4.522  10.557  0.3416 -0.3980  3.5149
 1330SOL    HW215450   0.314   4.419  10.452  1.2406  1.8749  0.4171
 1331SOL     OW15451   0.596   3.397  15.863 -0.2039  0.1682  0.2038
 1331SOL    HW115452   0.507   3.430  15.863  0.1433  1.1564 -2.1882
 1331SOL    HW215453   0.617   3.387  15.770 -1.1810 -1.8530  0.2096
 1332SOL     OW15454   4.075   2.893   2.093  0.5203 -0.1359  0.1538
 1332SOL    HW115455   4.150   2.946   2.066  1.1493 -1.1282 -0.0459
 1332SOL    HW215456   4.118   2.809   2.111  4.1448  1.2751 -1.8530
 1333SOL     OW15457   4.223   4.540   8.110 -0.8610 -0.4866 -0.2897
 1333SOL    HW115458   4.146   4.483   8.119  0.6323 -2.4829 -0.3479
 1333SOL    HW215459   4.291   4.474   8.101 -0.0725 -0.0763  2.6064
 1334SOL     OW15460   0.388   3.593   1.929  0.1762 -0.3277  0.7122
 1334SOL    HW115461   0.444   3.573   1.854 -2.0933  1.2878 -1.4355
 1334SOL    HW215462   0.410   3.686   1.938 -1.0400  0.0726 -0.4354
 1335SOL     OW15463   2.142   0.538   7.216 -0.2749  0.1341 -0.6075
 1335SOL    HW115464   2.128   0.539   7.311  1.0576  0.0718 -0.4150
 1335SOL    HW215465   2.064   0.494   7.181  0.1098 -0.4413 -0.7363
 1336SOL     OW15466   1.350   3.970   0.968 -0.1391  0.2837  0.3011
 1336SOL    HW115467   1.395   3.937   1.045  0.6907 -0.6497 -0.5833
 1336SOL    HW215468   1.275   4.019   1.003 -0.1555  0.4598  0.0229
 1337SOL     OW15469   0.938   0.800   4.545 -0.0948 -0.3717  0.2063
 1337SOL    HW115470   1.000   0.869   4.568  1.4901 -0.9578 -2.3671
 1337SOL    HW215471   0.998   0.746   4.494 -0.5862  1.6852 -2.5353
 1338SOL     OW15472   1.803   3.278  15.969  0.4850  0.2886 -0.1962
 1338SOL    HW115473   1.860   3.253  16.042  0.6723 -1.9841 -1.1323
 1338SOL    HW215474   1.819   3.372  15.960  1.4703  0.1888  0.4262
 1339SOL     OW15475   1.099   4.293   2.670 -0.4080  0.0250  0.2577
 1339SOL    HW115476   1.124   4.298   2.763  0.8426 -0.7528 -0.0282
 1339SOL    HW215477   1.186   4.280   2.633 -1.5591 -1.8914 -1.7523
 1340SOL     OW15478   3.621   0.837   2.728 -0.5021 -0.1392  0.1823
 1340SOL    HW115479   3.586   0.803   2.646  0.1315 -0.9361  0.2455
 1340SOL    HW215480   3.666   0.758   2.758  0.6125 -0.7480 -3.1443
 1341SOL     OW15481   1.996   0.137   8.044  0.2256  0.1588  0.0414
 1341SOL    HW115482   1.971   0.178   8.127  0.2386 -2.5471  1.4049
 1341SOL    HW215483   1.910   0.103   8.020  0.6064 -0.6351 -0.1919
 1342SOL     OW15484   0.957   3.719   9.529 -0.0929  0.2613 -0.6862
 1342SOL    HW115485   1.040   3.754   9.561 -1.0392  0.4811  1.5253
 1342SOL    HW215486   0.980   3.629   9.508 -0.7799 -0.8766  3.4740
 1343SOL     OW15487   1.011   3.367   8.055 -0.4141 -0.0296 -0.1886
 1343SOL    HW115488   0.986   3.409   8.137 -2.9673 -1.4727 -0.2150
 1343SOL    HW215489   0.932   3.325   8.020 -1.6131  0.8863  1.3821
 1344SOL     OW15490   2.367   3.551   2.086 -0.1735 -0.1819 -0.3522
 1344SOL    HW115491   2.331   3.465   2.065  3.9534 -1.7290 -1.1395
 1344SOL    HW215492   2.297   3.599   2.042  0.3851 -0.8671 -1.9552
 1345SOL     OW15493   3.444   0.117   4.930  0.8237  0.5068  0.0533
 1345SOL    HW115494   3.493   0.066   4.866  1.6586  1.6495 -0.2116
 1345SOL    HW215495   3.514   0.173   4.963  1.4385 -1.3325  1.8316
 1346SOL     OW15496   3.027   1.455  13.262 -0.2794  0.0905 -0.4999
 1346SOL    HW115497   2.948   1.453  13.317 -0.5230  2.1252 -0.7503
 1346SOL    HW215498   3.026   1.541  13.219  0.3530  1.1065  1.5559
 1347SOL     OW15499   0.397   2.162   1.220 -0.0650  0.1362 -0.2100
 1347SOL    HW115500   0.384   2.164   1.126 -0.7091 -2.2671 -0.1724
 1347SOL    HW215501   0.446   2.245   1.216 -0.4897  0.4290  0.6481
 1348SOL     OW15502   4.488   4.576  14.556  0.2017  0.2221 -0.8502
 1348SOL    HW115503   4.540   4.530  14.621 -0.0112  0.3471 -0.5897
 1348SOL    HW215504   4.554   4.626  14.508 -0.7264  2.6805  0.4393
 1349SOL     OW15505   4.335   3.256  13.341 -0.3662  0.1202 -0.1793
 1349SOL    HW115506   4.414   3.218  13.304  1.4860  1.1434  2.6957
 1349SOL    HW215507   4.336   3.333  13.283  1.7749  0.0204 -0.2834
 1350SOL     OW15508   0.304   0.750  14.040  0.3398  0.3800 -0.4491
 1350SOL    HW115509   0.219   0.793  14.051  0.4566 -0.0721  2.0987
 1350SOL    HW215510   0.333   0.805  13.967 -1.7902  1.3017 -0.5993
 1351SOL     OW15511   0.459   4.020   5.078  0.0097  0.3505  0.1709
 1351SOL    HW115512   0.438   4.101   5.033  1.4973 -0.8500 -2.7156
 1351SOL    HW215513   0.408   3.955   5.030 -0.7610  0.2692  1.0875
 1352SOL     OW15514   0.447   0.469   2.163  0.8655 -0.5960 -0.2896
 1352SOL    HW115515   0.400   0.392   2.130  0.2505 -0.3464 -0.0028
 1352SOL    HW215516   0.425   0.538   2.101  2.4177  0.4535  0.3412
 1353SOL     OW15517   4.404   3.308  15.030 -0.2345 -0.3706  0.8553
 1353SOL    HW115518   4.485   3.332  14.985  0.6975 -0.0959  2.6924
 1353SOL    HW215519   4.370   3.389  15.067 -3.3414 -1.5268  0.5002
 1354SOL     OW15520   1.636   4.294   6.673  0.0334  0.4371 -0.5728
 1354SOL    HW115521   1.654   4.330   6.760 -1.2682  0.2909 -0.2433
 1354SOL    HW215522   1.681   4.210   6.684 -1.3197 -0.1241  0.7252
 1355SOL     OW15523   0.308   0.294  13.987  0.3335  0.2390 -0.1233
 1355SOL    HW115524   0.308   0.199  14.002  1.4697 -0.0428 -1.8847
 1355SOL    HW215525   0.394   0.314  14.024  0.6589 -0.0521 -0.7197
 1356SOL     OW15526   4.462   2.328   2.464 -0.1784 -0.1490 -0.3526
 1356SOL    HW115527   4.408   2.288   2.395 -2.1538  1.0024  0.5206
 1356SOL    HW215528   4.419   2.414   2.457 -0.6220 -0.2127  1.6760
 1357SOL     OW15529   2.928   4.256   2.617  0.1012  0.4541 -0.3933
 1357SOL    HW115530   2.915   4.162   2.609  0.0340  0.2345  2.2000
 1357SOL    HW215531   2.980   4.287   2.543  1.6737 -2.7382 -0.5966
 1358SOL     OW15532   2.488   1.521   3.264 -1.0191 -0.3093 -0.0443
 1358SOL    HW115533   2.448   1.583   3.325 -1.7051 -2.8576  2.0963
 1358SOL    HW215534   2.446   1.541   3.180 -3.1954 -0.0038  1.1276
 1359SOL     OW15535   2.886   0.413   9.791 -0.2459  1.0345 -0.8304
 1359SOL    HW115536   2.800   0.383   9.760 -0.9363  1.3978  0.7298
 1359SOL    HW215537   2.874   0.501   9.826 -1.5944 -0.2224  1.8750
 1360SOL     OW15538   3.948   2.457   5.414  0.2722  0.1024 -0.0943
 1360SOL    HW115539   3.864   2.483   5.375 -1.0200  0.1166  2.7225
 1360SOL    HW215540   3.960   2.523   5.481  0.2020 -1.3016  1.2915
 1361SOL     OW15541   0.875   4.356   1.080 -0.3128  0.3527 -0.1350
 1361SOL    HW115542   0.887   4.416   1.154 -1.9120 -2.6366  2.5433
 1361SOL    HW215543   0.943   4.392   1.024 -0.6069  1.3551  0.1508
 1362SOL     OW15544   3.346   2.841   9.070  0.3174  0.1068 -0.2999
 1362SOL    HW115545   3.389   2.800   9.146 -2.1000 -0.1231  0.9485
 1362SOL    HW215546   3.398   2.819   8.993  1.2574 -0.2571  0.4477
 1363SOL     OW15547   4.613   0.163   6.759 -0.2510 -0.2685  0.3738
 1363SOL    HW115548   4.643   0.192   6.845 -0.7519  0.9411  0.1377
 1363SOL    HW215549   4.530   0.207   6.744 -0.6563 -1.3529 -0.5958
 1364SOL     OW15550   3.178   2.437   2.694  0.0793 -0.3567 -0.5377
 1364SOL    HW115551   3.107   2.403   2.640  0.7642 -0.1441 -1.5867
 1364SOL    HW215552   3.152   2.432   2.786 -0.8409  0.7114 -0.7430
 1365SOL     OW15553   3.536   3.861   7.472 -0.0480  0.4226  0.1604
 1365SOL    HW115554   3.609   3.852   7.534  0.8036 -0.9948 -1.0459
 1365SOL    HW215555   3.559   3.786   7.417  0.7162  1.1874 -0.5691
 1366SOL     OW15556   1.745   4.458   0.621  0.0689 -0.6501  0.0229
 1366SOL    HW115557   1.699   4.531   0.578  2.7655  0.4506 -1.0033
 1366SOL    HW215558   1.829   4.500   0.640  0.3230 -0.6285 -1.1489
 1367SOL     OW15559   3.299   3.336   9.090  0.2955 -0.6087 -0.6874
 1367SOL    HW115560   3.223   3.355   9.035  1.3485 -0.6150 -2.1517
 1367SOL    HW215561   3.294   3.404   9.158 -0.1447 -0.4218 -0.9078
 1368SOL     OW15562   1.292   3.143   5.141  0.5306 -0.2295  0.0206
 1368SOL    HW115563   1.315   3.074   5.079 -0.6363 -2.9905  2.6446
 1368SOL    HW215564   1.271   3.096   5.222 -2.1027  1.4594  0.3031
 1369SOL     OW15565   0.902   3.639   6.058  0.0475  0.6303 -0.0500
 1369SOL    HW115566   0.844   3.713   6.039 -0.0349  0.4688 -0.4291
 1369SOL    HW215567   0.842   3.569   6.030  0.1322 -0.0216  1.4175
 1370SOL     OW15568   4.704   0.191  15.049 -0.1617 -0.8884  0.0219
 1370SOL    HW115569   0.022   0.149  15.124  1.1430  0.9519  0.3567
 1370SOL    HW215570   4.633   0.245  15.084  1.4349  0.6448  0.9291
 1371SOL     OW15571   3.613   4.177  17.474  0.0202 -0.3537  0.3303
 1371SOL    HW115572   3.547   4.137  17.418 -0.3636  0.5780  0.1242
 1371SOL    HW215573   3.571   4.167  17.559  0.4124 -0.9184  0.4614
 1372SOL     OW15574   2.813   3.298   7.281 -0.2542 -0.2487  0.8543
 1372SOL    HW115575   2.752   3.269   7.212 -0.0951 -2.9709  1.8308
 1372SOL    HW215576   2.766   3.373   7.318 -0.9492 -0.0720 -0.3976
 1373SOL     OW15577   0.093   2.034   5.302 -0.3474 -0.7173  0.2261
 1373SOL    HW115578   0.069   1.942   5.312 -1.1303 -0.6025 -0.6196
 1373SOL    HW215579   0.006   2.071   5.291  0.0313  0.9290  2.9215
 1374SOL     OW15580   3.873   1.637   9.408 -0.4993 -0.0001 -0.3440
 1374SOL    HW115581   3.938   1.618   9.476  0.6988  2.7401 -0.7187
 1374SOL    HW215582   3.815   1.561   9.398 -1.6807  0.5635  2.2174
 1375SOL     OW15583   0.787   2.946  16.229 -0.4447 -0.4910 -0.7093
 1375SOL    HW115584   0.831   2.875  16.181  0.2979 -0.6811  0.2492
 1375SOL    HW215585   0.788   2.903  16.314  1.3102 -1.1995 -1.0921
 1376SOL     OW15586   1.214   1.139   6.837 -0.2288 -0.6640 -0.6900
 1376SOL    HW115587   1.304   1.115   6.860  0.3454 -0.2198 -2.4616
 1376SOL    HW215588   1.184   1.170   6.922  0.4141 -2.6810  0.2763
 1377SOL     OW15589   1.260   2.689   6.906 -0.1896 -0.5994  0.5397
 1377SOL    HW115590   1.284   2.627   6.974 -1.5137 -1.7911 -0.0792
 1377SOL    HW215591   1.306   2.768   6.935 -2.9618  0.6986  1.3804
 1378SOL     OW15592   0.143   0.440   6.850  0.1308  0.9992  0.3134
 1378SOL    HW115593   0.096   0.487   6.919  0.8403  0.5032  1.1329
 1378SOL    HW215594   0.202   0.386   6.902  1.8008  2.9203  0.4139
 1379SOL     OW15595   0.467   3.340   2.202  0.0653  0.7610  0.1090
 1379SOL    HW115596   0.494   3.392   2.126  0.7830  0.9041  0.4605
 1379SOL    HW215597   0.533   3.271   2.199 -1.4274 -0.7803  2.7636
 1380SOL     OW15598   0.889   3.946  10.309  0.1138 -0.4431 -0.5779
 1380SOL    HW115599   0.871   3.856  10.335  2.5662 -1.4993 -2.5889
 1380SOL    HW215600   0.800   3.982  10.305  0.2639 -0.0233 -0.1307
 1381SOL     OW15601   2.071   1.858   4.246  0.4249 -0.0229  0.1692
 1381SOL    HW115602   2.137   1.814   4.300 -0.2759 -1.6868 -0.2996
 1381SOL    HW215603   2.114   1.942   4.232  0.4249  0.0297  0.4824
 1382SOL     OW15604   2.651   3.553   1.652 -0.3462  0.2656  0.5689
 1382SOL    HW115605   2.679   3.639   1.620  1.1572 -0.9936 -1.4877
 1382SOL    HW215606   2.708   3.493   1.604 -1.5229 -1.3390  1.1924
 1383SOL     OW15607   1.923   2.635   3.281  0.2818  0.3521  0.5191
 1383SOL    HW115608   1.985   2.675   3.221  2.5809 -2.8716  0.7006
 1383SOL    HW215609   1.973   2.556   3.301 -0.4194 -0.4303 -0.8112
 1384SOL     OW15610   2.689   0.919   8.317  0.2701  0.3587 -0.0213
 1384SOL    HW115611   2.661   0.984   8.252 -2.1756 -0.5601  0.1221
 1384SOL    HW215612   2.661   0.956   8.400  1.1340 -1.1006  0.9140
 1385SOL     OW15613   3.419   0.135   1.595  1.0101  0.5646 -0.1114
 1385SOL    HW115614   3.515   0.139   1.591  1.0066 -0.4038 -0.9304
 1385SOL    HW215615   3.403   0.227   1.574  1.3562  1.2907  2.7868
 1386SOL     OW15616   3.137   1.379   3.519 -0.1040  0.5180  0.2404
 1386SOL    HW115617   3.088   1.352   3.441  1.6290 -1.5543 -0.1274
 1386SOL    HW215618   3.094   1.326   3.585 -0.4035 -0.2926 -0.6053
 1387SOL     OW15619   3.563   1.212   5.358 -0.0047 -0.3534  0.2545
 1387SOL    HW115620   3.573   1.117   5.356  0.3993 -0.2854 -1.6420
 1387SOL    HW215621   3.580   1.235   5.266 -1.9950  1.1190  0.2279
 1388SOL     OW15622   0.863   0.665   7.292 -0.1003 -0.0146  0.0430
 1388SOL    HW115623   0.952   0.629   7.299  0.5184  1.0865 -2.0686
 1388SOL    HW215624   0.817   0.644   7.373  0.6859 -2.4353 -0.1139
 1389SOL     OW15625   3.388   0.584   6.312  0.0600 -0.8406 -0.9698
 1389SOL    HW115626   3.437   0.660   6.282  0.9801 -0.6404  1.0276
 1389SOL    HW215627   3.443   0.523   6.361 -0.0626 -0.3869 -0.2578
 1390SOL     OW15628   1.059   0.026   5.039 -0.2774 -0.4426  0.1794
 1390SOL    HW115629   0.981   0.077   5.062  0.1854 -1.3549  3.8310
 1390SOL    HW215630   1.117   0.100   5.021  0.8968 -1.1813  0.9083
 1391SOL     OW15631   4.634   2.419   5.148 -0.4071 -0.0363 -0.4740
 1391SOL    HW115632   4.538   2.425   5.150 -0.3759 -0.8651  3.6677
 1391SOL    HW215633   4.659   2.474   5.223 -1.7119  0.0315 -0.0850
 1392SOL     OW15634   0.545   1.170   6.519  0.1540  0.1814  0.0409
 1392SOL    HW115635   0.567   1.158   6.611 -1.3834  0.0714  0.3988
 1392SOL    HW215636   0.534   1.265   6.512 -0.3862  0.2226  1.5872
 1393SOL     OW15637   1.474   3.402   2.629 -0.4356  0.4041 -0.2263
 1393SOL    HW115638   1.421   3.327   2.657  1.5915 -0.2571  1.8181
 1393SOL    HW215639   1.555   3.365   2.666 -0.9006 -0.4127 -0.0178
 1394SOL     OW15640   0.420   0.390   7.049 -0.4837  0.1709 -0.0867
 1394SOL    HW115641   0.354   0.429   7.106 -1.0853  0.3098 -0.8716
 1394SOL    HW215642   0.495   0.371   7.105  0.0447  1.2753 -0.4143
 1395SOL     OW15643   4.368   1.217   5.955  0.0467  0.0849  0.4036
 1395SOL    HW115644   4.291   1.252   5.999  0.6007 -0.1664  1.5688
 1395SOL    HW215645   4.419   1.195   6.033 -1.2380 -0.2135  1.1572
 1396SOL     OW15646   1.637   3.552   2.488  0.3010  0.5389  0.0318
 1396SOL    HW115647   1.579   3.518   2.556  1.9605 -2.7257 -0.2086
 1396SOL    HW215648   1.601   3.637   2.464 -1.1972 -0.4469 -1.2186
 1397SOL     OW15649   3.061   2.737   6.364 -0.4839  0.2911 -0.3567
 1397SOL    HW115650   3.034   2.645   6.355 -2.3665  1.0082 -2.2243
 1397SOL    HW215651   2.968   2.761   6.364 -0.6147 -0.2077 -1.3392
 1398SOL     OW15652   2.057   3.981   9.940  0.4204 -0.1452  0.2945
 1398SOL    HW115653   2.067   4.069   9.903 -0.8425 -0.5650 -1.0530
 1398SOL    HW215654   1.997   3.929   9.886 -0.0427 -0.8613  1.4960
 1399SOL     OW15655   4.676   2.635  12.531 -0.0809 -0.1360 -0.2003
 1399SOL    HW115656   4.712   2.597  12.450  0.2667  0.9127 -0.5330
 1399SOL    HW215657   4.592   2.671  12.504  0.1874  0.4868 -0.1982
 1400SOL     OW15658   0.724   3.997   0.696 -0.3444 -0.4261  0.1195
 1400SOL    HW115659   0.676   4.072   0.662  1.6017 -0.3693 -2.5069
 1400SOL    HW215660   0.731   4.001   0.791 -1.6607 -1.4563  0.2563
 1401SOL     OW15661   2.266   1.251   2.745  0.1833  0.1004 -0.5154
 1401SOL    HW115662   2.269   1.237   2.839 -0.0913  1.6588 -0.2806
 1401SOL    HW215663   2.239   1.343   2.753 -1.2809 -0.1056 -2.8971
 1402SOL     OW15664   4.485   1.492   7.618  0.0271 -0.1539  0.2653
 1402SOL    HW115665   4.485   1.543   7.699 -0.4377  0.7826 -0.3303
 1402SOL    HW215666   4.544   1.421   7.644  0.8068  0.1821 -0.5866
 1403SOL     OW15667   2.121   4.304   1.989 -0.1884  0.1813  0.2851
 1403SOL    HW115668   2.059   4.285   2.059  0.5847 -2.4577  0.2473
 1403SOL    HW215669   2.112   4.229   1.930 -1.0877  1.3898 -1.1328
 1404SOL     OW15670   2.944   3.630  16.685 -0.1260  0.1377 -0.7028
 1404SOL    HW115671   2.931   3.619  16.591  0.8142  1.6525 -1.0170
 1404SOL    HW215672   2.908   3.718  16.697 -0.3003 -0.4592  3.1690
 1405SOL     OW15673   4.699   2.394   5.875  0.1348 -0.0019  0.1521
 1405SOL    HW115674   0.064   2.429   5.878 -0.2740  0.8854  1.6683
 1405SOL    HW215675   4.699   2.335   5.799 -0.8174  1.1095 -0.7078
 1406SOL     OW15676   1.791   4.674   6.473  0.3004 -0.5269 -0.2927
 1406SOL    HW115677   1.733   4.640   6.542  2.3409  0.4290  1.9124
 1406SOL    HW215678   1.809   4.606   6.409  2.1478 -1.5209  1.2782
 1407SOL     OW15679   0.932   4.244   6.518  0.1461 -0.1819 -0.1595
 1407SOL    HW115680   0.944   4.182   6.446  2.4186  1.0452 -0.8259
 1407SOL    HW215681   0.836   4.246   6.526 -0.0019 -0.1448 -1.8594
 1408SOL     OW15682   1.192   0.765  14.858  0.2273 -0.1952 -0.9383
 1408SOL    HW115683   1.175   0.745  14.950 -0.6311 -1.0225 -1.2833
 1408SOL    HW215684   1.145   0.691  14.820 -0.1200 -1.1490  1.3737
 1409SOL     OW15685   0.026   3.208   8.111 -0.6014 -0.1889  0.0537
 1409SOL    HW115686   4.687   3.141   8.083 -0.7686 -0.5033  1.1806
 1409SOL    HW215687   0.007   3.220   8.204 -1.0904 -0.2489 -0.0372
 1410SOL     OW15688   2.302   2.224   3.288 -0.5023  0.1309 -0.4424
 1410SOL    HW115689   2.398   2.222   3.285 -0.5324 -1.2369 -0.7069
 1410SOL    HW215690   2.292   2.318   3.305 -1.0765  0.2481 -1.4538
 1411SOL     OW15691   1.448   0.905   2.379 -0.4914  0.3067 -0.3617
 1411SOL    HW115692   1.432   0.931   2.288 -0.8064 -0.6715 -0.5911
 1411SOL    HW215693   1.479   0.814   2.375 -1.7064 -0.1680  0.9310
 1412SOL     OW15694   3.354   0.902  17.414 -0.3569  0.1448  0.3539
 1412SOL    HW115695   3.379   0.994  17.427 -1.2661  0.6943 -1.8712
 1412SOL    HW215696   3.440   0.862  17.400 -1.0303 -0.9345 -0.6439
 1413SOL     OW15697   3.071   4.176   7.674  0.1095 -0.3824 -0.3073
 1413SOL    HW115698   3.005   4.127   7.722  0.2505  0.7018  1.0092
 1413SOL    HW215699   3.148   4.169   7.731 -1.8131  0.7072  2.3898
 1414SOL     OW15700   3.476   3.365   5.684  0.4067 -0.0875 -0.2753
 1414SOL    HW115701   3.388   3.385   5.714  0.5097  1.5170 -1.0420
 1414SOL    HW215702   3.522   3.395   5.763  0.3776  1.3146 -0.7999
 1415SOL     OW15703   2.445   0.008   6.281  0.0294 -0.4384  0.3502
 1415SOL    HW115704   2.426   0.097   6.312  1.8413 -0.4698  1.5930
 1415SOL    HW215705   2.537   4.717   6.302  0.8331 -0.6339 -3.2500
 1416SOL     OW15706   4.528   2.940   5.508  0.4823  0.1047  0.0771
 1416SOL    HW115707   4.488   2.857   5.535  0.4425 -0.2884 -1.1771
 1416SOL    HW215708   4.562   2.913   5.423  0.2472 -0.6103  0.2038
 1417SOL     OW15709   2.574   2.382   6.343 -0.4435 -0.1773  0.1626
 1417SOL    HW115710   2.489   2.416   6.368 -0.2598  0.4808 -0.1006
 1417SOL    HW215711   2.587   2.428   6.261  0.6673  1.0898  1.0434
 1418SOL     OW15712   3.926   0.107  10.479 -0.5166  0.0177  0.0704
 1418SOL    HW115713   3.983   0.157  10.538 -0.7726 -1.3014  1.4568
 1418SOL    HW215714   3.987   0.069  10.417  0.0612 -2.1317  1.9381
 1419SOL     OW15715   2.301   3.130   9.274 -0.6301  0.2539 -0.7354
 1419SOL    HW115716   2.378   3.077   9.292 -1.0608 -1.4133 -3.8265
 1419SOL    HW215717   2.351   3.209   9.253  1.9667 -0.9670  0.8867
 1420SOL     OW15718   4.230   1.194   9.001 -0.5203  0.5843  0.1038
 1420SOL    HW115719   4.239   1.163   9.091 -2.7235  0.7593  0.4033
 1420SOL    HW215720   4.141   1.229   9.007 -0.1957  1.3555  0.3995
 1421SOL     OW15721   1.342   3.270  16.538 -0.1926  0.7805  0.0048
 1421SOL    HW115722   1.298   3.328  16.477  0.2389  0.6368 -0.4463
 1421SOL    HW215723   1.302   3.269  16.625 -2.4784  1.9998 -1.0505
 1422SOL     OW15724   4.691   2.559   5.403  0.1302  0.0790  0.1501
 1422SOL    HW115725   0.062   2.544   5.409  0.5028  1.4677 -2.4313
 1422SOL    HW215726   4.675   2.586   5.494  1.9842  1.9017 -0.0494
 1423SOL     OW15727   2.400   1.795   3.255  0.3539 -0.1646  0.0495
 1423SOL    HW115728   2.462   1.786   3.183  0.9772 -1.5841  0.7592
 1423SOL    HW215729   2.395   1.890   3.267 -2.4709 -0.3072 -0.1091
 1424SOL     OW15730   0.106   2.717   2.903  0.2487 -0.3825 -0.3988
 1424SOL    HW115731   0.111   2.813   2.899 -0.8642 -0.3744 -1.3596
 1424SOL    HW215732   0.032   2.700   2.960  0.4513  0.2737  0.0693
 1425SOL     OW15733   2.539   0.933   4.373 -0.5635 -0.4215  0.8956
 1425SOL    HW115734   2.557   0.982   4.293 -0.4756  0.3012  1.3664
 1425SOL    HW215735   2.624   0.893   4.392 -0.4897 -0.4271  0.5559
 1426SOL     OW15736   2.807   2.665   6.124 -0.1244  0.2101  1.0045
 1426SOL    HW115737   2.815   2.735   6.188 -0.5266 -0.2240  1.5272
 1426SOL    HW215738   2.729   2.616   6.149 -1.2570  0.3700 -2.1996
 1427SOL     OW15739   3.826   2.264  16.237  0.2309 -0.0492  0.0340
 1427SOL    HW115740   3.855   2.264  16.146 -0.6370  1.8523 -0.2548
 1427SOL    HW215741   3.884   2.194  16.267 -3.2202 -1.4276  3.5569
 1428SOL     OW15742   4.702   0.723  10.558  0.0655  0.0415  0.3901
 1428SOL    HW115743   0.023   0.643  10.585  0.7060  1.2078  2.8709
 1428SOL    HW215744   4.649   0.717  10.638  0.4537  3.4265  0.9303
 1429SOL     OW15745   1.088   4.600   8.126  0.0206  0.8045 -0.3582
 1429SOL    HW115746   1.024   4.531   8.108 -0.6442  1.2557  0.3281
 1429SOL    HW215747   1.026   4.659   8.168 -0.9888  0.0345 -0.7591
 1430SOL     OW15748   4.258   1.102  12.419 -0.6010 -0.4110 -0.5558
 1430SOL    HW115749   4.304   1.029  12.460 -1.1184 -0.7734 -0.6226
 1430SOL    HW215750   4.192   1.054  12.369 -1.9058  1.4150 -0.5975
 1431SOL     OW15751   0.878   2.696  15.179 -0.2414  0.0855  0.5600
 1431SOL    HW115752   0.968   2.671  15.200 -0.0200 -0.7105 -1.3978
 1431SOL    HW215753   0.883   2.785  15.145  0.3185 -0.2219 -0.1526
 1432SOL     OW15754   0.103   3.594   4.625 -0.9985  0.7019 -0.2179
 1432SOL    HW115755   0.056   3.518   4.589  1.5077 -1.5600  1.3166
 1432SOL    HW215756   0.033   3.652   4.656  0.2686  2.2166 -0.2290
 1433SOL     OW15757   2.004   0.075  11.501 -0.3563 -0.1043 -0.1160
 1433SOL    HW115758   1.968   0.115  11.581 -2.0212  0.3325 -1.0736
 1433SOL    HW215759   1.921   0.042  11.465 -0.7338  0.9523 -0.2190
 1434SOL     OW15760   1.152   1.312   4.121 -0.4958  0.1874  0.2944
 1434SOL    HW115761   1.133   1.239   4.061  1.3327  0.2507 -0.3885
 1434SOL    HW215762   1.248   1.308   4.128 -0.3228  0.5659 -1.6769
 1435SOL     OW15763   4.528   4.460   4.245  0.0637 -0.2046 -0.4208
 1435SOL    HW115764   4.557   4.378   4.284 -1.0758  0.2790  1.4571
 1435SOL    HW215765   4.455   4.439   4.187  0.9328 -0.5589 -1.3738
 1436SOL     OW15766   4.642   0.500   6.661  0.0739  0.1114  0.3539
 1436SOL    HW115767   4.630   0.522   6.753 -2.6914 -2.8617  0.7296
 1436SOL    HW215768   4.615   0.408   6.665 -0.0448  0.0707 -1.1272
 1437SOL     OW15769   0.306   1.849   2.489  0.1079  0.2138  0.1859
 1437SOL    HW115770   0.263   1.915   2.434  0.5665 -1.2609 -1.8919
 1437SOL    HW215771   0.345   1.897   2.562 -0.7307  1.2449 -0.0253
 1438SOL     OW15772   0.976   4.026  12.029 -0.1524  0.5951 -0.3117
 1438SOL    HW115773   0.980   4.006  12.122  1.0072  0.7613 -0.3156
 1438SOL    HW215774   0.884   4.046  12.012 -0.7877 -1.1629  1.2184
 1439SOL     OW15775   0.566   3.747   4.159  0.0353 -0.4197 -0.4981
 1439SOL    HW115776   0.598   3.828   4.199 -0.5706  0.6760 -2.2371
 1439SOL    HW215777   0.472   3.751   4.177  0.0582 -1.1830 -0.1911
 1440SOL     OW15778   4.509   0.433   5.159 -0.1013  0.3748 -0.4815
 1440SOL    HW115779   4.564   0.446   5.083  2.0154  0.6337  1.0902
 1440SOL    HW215780   4.446   0.505   5.171 -0.9578 -0.8355  2.2189
 1441SOL     OW15781   4.431   3.648   0.383 -0.1367  0.4377 -0.1287
 1441SOL    HW115782   4.486   3.654   0.305 -0.9588  1.7674 -0.5997
 1441SOL    HW215783   4.427   3.553   0.386  1.4221  0.4450  2.0625
 1442SOL     OW15784   0.453   3.177   3.532  0.3958 -0.2449 -0.2375
 1442SOL    HW115785   0.365   3.201   3.561  1.3045  0.2706  2.0765
 1442SOL    HW215786   0.447   3.084   3.550  0.5081 -0.1037  0.5049
 1443SOL     OW15787   0.907   0.050  12.362 -0.5763  0.0205  0.6340
 1443SOL    HW115788   0.911   0.145  12.349 -0.9294 -0.0308  0.1298
 1443SOL    HW215789   0.830   0.033  12.416 -0.3942 -2.2174  0.1905
 1444SOL     OW15790   1.905   1.968   2.547  0.2373 -0.6820  0.2398
 1444SOL    HW115791   1.929   1.957   2.455 -0.4792 -3.1321  0.3586
 1444SOL    HW215792   1.949   2.053   2.559 -1.4212  0.0976  0.8816
 1445SOL     OW15793   4.178   3.798  10.417  0.1831 -0.1710 -0.1654
 1445SOL    HW115794   4.271   3.810  10.433 -0.0118  2.2008 -0.8262
 1445SOL    HW215795   4.162   3.708  10.447 -0.4914 -0.1122 -0.3369
 1446SOL     OW15796   3.880   1.890   5.468  0.4716  0.2122  0.5931
 1446SOL    HW115797   3.870   1.814   5.411  2.2605  1.7218 -1.7053
 1446SOL    HW215798   3.969   1.874   5.501  0.8484 -0.3485 -0.7158
 1447SOL     OW15799   3.784   3.505  16.407 -0.7410  0.0494 -0.4248
 1447SOL    HW115800   3.798   3.589  16.362  3.1172  1.0431  2.5470
 1447SOL    HW215801   3.823   3.522  16.492 -1.4563 -2.5725  0.3945
 1448SOL     OW15802   0.926   2.429   1.732 -0.0207  0.1492 -0.1154
 1448SOL    HW115803   0.913   2.337   1.757 -0.3236  0.2367  0.0492
 1448SOL    HW215804   0.848   2.448   1.679 -0.2721 -0.2513  0.1064
 1449SOL     OW15805   0.810   1.879   6.622 -0.6839  0.2031 -0.4586
 1449SOL    HW115806   0.773   1.860   6.709 -0.1380 -1.4197 -0.5765
 1449SOL    HW215807   0.876   1.944   6.642 -0.8362 -0.3033  1.7217
 1450SOL     OW15808   3.595   0.313  16.335 -0.5604 -0.0232 -0.1743
 1450SOL    HW115809   3.590   0.392  16.282 -2.4694 -1.0034 -1.4644
 1450SOL    HW215810   3.626   0.344  16.420  0.0930 -0.2180 -0.3376
 1451SOL     OW15811   4.159   4.013   2.996  0.1326  0.3454  0.1430
 1451SOL    HW115812   4.241   3.987   3.037  0.6582  0.0645 -1.0949
 1451SOL    HW215813   4.101   4.016   3.072 -0.3113  1.2124 -0.2226
 1452SOL     OW15814   3.201   1.512   6.881 -0.0589 -0.0842 -0.3643
 1452SOL    HW115815   3.289   1.508   6.918 -0.0791  1.9063 -0.0762
 1452SOL    HW215816   3.171   1.601   6.903  0.2719  0.1772 -0.9526
 1453SOL     OW15817   4.418   0.564   4.215  0.4216  0.0806 -0.5602
 1453SOL    HW115818   4.457   0.485   4.177  1.9584  1.0910 -1.0806
 1453SOL    HW215819   4.396   0.606   4.132  0.6990  3.3349  1.0430
 1454SOL     OW15820   0.765   4.099   8.377  0.3335 -0.2254 -0.0338
 1454SOL    HW115821   0.725   4.016   8.350  2.6912 -1.4729  0.2845
 1454SOL    HW215822   0.691   4.152   8.406  0.3662 -1.0844  1.6016
 1455SOL     OW15823   4.557   1.250   5.273  0.3574  0.2350 -0.3976
 1455SOL    HW115824   4.591   1.280   5.189 -3.2016  1.3158 -1.4526
 1455SOL    HW215825   4.521   1.166   5.246 -1.5846  0.3720  1.7391
 1456SOL     OW15826   2.557   1.655   4.980 -0.4443  0.3411  0.7457
 1456SOL    HW115827   2.552   1.564   4.951  0.3840  0.2365  0.9441
 1456SOL    HW215828   2.480   1.667   5.037 -0.8053 -1.1366  0.5666
 1457SOL     OW15829   0.045   2.974   7.437 -0.5581 -0.1471  0.4799
 1457SOL    HW115830   0.125   3.026   7.442 -0.6529  0.1251 -0.8568
 1457SOL    HW215831   0.083   2.892   7.406  0.9673  0.4127  0.8464
 1458SOL     OW15832   2.918   2.484   7.791  0.2960  0.1713  0.4342
 1458SOL    HW115833   2.914   2.427   7.714  1.1962  0.5760  0.0882
 1458SOL    HW215834   3.012   2.499   7.804  0.3167  0.2759  0.1491
 1459SOL     OW15835   1.952   2.102   5.202  0.0459 -0.4451  0.6326
 1459SOL    HW115836   2.034   2.109   5.251  0.4239 -2.3776  0.2588
 1459SOL    HW215837   1.944   2.017   5.160 -0.1362 -0.9582  1.6937
 1460SOL     OW15838   2.982   1.118   8.793  0.5981  0.3482 -0.1003
 1460SOL    HW115839   2.908   1.116   8.733  0.3642  1.0415  0.1688
 1460SOL    HW215840   3.056   1.117   8.732  2.0262 -1.1135  1.6428
 1461SOL     OW15841   4.351   2.160   2.692  0.3223  0.1201 -0.5004
 1461SOL    HW115842   4.323   2.112   2.614 -1.8431  0.3793  0.1162
 1461SOL    HW215843   4.407   2.227   2.652 -0.3139  0.7568 -0.3390
 1462SOL     OW15844   3.596   4.443   3.369 -0.0083 -0.2997  0.6208
 1462SOL    HW115845   3.549   4.503   3.311  0.6219 -0.4950 -0.0962
 1462SOL    HW215846   3.685   4.469   3.345  0.2076 -0.5217  1.1716
 1463SOL     OW15847   1.441   2.700   3.518  0.1597  1.0324  0.4512
 1463SOL    HW115848   1.429   2.761   3.445  1.0136  0.9059  0.2117
 1463SOL    HW215849   1.356   2.689   3.561 -1.4892  0.1300 -3.0902
 1464SOL     OW15850   0.262   4.617   9.812  0.1187  0.3426  0.1015
 1464SOL    HW115851   0.208   4.546   9.775  0.6769 -0.1962  0.3287
 1464SOL    HW215852   0.351   4.589   9.791 -0.1484 -1.1543  0.9640
 1465SOL     OW15853   3.500   1.796  14.760 -0.1350 -0.2070 -0.2062
 1465SOL    HW115854   3.512   1.881  14.720 -2.4565  1.1014  1.8456
 1465SOL    HW215855   3.475   1.820  14.850  0.0356 -1.0644  0.0751
 1466SOL     OW15856   0.439   1.971  13.923 -0.0567 -0.3630 -0.1460
 1466SOL    HW115857   0.425   2.066  13.932 -1.0855 -0.4844 -0.4156
 1466SOL    HW215858   0.378   1.941  13.855  0.7123 -1.1199 -0.4963
 1467SOL     OW15859   4.149   0.909   7.748  0.4641 -0.2671  0.4052
 1467SOL    HW115860   4.110   0.996   7.749 -2.1923 -1.4735  1.2872
 1467SOL    HW215861   4.202   0.910   7.827 -1.4460  0.5456  1.6748
 1468SOL     OW15862   2.646   2.458   8.097 -0.0673  0.0067  0.2930
 1468SOL    HW115863   2.651   2.427   8.188  0.8677 -0.5437  0.0535
 1468SOL    HW215864   2.648   2.553   8.104 -1.9068  0.0544  0.3357
 1469SOL     OW15865   1.005   1.155  17.164  0.5727 -0.7615  0.7572
 1469SOL    HW115866   1.044   1.220  17.106 -0.7879  0.2005  0.9018
 1469SOL    HW215867   0.921   1.195  17.186  0.4934 -0.0661 -0.8037
 1470SOL     OW15868   3.811   0.180   8.912 -0.5677  0.5958 -0.3824
 1470SOL    HW115869   3.866   0.106   8.940 -1.1787 -0.0476 -0.8926
 1470SOL    HW215870   3.734   0.127   8.895 -0.3512  0.4226 -0.8138
 1471SOL     OW15871   1.821   0.835   8.666  0.0055  0.9401 -0.1959
 1471SOL    HW115872   1.766   0.913   8.674  0.9262  1.2847  2.8361
 1471SOL    HW215873   1.767   0.777   8.719 -1.0792  1.9624 -0.1745
 1472SOL     OW15874   1.586   0.441   5.710 -0.0585  0.4684 -0.1684
 1472SOL    HW115875   1.507   0.493   5.721 -0.8600 -1.3850  2.7231
 1472SOL    HW215876   1.650   0.502   5.747 -0.1180  0.4814 -0.0885
 1473SOL     OW15877   1.167   1.901   1.790 -0.2842  0.1573  0.5578
 1473SOL    HW115878   1.151   1.840   1.863  0.4712  0.9962  1.4323
 1473SOL    HW215879   1.099   1.881   1.725  0.5772 -0.7490 -0.0607
 1474SOL     OW15880   2.952   4.522   6.167  0.0825  0.5401 -0.6459
 1474SOL    HW115881   3.045   4.543   6.178 -0.1606  1.7469 -0.8614
 1474SOL    HW215882   2.954   4.463   6.092 -2.3247 -0.9465  0.4749
 1475SOL     OW15883   0.874   0.813   2.572 -0.2594 -0.8505  0.5528
 1475SOL    HW115884   0.781   0.797   2.586  0.1585 -2.0528  1.8637
 1475SOL    HW215885   0.908   0.745   2.630  0.2232 -0.4870  0.6995
 1476SOL     OW15886   2.748   4.215   4.765 -0.1142  0.4648  0.0221
 1476SOL    HW115887   2.682   4.273   4.804 -0.2303 -0.7597  1.6291
 1476SOL    HW215888   2.731   4.220   4.671 -1.6190 -1.1824  0.2258
 1477SOL     OW15889   3.472   0.329  14.088 -0.1883 -0.0001  0.6074
 1477SOL    HW115890   3.529   0.350  14.163 -0.8233 -1.0832  1.4022
 1477SOL    HW215891   3.390   0.376  14.103  0.7962  2.8174 -2.9650
 1478SOL     OW15892   2.274   3.211   3.257 -0.4486 -0.0132  0.3695
 1478SOL    HW115893   2.209   3.151   3.294 -1.0709 -1.1742 -2.6025
 1478SOL    HW215894   2.332   3.222   3.332 -1.8240  2.1148  1.0998
 1479SOL     OW15895   3.715   1.118   7.719 -0.4290 -0.5277 -0.5880
 1479SOL    HW115896   3.715   1.122   7.815 -1.3722  1.4385 -0.6825
 1479SOL    HW215897   3.659   1.041   7.708 -1.2263  0.1927 -1.4944
 1480SOL     OW15898   2.509   4.547  16.554  0.1639 -0.6727 -0.5771
 1480SOL    HW115899   2.498   4.556  16.459  2.0682 -1.4003 -0.8626
 1480SOL    HW215900   2.450   4.475  16.577 -0.7483  0.1558 -0.3472
 1481SOL     OW15901   3.049   3.588   2.720 -0.0611  0.6022  0.0938
 1481SOL    HW115902   3.133   3.543   2.718 -1.8093 -2.6150 -0.6388
 1481SOL    HW215903   3.071   3.659   2.660 -1.2247 -0.5033 -1.6431
 1482SOL     OW15904   0.679   2.986   4.955  0.4992  0.2480 -1.0273
 1482SOL    HW115905   0.758   3.019   4.997 -0.2826 -0.2456  0.8009
 1482SOL    HW215906   0.603   3.011   5.006  0.3173 -0.2580 -1.0488
 1483SOL     OW15907   1.450   1.937   2.888  0.2563 -0.7700 -0.1788
 1483SOL    HW115908   1.371   1.939   2.834 -0.6338  1.8020  1.2509
 1483SOL    HW215909   1.510   1.929   2.814  1.7745  0.3142  0.9383
 1484SOL     OW15910   1.873   2.662   5.017  0.0940  0.2243 -0.2846
 1484SOL    HW115911   1.959   2.632   5.049 -0.2058 -2.0867 -1.6285
 1484SOL    HW215912   1.864   2.587   4.958  2.9358  0.4233 -0.9718
 1485SOL     OW15913   2.843   2.064   6.206  0.1125 -0.0988 -0.0035
 1485SOL    HW115914   2.779   2.061   6.135 -0.8888  1.5105  0.8292
 1485SOL    HW215915   2.782   2.063   6.279 -1.1503  0.9710 -1.0462
 1486SOL     OW15916   0.263   2.810   4.186 -0.2875  0.3443 -0.0059
 1486SOL    HW115917   0.213   2.766   4.255  0.6863 -0.4178  0.2107
 1486SOL    HW215918   0.199   2.805   4.115  0.3379 -2.8600 -0.3205
 1487SOL     OW15919   4.688   4.516  17.480 -0.9071 -0.0210  0.0842
 1487SOL    HW115920   0.018   4.470  17.544 -1.0686  0.2274  0.3958
 1487SOL    HW215921   4.621   4.534  17.546 -1.1362  1.0404 -0.4451
 1488SOL     OW15922   1.337   2.440   2.382  0.3062  0.9194 -0.1539
 1488SOL    HW115923   1.348   2.350   2.414  1.7912  0.4315 -2.0404
 1488SOL    HW215924   1.332   2.494   2.461  2.9980  1.5228 -0.4023
 1489SOL     OW15925   2.546   3.053   8.424  0.6026  0.0578  0.1593
 1489SOL    HW115926   2.522   3.076   8.335 -0.4013  1.2653  0.7507
 1489SOL    HW215927   2.510   2.965   8.439  0.9512 -0.1725 -0.3532
 1490SOL     OW15928   1.646   0.813  11.618 -0.9603 -0.0729  0.0064
 1490SOL    HW115929   1.657   0.854  11.532 -0.2516  1.1145  0.6663
 1490SOL    HW215930   1.647   0.900  11.658  0.0866 -0.2387  0.3606
 1491SOL     OW15931   3.071   1.368   7.573  0.2283 -0.1079  0.3953
 1491SOL    HW115932   3.038   1.311   7.643  0.4936 -0.4362  0.2502
 1491SOL    HW215933   3.144   1.313   7.546  1.6701  3.3422 -2.6324
 1492SOL     OW15934   2.546   3.096   4.053 -0.5298 -0.0215 -0.0480
 1492SOL    HW115935   2.564   3.139   4.137 -0.4575  1.4356 -0.8015
 1492SOL    HW215936   2.538   3.003   4.074 -0.5237 -0.0598 -0.2141
 1493SOL     OW15937   4.107   4.034   6.500  0.2517  0.0258 -0.4001
 1493SOL    HW115938   4.036   4.088   6.464 -0.1009  0.0430  0.3237
 1493SOL    HW215939   4.171   4.105   6.493 -0.5159  0.6105 -1.5278
 1494SOL     OW15940   1.415   2.737   2.209 -0.3972 -0.6970  0.3207
 1494SOL    HW115941   1.354   2.811   2.202  1.5196  0.7763 -0.6902
 1494SOL    HW215942   1.367   2.674   2.155  0.1581 -1.1811  0.3955
 1495SOL     OW15943   2.265   2.482  17.422 -0.7553 -0.1749  0.0675
 1495SOL    HW115944   2.221   2.563  17.397  0.8068 -0.6380 -4.1942
 1495SOL    HW215945   2.222   2.423  17.360 -0.3521 -1.6275  1.1776
 1496SOL     OW15946   0.437   0.234   8.770 -0.0201  0.1782 -0.5295
 1496SOL    HW115947   0.357   0.222   8.822  1.4044 -0.1471  1.5870
 1496SOL    HW215948   0.483   0.309   8.809 -1.1824  0.0560  1.0583
 1497SOL     OW15949   2.285   3.746  15.200 -0.9120  0.0758 -0.0916
 1497SOL    HW115950   2.312   3.753  15.109 -2.2924  2.5056 -0.3236
 1497SOL    HW215951   2.209   3.804  15.211  0.8467  1.6245  3.7143
 1498SOL     OW15952   1.704   1.154   7.535  0.2296  0.6210  0.2059
 1498SOL    HW115953   1.704   1.065   7.569  0.0539  0.5316 -0.0337
 1498SOL    HW215954   1.750   1.200   7.605  0.6755 -1.0467  0.9897
 1499SOL     OW15955   0.447   1.220   8.621  0.3276  0.0382  0.3489
 1499SOL    HW115956   0.484   1.299   8.662  0.8284 -0.7079  1.3606
 1499SOL    HW215957   0.508   1.154   8.655 -0.5791 -1.2050 -0.4080
 1500SOL     OW15958   2.502   4.184   7.650 -0.1671  0.3790 -0.0804
 1500SOL    HW115959   2.425   4.227   7.613  1.1171  2.6683 -0.0439
 1500SOL    HW215960   2.547   4.255   7.695  1.4340  0.1113 -1.2407
 1501SOL     OW15961   2.622   3.523  10.987 -0.2886  0.0807  0.1523
 1501SOL    HW115962   2.570   3.492  10.913 -0.2502  0.0613  0.1338
 1501SOL    HW215963   2.689   3.454  10.993  0.1336  0.6884  2.4854
 1502SOL     OW15964   1.803   0.975  16.641 -0.6552  0.2614 -0.0493
 1502SOL    HW115965   1.814   0.927  16.559  0.8334 -0.7574  0.7445
 1502SOL    HW215966   1.877   1.036  16.641  0.4101 -1.0167 -0.5601
 1503SOL     OW15967   4.515   4.581   8.586  0.2019 -0.1453 -0.0612
 1503SOL    HW115968   4.432   4.617   8.617  0.9829  0.4925  1.2628
 1503SOL    HW215969   4.575   4.634   8.638 -0.8216  1.5317 -0.5843
 1504SOL     OW15970   3.782   3.567  14.150  0.5389  0.1209  0.1266
 1504SOL    HW115971   3.781   3.491  14.209 -0.3534 -1.5664 -2.0235
 1504SOL    HW215972   3.734   3.635  14.197 -1.8934 -0.7585 -1.0488
 1505SOL     OW15973   0.299   0.480   4.511 -0.2392 -0.5074  0.4012
 1505SOL    HW115974   0.294   0.512   4.421  2.5786  0.7044  0.7035
 1505SOL    HW215975   0.391   0.495   4.533 -0.6179 -0.6917  2.1121
 1506SOL     OW15976   2.691   1.822   4.823 -0.4830  0.4315  0.6361
 1506SOL    HW115977   2.636   1.766   4.877 -0.2954 -2.3213 -2.0229
 1506SOL    HW215978   2.728   1.759   4.761  1.0399 -0.4876  2.5011
 1507SOL     OW15979   4.556   2.146   5.335 -0.1991  0.4450  0.1168
 1507SOL    HW115980   4.528   2.154   5.244  1.4753 -0.7479 -0.5233
 1507SOL    HW215981   4.470   2.141   5.376  0.1378  1.3552  0.9181
 1508SOL     OW15982   0.924   3.215  11.118 -0.2085 -0.2422 -0.5204
 1508SOL    HW115983   0.888   3.289  11.070 -1.8331 -0.3958  0.4876
 1508SOL    HW215984   1.017   3.239  11.120 -0.3801  0.0780  2.4893
 1509SOL     OW15985   4.259   0.286  16.179 -0.3876  0.2790 -0.1847
 1509SOL    HW115986   4.327   0.226  16.211 -0.4134 -0.9197 -2.4270
 1509SOL    HW215987   4.198   0.225  16.139 -1.6848  2.3875 -1.4067
 1510SOL     OW15988   2.815   4.520   8.449  0.2741 -0.2504 -0.3095
 1510SOL    HW115989   2.901   4.552   8.476 -0.3684  1.2797 -0.0585
 1510SOL    HW215990   2.764   4.601   8.452 -1.4151 -1.3193 -0.1705
 1511SOL     OW15991   2.390   2.287   5.904 -0.0844 -0.2521 -0.1537
 1511SOL    HW115992   2.343   2.364   5.937 -1.3187 -2.3465  3.0026
 1511SOL    HW215993   2.417   2.322   5.819  1.7585 -2.0391 -0.2864
 1512SOL     OW15994   1.588   4.619   7.190 -0.8893  0.5350 -0.2915
 1512SOL    HW115995   1.628   4.624   7.277 -0.3226  1.5660 -0.6121
 1512SOL    HW215996   1.634   4.690   7.146  2.0460 -1.4056 -0.3839
 1513SOL     OW15997   1.729   3.805   4.459 -0.0849  0.1730 -0.7342
 1513SOL    HW115998   1.708   3.740   4.392 -0.3468 -1.2718  0.7483
 1513SOL    HW215999   1.668   3.777   4.528  1.1848 -0.0800  0.2772
 1514SOL     OW16000   1.787   0.761  14.106 -0.0351 -0.4922 -0.3096
 1514SOL    HW116001   1.833   0.840  14.133 -0.8111  0.2552 -1.1519
 1514SOL    HW216002   1.854   0.726  14.048  0.7684  1.9456 -0.8615
 1515SOL     OW16003   1.279   1.238   9.237 -0.5159 -0.8139 -0.3137
 1515SOL    HW116004   1.296   1.182   9.313 -1.1385 -0.3586  0.1530
 1515SOL    HW216005   1.184   1.227   9.232 -0.9421  1.3374  2.6067
 1516SOL     OW16006   2.575   4.120  16.272 -0.1420  0.1649  0.0614
 1516SOL    HW116007   2.523   4.195  16.241  0.1204  0.5976  0.6727
 1516SOL    HW216008   2.628   4.106  16.194 -0.4780  2.9191 -0.6792
 1517SOL     OW16009   3.985   0.954   2.227  0.1463  0.3024  0.3289
 1517SOL    HW116010   4.065   0.991   2.190  1.1574 -1.3513  0.8644
 1517SOL    HW216011   4.029   0.931   2.309  2.0586  1.0440 -0.4748
 1518SOL     OW16012   0.411   3.643  15.869  0.9267 -0.0588 -0.2756
 1518SOL    HW116013   0.338   3.632  15.808 -0.0203 -0.8878  1.0092
 1518SOL    HW216014   0.473   3.696  15.820 -0.4555 -0.5363 -2.5492
 1519SOL     OW16015   2.593   2.594   9.544 -0.5878 -0.1464 -0.1803
 1519SOL    HW116016   2.601   2.646   9.464  1.5324 -1.7761 -1.0239
 1519SOL    HW216017   2.667   2.643   9.580 -2.8258  2.6271  0.6741
 1520SOL     OW16018   0.265   4.481   3.698  0.0233 -0.3857 -0.4177
 1520SOL    HW116019   0.209   4.422   3.647 -2.4472  3.4683 -2.2071
 1520SOL    HW216020   0.208   4.558   3.707  0.2564 -0.1973 -0.5634
 1521SOL     OW16021   3.215   0.852   5.404 -0.1287  0.4698  0.4479
 1521SOL    HW116022   3.195   0.759   5.391 -1.9565  0.8501  0.5667
 1521SOL    HW216023   3.223   0.857   5.500 -0.1065 -0.8568  0.5159
 1522SOL     OW16024   1.244   0.809   0.103 -0.1952  0.0206 -0.2121
 1522SOL    HW116025   1.273   0.889   0.148 -1.6126 -0.0510  0.8146
 1522SOL    HW216026   1.187   0.769   0.169 -1.2068 -1.3008 -1.9176
 1523SOL     OW16027   4.192   4.633   3.212 -0.1922 -0.3575 -0.0283
 1523SOL    HW116028   4.122   4.609   3.272 -2.2022  0.9266 -1.8689
 1523SOL    HW216029   4.236   4.708   3.253 -0.6961  0.0172 -0.1654
 1524SOL     OW16030   0.968   3.221  12.729 -0.0966 -0.1885  0.4003
 1524SOL    HW116031   0.994   3.154  12.792  0.1339 -1.3802 -0.9662
 1524SOL    HW216032   0.878   3.237  12.757  0.1881 -0.0010  1.2121
 1525SOL     OW16033   4.052   2.545   7.128 -0.4783 -0.3219  0.1233
 1525SOL    HW116034   4.142   2.567   7.104 -0.1848 -1.8937 -0.2357
 1525SOL    HW216035   4.033   2.631   7.165 -2.9546 -1.1149  0.7121
 1526SOL     OW16036   1.431   4.660   9.856  0.0176  0.1318 -0.1637
 1526SOL    HW116037   1.470   4.576   9.881  0.2341 -0.7029 -3.2018
 1526SOL    HW216038   1.367   4.673   9.925  1.0341  4.6142 -0.1051
 1527SOL     OW16039   0.992   2.170   4.860 -1.1765  1.0287  0.1056
 1527SOL    HW116040   0.929   2.235   4.829  0.4856  1.6648 -1.8877
 1527SOL    HW216041   0.930   2.117   4.911  0.6554 -0.6031  0.6407
 1528SOL     OW16042   2.773   2.982   0.402  0.4559 -0.5963  0.2937
 1528SOL    HW116043   2.707   3.051   0.395  1.6230  0.5591  0.4054
 1528SOL    HW216044   2.718   2.923   0.351 -0.5547  0.7248 -0.1468
 1529SOL     OW16045   3.399   3.618   4.531  0.3364 -0.1362  0.2417
 1529SOL    HW116046   3.395   3.702   4.485  1.4726  0.2271  0.8119
 1529SOL    HW216047   3.458   3.574   4.471 -0.2440  1.9528 -1.8793
 1530SOL     OW16048   2.978   4.457   6.685 -0.1573  0.1100  0.1488
 1530SOL    HW116049   2.959   4.378   6.634 -0.7579  0.6234 -0.4129
 1530SOL    HW216050   3.063   4.433   6.722 -0.6349 -2.1793 -0.2470
 1531SOL     OW16051   4.032   0.982  11.477 -0.0935  0.3322  0.1136
 1531SOL    HW116052   4.104   0.953  11.534 -0.5139 -0.2216  0.3689
 1531SOL    HW216053   3.960   0.933  11.518 -0.8192  0.9234 -0.4552
 1532SOL     OW16054   0.064   3.372   3.715  0.4416 -0.1678  0.0652
 1532SOL    HW116055   4.714   3.405   3.767  0.1001 -0.9998  0.0996
 1532SOL    HW216056   0.070   3.435   3.643  0.3323 -1.1476 -0.7921
 1533SOL     OW16057   4.349   3.668   2.975  0.3628 -0.1236  0.6012
 1533SOL    HW116058   4.264   3.637   2.946  0.7984  1.3206 -2.2761
 1533SOL    HW216059   4.382   3.605   3.039 -1.1174 -1.9627 -0.4314
 1534SOL     OW16060   1.647   2.189   5.784  0.2506 -0.1375  0.7088
 1534SOL    HW116061   1.692   2.273   5.791  1.1585 -0.4873 -0.9878
 1534SOL    HW216062   1.614   2.179   5.695 -0.7310  1.7087  0.8496
 1535SOL     OW16063   3.732   3.926  12.403 -0.5017 -0.3023 -0.0970
 1535SOL    HW116064   3.816   3.897  12.438 -0.6856 -0.8813 -0.1312
 1535SOL    HW216065   3.668   3.863  12.438 -1.1909 -0.1258 -1.0484
 1536SOL     OW16066   4.285   3.771   5.614  0.2552 -0.0068 -0.2588
 1536SOL    HW116067   4.210   3.712   5.614  0.1833  0.0793  0.6355
 1536SOL    HW216068   4.303   3.768   5.520  0.3031  1.5043 -0.2958
 1537SOL     OW16069   2.105   2.897   9.100  0.0448  0.6302  0.2023
 1537SOL    HW116070   2.184   2.854   9.133  0.5808 -1.6228 -4.0040
 1537SOL    HW216071   2.065   2.951   9.167 -0.7605  0.8029 -0.4215
 1538SOL     OW16072   0.458   0.872  14.581  0.1093  0.2016 -0.2543
 1538SOL    HW116073   0.476   0.927  14.504 -1.2900  0.6539 -0.2585
 1538SOL    HW216074   0.511   0.798  14.550  2.4236  0.7595  2.4109
 1539SOL     OW16075   2.880   2.484   3.439 -0.1798 -0.0286 -0.0235
 1539SOL    HW116076   2.930   2.451   3.364 -2.3918 -0.3691 -1.3418
 1539SOL    HW216077   2.921   2.568   3.462 -1.9971  0.3959  1.6369
 1540SOL     OW16078   2.232   2.457   6.125  0.1424 -0.3694 -0.2445
 1540SOL    HW116079   2.138   2.440   6.123  0.1972 -0.6412 -0.5824
 1540SOL    HW216080   2.249   2.548   6.100 -0.1962  0.4911  2.6533
 1541SOL     OW16081   2.199   2.456   2.455  0.5169  0.3603 -0.5828
 1541SOL    HW116082   2.218   2.400   2.379 -1.3550 -0.4043 -0.4966
 1541SOL    HW216083   2.161   2.527   2.403  1.3397 -0.5410 -2.4281
 1542SOL     OW16084   3.509   0.784  11.743  0.1665  0.1048  0.1197
 1542SOL    HW116085   3.544   0.752  11.660 -1.0568 -0.3145 -0.2328
 1542SOL    HW216086   3.564   0.861  11.761 -0.6433  1.0601 -1.4555
 1543SOL     OW16087   2.241   3.724   3.903 -0.0563 -0.1076  0.5966
 1543SOL    HW116088   2.194   3.756   3.826  1.7374 -0.9178 -0.8182
 1543SOL    HW216089   2.174   3.725   3.971  0.4710  1.9585  1.0964
 1544SOL     OW16090   0.934   3.402  15.368  0.6489 -0.5014  0.3887
 1544SOL    HW116091   0.971   3.473  15.316 -2.0815  1.1476  0.6529
 1544SOL    HW216092   0.896   3.450  15.442 -1.6155 -1.9611  0.1911
 1545SOL     OW16093   2.444   1.641   3.578 -0.3388 -0.6487 -0.6304
 1545SOL    HW116094   2.415   1.601   3.660  3.4930 -1.4251  0.3514
 1545SOL    HW216095   2.521   1.587   3.559  0.5903  0.3215  0.3278
 1546SOL     OW16096   1.102   1.073  13.360 -0.1811  0.4356 -0.0260
 1546SOL    HW116097   1.133   1.163  13.365 -1.8947  0.9532  1.1728
 1546SOL    HW216098   1.007   1.067  13.372 -0.1348  0.1802  0.2395
 1547SOL     OW16099   4.155   3.897   5.184  0.2659 -0.0025 -0.4788
 1547SOL    HW116100   4.195   3.932   5.104  0.6536  0.8671  0.0950
 1547SOL    HW216101   4.176   3.966   5.248  1.0832 -1.4350  0.8037
 1548SOL     OW16102   4.395   0.353   9.986  0.1683  0.1137 -0.6183
 1548SOL    HW116103   4.371   0.277  10.039 -2.7374  0.8568 -0.8529
 1548SOL    HW216104   4.418   0.418  10.052  2.5011  0.1840 -1.5083
 1549SOL     OW16105   1.849   3.594  12.427 -0.8637 -0.0748  0.2139
 1549SOL    HW116106   1.890   3.540  12.494  1.2395 -1.1689 -1.9560
 1549SOL    HW216107   1.907   3.670  12.431 -2.4945  1.1378  1.3379
 1550SOL     OW16108   3.861   1.469   3.569  0.3867 -0.2175  0.0363
 1550SOL    HW116109   3.957   1.466   3.565  0.3709  1.7402 -2.2356
 1550SOL    HW216110   3.840   1.412   3.495 -1.2662 -0.0197  0.3523
 1551SOL     OW16111   2.735   1.477   9.583 -0.1307  0.1202 -0.3282
 1551SOL    HW116112   2.676   1.496   9.656 -1.0059 -1.6629 -0.5659
 1551SOL    HW216113   2.796   1.425   9.636 -0.1274  0.6891  0.2278
 1552SOL     OW16114   0.295   0.554   8.891 -0.0599  0.0569  0.3354
 1552SOL    HW116115   0.384   0.534   8.863  0.2174 -0.4094  1.5360
 1552SOL    HW216116   0.323   0.589   8.976 -1.0808 -1.9150  1.4893
 1553SOL     OW16117   4.623   3.847   2.496  0.0101  0.4595  0.1601
 1553SOL    HW116118   4.571   3.927   2.495  0.8609  1.0188  1.0363
 1553SOL    HW216119   4.562   3.786   2.454  0.2020 -0.7175  1.5614
 1554SOL     OW16120   2.940   2.805   3.239 -0.1792 -0.0260 -0.0013
 1554SOL    HW116121   3.018   2.769   3.198  0.1335  1.9874 -1.2012
 1554SOL    HW216122   2.949   2.764   3.324  0.6777 -1.0127 -0.5746
 1555SOL     OW16123   1.112   1.414   1.960 -0.4703 -0.4946  0.5175
 1555SOL    HW116124   1.188   1.424   2.018  0.3707 -0.4806 -0.6016
 1555SOL    HW216125   1.145   1.341   1.908  1.4474  1.1023 -0.4987
 1556SOL     OW16126   1.220   1.542   3.196 -0.3094 -0.1222  0.6194
 1556SOL    HW116127   1.234   1.525   3.103 -1.3563  1.7567  0.1265
 1556SOL    HW216128   1.129   1.519   3.215  0.1036 -0.3737  2.3023
 1557SOL     OW16129   1.675   1.375   8.989  0.2103 -0.6086 -0.0671
 1557SOL    HW116130   1.601   1.395   9.047  0.9605  0.6345  0.4529
 1557SOL    HW216131   1.627   1.339   8.914 -1.4041 -0.5307  0.9336
 1558SOL     OW16132   2.627   0.867  13.071  0.5354  0.0006  0.2641
 1558SOL    HW116133   2.630   0.955  13.109  0.1034 -0.0223  0.3544
 1558SOL    HW216134   2.536   0.852  13.046  0.6488 -1.6296  0.8602
 1559SOL     OW16135   3.550   4.379   4.039 -0.0434  0.0102 -0.0984
 1559SOL    HW116136   3.469   4.344   4.001 -2.2417  2.1466  2.5722
 1559SOL    HW216137   3.528   4.470   4.057  0.2880 -0.0007  0.3550
 1560SOL     OW16138   1.044   2.490   6.514 -0.2266  0.3493 -0.1676
 1560SOL    HW116139   0.978   2.551   6.482 -1.4785 -1.2792 -0.7045
 1560SOL    HW216140   1.017   2.411   6.467 -0.1562  0.9140 -1.1493
 1561SOL     OW16141   2.411   3.561   3.783  0.0717 -0.4849 -0.4584
 1561SOL    HW116142   2.357   3.628   3.826  2.2625  0.8067  0.2691
 1561SOL    HW216143   2.400   3.583   3.691  1.3402 -2.2016 -1.0025
 1562SOL     OW16144   1.249   3.433   4.064 -0.2411 -0.4961  0.0852
 1562SOL    HW116145   1.279   3.493   4.132 -1.9361 -1.7274  1.9117
 1562SOL    HW216146   1.212   3.365   4.121  0.9858 -2.1438 -1.0782
 1563SOL     OW16147   3.281   2.679   0.248 -0.1683 -0.2049  0.2457
 1563SOL    HW116148   3.336   2.753   0.219  0.2851 -0.0486  1.5200
 1563SOL    HW216149   3.324   2.678   0.333 -1.3393 -1.6837  0.8082
 1564SOL     OW16150   2.463   3.688   1.848  0.2738 -0.2990  0.5852
 1564SOL    HW116151   2.393   3.679   1.913 -1.4206 -0.6278 -1.2742
 1564SOL    HW216152   2.442   3.616   1.789  1.5551 -0.4955  0.3637
 1565SOL     OW16153   2.099   4.580   3.246 -0.2069  0.5149  0.0157
 1565SOL    HW116154   2.067   4.530   3.171 -2.2405  2.3299 -0.2869
 1565SOL    HW216155   2.030   4.552   3.306 -0.9282  0.2107 -0.9500
 1566SOL     OW16156   2.472   3.475  16.167  0.3423  0.7695 -0.1325
 1566SOL    HW116157   2.472   3.409  16.099  3.7244  1.7311 -1.0426
 1566SOL    HW216158   2.483   3.421  16.245  0.7156  1.0463  0.0104
 1567SOL     OW16159   3.597   0.965   8.793 -0.2878  0.3745 -0.2668
 1567SOL    HW116160   3.557   0.879   8.777  0.8047 -0.2904  0.5392
 1567SOL    HW216161   3.620   0.955   8.886  2.3608 -1.1908 -1.0860
 1568SOL     OW16162   0.980   0.409  12.630 -0.4079 -0.3846 -0.4651
 1568SOL    HW116163   0.908   0.352  12.658 -1.3887  1.2763  0.4289
 1568SOL    HW216164   1.056   0.353  12.649  0.8732  2.1140  1.6918
 1569SOL     OW16165   1.066   2.381  14.211 -0.1182 -0.5597 -0.3124
 1569SOL    HW116166   1.117   2.386  14.130  0.5733 -0.4221  0.1306
 1569SOL    HW216167   1.101   2.299  14.243 -0.6526 -0.6400  0.0700
 1570SOL     OW16168   1.016   1.779   4.960 -0.5372  0.0617  0.0332
 1570SOL    HW116169   1.022   1.755   5.053  1.5706 -0.2291 -0.1558
 1570SOL    HW216170   0.940   1.835   4.970 -0.7224 -0.4095  1.3692
 1571SOL     OW16171   0.175   2.674   2.308  0.2439  0.3637 -0.1894
 1571SOL    HW116172   0.115   2.600   2.313  3.0198 -1.8834 -0.2584
 1571SOL    HW216173   0.144   2.731   2.379  0.9789  0.5443 -0.0090
 1572SOL     OW16174   1.962   2.463  11.691 -0.1500  0.4908 -0.6387
 1572SOL    HW116175   1.977   2.554  11.665  1.7468  0.2293 -0.4799
 1572SOL    HW216176   1.870   2.443  11.677 -0.7039  0.6860  2.6887
 1573SOL     OW16177   1.687   0.206   6.378 -0.1073 -0.4289  0.4045
 1573SOL    HW116178   1.746   0.139   6.413 -0.1340 -0.4328  0.4422
 1573SOL    HW216179   1.739   0.286   6.384 -0.0178 -0.4413 -0.1847
 1574SOL     OW16180   1.386   1.785   7.283 -0.0762  0.2326 -0.1913
 1574SOL    HW116181   1.300   1.785   7.326  1.8382  0.6394  3.5575
 1574SOL    HW216182   1.417   1.875   7.290 -1.2575  0.7184 -1.0267
 1575SOL     OW16183   2.986   0.600  11.892 -0.8215  0.3211  0.0584
 1575SOL    HW116184   3.070   0.632  11.924 -0.9331  2.6999 -1.9859
 1575SOL    HW216185   2.983   0.512  11.929 -2.0860  0.0672 -0.6625
 1576SOL     OW16186   2.143   2.996   8.294  0.5831 -0.0947 -0.4210
 1576SOL    HW116187   2.065   2.961   8.251 -0.1485  1.3580 -0.2675
 1576SOL    HW216188   2.118   2.982   8.386 -1.8992  1.3226 -0.8665
 1577SOL     OW16189   0.915   3.790   7.462  0.3000  0.0819  0.1645
 1577SOL    HW116190   0.878   3.775   7.375 -1.6756  1.4348  0.7663
 1577SOL    HW216191   0.985   3.725   7.464  0.1537 -0.0895 -0.3507
 1578SOL     OW16192   2.360   3.362   8.033  0.1564  0.0497 -0.3144
 1578SOL    HW116193   2.387   3.441   7.985 -0.3716  1.5521  1.8468
 1578SOL    HW216194   2.300   3.324   7.969 -0.4311 -0.5812  0.6105
 1579SOL     OW16195   0.835   0.223   5.941 -0.1086 -0.3828 -0.0173
 1579SOL    HW116196   0.892   0.160   5.985  1.3090 -0.6366 -2.2000
 1579SOL    HW216197   0.895   0.297   5.931 -0.5338 -0.0954 -0.4755
 1580SOL     OW16198   0.747   2.577   3.137 -0.0511  0.0344 -0.2713
 1580SOL    HW116199   0.711   2.666   3.132 -0.7675 -0.1901  0.9183
 1580SOL    HW216200   0.833   2.587   3.095 -0.6670 -0.7309 -1.7324
 1581SOL     OW16201   4.683   2.911   8.093  0.5946  0.2888 -0.2178
 1581SOL    HW116202   4.619   2.872   8.034  1.7783 -2.4449  0.3127
 1581SOL    HW216203   0.032   2.852   8.071  0.2929 -0.5502  1.0226
 1582SOL     OW16204   3.056   2.980   3.529  0.0346  0.3102 -0.4021
 1582SOL    HW116205   3.025   3.040   3.461 -0.9021 -0.9135 -1.0520
 1582SOL    HW216206   3.027   3.037   3.600  0.1655  1.5745 -1.3641
 1583SOL     OW16207   1.929   4.418   4.293  0.4758  0.3339 -0.2884
 1583SOL    HW116208   1.986   4.357   4.340  1.1919  0.7183 -0.6523
 1583SOL    HW216209   1.988   4.454   4.225  0.5364 -0.0102 -0.4185
 1584SOL     OW16210   1.907   3.469   3.203 -0.3696  0.1856  0.4312
 1584SOL    HW116211   1.885   3.552   3.161 -0.3833  1.2079  2.4183
 1584SOL    HW216212   2.002   3.482   3.204 -0.2554 -0.5660 -1.6597
 1585SOL     OW16213   2.078   0.226   4.318 -0.1701 -0.3469 -0.2165
 1585SOL    HW116214   2.172   0.214   4.329 -0.2769  0.0798  1.1829
 1585SOL    HW216215   2.070   0.228   4.223 -2.3633 -0.8729 -0.0617
 1586SOL     OW16216   0.135   2.015  13.529  0.1497  0.2132 -0.6374
 1586SOL    HW116217   0.056   2.051  13.490  1.6673  2.7672 -1.3330
 1586SOL    HW216218   0.139   1.938  13.472 -2.2072  0.5741 -1.2629
 1587SOL     OW16219   1.408   3.809   6.956  0.2351  0.0323 -0.4239
 1587SOL    HW116220   1.444   3.826   6.868  1.5923  1.7684  0.4769
 1587SOL    HW216221   1.421   3.714   6.961 -0.1000  0.0060 -0.1290
 1588SOL     OW16222   1.030   1.694   9.330 -0.7735 -0.2186 -0.0378
 1588SOL    HW116223   1.118   1.658   9.322 -1.8261 -2.8895  0.5933
 1588SOL    HW216224   1.045   1.787   9.348  1.6888 -0.6471  0.1038
 1589SOL     OW16225   1.903   3.884   7.724  0.5338 -0.4862 -0.5062
 1589SOL    HW116226   1.831   3.945   7.735  0.8558 -0.3955  1.2116
 1589SOL    HW216227   1.946   3.888   7.810 -0.7997 -1.1633  0.1807
 1590SOL     OW16228   1.650   1.710  11.944 -0.2204 -0.0501  0.1334
 1590SOL    HW116229   1.671   1.745  12.030  1.1484 -2.9352  0.9391
 1590SOL    HW216230   1.739   1.703  11.910  0.4503  0.1317  1.8538
 1591SOL     OW16231   2.668   2.345   7.532 -0.0150  0.5311 -0.3123
 1591SOL    HW116232   2.597   2.324   7.593  0.2723  1.2436  0.2642
 1591SOL    HW216233   2.740   2.300   7.576  0.3023  0.3622 -0.9989
 1592SOL     OW16234   4.054   2.722  17.348 -0.0168 -0.1323  0.3757
 1592SOL    HW116235   4.075   2.657  17.415 -0.6681 -2.4762 -1.7141
 1592SOL    HW216236   4.013   2.786  17.406  0.0617 -1.4365  1.8692
 1593SOL     OW16237   0.352   2.433   7.193  0.6848  0.0866  0.3330
 1593SOL    HW116238   0.370   2.391   7.278 -3.1541  0.9591  1.5665
 1593SOL    HW216239   0.396   2.515   7.215 -1.2090  0.6280  2.1075
 1594SOL     OW16240   1.977   3.723   9.021  0.5171  0.4658 -0.0694
 1594SOL    HW116241   2.045   3.691   9.080 -0.4065 -0.2869  0.5805
 1594SOL    HW216242   1.932   3.787   9.076 -0.6391 -1.0724  0.7738
 1595SOL     OW16243   0.925   0.438  15.201  0.2684 -0.0536 -0.2325
 1595SOL    HW116244   0.975   0.461  15.279 -0.0272  2.5918 -0.8278
 1595SOL    HW216245   0.837   0.412  15.228  0.6067  0.4892  1.3741
 1596SOL     OW16246   0.439   4.322   6.569 -0.4288 -0.6283  0.2246
 1596SOL    HW116247   0.403   4.408   6.588  3.5760  1.6322 -2.3139
 1596SOL    HW216248   0.357   4.274   6.577 -0.1392 -1.8268 -3.6581
 1597SOL     OW16249   2.023   2.044   9.571  0.2200 -0.5063  0.0995
 1597SOL    HW116250   2.083   1.977   9.603  0.4593 -0.5518 -0.4477
 1597SOL    HW216251   1.991   1.998   9.493  2.0877 -0.4051 -0.7283
 1598SOL     OW16252   1.783   2.852   7.049 -0.8301  0.2206 -0.3047
 1598SOL    HW116253   1.701   2.804   7.036 -0.9774  0.8020 -1.5802
 1598SOL    HW216254   1.775   2.912   6.975  2.5413  2.3838  1.1017
 1599SOL     OW16255   0.112   1.512   8.462 -0.2144  0.6223  0.5891
 1599SOL    HW116256   0.121   1.426   8.503  1.0215 -0.8386 -2.7519
 1599SOL    HW216257   0.125   1.572   8.535  1.1709  1.3795 -0.2760
 1600SOL     OW16258   1.100   1.544   5.472 -0.2782 -0.1212  0.3704
 1600SOL    HW116259   1.146   1.536   5.388 -0.9163  0.7076 -0.0516
 1600SOL    HW216260   1.163   1.589   5.528 -0.4274 -0.2240  0.6207
 1601SOL     OW16261   0.447   2.427   5.268 -0.1582  0.1547  0.5765
 1601SOL    HW116262   0.440   2.456   5.177 -0.9197  1.8569  1.1825
 1601SOL    HW216263   0.379   2.360   5.264 -0.1364  0.0259  2.3730
 1602SOL     OW16264   0.544   1.953   7.282 -0.1369  0.2585  0.1818
 1602SOL    HW116265   0.471   1.945   7.343  0.5348 -1.9458  0.6981
 1602SOL    HW216266   0.611   1.988   7.340  0.5067  1.0418 -1.0322
 1603SOL     OW16267   3.351   3.875   4.838 -0.4981 -0.2373  0.3845
 1603SOL    HW116268   3.362   3.889   4.932  3.3763  0.5981 -0.1854
 1603SOL    HW216269   3.370   3.961   4.800  0.9358 -0.6320  0.1841
 1604SOL     OW16270   0.767   2.784   7.269 -0.6923  0.4320 -0.1182
 1604SOL    HW116271   0.806   2.783   7.181  0.4289 -0.0000  0.3852
 1604SOL    HW216272   0.841   2.755   7.321  0.3981  0.3461 -1.7161
 1605SOL     OW16273   2.299   3.571   7.777 -0.4670 -0.0195 -0.1884
 1605SOL    HW116274   2.288   3.595   7.685 -1.3011  1.9592  0.4229
 1605SOL    HW216275   2.222   3.613   7.815 -0.4664 -0.0695 -0.1322
 1606SOL     OW16276   3.716   3.784   7.668  0.6304  0.4154 -0.2299
 1606SOL    HW116277   3.710   3.699   7.625  1.3788  0.4215 -0.3564
 1606SOL    HW216278   3.784   3.761   7.732  0.2489 -1.1161 -0.3891
 1607SOL     OW16279   3.005   3.209   2.727 -0.0301  0.0917 -0.0464
 1607SOL    HW116280   3.030   3.270   2.658  0.5378  2.7655  2.5347
 1607SOL    HW216281   2.936   3.158   2.684 -1.2221  0.9586  0.8636
 1608SOL     OW16282   2.253   0.743   6.526  0.0530  0.7231 -0.3690
 1608SOL    HW116283   2.340   0.755   6.565 -0.0967 -1.4462  0.6355
 1608SOL    HW216284   2.205   0.682   6.583 -0.5157 -0.2232 -1.8700
 1609SOL     OW16285   0.916   1.537   2.895 -0.5145 -0.2398 -0.3005
 1609SOL    HW116286   0.877   1.470   2.952  2.6651 -0.3259  1.7508
 1609SOL    HW216287   0.923   1.486   2.814  2.8027 -1.5836  0.8609
 1610SOL     OW16288   2.906   3.193   2.157  0.0315  0.4708 -0.4364
 1610SOL    HW116289   2.942   3.237   2.080 -0.7617  0.8410 -0.5976
 1610SOL    HW216290   2.849   3.129   2.113 -0.6771  0.6202  0.2603
 1611SOL     OW16291   1.060   4.322   9.456  0.1225  0.2182 -0.0895
 1611SOL    HW116292   1.121   4.394   9.469 -1.9623  1.9230  0.3995
 1611SOL    HW216293   1.022   4.310   9.544  1.1927 -0.8607  0.2198
 1612SOL     OW16294   1.828   3.648   7.989 -1.4096  0.1689 -0.1973
 1612SOL    HW116295   1.771   3.710   8.034 -1.3828 -0.6580  0.9945
 1612SOL    HW216296   1.877   3.609   8.063  0.7337 -0.5346 -1.9888
 1613SOL     OW16297   2.628   0.968   3.058  0.0667 -0.0822  0.1168
 1613SOL    HW116298   2.561   0.918   3.011 -3.3860  2.2369  2.5767
 1613SOL    HW216299   2.707   0.934   3.015 -0.3844 -0.0706 -0.7305
 1614SOL     OW16300   2.434   0.840   2.960  0.0246 -0.2600  0.0851
 1614SOL    HW116301   2.379   0.890   2.900  1.3045  0.6986 -0.2920
 1614SOL    HW216302   2.373   0.804   3.025 -0.9690 -0.4816 -0.9670
 1615SOL     OW16303   0.296   2.174   6.521 -0.0726 -0.2265 -0.0904
 1615SOL    HW116304   0.383   2.157   6.555  0.1646 -1.7506 -1.4469
 1615SOL    HW216305   0.263   2.089   6.490 -1.2455  0.0007  0.5304
 1616SOL     OW16306   1.442   3.056   3.291  0.3336 -0.1385  0.3624
 1616SOL    HW116307   1.536   3.067   3.307  0.3059  1.4596 -0.6409
 1616SOL    HW216308   1.431   2.968   3.255 -2.0854  0.2968  0.0594
 1617SOL     OW16309   0.668   2.703   1.663  0.2227 -0.4534  0.1295
 1617SOL    HW116310   0.690   2.618   1.625 -0.1231 -1.2451  1.7044
 1617SOL    HW216311   0.594   2.678   1.719  1.5325 -2.4343  0.9767
 1618SOL     OW16312   1.194   0.742  12.683 -0.2746  0.3463 -0.2990
 1618SOL    HW116313   1.123   0.725  12.621 -0.8413  1.4018  0.0601
 1618SOL    HW216314   1.165   0.827  12.716 -2.5697  0.0569 -1.5407
 1619SOL     OW16315   0.384   2.032   7.768  0.3513 -0.2901 -0.2015
 1619SOL    HW116316   0.343   2.032   7.855 -0.2292 -0.8835 -0.4751
 1619SOL    HW216317   0.474   2.062   7.779  0.2757 -0.5737  1.2476
 1620SOL     OW16318   1.989   3.227   1.568  0.1427 -0.3566 -0.7381
 1620SOL    HW116319   2.069   3.264   1.531  1.0828 -2.4740 -0.7683
 1620SOL    HW216320   2.012   3.233   1.660  1.9189 -1.9886 -1.0904
 1621SOL     OW16321   2.607   4.586   3.824  0.5398  0.0332 -0.8049
 1621SOL    HW116322   2.526   4.605   3.777 -0.7362 -0.0503  1.3732
 1621SOL    HW216323   2.616   4.491   3.815 -3.4308 -0.4271  0.0433
 1622SOL     OW16324   2.651   2.097   6.396  0.4769  0.4816  0.0445
 1622SOL    HW116325   2.690   2.117   6.481  0.8807  0.6074 -0.1708
 1622SOL    HW216326   2.623   2.184   6.368  0.6158  1.0533  1.7418
 1623SOL     OW16327   4.127   4.364   4.471  0.0022 -0.0690  0.3252
 1623SOL    HW116328   4.192   4.294   4.457 -1.2575 -0.9001 -1.3965
 1623SOL    HW216329   4.129   4.416   4.391  0.5873  0.6396  0.7967
 1624SOL     OW16330   1.090   1.237  11.548  0.1258  0.8832 -0.2228
 1624SOL    HW116331   1.002   1.255  11.514 -0.5917  1.6645  2.0516
 1624SOL    HW216332   1.083   1.251  11.643  1.8866  0.8240 -0.0853
 1625SOL     OW16333   3.450   1.984  16.027  0.3676  0.0067  0.4145
 1625SOL    HW116334   3.374   2.035  16.001  0.3240 -0.2167  0.1104
 1625SOL    HW216335   3.415   1.924  16.093 -1.2949  0.2316 -0.2673
 1626SOL     OW16336   4.574   0.528  15.448 -0.1538  0.0557  0.4827
 1626SOL    HW116337   4.505   0.475  15.487 -1.3386  0.6515 -0.8089
 1626SOL    HW216338   4.604   0.566  15.530  0.2639  1.4366 -0.3111
 1627SOL     OW16339   2.332   3.635  10.222 -0.6027 -0.0648 -0.0678
 1627SOL    HW116340   2.421   3.662  10.243 -0.1720 -0.8880 -0.8371
 1627SOL    HW216341   2.343   3.542  10.205  3.3016 -0.2118  3.3394
 1628SOL     OW16342   0.923   2.069   7.934 -0.2013  0.2937 -0.2265
 1628SOL    HW116343   0.893   2.152   7.971  3.8340  1.0977  1.2991
 1628SOL    HW216344   1.017   2.087   7.935 -0.2435  0.5470 -1.7378
 1629SOL     OW16345   2.508   3.107   2.795 -0.0605 -0.0848 -0.2268
 1629SOL    HW116346   2.591   3.065   2.817 -0.7576 -1.7987 -0.8370
 1629SOL    HW216347   2.509   3.113   2.699 -2.6892 -2.3935 -0.3861
 1630SOL     OW16348   1.887   1.199   1.230 -0.2469  0.4987 -0.0064
 1630SOL    HW116349   1.877   1.107   1.204  2.2086  0.2013  0.1151
 1630SOL    HW216350   1.979   1.193   1.253 -0.4215  0.5928  0.7323
 1631SOL     OW16351   4.197   3.038   4.211  0.1737 -0.5652 -0.5587
 1631SOL    HW116352   4.200   3.133   4.224  1.2861 -0.8255  1.0603
 1631SOL    HW216353   4.103   3.019   4.210  0.2028 -0.7821  1.5434
 1632SOL     OW16354   0.668   0.529   3.621  0.2145  0.4730 -0.3043
 1632SOL    HW116355   0.575   0.540   3.602  0.4151  1.1102 -0.9133
 1632SOL    HW216356   0.701   0.558   3.536 -0.0671  2.1722  0.1593
 1633SOL     OW16357   4.154   2.637   5.227 -0.1751  0.2634  0.1361
 1633SOL    HW116358   4.075   2.665   5.181 -1.2628 -0.6536  1.4291
 1633SOL    HW216359   4.118   2.556   5.264  0.9861 -1.2490 -2.0715
 1634SOL     OW16360   0.820   3.988  10.605 -0.4104 -0.1118 -0.2078
 1634SOL    HW116361   0.840   3.973  10.513 -0.6314  0.0435 -0.2801
 1634SOL    HW216362   0.906   3.962  10.639 -1.0569 -1.9695 -0.0105
 1635SOL     OW16363   1.093   2.226   7.352  0.2357  0.3743 -0.0051
 1635SOL    HW116364   1.111   2.280   7.275  0.7911  0.9513  0.5285
 1635SOL    HW216365   1.048   2.149   7.317 -0.3820  2.0788 -2.9371
 1636SOL     OW16366   4.707   1.782   5.265 -0.1373 -0.3782  0.0870
 1636SOL    HW116367   4.669   1.694   5.257 -2.0157  0.5128 -0.7753
 1636SOL    HW216368   4.662   1.800   5.347  1.5327  1.4945  0.5974
 1637SOL     OW16369   4.188   3.626   5.178 -0.0805  0.2412 -0.0398
 1637SOL    HW116370   4.165   3.595   5.090  0.2009 -4.3378  1.5161
 1637SOL    HW216371   4.187   3.722   5.174 -1.4345  0.2919  1.5669
 1638SOL     OW16372   4.626   3.461  15.034 -0.6104  0.0985 -0.4404
 1638SOL    HW116373   4.663   3.508  15.108 -2.2361 -0.1446  0.5351
 1638SOL    HW216374   4.679   3.480  14.957 -0.1411  1.9553  0.3447
 1639SOL     OW16375   2.836   1.117   3.154 -0.3035  0.3272  0.3154
 1639SOL    HW116376   2.776   1.161   3.094  2.0685  1.1817 -1.4317
 1639SOL    HW216377   2.769   1.053   3.179 -0.8693  1.5475  1.9080
 1640SOL     OW16378   0.844   3.623  15.528  0.2436 -0.1428 -0.1324
 1640SOL    HW116379   0.825   3.662  15.613 -1.8296  0.8403 -1.0448
 1640SOL    HW216380   0.886   3.692  15.476 -0.0625 -0.8087 -1.2668
 1641SOL     OW16381   1.160   2.037  10.597  0.1515 -0.3875 -0.3526
 1641SOL    HW116382   1.083   1.986  10.571  1.1080 -1.9515 -0.1404
 1641SOL    HW216383   1.146   2.055  10.690  0.5377  0.8897 -0.5473
 1642SOL     OW16384   1.315   1.174  14.937 -0.9523 -0.5262  0.1163
 1642SOL    HW116385   1.378   1.103  14.924 -1.1031 -0.7288  0.5072
 1642SOL    HW216386   1.260   1.159  14.860 -0.4562 -0.5865 -0.2255
 1643SOL     OW16387   2.531   2.306   5.447 -0.0852  0.0317  0.0562
 1643SOL    HW116388   2.457   2.246   5.435  1.0145 -1.2097 -0.4607
 1643SOL    HW216389   2.597   2.284   5.381 -0.5010 -1.6202  0.1938
 1644SOL     OW16390   0.074   1.648   6.609  0.3195 -0.2382  0.1171
 1644SOL    HW116391   4.716   1.598   6.595  0.4626 -1.0627  2.2060
 1644SOL    HW216392   0.088   1.610   6.696  0.4720 -0.8007 -0.1541
 1645SOL     OW16393   2.988   1.681   3.858 -0.5429 -0.1920  0.0397
 1645SOL    HW116394   2.945   1.702   3.941 -2.1373 -2.0885 -0.2984
 1645SOL    HW216395   2.917   1.692   3.795 -0.4638  2.5878  0.4650
 1646SOL     OW16396   0.568   1.863   8.446  0.5124 -0.2569 -0.2187
 1646SOL    HW116397   0.537   1.952   8.465  1.9892  0.2877 -0.3647
 1646SOL    HW216398   0.497   1.827   8.393 -0.3077 -1.0369  1.3952
 1647SOL     OW16399   1.065   4.610  16.276  0.0623 -0.0036  0.3672
 1647SOL    HW116400   1.106   4.577  16.356  0.2541 -0.3497  0.1297
 1647SOL    HW216401   1.107   4.558  16.207 -1.0314  1.9235 -1.7614
 1648SOL     OW16402   4.481   4.322   2.418 -0.3635 -0.3150 -0.0420
 1648SOL    HW116403   4.530   4.369   2.351 -0.5576 -1.3915 -0.9487
 1648SOL    HW216404   4.406   4.380   2.412  0.4916  0.8800  0.8203
 1649SOL     OW16405   3.324   2.745   8.193 -0.0680  0.0829 -0.3275
 1649SOL    HW116406   3.341   2.803   8.267  1.5192 -0.1656 -0.4913
 1649SOL    HW216407   3.307   2.661   8.236  0.3715  0.5344  0.7216
 1650SOL     OW16408   3.193   2.781   4.590  0.2389  0.5409 -0.6012
 1650SOL    HW116409   3.182   2.691   4.621  0.0999  0.5098 -0.7373
 1650SOL    HW216410   3.282   2.797   4.619  0.0539 -1.2069  0.9202
 1651SOL     OW16411   1.606   1.329  15.464  0.2650 -0.2899 -0.0973
 1651SOL    HW116412   1.677   1.384  15.430 -2.3698  1.7677 -2.3707
 1651SOL    HW216413   1.646   1.247  15.435 -0.5934 -1.4805  2.1044
 1652SOL     OW16414   4.258   0.283   7.545 -0.1605  0.7571 -0.4633
 1652SOL    HW116415   4.322   0.352   7.531  0.6724  0.3425  1.3368
 1652SOL    HW216416   4.224   0.304   7.632 -1.2297 -1.3513 -0.3509
 1653SOL     OW16417   3.749   3.049   8.555  0.2541 -0.0974  0.2220
 1653SOL    HW116418   3.806   3.019   8.484  0.0379  0.5935 -0.2443
 1653SOL    HW216419   3.707   3.121   8.509 -1.0868  0.3049  2.1078
 1654SOL     OW16420   1.819   0.575  10.183 -0.5330  0.1863  0.4605
 1654SOL    HW116421   1.818   0.524  10.102  1.1575 -2.3975  2.0725
 1654SOL    HW216422   1.730   0.559  10.216 -1.7637  4.0190 -1.0483
 1655SOL     OW16423   0.848   3.676  15.230  0.2266 -0.2554 -0.3353
 1655SOL    HW116424   0.941   3.659  15.213  0.6985  1.7139  0.3311
 1655SOL    HW216425   0.802   3.593  15.217 -2.3783  0.9878  0.8814
 1656SOL     OW16426   0.380   0.562  13.624  0.2665  0.0300  0.0558
 1656SOL    HW116427   0.445   0.547  13.556  0.0728 -0.9810  0.0840
 1656SOL    HW216428   0.429   0.556  13.706  2.0402  1.7074 -0.9029
 1657SOL     OW16429   0.586   2.188  10.353  0.0823  0.0539 -0.1495
 1657SOL    HW116430   0.539   2.147  10.280 -0.8895 -0.5145  0.7952
 1657SOL    HW216431   0.571   2.120  10.419 -0.6037 -0.6797 -1.0620
 1658SOL     OW16432   4.010   4.575   3.446  0.3063 -0.5610 -0.3779
 1658SOL    HW116433   3.950   4.587   3.373 -2.3372  2.2206  2.2449
 1658SOL    HW216434   3.988   4.490   3.483 -0.5406 -0.0631  0.2747
 1659SOL     OW16435   1.373   3.656   4.254  0.3043  0.7683 -0.4745
 1659SOL    HW116436   1.313   3.599   4.302  0.0671  1.8089  0.4638
 1659SOL    HW216437   1.380   3.731   4.314 -1.6155  0.6361 -0.0847
 1660SOL     OW16438   3.707   1.109   7.041 -0.1281  0.5466 -0.3567
 1660SOL    HW116439   3.704   1.028   7.093 -1.8300 -0.3897 -1.9160
 1660SOL    HW216440   3.648   1.162   7.095 -1.0526  0.1447 -0.9674
 1661SOL     OW16441   2.038   3.811   6.314  0.0870 -0.3395  0.8831
 1661SOL    HW116442   2.046   3.903   6.288  0.2071 -0.2588  1.1989
 1661SOL    HW216443   2.127   3.776   6.314 -0.3703 -1.5142  1.8749
 1662SOL     OW16444   3.674   2.774   3.319  0.6608  0.1913 -0.1753
 1662SOL    HW116445   3.605   2.840   3.307 -0.4865 -1.1491 -1.0363
 1662SOL    HW216446   3.701   2.799   3.407 -1.5223 -1.2674  0.8987
 1663SOL     OW16447   3.196   3.608  10.105  0.0762  0.1271  0.2822
 1663SOL    HW116448   3.209   3.541  10.038  0.9773 -1.5936  2.1997
 1663SOL    HW216449   3.192   3.552  10.182 -2.2284  0.5952  0.5072
 1664SOL     OW16450   3.247   3.858   5.616  0.0739  0.0388 -0.1258
 1664SOL    HW116451   3.226   3.876   5.524 -0.4584  0.9498  0.1753
 1664SOL    HW216452   3.167   3.818   5.650 -0.2137  0.3778 -0.4052
 1665SOL     OW16453   0.063   0.829   3.213  0.0329 -0.2741 -0.0157
 1665SOL    HW116454   0.093   0.739   3.200  0.5039 -0.1005 -0.1011
 1665SOL    HW216455   0.016   0.840   3.130 -3.0243 -0.5088  1.6773
 1666SOL     OW16456   1.576   1.174   8.393  0.1481  0.5087 -0.4624
 1666SOL    HW116457   1.566   1.257   8.440  0.7411  0.2536  0.1102
 1666SOL    HW216458   1.637   1.127   8.449  1.0904  2.0229 -0.2203
 1667SOL     OW16459   3.821   4.541  17.282 -0.2701 -0.5175 -0.2012
 1667SOL    HW116460   3.828   4.449  17.307  3.5279 -0.4425 -0.9999
 1667SOL    HW216461   3.868   4.554  17.200 -0.2926  0.9479  0.0055
 1668SOL     OW16462   2.326   4.529  11.328 -0.0013  0.0221  0.4735
 1668SOL    HW116463   2.248   4.577  11.299 -0.2002 -0.6043 -0.0300
 1668SOL    HW216464   2.351   4.492  11.243 -3.6326  1.0859 -1.0480
 1669SOL     OW16465   3.470   2.178   6.216 -0.1423  0.3866  0.1880
 1669SOL    HW116466   3.560   2.154   6.192 -0.7579  0.0645 -1.8597
 1669SOL    HW216467   3.460   2.116   6.287 -1.3254  0.0228 -0.2948
 1670SOL     OW16468   1.496   0.908   5.399  0.2774  0.7314  0.3058
 1670SOL    HW116469   1.510   1.003   5.400  0.8358  0.6268  2.0515
 1670SOL    HW216470   1.524   0.889   5.309 -0.3193 -1.7436  0.6408
 1671SOL     OW16471   1.652   4.691   2.500 -0.0173 -0.2595 -0.0396
 1671SOL    HW116472   1.566   0.008   2.488  1.8205  3.1967 -1.4652
 1671SOL    HW216473   1.689   0.029   2.563 -1.8578 -1.6519  2.3990
 1672SOL     OW16474   3.701   1.917  15.939  0.1443  0.2759  0.3445
 1672SOL    HW116475   3.766   1.910  16.009 -0.1133  0.7952  0.6409
 1672SOL    HW216476   3.623   1.933  15.991  0.4966  0.5032  0.8103
 1673SOL     OW16477   4.222   0.619  12.816 -0.2351  0.1370 -0.1266
 1673SOL    HW116478   4.262   0.637  12.901  1.2846 -1.7450 -0.4360
 1673SOL    HW216479   4.185   0.705  12.797  1.1047  1.1253  1.7867
 1674SOL     OW16480   2.494   1.308   8.691 -0.2422  0.1633 -0.6441
 1674SOL    HW116481   2.464   1.229   8.646 -0.3767 -0.8135  1.1629
 1674SOL    HW216482   2.576   1.334   8.650 -0.2770 -0.5482 -1.1627
 1675SOL     OW16483   2.294   2.878   5.437 -0.5100 -0.1401 -0.3757
 1675SOL    HW116484   2.257   2.951   5.486 -0.5035 -1.3626  1.4604
 1675SOL    HW216485   2.255   2.899   5.352  2.6711 -0.1254 -1.8301
 1676SOL     OW16486   0.889   2.245   6.399 -0.2333  0.4560 -0.2580
 1676SOL    HW116487   0.925   2.157   6.385 -2.2493 -0.3653 -0.2538
 1676SOL    HW216488   0.806   2.248   6.352  0.7128  1.2128 -1.8962
 1677SOL     OW16489   0.665   4.516  10.164  0.5753  0.2542  0.0275
 1677SOL    HW116490   0.649   4.600  10.122 -3.6217 -0.7987 -0.5176
 1677SOL    HW216491   0.672   4.537  10.257 -2.3342  0.5438  0.1863
 1678SOL     OW16492   3.141   3.218  17.068 -0.0858 -0.1054  0.0316
 1678SOL    HW116493   3.231   3.221  17.035 -0.1024  2.2688  0.1620
 1678SOL    HW216494   3.100   3.160  17.004 -1.0272 -1.6976  2.0897
 1679SOL     OW16495   2.675   4.315  16.760  0.3344 -1.0989 -0.0444
 1679SOL    HW116496   2.718   4.311  16.674  0.6768 -0.0306  0.0735
 1679SOL    HW216497   2.583   4.333  16.739  0.3804 -1.7773 -0.8307
 1680SOL     OW16498   3.345   1.020   3.197  0.3996 -0.0656  0.4066
 1680SOL    HW116499   3.346   0.965   3.118  1.7488  0.7588 -0.1581
 1680SOL    HW216500   3.397   0.963   3.254  0.0850 -1.9012 -1.1335
 1681SOL     OW16501   2.148   1.311   7.794  0.6438  0.1743 -0.6997
 1681SOL    HW116502   2.210   1.383   7.808  1.0480  0.1810 -2.4614
 1681SOL    HW216503   2.197   1.229   7.805  0.3224  0.3170  1.7797
 1682SOL     OW16504   3.140   0.692   2.393  0.7798 -0.0854  0.3281
 1682SOL    HW116505   3.075   0.718   2.328  4.0217 -1.7848 -3.6126
 1682SOL    HW216506   3.216   0.681   2.335  0.9616 -0.1959  0.5838
 1683SOL     OW16507   2.360   4.399   6.488 -0.3220  0.3215 -0.2247
 1683SOL    HW116508   2.274   4.430   6.518 -0.0993 -0.1542  0.9424
 1683SOL    HW216509   2.359   4.428   6.398  4.7269  0.0217 -0.3458
 1684SOL     OW16510   0.631   0.288   4.679  0.0903 -0.8775  0.8988
 1684SOL    HW116511   0.699   0.328   4.624 -1.6295 -0.3814 -0.8437
 1684SOL    HW216512   0.684   0.274   4.758  0.3129  5.4345  1.9133
 1685SOL     OW16513   0.605   1.354   1.612  0.2251  0.2050  0.0735
 1685SOL    HW116514   0.577   1.372   1.702 -1.3639 -2.3415  0.0936
 1685SOL    HW216515   0.591   1.438   1.569  0.0887 -0.4745 -1.2015
 1686SOL     OW16516   0.396   2.853   8.625 -0.0613 -0.1936 -0.7065
 1686SOL    HW116517   0.301   2.863   8.616 -0.0886  0.7162  0.6789
 1686SOL    HW216518   0.425   2.919   8.562 -2.0749  2.0792  0.7197
 1687SOL     OW16519   4.533   1.338   1.620 -0.3466  0.2512  0.2870
 1687SOL    HW116520   4.485   1.271   1.572 -0.5280 -0.0238  0.8491
 1687SOL    HW216521   4.585   1.290   1.685  2.3219  0.7008 -1.5220
 1688SOL     OW16522   2.790   4.173  11.403  0.6379 -0.5041  0.4115
 1688SOL    HW116523   2.843   4.096  11.382 -0.8896 -2.0927  2.4333
 1688SOL    HW216524   2.738   4.143  11.477  2.3848 -1.7287  1.1419
 1689SOL     OW16525   0.433   3.682   7.861 -0.4141  0.1019 -0.2828
 1689SOL    HW116526   0.401   3.636   7.783  1.0475  1.8047 -1.8702
 1689SOL    HW216527   0.380   3.635   7.926 -0.6507 -1.7342 -1.8020
 1690SOL     OW16528   0.167   3.486   2.027 -0.2145  0.3041  0.3410
 1690SOL    HW116529   0.248   3.512   1.982 -0.1764  0.0298  0.2463
 1690SOL    HW216530   0.196   3.411   2.079 -3.4389 -0.5901  0.8359
 1691SOL     OW16531   3.379   2.443   5.761 -0.2384  0.0883  0.0569
 1691SOL    HW116532   3.334   2.424   5.844 -1.3873  1.7526 -0.1858
 1691SOL    HW216533   3.389   2.536   5.779 -0.3856  0.1834 -0.3597
 1692SOL     OW16534   1.242   0.272   4.182  0.7641 -0.4041  0.0222
 1692SOL    HW116535   1.219   0.364   4.174  2.5192 -0.0205 -0.6539
 1692SOL    HW216536   1.261   0.238   4.095 -0.9774 -0.6299 -0.2801
 1693SOL     OW16537   1.338   2.774   8.177  0.2966 -0.2494  0.0924
 1693SOL    HW116538   1.363   2.852   8.127  1.1504 -0.2426  0.5284
 1693SOL    HW216539   1.423   2.731   8.187  0.4169  0.4009  1.8513
 1694SOL     OW16540   4.380   2.109   4.006 -0.2546  0.1107 -0.3277
 1694SOL    HW116541   4.380   2.051   3.931  0.1063 -1.2866  0.7588
 1694SOL    HW216542   4.462   2.158   3.994  1.2780 -1.8329  2.0205
 1695SOL     OW16543   3.637   1.582  14.054 -0.3302 -0.6916  0.5381
 1695SOL    HW116544   3.547   1.600  14.027  0.0453  0.2025 -0.1412
 1695SOL    HW216545   3.635   1.487  14.058  2.4961 -0.7244  1.4901
 1696SOL     OW16546   3.705   2.180   5.914  0.0281  0.0261 -0.1393
 1696SOL    HW116547   3.710   2.168   6.009  1.2062 -0.7565 -0.2969
 1696SOL    HW216548   3.713   2.275   5.900 -2.3960  0.1633 -0.5428
 1697SOL     OW16549   2.901   1.270  12.509  0.3201 -0.2852 -0.2244
 1697SOL    HW116550   2.922   1.183  12.477 -1.4938 -0.4413 -1.0359
 1697SOL    HW216551   2.934   1.324  12.437 -2.5283  0.3100 -1.1259
 1698SOL     OW16552   1.151   3.788  17.199  0.3541  0.5605  0.2004
 1698SOL    HW116553   1.167   3.694  17.195 -1.4008  0.3629 -2.5583
 1698SOL    HW216554   1.068   3.793  17.150  0.2116 -0.7354  0.3087
 1699SOL     OW16555   0.490   2.781   5.934 -0.3157  0.0397  0.5027
 1699SOL    HW116556   0.457   2.728   5.861  2.4639 -0.5207 -0.3163
 1699SOL    HW216557   0.477   2.866   5.893  0.4490  0.4979  1.2164
 1700SOL     OW16558   1.589   0.385   1.649  0.3681  0.1044  0.2519
 1700SOL    HW116559   1.614   0.299   1.616 -0.7739 -0.4742  0.8789
 1700SOL    HW216560   1.667   0.404   1.700 -0.1985  0.6541  0.9294
 1701SOL     OW16561   3.701   4.178   4.718  0.3617 -0.6066 -0.5059
 1701SOL    HW116562   3.792   4.148   4.711  0.6516  0.5461 -1.5050
 1701SOL    HW216563   3.678   4.227   4.640 -0.0463  0.6422  0.3939
 1702SOL     OW16564   4.009   1.814   3.821  0.0131 -0.5348  0.6915
 1702SOL    HW116565   4.084   1.782   3.870  2.0110  1.7023 -0.9254
 1702SOL    HW216566   3.937   1.794   3.881  0.6468 -1.0291  1.2751
 1703SOL     OW16567   4.468   3.371   5.220  0.0545 -0.9077  0.3388
 1703SOL    HW116568   4.405   3.426   5.174  1.3412  0.7357  0.5386
 1703SOL    HW216569   4.427   3.285   5.215 -0.8049 -0.4289 -0.8616
 1704SOL     OW16570   3.200   3.054   7.871  0.7261 -0.1671 -0.0158
 1704SOL    HW116571   3.123   3.103   7.898  1.7205  1.1301  0.4610
 1704SOL    HW216572   3.202   3.079   7.779 -1.5348 -2.7372 -0.7638
 1705SOL     OW16573   0.989   0.105   7.098  0.5448  0.1668  0.1811
 1705SOL    HW116574   1.034   0.108   7.013 -0.2508 -0.3055 -0.2523
 1705SOL    HW216575   0.975   0.011   7.106  2.4742 -0.1106  0.3501
 1706SOL     OW16576   1.325   2.578   5.423  0.1758  0.3211  0.5067
 1706SOL    HW116577   1.275   2.506   5.463 -0.0284 -0.6774 -1.5293
 1706SOL    HW216578   1.394   2.532   5.376  1.5905  2.9439  0.0131
 1707SOL     OW16579   1.202   1.047   5.258 -0.4634 -0.1422 -0.3029
 1707SOL    HW116580   1.130   1.050   5.195  0.9275  2.0782 -1.8046
 1707SOL    HW216581   1.266   1.107   5.219 -1.4466 -0.3012 -2.1854
 1708SOL     OW16582   1.762   3.990  10.674  0.4455 -0.0719  0.4532
 1708SOL    HW116583   1.843   4.033  10.703  0.7380 -2.1117  2.6411
 1708SOL    HW216584   1.790   3.914  10.623 -0.1234  0.4774 -0.6700
 1709SOL     OW16585   3.900   0.665  10.487 -0.0789  0.0423 -0.0986
 1709SOL    HW116586   3.984   0.693  10.451 -1.3043  1.9088 -1.5390
 1709SOL    HW216587   3.886   0.724  10.561 -2.4836 -1.3932  0.5816
 1710SOL     OW16588   2.729   3.421   6.458 -0.3704  0.3343 -0.0590
 1710SOL    HW116589   2.734   3.496   6.398  0.6160  0.5459  0.2866
 1710SOL    HW216590   2.718   3.471   6.539  0.1566  1.2697 -0.5575
 1711SOL     OW16591   3.471   3.802   8.209  0.2870  0.1709  0.2626
 1711SOL    HW116592   3.445   3.746   8.135  1.1211  0.5892 -0.3460
 1711SOL    HW216593   3.465   3.737   8.279  1.1078 -0.8102 -0.5870
 1712SOL     OW16594   1.908   1.546   5.922 -1.1403 -0.0545 -0.0559
 1712SOL    HW116595   1.911   1.472   5.982 -2.1728  0.3602  0.5148
 1712SOL    HW216596   1.976   1.532   5.856 -0.8520 -0.2625  0.2866
 1713SOL     OW16597   3.197   4.338   5.619 -0.2810  0.2407 -0.6083
 1713SOL    HW116598   3.181   4.297   5.705 -0.1927  0.4004 -0.5156
 1713SOL    HW216599   3.273   4.291   5.585  0.1605  2.1621 -2.2012
 1714SOL     OW16600   0.237   0.747   3.651 -0.2356 -0.0833 -0.3160
 1714SOL    HW116601   0.218   0.688   3.578 -0.2016 -0.3576 -0.1063
 1714SOL    HW216602   0.224   0.834   3.615 -3.5128 -1.2768 -2.0235
 1715SOL     OW16603   3.604   1.445  14.341  0.4341  0.2112 -0.4611
 1715SOL    HW116604   3.691   1.483  14.334  0.2557  1.1961  2.9214
 1715SOL    HW216605   3.550   1.524  14.339 -0.1962 -0.2038  0.0181
 1716SOL     OW16606   1.329   3.385   5.304 -0.1099 -0.5067  0.3357
 1716SOL    HW116607   1.328   3.293   5.279  1.5097 -0.6650  0.8681
 1716SOL    HW216608   1.413   3.410   5.264 -0.5354 -0.3644 -0.4872
 1717SOL     OW16609   2.483   3.843  16.287  0.2306 -0.6721 -0.3013
 1717SOL    HW116610   2.522   3.930  16.283  2.6959 -1.6682  1.8650
 1717SOL    HW216611   2.500   3.812  16.198  0.3016  1.2858 -0.9717
 1718SOL     OW16612   0.767   1.799   4.145 -0.2114  0.5268 -0.0241
 1718SOL    HW116613   0.676   1.800   4.116 -0.3463 -2.9571  0.2940
 1718SOL    HW216614   0.754   1.770   4.235 -2.2119  0.5290 -0.3143
 1719SOL     OW16615   0.483   0.541  13.874  0.5986 -0.0621 -0.0725
 1719SOL    HW116616   0.476   0.462  13.928  0.4260  2.0515  2.9903
 1719SOL    HW216617   0.430   0.611  13.912  1.5717  0.9478 -0.5694
 1720SOL     OW16618   1.001   0.305   3.378 -0.6132  0.3734  0.3442
 1720SOL    HW116619   1.070   0.239   3.372 -0.0845  0.8145  1.4881
 1720SOL    HW216620   0.933   0.246   3.409 -0.8843  1.3816  1.6685
 1721SOL     OW16621   3.816   0.677   8.315  0.4230 -0.0418  0.5248
 1721SOL    HW116622   3.869   0.693   8.393 -2.2919 -2.1451  2.7642
 1721SOL    HW216623   3.873   0.617   8.268 -0.7803 -0.2870 -0.6276
 1722SOL     OW16624   0.896   4.038   1.071  0.3922  0.0832 -0.5814
 1722SOL    HW116625   0.974   4.087   1.043  0.9966  0.1847  1.2687
 1722SOL    HW216626   0.920   3.947   1.054  2.5712  0.3534  0.9643
 1723SOL     OW16627   1.364   4.125  11.769  0.2786 -0.5268 -0.0830
 1723SOL    HW116628   1.423   4.119  11.845  3.0574 -0.5866 -2.2503
 1723SOL    HW216629   1.307   4.055  11.800 -0.2582  1.2570  3.0698
 1724SOL     OW16630   2.382   4.047  14.208  0.4756 -0.3661  0.0230
 1724SOL    HW116631   2.317   4.008  14.267  2.6293 -0.3170  2.3778
 1724SOL    HW216632   2.442   3.974  14.189 -1.2565 -1.2819 -2.0803
 1725SOL     OW16633   1.201   1.317   8.695 -0.9269 -0.0722  0.7792
 1725SOL    HW116634   1.121   1.304   8.642 -1.0501  0.1281  0.9169
 1725SOL    HW216635   1.173   1.273   8.775  0.7604 -1.3650  0.6641
 1726SOL     OW16636   0.220   3.024   6.371  0.3010  0.3655 -0.5628
 1726SOL    HW116637   0.166   3.009   6.294  0.8437 -2.0188 -0.4729
 1726SOL    HW216638   0.246   2.932   6.376  1.5684  0.6607 -1.6407
 1727SOL     OW16639   0.279   2.287   1.472 -0.0784  0.2796  0.0325
 1727SOL    HW116640   0.362   2.267   1.516 -0.8993 -1.6961  0.6615
 1727SOL    HW216641   0.328   2.294   1.389  2.2680 -0.3034  1.3549
 1728SOL     OW16642   3.734   1.651   8.767  0.7754  0.3742 -0.2637
 1728SOL    HW116643   3.705   1.598   8.842 -1.4669 -1.8152 -2.6946
 1728SOL    HW216644   3.825   1.624   8.770  0.6773 -0.0420 -1.0967
 1729SOL     OW16645   1.663   0.849  14.678  0.3029 -0.0700 -0.5403
 1729SOL    HW116646   1.595   0.781  14.677  0.0570  0.1620  0.2071
 1729SOL    HW216647   1.691   0.861  14.587  1.5588  0.3415 -0.0905
 1730SOL     OW16648   0.073   3.283   3.058  0.5315  0.4657 -0.1565
 1730SOL    HW116649   0.096   3.296   3.149 -0.2753  0.4767  0.0492
 1730SOL    HW216650   0.032   3.368   3.038  0.6876  0.6799  0.4357
 1731SOL     OW16651   2.479   1.551   6.012 -0.1162 -0.2414 -0.2887
 1731SOL    HW116652   2.460   1.610   6.084 -2.1058 -1.4539  0.1779
 1731SOL    HW216653   2.449   1.603   5.937  0.8543  0.7721  0.0324
 1732SOL     OW16654   0.903   2.965   6.847 -0.1469  0.1491  0.6342
 1732SOL    HW116655   0.910   3.057   6.872 -2.1708  0.8779 -1.4952
 1732SOL    HW216656   0.810   2.959   6.866 -0.2269  0.4158  0.3246
 1733SOL     OW16657   2.841   4.159   3.924  0.4845  0.2623 -0.0437
 1733SOL    HW116658   2.843   4.076   3.971 -0.2436 -0.0084 -0.4886
 1733SOL    HW216659   2.857   4.130   3.834 -0.9400 -0.7171  0.0168
 1734SOL     OW16660   1.291   2.018   5.045  0.4752  0.5679 -0.0369
 1734SOL    HW116661   1.338   1.935   5.050 -0.9925 -0.3226 -1.0506
 1734SOL    HW216662   1.306   2.052   5.133 -0.2675 -0.0873  0.3364
 1735SOL     OW16663   2.009   3.800   2.586  0.1552 -0.2884  0.1138
 1735SOL    HW116664   2.039   3.886   2.559  0.7503  0.7288  4.0093
 1735SOL    HW216665   2.076   3.769   2.646  0.3915  1.7472  0.8647
 1736SOL     OW16666   4.472   4.066   2.518  0.1226  0.1004 -0.6725
 1736SOL    HW116667   4.491   4.147   2.472 -0.5837  1.6703  1.8200
 1736SOL    HW216668   4.387   4.089   2.555 -0.3142  0.4629 -1.8970
 1737SOL     OW16669   4.581   2.612   9.087  0.0029  0.2467 -0.1104
 1737SOL    HW116670   4.617   2.692   9.048 -0.6047  0.6182  0.1000
 1737SOL    HW216671   4.658   2.555   9.088  0.7511  1.2396 -2.3115
 1738SOL     OW16672   1.340   1.829  13.362  0.5715 -0.4685 -0.2756
 1738SOL    HW116673   1.392   1.750  13.347 -1.5664 -1.9141 -0.0361
 1738SOL    HW216674   1.249   1.798  13.358  0.9936 -1.7806  0.4145
 1739SOL     OW16675   1.099   2.559   0.540  0.4137 -0.5909  0.3109
 1739SOL    HW116676   1.006   2.581   0.534  0.7748  0.4665 -1.4798
 1739SOL    HW216677   1.132   2.647   0.557 -0.4255 -0.2569  0.2436
 1740SOL     OW16678   3.643   1.636   9.067 -0.1978  0.2710 -0.3228
 1740SOL    HW116679   3.634   1.684   9.149  0.5213 -1.9189  1.0253
 1740SOL    HW216680   3.650   1.709   9.005 -0.3423 -0.4420 -1.1886
 1741SOL     OW16681   3.421   0.118   2.539 -0.3884 -0.1478  0.5313
 1741SOL    HW116682   3.510   0.146   2.557 -0.8233 -1.5166  4.9455
 1741SOL    HW216683   3.434   0.046   2.477  1.7861  0.8382 -0.1314
 1742SOL     OW16684   0.412   1.055   4.861 -0.0152  0.1748  0.3716
 1742SOL    HW116685   0.408   0.966   4.826 -1.4455  1.1220 -1.8548
 1742SOL    HW216686   0.475   1.099   4.805 -0.9795  0.8676 -0.1748
 1743SOL     OW16687   4.055   1.483   5.817  0.0924  0.1765 -0.7767
 1743SOL    HW116688   4.139   1.491   5.864 -0.9915 -0.7538  1.3259
 1743SOL    HW216689   4.073   1.531   5.737  1.0615 -1.6285 -1.6495
 1744SOL     OW16690   2.077   3.614  17.640  0.1951 -0.4750 -0.0550
 1744SOL    HW116691   2.110   3.704  17.635 -0.0668 -0.2933  1.5809
 1744SOL    HW216692   2.043   3.608  17.550 -2.2707 -0.4724  0.8585
 1745SOL     OW16693   3.233   3.047   9.594 -0.0653  0.8588  0.3364
 1745SOL    HW116694   3.170   2.986   9.556  0.2097  0.1216  1.0571
 1745SOL    HW216695   3.207   3.031   9.685 -0.4649  0.5419  0.1646
 1746SOL     OW16696   2.156   2.502  11.889 -0.4990  0.3234  0.0434
 1746SOL    HW116697   2.086   2.493  11.954 -0.2116 -0.4382  0.2486
 1746SOL    HW216698   2.114   2.453  11.818 -0.4884 -0.5554  0.6440
 1747SOL     OW16699   1.485   2.647  16.191 -0.0635  0.2174  0.3420
 1747SOL    HW116700   1.529   2.728  16.162  3.8875 -1.9603  0.1774
 1747SOL    HW216701   1.393   2.673  16.191 -0.4024 -1.0183  1.3638
 1748SOL     OW16702   3.351   1.481   6.234  0.5479  0.8089 -0.0616
 1748SOL    HW116703   3.424   1.432   6.272 -0.6654 -1.8022 -1.1016
 1748SOL    HW216704   3.332   1.445   6.147  1.5187  1.6176 -0.6113
 1749SOL     OW16705   1.237   0.371   2.633 -0.2363  0.1353 -0.0033
 1749SOL    HW116706   1.187   0.389   2.713 -0.4868 -0.0674 -0.1093
 1749SOL    HW216707   1.186   0.291   2.613  0.0754 -0.1000  0.1439
 1750SOL     OW16708   1.228   4.086  14.805 -0.2651 -0.2291 -0.8328
 1750SOL    HW116709   1.203   4.178  14.790 -0.0825 -0.3390 -1.8359
 1750SOL    HW216710   1.218   4.079  14.899 -2.5333 -3.0810 -1.3173
 1751SOL     OW16711   3.052   4.191   5.456  0.0129 -0.1527  0.0999
 1751SOL    HW116712   3.090   4.244   5.526  0.4691  0.9450 -0.9934
 1751SOL    HW216713   3.127   4.132   5.445  0.2372 -0.1907  1.8663
 1752SOL     OW16714   4.126   0.213   4.100  0.5588 -0.0498 -0.1321
 1752SOL    HW116715   4.145   0.274   4.171 -0.5699  0.4694 -0.2713
 1752SOL    HW216716   4.106   0.273   4.027  0.8372  4.6531  3.6634
 1753SOL     OW16717   4.467   1.840  14.148 -0.2905  0.1203 -0.2294
 1753SOL    HW116718   4.391   1.878  14.104 -0.8485 -0.8956 -0.1358
 1753SOL    HW216719   4.428   1.829  14.235  1.0327 -2.8078  0.0001
 1754SOL     OW16720   4.576   1.135   3.043  0.7552 -0.4233  0.0382
 1754SOL    HW116721   4.586   1.200   2.974  0.1039  0.1162  0.4511
 1754SOL    HW216722   4.488   1.157   3.073  0.5913 -0.6023 -0.3073
 1755SOL     OW16723   0.189   1.967   8.359 -0.1636  0.0191 -0.0979
 1755SOL    HW116724   0.129   1.924   8.419  0.0871 -1.3253 -0.8169
 1755SOL    HW216725   0.241   1.890   8.336  1.3253  0.7604  0.7643
 1756SOL     OW16726   4.605   2.227   9.124 -0.1388  0.1717  0.1534
 1756SOL    HW116727   4.678   2.178   9.162 -0.4344 -0.7085 -0.4292
 1756SOL    HW216728   4.560   2.272   9.195 -1.7994  0.7735 -1.2823
 1757SOL     OW16729   3.709   3.674   7.099 -0.9419 -0.2244 -0.0189
 1757SOL    HW116730   3.756   3.754   7.077  1.1839 -1.4096  0.3143
 1757SOL    HW216731   3.766   3.614   7.052  2.5561  0.8577  2.8483
 1758SOL     OW16732   3.744   1.659   3.031  1.1126 -0.1553  0.4805
 1758SOL    HW116733   3.795   1.581   3.007  0.2246 -0.0515 -1.7361
 1758SOL    HW216734   3.755   1.723   2.961  0.3298 -0.4422  0.0893
 1759SOL     OW16735   1.278   2.842   9.695  0.2998  0.9031  0.1623
 1759SOL    HW116736   1.335   2.782   9.741 -0.4346 -2.2302 -2.9891
 1759SOL    HW216737   1.229   2.883   9.766 -1.6811  0.1539 -0.7620
 1760SOL     OW16738   1.110   0.903   4.217 -0.1508  0.3262  0.1053
 1760SOL    HW116739   1.155   0.906   4.133  0.3086 -1.6081  0.2801
 1760SOL    HW216740   1.186   0.911   4.273 -2.3258  1.6401  2.8843
 1761SOL     OW16741   3.627   2.081   5.108  0.7212  0.0822  0.1511
 1761SOL    HW116742   3.696   2.036   5.158 -0.8166 -2.1790  0.2392
 1761SOL    HW216743   3.562   2.011   5.096  1.7016 -1.1722  2.0177
 1762SOL     OW16744   3.884   0.433   8.208  0.4069  0.4865 -0.2157
 1762SOL    HW116745   3.918   0.352   8.246  0.8598  0.1065 -1.4447
 1762SOL    HW216746   3.816   0.398   8.151  1.4253 -0.6218 -0.7573
 1763SOL     OW16747   1.899   2.965  11.622  0.2579  0.3178  0.4265
 1763SOL    HW116748   1.882   3.058  11.636  2.2879  0.2598  3.4128
 1763SOL    HW216749   1.871   2.925  11.705  0.8286 -1.6765 -0.3488
 1764SOL     OW16750   3.751   4.063  15.281  0.0058  0.4444  0.5948
 1764SOL    HW116751   3.786   4.061  15.370  2.1822  0.9964 -0.2530
 1764SOL    HW216752   3.823   4.102  15.231 -0.0105  1.7773  1.5889
 1765SOL     OW16753   1.266   2.431   4.754 -0.0839 -0.4537  0.2432
 1765SOL    HW116754   1.226   2.393   4.676 -2.7773  0.2741  1.2649
 1765SOL    HW216755   1.284   2.353   4.807  1.3537  1.1797  2.1446
 1766SOL     OW16756   0.425   4.420   3.908  0.2728 -0.3286 -0.1370
 1766SOL    HW116757   0.459   4.506   3.933  0.6408  0.2897 -2.7732
 1766SOL    HW216758   0.342   4.445   3.866  0.3990 -0.1111 -0.2542
 1767SOL     OW16759   2.496   2.025   3.019  0.0332 -0.4463  0.5829
 1767SOL    HW116760   2.559   2.093   2.994  1.8303 -2.7466 -1.1862
 1767SOL    HW216761   2.413   2.062   2.989  0.2722  0.1753  0.6900
 1768SOL     OW16762   0.844   1.596  11.595  0.3550 -0.4766  0.3539
 1768SOL    HW116763   0.881   1.607  11.508 -1.0614  2.8663  0.1857
 1768SOL    HW216764   0.924   1.612  11.646  0.0670  1.5331  0.1582
 1769SOL     OW16765   2.481   4.577  11.549 -0.0696  0.1515  0.1191
 1769SOL    HW116766   2.568   4.542  11.529  1.7249  4.2492  0.7906
 1769SOL    HW216767   2.450   4.573  11.459  0.6261  1.4111 -0.1681
 1770SOL     OW16768   3.502   4.252   8.313  0.1012 -0.2246 -0.3095
 1770SOL    HW116769   3.437   4.202   8.362  0.2201  1.7247  1.8194
 1770SOL    HW216770   3.440   4.299   8.257  0.9775  0.2510 -0.8852
 1771SOL     OW16771   2.871   1.630   4.099  0.7809 -0.1801 -0.0862
 1771SOL    HW116772   2.832   1.546   4.075 -1.0655  0.0007  2.3943
 1771SOL    HW216773   2.793   1.667   4.138  0.9960  3.0596 -2.7455
 1772SOL     OW16774   2.741   3.005   3.511  0.2042  0.7347  0.5355
 1772SOL    HW116775   2.791   2.975   3.587  0.6663  1.7966  0.6563
 1772SOL    HW216776   2.681   2.930   3.506 -1.6725  2.3478 -1.5599
 1773SOL     OW16777   0.008   3.647   7.633  0.5369 -0.1329 -0.2453
 1773SOL    HW116778   4.687   3.715   7.583  0.1662 -0.6650 -0.6329
 1773SOL    HW216779   4.665   3.604   7.687  1.4069  1.3393  2.0396
 1774SOL     OW16780   0.127   0.752   2.585  0.2766 -0.0283  0.0502
 1774SOL    HW116781   0.141   0.657   2.589 -3.4168 -0.6670 -1.5553
 1774SOL    HW216782   0.215   0.785   2.601  0.9793 -1.3095 -1.1612
 1775SOL     OW16783   2.076   0.647  10.188 -0.8364 -0.7723 -0.3298
 1775SOL    HW116784   2.065   0.682  10.099  3.0091  3.2737  0.8264
 1775SOL    HW216785   1.985   0.636  10.216 -1.2520  1.5656 -0.7659
 1776SOL     OW16786   2.527   3.658  14.906  0.2831  0.1923 -0.4684
 1776SOL    HW116787   2.480   3.611  14.837  0.7160  0.2925 -0.8352
 1776SOL    HW216788   2.469   3.734  14.913 -1.0905 -0.7967 -1.2088
 1777SOL     OW16789   4.427   4.041   5.686  0.1524 -0.2231 -0.4899
 1777SOL    HW116790   4.346   4.094   5.692  1.5829  2.1559 -2.0888
 1777SOL    HW216791   4.385   3.957   5.701 -0.9290  0.5694  1.0414
 1778SOL     OW16792   0.949   0.961   5.360 -0.1168 -0.2217 -0.1265
 1778SOL    HW116793   0.866   0.978   5.404 -1.2544 -0.6589 -2.1160
 1778SOL    HW216794   0.976   1.039   5.313  0.7686  0.3438  1.3381
 1779SOL     OW16795   3.033   3.486   6.823  0.6884 -0.4593 -0.3732
 1779SOL    HW116796   3.041   3.408   6.877 -1.5495  1.6103  2.9708
 1779SOL    HW216797   2.978   3.539   6.881 -0.9368 -0.7199 -1.6772
 1780SOL     OW16798   3.999   2.419   9.656  0.2869 -0.3879  0.2944
 1780SOL    HW116799   4.041   2.480   9.717 -0.7914  0.2403  0.4014
 1780SOL    HW216800   4.043   2.340   9.686  1.5523 -0.2744 -1.2616
 1781SOL     OW16801   1.360   1.738   3.317 -0.1705  0.1273 -0.0798
 1781SOL    HW116802   1.303   1.663   3.303 -0.3459  0.3862 -0.7252
 1781SOL    HW216803   1.412   1.723   3.238 -0.7048 -3.5051  0.2587
 1782SOL     OW16804   0.435   3.746   8.825  0.6525  0.4056 -0.1738
 1782SOL    HW116805   0.521   3.782   8.846  0.4920  0.8067 -0.2055
 1782SOL    HW216806   0.461   3.700   8.745  1.1581  1.5456 -0.6640
 1783SOL     OW16807   2.708   3.400   2.593 -0.1958  0.8880  0.2452
 1783SOL    HW116808   2.768   3.397   2.518 -2.6437  0.7456 -1.6867
 1783SOL    HW216809   2.712   3.311   2.627 -1.1986 -0.1199 -2.3477
 1784SOL     OW16810   4.705   3.288  11.162  0.0846  0.0220  0.0111
 1784SOL    HW116811   0.006   3.259  11.250  1.9629 -0.3861 -0.6311
 1784SOL    HW216812   4.658   3.371  11.174 -0.6292 -0.2750 -0.7554
 1785SOL     OW16813   3.322   0.406   0.232 -0.0461 -0.4768 -0.0071
 1785SOL    HW116814   3.378   0.435   0.160  1.7634 -0.6150  1.3261
 1785SOL    HW216815   3.394   0.354   0.268  0.8463  0.0346 -1.0615
 1786SOL     OW16816   1.449   4.683   3.082  0.3387 -0.0634  0.2150
 1786SOL    HW116817   1.472   4.653   2.994 -1.1567  0.8586 -0.4959
 1786SOL    HW216818   1.356   4.662   3.087  0.0381  0.6988 -1.8516
 1787SOL     OW16819   2.718   4.136   3.434  0.1160 -1.0834  0.1207
 1787SOL    HW116820   2.695   4.227   3.414  2.3956  0.0447  2.5363
 1787SOL    HW216821   2.671   4.113   3.514 -1.0785  0.1504 -0.2321
 1788SOL     OW16822   0.040   3.176   9.600 -0.4562 -0.0098  0.2202
 1788SOL    HW116823   0.093   3.252   9.578 -1.3701  0.5759  0.0287
 1788SOL    HW216824   4.675   3.207   9.582 -1.2895 -1.1599  2.2733
 1789SOL     OW16825   2.058   1.982   2.928  0.6409  0.3707 -0.0161
 1789SOL    HW116826   2.089   2.030   3.004 -1.3581  0.6206  0.6453
 1789SOL    HW216827   2.027   2.059   2.879 -0.2071 -0.9012 -1.4872
 1790SOL     OW16828   1.287   1.869   0.309  0.3476  0.0906 -0.1856
 1790SOL    HW116829   1.260   1.903   0.393  0.1861  5.8128 -2.5759
 1790SOL    HW216830   1.273   1.943   0.250  1.3600  1.3768  1.2111
 1791SOL     OW16831   1.729   0.791   8.274 -0.0171  0.1895  0.4715
 1791SOL    HW116832   1.722   0.773   8.368 -1.2532  0.9354  0.5376
 1791SOL    HW216833   1.637   0.780   8.249  0.5901  0.5845 -1.9024
 1792SOL     OW16834   3.686   1.799   5.090 -0.4767 -0.1477 -0.2803
 1792SOL    HW116835   3.600   1.807   5.049  0.2338 -2.5752 -2.2604
 1792SOL    HW216836   3.673   1.742   5.166 -2.0024  4.1619  2.6814
 1793SOL     OW16837   1.671   2.407   9.348 -0.1230 -0.0077 -0.1429
 1793SOL    HW116838   1.751   2.455   9.326 -0.4078  1.0367  1.0917
 1793SOL    HW216839   1.658   2.345   9.276 -0.8665  0.2845 -0.2638
 1794SOL     OW16840   2.787   3.796   5.892  0.1839 -0.1764 -0.5142
 1794SOL    HW116841   2.718   3.805   5.958  0.0558 -0.6861 -0.5792
 1794SOL    HW216842   2.743   3.774   5.810  0.2112  0.4958 -0.7043
 1795SOL     OW16843   1.822   2.880   6.554 -0.0614  0.0460 -0.7441
 1795SOL    HW116844   1.811   2.904   6.646  0.7964  0.3815 -0.7305
 1795SOL    HW216845   1.892   2.817   6.569  0.7578  0.9163 -0.8619
 1796SOL     OW16846   3.057   2.912   2.085 -0.0502  0.5341  0.4136
 1796SOL    HW116847   3.078   2.941   2.174 -0.0218  1.9577 -0.0551
 1796SOL    HW216848   3.070   2.989   2.029  0.3580 -0.2124 -0.5017
 1797SOL     OW16849   4.695   2.764   9.880  0.6594  0.4123 -0.2019
 1797SOL    HW116850   0.028   2.828   9.834  0.2391 -1.4018 -3.2489
 1797SOL    HW216851   4.623   2.763   9.817 -0.4393 -0.0078  1.0667
 1798SOL     OW16852   3.221   2.508   7.541 -0.0983 -0.3797 -0.3033
 1798SOL    HW116853   3.203   2.513   7.635 -1.8908 -0.3756 -0.6397
 1798SOL    HW216854   3.136   2.526   7.500 -0.4814  0.8388  0.9905
 1799SOL     OW16855   1.468   0.008   4.394 -0.6257 -0.6642  0.1616
 1799SOL    HW116856   1.469   4.704   4.486 -0.4381 -0.1531  0.3087
 1799SOL    HW216857   1.560   4.715   4.372 -0.6472  0.3918 -0.6689
 1800SOL     OW16858   1.152   4.146   1.096  0.2953 -0.0435  0.9899
 1800SOL    HW116859   1.153   4.242   1.097  1.1994 -0.0173 -1.9072
 1800SOL    HW216860   1.135   4.129   1.189 -0.4598 -0.1260  0.8373
 1801SOL     OW16861   0.830   2.666   7.547 -0.0196 -0.2871  0.8022
 1801SOL    HW116862   0.884   2.742   7.525 -0.4317 -0.5005 -0.9411
 1801SOL    HW216863   0.865   2.611   7.476 -0.6227  2.5612 -1.6971
 1802SOL     OW16864   4.287   2.689   7.284 -0.2104  0.3403  0.0656
 1802SOL    HW116865   4.294   2.598   7.312 -0.2026 -0.0266 -1.1036
 1802SOL    HW216866   4.210   2.719   7.331  0.8606  0.3390  1.8338
 1803SOL     OW16867   2.171   2.772   4.086 -0.3061 -0.8216 -0.2149
 1803SOL    HW116868   2.077   2.753   4.095 -0.8462  0.8516 -2.4194
 1803SOL    HW216869   2.179   2.842   4.150 -0.0064  0.7071 -1.9138
 1804SOL     OW16870   3.681   2.272   4.904  0.0318 -0.1979  0.8097
 1804SOL    HW116871   3.674   2.193   4.957  2.5730 -1.0118 -0.0784
 1804SOL    HW216872   3.689   2.343   4.968  0.1055  0.9019 -0.4072
 1805SOL     OW16873   1.310   3.486   2.429  0.3161 -0.6510 -0.5449
 1805SOL    HW116874   1.386   3.450   2.475  0.4279 -0.4577 -0.5763
 1805SOL    HW216875   1.359   3.526   2.358 -0.6612  2.5232  0.5603
 1806SOL     OW16876   0.983   0.421  11.107  0.3561 -0.3099  0.4315
 1806SOL    HW116877   0.966   0.397  11.198  0.9353 -0.3430  0.5330
 1806SOL    HW216878   1.033   0.346  11.075  1.1403 -0.5439  2.2113
 1807SOL     OW16879   4.517   3.626   9.793 -0.5490 -0.7243  0.1376
 1807SOL    HW116880   4.565   3.626   9.876 -0.6731  1.0636  0.1998
 1807SOL    HW216881   4.569   3.692   9.747  0.9301 -0.8359  1.6423
 1808SOL     OW16882   2.425   4.237   8.388 -0.0344 -0.1295 -0.3891
 1808SOL    HW116883   2.498   4.177   8.373 -0.0553  0.5310 -2.9831
 1808SOL    HW216884   2.459   4.290   8.460 -0.1685 -3.1322  1.9295
 1809SOL     OW16885   4.679   1.906  13.344  0.5519  0.0805 -0.0697
 1809SOL    HW116886   4.717   1.934  13.261 -0.5495  0.1724 -0.5465
 1809SOL    HW216887   4.677   1.811  13.337 -0.9053  0.1481 -0.4591
 1810SOL     OW16888   4.698   4.023  10.752 -0.4890 -0.0407 -0.0672
 1810SOL    HW116889   0.034   3.958  10.714 -1.7925  0.9450 -3.7747
 1810SOL    HW216890   0.035   4.095  10.762  0.6999 -1.0334 -0.0958
 1811SOL     OW16891   1.065   2.969  16.548 -0.9470 -0.3931 -0.8342
 1811SOL    HW116892   0.983   2.948  16.504 -1.3667  0.0478 -0.2640
 1811SOL    HW216893   1.040   2.943  16.637  3.1449 -0.2734  0.3716
 1812SOL     OW16894   4.373   3.709  16.634 -0.0563  0.0050 -0.0398
 1812SOL    HW116895   4.292   3.662  16.613 -0.4008  0.1521  0.9217
 1812SOL    HW216896   4.338   3.790  16.672 -0.4530  1.1641 -2.8738
 1813SOL     OW16897   1.185   1.338  13.115  0.2321  0.4424  0.3552
 1813SOL    HW116898   1.150   1.427  13.121  0.4562  0.5214  0.4863
 1813SOL    HW216899   1.184   1.311  13.207  0.5149 -0.9590 -0.0578
 1814SOL     OW16900   0.103   0.952   2.349 -0.1708 -0.0562  0.5669
 1814SOL    HW116901   0.068   0.940   2.260  5.0721 -1.4656 -1.3243
 1814SOL    HW216902   0.067   0.877   2.397 -1.9099 -0.1662 -0.8846
 1815SOL     OW16903   0.956   1.643   1.871  0.3204  0.0719 -0.0498
 1815SOL    HW116904   1.001   1.628   1.788  2.7104 -0.3088  1.3274
 1815SOL    HW216905   0.929   1.552   1.884  1.8506 -0.3615 -0.0040
 1816SOL     OW16906   0.219   4.253   3.947 -0.4380 -0.3212 -0.4318
 1816SOL    HW116907   0.305   4.289   3.967 -1.1768  0.0449  2.1649
 1816SOL    HW216908   0.159   4.325   3.968 -0.6832 -0.8418  0.6777
 1817SOL     OW16909   0.665   1.979   5.321  0.1213  0.0188 -0.3109
 1817SOL    HW116910   0.634   2.066   5.346  1.9365  0.4187  0.5400
 1817SOL    HW216911   0.758   2.002   5.310  0.0927 -0.1737 -0.9208
 1818SOL     OW16912   2.077   0.006   6.481 -0.0551  0.2459  0.3350
 1818SOL    HW116913   2.150   0.041   6.531 -0.7025 -0.7464  1.9511
 1818SOL    HW216914   2.095   4.638   6.500 -2.7202 -0.2254  0.6239
 1819SOL     OW16915   1.121   3.057  10.358  0.1900 -0.8326 -0.2676
 1819SOL    HW116916   1.178   3.127  10.328  1.7120 -2.1935 -0.5093
 1819SOL    HW216917   1.172   3.027  10.433  0.2041 -2.8987 -1.0851
 1820SOL     OW16918   0.760   2.648  13.170 -0.9556  0.3800  0.5825
 1820SOL    HW116919   0.815   2.724  13.149 -1.1232  0.5254  0.6716
 1820SOL    HW216920   0.771   2.653  13.265 -0.1533  3.4273  0.3285
 1821SOL     OW16921   2.969   2.892  16.095  0.1412 -0.0143 -0.1637
 1821SOL    HW116922   3.004   2.805  16.076  0.5772  0.2896 -0.7475
 1821SOL    HW216923   2.900   2.899  16.030  1.6199 -0.1838 -1.7572
 1822SOL     OW16924   3.696   4.558   7.168 -0.3585 -0.1997 -0.0452
 1822SOL    HW116925   3.762   4.585   7.232  2.0403 -0.2154 -2.4715
 1822SOL    HW216926   3.662   4.479   7.209  0.9889 -1.4520 -1.3222
 1823SOL     OW16927   4.496   4.323  13.590  0.0676  0.2832 -0.2759
 1823SOL    HW116928   4.444   4.349  13.667  1.6640 -1.7873  1.5262
 1823SOL    HW216929   4.469   4.374  13.514  0.7996  1.2413  0.1179
 1824SOL     OW16930   0.682   3.760   4.711  0.2129 -0.3204 -0.1471
 1824SOL    HW116931   0.767   3.736   4.749  0.8877  1.2809 -0.6672
 1824SOL    HW216932   0.629   3.707   4.770  0.5930 -1.3753 -0.7477
 1825SOL     OW16933   4.207   2.611   1.894  0.0429 -0.7603 -0.7188
 1825SOL    HW116934   4.121   2.568   1.892 -0.6970  0.5709  2.3389
 1825SOL    HW216935   4.220   2.643   1.805  1.0940 -0.3920 -0.4299
 1826SOL     OW16936   4.494   0.656   6.071  0.1942  0.3444 -0.0205
 1826SOL    HW116937   4.569   0.672   6.014  1.0615 -1.9751  0.4778
 1826SOL    HW216938   4.427   0.702   6.020  0.2870  1.9293  1.2938
 1827SOL     OW16939   3.857   0.218   6.986  0.2182  0.2412 -0.0282
 1827SOL    HW116940   3.841   0.125   6.971 -0.0467  0.4326 -0.9154
 1827SOL    HW216941   3.860   0.221   7.082 -0.4177  1.4011 -0.0411
 1828SOL     OW16942   0.244   2.628   0.837 -0.2458  0.1869 -0.2379
 1828SOL    HW116943   0.188   2.684   0.891 -0.0380  1.0842 -0.9674
 1828SOL    HW216944   0.179   2.562   0.817  0.4957 -0.1882 -1.4120
 1829SOL     OW16945   2.839   2.683   3.667 -0.4451 -0.0054 -0.1019
 1829SOL    HW116946   2.847   2.771   3.704 -1.7596 -0.8389  2.1168
 1829SOL    HW216947   2.926   2.664   3.633 -1.2752 -0.2890 -2.0724
 1830SOL     OW16948   2.364   1.398   5.297  0.1501 -0.6620 -0.5535
 1830SOL    HW116949   2.460   1.389   5.301  0.2938  0.5462 -0.9852
 1830SOL    HW216950   2.341   1.418   5.387  1.0153 -1.6847 -0.1102
 1831SOL     OW16951   4.501   4.158   4.954 -0.5784 -0.2282 -0.3639
 1831SOL    HW116952   4.568   4.218   4.922 -0.3872  0.8771  2.1082
 1831SOL    HW216953   4.427   4.197   4.908 -0.3780  0.5710 -0.0143
 1832SOL     OW16954   1.229   4.095  12.755 -0.4005 -0.2299 -0.4827
 1832SOL    HW116955   1.240   4.133  12.668 -0.6433  0.2388 -0.3078
 1832SOL    HW216956   1.133   4.097  12.761 -0.4903  0.6938 -2.1986
 1833SOL     OW16957   3.563   3.712  13.917  0.2502 -0.3028 -0.0517
 1833SOL    HW116958   3.618   3.790  13.926 -2.2324  1.4408  0.0134
 1833SOL    HW216959   3.485   3.754  13.879 -0.3057 -0.2394  1.1451
 1834SOL     OW16960   2.702   2.986   3.210  0.5980 -0.3640  0.4118
 1834SOL    HW116961   2.766   2.916   3.216  1.9704  0.7542 -1.2911
 1834SOL    HW216962   2.717   3.032   3.293  2.4500  1.0111 -0.6970
 1835SOL     OW16963   3.611   3.779   8.540  0.2041  0.1783 -0.4859
 1835SOL    HW116964   3.675   3.766   8.610 -0.1436  2.4675  0.2412
 1835SOL    HW216965   3.584   3.869   8.555  2.0727  0.6331  0.0417
 1836SOL     OW16966   3.624   3.548   8.387  0.0857  0.4692  0.3445
 1836SOL    HW116967   3.616   3.639   8.415 -1.4140  0.9591 -1.6439
 1836SOL    HW216968   3.717   3.549   8.366 -0.0930  1.2151 -0.4307
 1837SOL     OW16969   4.156   1.956   2.760 -0.0403  0.1906  0.5889
 1837SOL    HW116970   4.136   2.047   2.782 -0.7422 -0.2141  1.5825
 1837SOL    HW216971   4.122   1.952   2.670 -0.3684  0.9152  0.6775
 1838SOL     OW16972   4.002   4.236  12.072  0.5320 -0.5819  0.1150
 1838SOL    HW116973   3.922   4.250  12.022  0.2434 -0.1358  0.7013
 1838SOL    HW216974   4.025   4.329  12.070 -1.8489 -0.0161 -0.2074
 1839SOL     OW16975   4.546   4.272   0.762 -0.1960 -0.1489 -0.7121
 1839SOL    HW116976   4.626   4.320   0.780 -0.1852  0.5357 -2.6011
 1839SOL    HW216977   4.581   4.193   0.722 -0.5325 -1.2204  1.1158
 1840SOL     OW16978   2.465   4.026  17.418 -0.0181 -0.1298 -0.0612
 1840SOL    HW116979   2.473   4.008  17.511 -0.8404  1.2144  0.2669
 1840SOL    HW216980   2.526   3.960  17.382  0.0910 -0.3067  0.4499
 1841SOL     OW16981   1.877   0.935   8.025  0.3991 -0.1805 -0.1028
 1841SOL    HW116982   1.836   0.985   7.954 -0.3464  0.6752  0.9216
 1841SOL    HW216983   1.881   1.005   8.090 -0.9678 -0.4390  0.2450
 1842SOL     OW16984   3.627   2.191  11.052  0.6024 -0.1470 -0.1835
 1842SOL    HW116985   3.614   2.097  11.038  1.1257 -0.2028 -0.2709
 1842SOL    HW216986   3.574   2.222  10.979  1.4219  2.9945  0.5440
 1843SOL     OW16987   3.839   0.120   1.673  0.4323 -0.7400  0.0285
 1843SOL    HW116988   3.934   0.120   1.687  0.3415  1.6408  0.5921
 1843SOL    HW216989   3.812   0.051   1.734  1.7192 -0.5086  0.8586
 1844SOL     OW16990   1.568   2.398  10.496  0.3627  0.1873 -0.0118
 1844SOL    HW116991   1.508   2.340  10.543 -0.5327 -1.0443 -2.7406
 1844SOL    HW216992   1.541   2.373  10.408  0.2847  0.5604 -0.0934
 1845SOL     OW16993   4.396   1.829   2.827 -0.2479 -0.7623  0.3269
 1845SOL    HW116994   4.446   1.868   2.898  0.2936 -0.0493 -0.4371
 1845SOL    HW216995   4.317   1.883   2.825  0.8562  0.8440 -0.2764
 1846SOL     OW16996   1.606   4.002   9.752  0.2458  0.2586  0.1204
 1846SOL    HW116997   1.605   3.936   9.821 -0.3949  0.1976  0.0482
 1846SOL    HW216998   1.548   4.069   9.788 -0.2319 -0.1619  0.1172
 1847SOL     OW16999   0.945   1.202   2.289 -0.1777  0.0308 -0.0943
 1847SOL    HW117000   0.910   1.139   2.226 -0.2234 -2.1916  2.1407
 1847SOL    HW217001   0.907   1.154   2.363 -1.2661  1.0276 -0.0099
 1848SOL     OW17002   2.579   2.877   5.391 -0.0973  0.2770 -0.2845
 1848SOL    HW117003   2.484   2.885   5.401 -0.0410  1.3074 -0.5914
 1848SOL    HW217004   2.592   2.789   5.426 -1.4234  0.5815  0.9614
 1849SOL     OW17005   3.290   1.999   2.295 -0.4431  0.2675 -0.2034
 1849SOL    HW117006   3.327   1.911   2.287  0.4007  0.4961  1.1839
 1849SOL    HW217007   3.329   2.045   2.221 -1.1588  1.5456  0.2082
 1850SOL     OW17008   2.168   0.703   4.991 -0.5820  0.4278  0.1044
 1850SOL    HW117009   2.102   0.731   5.055 -0.8548 -0.7157  0.3247
 1850SOL    HW217010   2.112   0.686   4.914  2.3185 -0.1823 -1.8745
 1851SOL     OW17011   0.331   0.256   6.011 -0.0527 -0.6735 -0.0491
 1851SOL    HW117012   0.361   0.322   5.948  0.5386 -0.8401  0.0526
 1851SOL    HW217013   0.246   0.254   5.967  0.5436 -0.4994 -1.2102
 1852SOL     OW17014   1.268   1.816   4.774  0.1364  0.2643  0.0371
 1852SOL    HW117015   1.193   1.776   4.819  0.2002 -0.4225 -0.4661
 1852SOL    HW217016   1.239   1.906   4.766  0.1184 -0.0460 -3.2491
 1853SOL     OW17017   2.771   1.542   7.117 -0.1056 -0.0588 -0.2623
 1853SOL    HW117018   2.749   1.621   7.166 -1.4422  0.1145 -1.1264
 1853SOL    HW217019   2.748   1.466   7.169  0.8113 -0.2467 -0.1234
 1854SOL     OW17020   0.386   3.382  12.093 -0.3415  0.5261  0.0116
 1854SOL    HW117021   0.460   3.386  12.154  0.7663  1.0977 -1.3693
 1854SOL    HW217022   0.431   3.415  12.015  2.8259 -0.0604  1.5677
 1855SOL     OW17023   0.151   3.863  10.974 -0.3622 -0.1360 -0.3963
 1855SOL    HW117024   0.057   3.847  10.984 -0.2102 -2.3851 -2.4221
 1855SOL    HW217025   0.171   3.891  11.063 -0.5547 -0.4323 -0.2599
 1856SOL     OW17026   0.145   1.202   9.210  0.0968  0.3940 -0.5396
 1856SOL    HW117027   0.205   1.223   9.139  0.0694  0.7502 -0.4604
 1856SOL    HW217028   0.205   1.221   9.282 -0.2018 -0.2225 -0.1224
 1857SOL     OW17029   2.993   2.888   6.049 -0.0954 -0.3872 -0.2702
 1857SOL    HW117030   2.957   2.813   6.004  2.1277 -0.9114 -1.1822
 1857SOL    HW217031   2.917   2.946   6.052 -0.3811 -0.8330  1.1495
 1858SOL     OW17032   0.589   4.100   5.995 -0.2984 -0.3339  0.0485
 1858SOL    HW117033   0.527   4.034   5.965 -0.3765 -0.7471  1.1118
 1858SOL    HW217034   0.534   4.178   5.995  0.4545  0.2012 -4.7132
 1859SOL     OW17035   0.428   2.364   2.620 -0.5864  0.5229  0.0670
 1859SOL    HW117036   0.430   2.451   2.580 -0.5165 -0.2265 -1.5358
 1859SOL    HW217037   0.353   2.383   2.676  0.0429 -0.3413  1.1906
 1860SOL     OW17038   1.058   2.393   3.464 -0.1833 -0.1284 -0.0468
 1860SOL    HW117039   1.011   2.476   3.459  1.1607  0.5693 -1.2274
 1860SOL    HW217040   1.059   2.391   3.560  0.8861 -1.8943 -0.0943
 1861SOL     OW17041   0.699   0.625   7.520  0.1015 -0.1067  0.5344
 1861SOL    HW117042   0.767   0.636   7.587 -0.0289  1.6642  0.3612
 1861SOL    HW217043   0.663   0.713   7.518  1.9511  0.5919 -1.6468
 1862SOL     OW17044   3.085   0.099   8.036  0.3287 -0.2713 -0.2774
 1862SOL    HW117045   3.000   0.133   8.064  0.2359 -1.6830  1.1497
 1862SOL    HW217046   3.114   0.177   7.988 -1.6975  0.2481 -0.6350
 1863SOL     OW17047   4.429   0.698   3.959  0.4287 -0.3093  0.6807
 1863SOL    HW117048   4.422   0.703   3.864 -3.9895 -0.4639  1.0049
 1863SOL    HW217049   4.513   0.653   3.968  1.0979  0.9427  0.6325
 1864SOL     OW17050   3.800   3.793   5.364 -0.3100  0.2744 -0.4519
 1864SOL    HW117051   3.719   3.742   5.365  1.0368 -1.8824 -1.3091
 1864SOL    HW217052   3.759   3.878   5.349 -1.4499 -0.7676 -3.2408
 1865SOL     OW17053   3.354   2.917   6.956 -0.1858 -0.0670  0.4557
 1865SOL    HW117054   3.406   2.838   6.938  0.1006  0.3891 -0.7277
 1865SOL    HW217055   3.284   2.883   7.010 -1.0522  0.4571 -0.3430
 1866SOL     OW17056   2.138   3.987  15.440  0.3628  0.0548  0.4555
 1866SOL    HW117057   2.049   4.022  15.441 -0.1704 -1.2777 -0.6594
 1866SOL    HW217058   2.163   4.005  15.350 -1.8191  0.1147 -0.1376
 1867SOL     OW17059   2.037   1.031  17.529  0.3324  0.4158 -0.3871
 1867SOL    HW117060   2.004   1.007  17.442  0.7708 -0.0845 -0.4146
 1867SOL    HW217061   2.041   1.126  17.518  1.1900  0.6017  1.4991
 1868SOL     OW17062   1.807   3.871   1.754  0.4214 -0.1467 -0.1070
 1868SOL    HW117063   1.850   3.839   1.674  0.4468 -0.7747  0.1579
 1868SOL    HW217064   1.737   3.811   1.777  1.0721 -0.6292  0.6000
 1869SOL     OW17065   0.546   0.433  11.195 -0.0646  0.0788 -0.4624
 1869SOL    HW117066   0.461   0.432  11.150  0.0207 -0.8096 -0.5886
 1869SOL    HW217067   0.534   0.390  11.279 -0.1487  1.7751  0.3866
 1870SOL     OW17068   1.738   4.030   6.034 -0.0331 -0.8694  0.6725
 1870SOL    HW117069   1.751   4.031   5.939  1.9211  0.5696  0.9484
 1870SOL    HW217070   1.667   4.094   6.039  4.8819  4.6655 -0.1970
 1871SOL     OW17071   3.471   1.775  13.823  0.2127 -0.2915  0.1179
 1871SOL    HW117072   3.447   1.696  13.871 -0.2795 -0.5160 -0.4987
 1871SOL    HW217073   3.458   1.847  13.885  1.0147  0.1523 -0.2294
 1872SOL     OW17074   2.815   0.811  15.628  0.4050 -0.1503 -0.1588
 1872SOL    HW117075   2.778   0.811  15.540 -0.1831 -0.2802  0.0881
 1872SOL    HW217076   2.898   0.857  15.617 -1.0120  1.7454 -3.0753
 1873SOL     OW17077   3.352   2.072   2.051 -0.9307 -0.0318  0.4989
 1873SOL    HW117078   3.337   1.983   2.018 -0.1712 -0.0268  0.1397
 1873SOL    HW217079   3.445   2.078   2.030 -0.9800 -2.5986 -0.5007
 1874SOL     OW17080   4.621   1.603   7.370 -0.1201  0.4641  0.1969
 1874SOL    HW117081   4.669   1.530   7.330 -3.1742 -0.8889 -1.0189
 1874SOL    HW217082   4.565   1.563   7.438  1.2423 -0.1018  0.9844
 1875SOL     OW17083   1.579   3.797  15.821  0.2973 -0.4984 -0.1097
 1875SOL    HW117084   1.539   3.824  15.903  2.8824  1.4805  0.5041
 1875SOL    HW217085   1.508   3.816  15.759  1.8396  0.7872 -1.4909
 1876SOL     OW17086   0.551   2.379   0.463  0.1905  0.1884  0.2899
 1876SOL    HW117087   0.552   2.445   0.532 -1.2926  0.4446  0.0498
 1876SOL    HW217088   0.487   2.312   0.486 -0.6135  0.8302 -0.1006
 1877SOL     OW17089   4.562   3.885   3.884  0.4381 -0.6408 -0.1766
 1877SOL    HW117090   4.605   3.825   3.945 -0.4732 -1.1395 -0.0266
 1877SOL    HW217091   4.481   3.842   3.856  1.1865 -2.3961  0.3176
 1878SOL     OW17092   4.009   0.691  16.256  0.4721  0.0888 -0.4920
 1878SOL    HW117093   4.081   0.639  16.221 -0.4918 -0.8497 -1.0922
 1878SOL    HW217094   4.052   0.775  16.269  0.0554  0.0757  0.9666
 1879SOL     OW17095   3.619   0.980   8.381 -0.2097 -0.2379 -0.1915
 1879SOL    HW117096   3.713   1.001   8.381  0.1241 -1.7069  0.5338
 1879SOL    HW217097   3.609   0.915   8.311  3.5985  0.1331 -1.1269
 1880SOL     OW17098   4.186   0.895   8.101 -0.3621  0.1184  0.2680
 1880SOL    HW117099   4.106   0.940   8.128  0.3776  0.2872  2.1623
 1880SOL    HW217100   4.199   0.821   8.161  0.0831 -1.7034 -2.0706
 1881SOL     OW17101   3.239   4.540   1.105  0.0163  0.1136  0.5304
 1881SOL    HW117102   3.233   4.503   1.018  1.9206 -3.0968  1.7889
 1881SOL    HW217103   3.232   4.632   1.077 -1.8994  0.0814  0.8869
 1882SOL     OW17104   4.253   3.561   8.665  0.3150 -0.0843 -0.5503
 1882SOL    HW117105   4.333   3.514   8.644  0.6777 -0.4310  1.6282
 1882SOL    HW217106   4.283   3.652   8.671 -0.6986  0.3813 -2.4234
 1883SOL     OW17107   0.575   4.511   3.644 -0.2679  0.1590  0.2246
 1883SOL    HW117108   0.528   4.438   3.685 -0.5770  0.1146 -0.2136
 1883SOL    HW217109   0.506   4.577   3.640 -1.4904 -1.2328 -1.4765
 1884SOL     OW17110   2.810   3.443  12.605 -0.0470 -0.0433 -0.2876
 1884SOL    HW117111   2.781   3.532  12.627 -2.8984 -1.5695  2.1715
 1884SOL    HW217112   2.749   3.395  12.661 -0.1893 -1.5147 -1.7235
 1885SOL     OW17113   3.792   2.515  12.195 -0.0271 -0.4367 -0.1817
 1885SOL    HW117114   3.709   2.506  12.242  0.4970 -2.2600  0.3712
 1885SOL    HW217115   3.866   2.483  12.247  0.0140  0.0027  0.0398
 1886SOL     OW17116   3.075   4.301  11.142 -0.2901  0.2045  0.1800
 1886SOL    HW117117   3.016   4.226  11.149  1.6370 -1.4867 -1.9271
 1886SOL    HW217118   3.059   4.336  11.054  0.0829 -0.9198 -0.3350
 1887SOL     OW17119   4.355   2.875   4.379 -0.2438 -0.6213 -0.9349
 1887SOL    HW117120   4.321   2.947   4.325  0.9135 -1.4712 -2.7775
 1887SOL    HW217121   4.441   2.856   4.343  0.1338 -0.4455 -0.1221
 1888SOL     OW17122   2.639   4.416  14.881  0.2320  0.2677  0.3638
 1888SOL    HW117123   2.706   4.421  14.813  1.1840 -0.4621  1.2519
 1888SOL    HW217124   2.678   4.378  14.960 -0.8593  0.4422  0.9891
 1889SOL     OW17125   2.280   0.326   7.093 -0.4969 -0.0141 -0.0590
 1889SOL    HW117126   2.324   0.404   7.058 -0.0016 -0.0505  0.4726
 1889SOL    HW217127   2.208   0.364   7.143 -0.7892  0.0848 -0.5527
 1890SOL     OW17128   2.327   2.626   8.049 -0.2340  0.2855  0.5317
 1890SOL    HW117129   2.292   2.669   8.127  0.0287 -0.5467  1.1065
 1890SOL    HW217130   2.383   2.692   8.009 -1.2537  0.6272 -0.3219
 1891SOL     OW17131   1.546   1.292   7.353 -0.2875  0.1570  0.7826
 1891SOL    HW117132   1.612   1.259   7.414  2.2383  2.1382 -0.8512
 1891SOL    HW217133   1.567   1.385   7.353 -0.8676  0.2949 -0.3181
 1892SOL     OW17134   2.472   3.989   4.978  0.1439 -0.6034  0.2932
 1892SOL    HW117135   2.435   4.067   5.019  1.2154  0.6581 -1.1928
 1892SOL    HW217136   2.565   4.005   4.966  0.4166 -2.1998  0.2590
 1893SOL     OW17137   4.492   1.807   6.989  0.3196 -0.3219  1.0610
 1893SOL    HW117138   4.518   1.889   6.946 -1.6564  0.3746  1.1904
 1893SOL    HW217139   4.572   1.798   7.041  1.1016  1.3627  0.1707
 1894SOL     OW17140   1.623   2.088   8.470 -0.1369  0.0227  0.1512
 1894SOL    HW117141   1.699   2.136   8.436 -1.0929  0.1836 -1.7907
 1894SOL    HW217142   1.603   2.030   8.396 -0.9605  0.7349 -0.1873
 1895SOL     OW17143   1.634   3.211  15.759  0.2235  0.4178  0.0393
 1895SOL    HW117144   1.608   3.302  15.775 -2.5818 -0.2571 -0.5469
 1895SOL    HW217145   1.704   3.203  15.824  0.6533  0.1080 -0.4617
 1896SOL     OW17146   2.454   0.842   5.274  0.4703 -0.2133  0.7217
 1896SOL    HW117147   2.409   0.901   5.214  0.0133 -1.6771 -0.3732
 1896SOL    HW217148   2.520   0.894   5.321  0.8808  0.0973 -0.1844
 1897SOL     OW17149   2.500   4.462  10.784  0.0547  0.5477  0.0638
 1897SOL    HW117150   2.418   4.414  10.789  0.3731  0.0578  0.5347
 1897SOL    HW217151   2.564   4.392  10.789 -0.7881 -0.2729 -0.7351
 1898SOL     OW17152   3.225   0.946   6.237  0.2862  0.2145  0.0310
 1898SOL    HW117153   3.222   0.944   6.333  0.1955 -2.3651 -0.0282
 1898SOL    HW217154   3.232   1.038   6.212 -1.5108  0.8796  1.9345
 1899SOL     OW17155   2.247   1.375  16.188  0.2898 -0.0750 -0.2001
 1899SOL    HW117156   2.329   1.424  16.184  0.0376  0.3325 -0.4006
 1899SOL    HW217157   2.274   1.301  16.242  0.5931  1.3613  1.6042
 1900SOL     OW17158   1.151   4.552  16.547 -0.0874  0.6368  0.6588
 1900SOL    HW117159   1.227   4.539  16.605  0.4195  0.8459  0.0497
 1900SOL    HW217160   1.146   4.461  16.518 -2.5787  0.9758  0.1008
 1901SOL     OW17161   0.818   0.863   3.018 -0.2823 -0.2390 -0.0318
 1901SOL    HW117162   0.733   0.900   3.041 -0.2334  0.9450 -1.7224
 1901SOL    HW217163   0.844   0.914   2.941 -2.8630  2.5780  0.9615
 1902SOL     OW17164   0.905   4.001   4.088 -0.3663  0.0842  0.4300
 1902SOL    HW117165   0.855   3.944   4.029 -1.0523  0.2055  0.8860
 1902SOL    HW217166   0.913   3.942   4.163 -2.0294 -0.3634  0.2627
 1903SOL     OW17167   2.090   2.523  11.162  0.3808  0.0812  0.1385
 1903SOL    HW117168   2.011   2.558  11.122 -0.1912 -1.3198  0.0294
 1903SOL    HW217169   2.151   2.518  11.088 -0.4557  1.0167 -0.6015
 1904SOL     OW17170   4.292   1.501   5.974 -0.3949 -0.0522  0.4239
 1904SOL    HW117171   4.297   1.596   5.985  0.3594 -0.3236  2.5324
 1904SOL    HW217172   4.380   1.472   5.950 -0.3821  0.4322 -0.0972
 1905SOL     OW17173   0.371   0.224   0.333 -0.0541  0.1541  0.3729
 1905SOL    HW117174   0.412   0.137   0.338  0.6768  0.5295  0.8668
 1905SOL    HW217175   0.351   0.239   0.425 -0.2938  1.5164  0.0908
 1906SOL     OW17176   0.700   1.685   6.440 -0.9085 -0.1185 -0.0128
 1906SOL    HW117177   0.732   1.765   6.483 -3.7019  0.5998  0.6925
 1906SOL    HW217178   0.681   1.726   6.356  1.0938 -1.3318 -1.0616
 1907SOL     OW17179   1.791   1.067   5.073  0.0883  0.1052 -0.2361
 1907SOL    HW117180   1.867   1.028   5.116 -1.3734 -0.0898  2.1593
 1907SOL    HW217181   1.794   1.158   5.102 -1.6820 -0.3057  1.2215
 1908SOL     OW17182   3.769   1.993   3.810 -0.1872  0.5687  0.2148
 1908SOL    HW117183   3.765   2.037   3.895  0.3660  0.9615  0.0376
 1908SOL    HW217184   3.859   1.989   3.778 -0.8944 -0.7012 -1.6123
 1909SOL     OW17185   4.602   1.259   0.608 -0.1464  0.4393  0.2598
 1909SOL    HW117186   4.660   1.190   0.575 -0.8780 -0.3483  0.6315
 1909SOL    HW217187   4.584   1.301   0.523  0.4511 -2.3020 -1.2279
 1910SOL     OW17188   2.295   3.109  15.892 -0.3863 -0.1996 -0.1658
 1910SOL    HW117189   2.328   3.062  15.815 -0.7371 -1.8688  0.7035
 1910SOL    HW217190   2.348   3.188  15.881 -0.4711 -0.0465  0.5631
 1911SOL     OW17191   2.757   1.325   6.743  0.2740  0.0895 -0.8698
 1911SOL    HW117192   2.823   1.395   6.739  0.7948 -0.2352  1.7639
 1911SOL    HW217193   2.682   1.376   6.774  0.1074 -1.6071  1.4883
 1912SOL     OW17194   2.598   1.893   7.652  0.0163 -0.2913  0.1385
 1912SOL    HW117195   2.561   1.843   7.725 -1.2078  1.4448  0.7274
 1912SOL    HW217196   2.518   1.915   7.604  0.6847 -1.7703 -1.6242
 1913SOL     OW17197   1.178   3.646   5.759  0.3512  0.1672  0.3147
 1913SOL    HW117198   1.095   3.666   5.717  0.4250  1.6913  0.9065
 1913SOL    HW217199   1.228   3.617   5.682 -0.3349  1.7098 -0.6991
 1914SOL     OW17200   0.782   2.741   4.113  0.0532  0.2705 -0.5846
 1914SOL    HW117201   0.706   2.800   4.111 -0.5435 -0.4698  0.1915
 1914SOL    HW217202   0.846   2.791   4.162 -0.3371  3.3518 -3.2107
 1915SOL     OW17203   3.177   1.708   2.751  0.4167 -0.3173  0.2065
 1915SOL    HW117204   3.227   1.696   2.832  1.3243 -1.7530 -0.5715
 1915SOL    HW217205   3.090   1.669   2.765  0.1782  0.3287  0.5203
 1916SOL     OW17206   2.927   0.655   3.797 -0.5306 -0.3694 -0.4312
 1916SOL    HW117207   2.961   0.744   3.800  0.3472 -0.6761 -1.4110
 1916SOL    HW217208   2.922   0.642   3.703  1.9147 -1.1152 -0.4637
 1917SOL     OW17209   1.687   1.878  12.297 -0.0224  0.3200  0.2828
 1917SOL    HW117210   1.769   1.864  12.249 -1.0054  2.8879 -2.1497
 1917SOL    HW217211   1.699   1.830  12.379  2.6901  0.7597  0.1518
 1918SOL     OW17212   0.220   1.159   6.609  0.0122  0.2134 -0.2747
 1918SOL    HW117213   0.281   1.098   6.570  0.0360  0.6527 -0.9207
 1918SOL    HW217214   0.150   1.094   6.614 -1.7656  2.2871  2.4620
 1919SOL     OW17215   3.173   1.738   7.960 -0.4815  1.1601 -0.0908
 1919SOL    HW117216   3.230   1.691   7.899 -2.5754 -1.6124  0.0999
 1919SOL    HW217217   3.129   1.799   7.901  1.8748  1.6343 -1.3735
 1920SOL     OW17218   4.328   2.596   9.600 -0.0285  0.1559 -0.1970
 1920SOL    HW117219   4.368   2.620   9.516 -3.2280  0.2977 -1.6998
 1920SOL    HW217220   4.303   2.505   9.584  0.7286 -0.3194  1.3143
 1921SOL     OW17221   2.513   0.494   0.118  0.3844 -0.6956 -0.2866
 1921SOL    HW117222   2.529   0.401   0.110 -0.6660 -0.9235  0.1700
 1921SOL    HW217223   2.490   0.502   0.211  1.2519  2.5425 -0.3386
 1922SOL     OW17224   2.638   0.157   1.765 -0.0428 -0.3343  0.8514
 1922SOL    HW117225   2.549   0.137   1.792  0.3021 -2.4569  0.4734
 1922SOL    HW217226   2.688   0.095   1.819 -0.3101 -0.8001  0.5712
 1923SOL     OW17227   3.155   2.543   9.179  0.0149  0.2824 -0.3555
 1923SOL    HW117228   3.119   2.631   9.170  0.2848  0.5291  1.0411
 1923SOL    HW217229   3.126   2.504   9.096 -0.2634 -0.5006  0.1079
 1924SOL     OW17230   0.866   2.029   4.107 -0.0863  0.4238 -0.3485
 1924SOL    HW117231   0.839   1.938   4.109 -0.0950  0.4306 -0.1525
 1924SOL    HW217232   0.798   2.074   4.158 -0.0965  0.0470 -0.0281
 1925SOL     OW17233   3.671   1.578  11.424  0.8254  0.6127  0.2390
 1925SOL    HW117234   3.674   1.500  11.367 -3.8129 -0.3261  1.2701
 1925SOL    HW217235   3.737   1.552  11.488  1.7453  0.8101 -0.6166
 1926SOL     OW17236   1.995   0.553   2.738  0.1465 -0.1504 -0.0117
 1926SOL    HW117237   1.915   0.553   2.686  0.5781 -0.0974 -0.6704
 1926SOL    HW217238   1.996   0.643   2.772  1.2431 -0.8273  1.7648
 1927SOL     OW17239   2.804   1.540   2.560 -0.2140 -0.1098  0.3476
 1927SOL    HW117240   2.791   1.630   2.530  0.1834  0.3331  1.4934
 1927SOL    HW217241   2.717   1.506   2.544 -0.9777  2.1217 -0.2687
 1928SOL     OW17242   1.476   1.717   3.070  0.0017  0.5584  0.1651
 1928SOL    HW117243   1.407   1.673   3.021 -1.2816  2.1276  0.5839
 1928SOL    HW217244   1.489   1.798   3.020 -0.0520  0.8315  0.5924
 1929SOL     OW17245   4.197   0.929   2.037  0.1078 -0.7266  0.2734
 1929SOL    HW117246   4.181   0.838   2.012 -0.4746 -0.6666  0.4298
 1929SOL    HW217247   4.150   0.985   1.974 -1.2247 -0.7311  1.2542
 1930SOL     OW17248   1.181   2.596  16.104 -0.1901  1.1217 -0.6254
 1930SOL    HW117249   1.206   2.680  16.065  1.9237  0.6141 -0.3265
 1930SOL    HW217250   1.174   2.620  16.196  3.1600  0.7599 -0.2755
 1931SOL     OW17251   4.680   0.298   8.235 -0.0039  0.1883 -0.2300
 1931SOL    HW117252   4.629   0.281   8.314 -1.5661  0.2120 -1.2424
 1931SOL    HW217253   4.664   0.221   8.181  2.3002  0.4934 -1.3583
 1932SOL     OW17254   3.623   0.513   5.520 -0.3025  0.6373 -0.1384
 1932SOL    HW117255   3.539   0.510   5.566  0.5735  1.4656  1.5284
 1932SOL    HW217256   3.680   0.511   5.597 -0.6859 -0.9537  0.1113
 1933SOL     OW17257   0.490   1.639   2.052 -0.7520 -0.2156 -0.2268
 1933SOL    HW117258   0.531   1.577   2.113  1.4441  1.2457 -0.2122
 1933SOL    HW217259   0.568   1.686   2.022 -0.7389 -0.0044  0.1389
 1934SOL     OW17260   2.275   1.070   7.654  0.0634 -0.0716 -0.0714
 1934SOL    HW117261   2.305   1.140   7.596 -0.2049  1.4254  1.5929
 1934SOL    HW217262   2.295   0.999   7.593  0.2337  0.0420 -0.1487
 1935SOL     OW17263   1.908   2.700   8.750 -0.0742  0.2392 -0.6158
 1935SOL    HW117264   1.968   2.627   8.736  2.4319  2.3541 -0.8573
 1935SOL    HW217265   1.969   2.765   8.785 -0.9840  1.1324 -0.6692
 1936SOL     OW17266   2.777   2.064   4.921 -0.4318 -0.5378  0.2608
 1936SOL    HW117267   2.743   2.090   5.006  0.7003  2.0104 -0.0636
 1936SOL    HW217268   2.751   1.972   4.913  0.9979 -0.9866  0.6470
 1937SOL     OW17269   4.664   1.134  13.200  0.1137 -0.0370  0.1808
 1937SOL    HW117270   4.588   1.102  13.152  1.7655 -0.7460 -1.9892
 1937SOL    HW217271   0.007   1.151  13.133  1.3071 -0.2939  1.2861
 1938SOL     OW17272   0.896   2.599   4.605 -0.1606 -0.2864  0.0798
 1938SOL    HW117273   0.987   2.592   4.576  0.1797  2.3846  0.5317
 1938SOL    HW217274   0.884   2.694   4.609 -0.0160 -0.3426  2.1545
 1939SOL     OW17275   2.187   3.847  17.577 -0.5161  0.5520  0.0914
 1939SOL    HW117276   2.169   3.877  17.488  1.1372 -1.3722 -0.8804
 1939SOL    HW217277   2.281   3.860  17.586 -0.6769  0.8247  1.3383
 1940SOL     OW17278   1.389   0.234   5.661  0.1503  0.3080 -0.1447
 1940SOL    HW117279   1.465   0.288   5.641 -0.4619  1.9915  2.1326
 1940SOL    HW217280   1.339   0.294   5.716 -1.3183 -0.3010 -0.8129
 1941SOL     OW17281   4.194   4.245   2.458  0.0200  0.2446 -0.0219
 1941SOL    HW117282   4.148   4.328   2.449 -1.2596 -0.7273 -2.6049
 1941SOL    HW217283   4.288   4.259   2.445  0.0585 -1.3043 -1.4671
 1942SOL     OW17284   3.786   0.614   5.942  0.1598 -0.1682 -0.0773
 1942SOL    HW117285   3.732   0.535   5.934  1.0167 -0.5104 -2.4567
 1942SOL    HW217286   3.840   0.603   5.864 -0.9857 -0.6432 -0.8056
 1943SOL     OW17287   1.609   1.267   1.083 -0.3754 -0.0043  0.0435
 1943SOL    HW117288   1.615   1.181   1.042 -0.6957 -0.1317  0.2724
 1943SOL    HW217289   1.690   1.277   1.133 -0.4550  2.2370 -0.2869
 1944SOL     OW17290   3.037   2.367   3.225 -0.7223  0.3011  0.9699
 1944SOL    HW117291   3.112   2.315   3.253 -1.3344 -0.3794  1.3273
 1944SOL    HW217292   2.981   2.297   3.191 -0.9331  0.4149  1.0758
 1945SOL     OW17293   3.627   1.409   2.235 -0.9529  0.0116 -0.0556
 1945SOL    HW117294   3.666   1.322   2.235  1.5355  1.1209  1.5753
 1945SOL    HW217295   3.596   1.421   2.324 -0.6373  1.5383 -0.1542
 1946SOL     OW17296   0.689   4.655   7.126  0.0626 -0.4425  0.4838
 1946SOL    HW117297   0.595   4.639   7.139  0.1337 -1.7550 -0.6276
 1946SOL    HW217298   0.720   4.661   7.217 -1.1292  0.2763  0.8547
 1947SOL     OW17299   0.373   4.584   4.769 -0.0050  0.6003 -0.2869
 1947SOL    HW117300   0.312   4.638   4.719  0.0312  1.3411  0.4657
 1947SOL    HW217301   0.424   4.653   4.812  0.7176 -1.2675  1.8710
 1948SOL     OW17302   2.174   4.582  15.144  0.2417  0.2812 -0.0901
 1948SOL    HW117303   2.172   4.535  15.228 -0.9312  1.4931  0.5687
 1948SOL    HW217304   2.133   4.663  15.175  0.8641  0.6408 -0.2161
 1949SOL     OW17305   2.178   2.136   8.166  0.2294 -0.6246  0.1434
 1949SOL    HW117306   2.173   2.109   8.258  0.9769 -1.0285  0.0595
 1949SOL    HW217307   2.227   2.216   8.184 -0.1662 -0.3678  0.0933
 1950SOL     OW17308   0.253   0.169  16.723  0.1382 -0.8201  0.1821
 1950SOL    HW117309   0.288   0.250  16.685 -0.3111  0.1301  1.7850
 1950SOL    HW217310   0.167   0.201  16.751  1.2237  1.0810  1.3606
 1951SOL     OW17311   3.053   0.207   5.496 -0.1767 -0.2824  0.3817
 1951SOL    HW117312   3.142   0.233   5.472 -0.8523  0.6202 -1.1593
 1951SOL    HW217313   3.003   0.248   5.425 -1.0416  2.0317  2.3094
 1952SOL     OW17314   3.594   2.343   7.932  0.1246  0.3178 -0.1770
 1952SOL    HW117315   3.576   2.292   8.011 -0.5603 -0.0666 -0.5780
 1952SOL    HW217316   3.557   2.428   7.954  0.2010 -0.2546  2.1449
 1953SOL     OW17317   3.231   4.358   6.796  0.6165 -0.1474  0.3350
 1953SOL    HW117318   3.197   4.379   6.884 -0.5136  0.4618 -0.2461
 1953SOL    HW217319   3.266   4.270   6.808  2.1604  0.3552 -0.6089
 1954SOL     OW17320   0.707   0.712   2.090  0.7329 -0.7299 -0.4453
 1954SOL    HW117321   0.674   0.671   2.010 -0.7356 -0.3963 -0.0109
 1954SOL    HW217322   0.796   0.728   2.058  0.2011 -0.2556 -1.6963
 1955SOL     OW17323   2.067   3.252   5.589 -0.3087  0.0041 -0.0342
 1955SOL    HW117324   2.038   3.175   5.540 -0.3073 -0.6336  0.9677
 1955SOL    HW217325   1.985   3.300   5.580  0.6253  2.1713  3.0716
 1956SOL     OW17326   1.968   3.921   2.270  0.4442  0.6522  0.3175
 1956SOL    HW117327   1.902   3.880   2.326  0.9598 -0.1446  0.3537
 1956SOL    HW217328   1.914   3.969   2.207  2.9610  2.3774 -0.5069
 1957SOL     OW17329   1.259   1.536   4.353  0.6302  0.3325 -0.3508
 1957SOL    HW117330   1.249   1.619   4.399  1.0253 -0.7593  1.7508
 1957SOL    HW217331   1.265   1.572   4.265 -1.7057 -1.7950 -1.3869
 1958SOL     OW17332   4.268   1.486   7.462 -0.1988 -0.1001  0.0999
 1958SOL    HW117333   4.339   1.484   7.526 -0.1930  1.7249  0.1566
 1958SOL    HW217334   4.318   1.462   7.384 -1.9643  2.1670 -1.7287
 1959SOL     OW17335   3.085   3.668   9.375 -0.9406 -0.5116  0.4787
 1959SOL    HW117336   3.074   3.579   9.343  3.4110 -0.1564 -2.0062
 1959SOL    HW217337   3.094   3.644   9.467  3.1965 -0.6670  0.0083
 1960SOL     OW17338   1.391   2.918   7.077 -0.2490  0.3341 -0.3176
 1960SOL    HW117339   1.317   2.959   7.123 -1.0826 -0.0565 -1.3321
 1960SOL    HW217340   1.400   2.987   7.011 -1.7104  1.1177  0.2914
 1961SOL     OW17341   2.420   3.173  15.019 -0.4145 -0.2008  0.2723
 1961SOL    HW117342   2.383   3.088  15.043 -1.6053  0.5190  0.9933
 1961SOL    HW217343   2.372   3.199  14.940  0.7877  1.6166  0.1477
 1962SOL     OW17344   2.919   0.590   5.972 -0.5196  0.7528  0.1897
 1962SOL    HW117345   2.843   0.647   5.980 -0.8397  0.4571 -0.8127
 1962SOL    HW217346   2.915   0.535   6.051  2.3248  0.0251 -0.1696
 1963SOL     OW17347   1.772   1.805   9.164  0.0254  0.1714  0.3477
 1963SOL    HW117348   1.682   1.776   9.149  0.3095 -0.2153 -0.6161
 1963SOL    HW217349   1.819   1.776   9.086 -1.6536 -1.9136  0.1036
 1964SOL     OW17350   0.411   1.138   5.231 -0.1864  0.2870 -0.6791
 1964SOL    HW117351   0.352   1.194   5.283 -1.8524 -0.8682 -1.3467
 1964SOL    HW217352   0.346   1.107   5.168 -0.7790  1.1053 -0.4713
 1965SOL     OW17353   1.742   3.748   4.942  0.3366 -0.0870  0.2468
 1965SOL    HW117354   1.756   3.833   4.900  0.7844  0.2167  1.0347
 1965SOL    HW217355   1.815   3.752   5.002 -0.6738  1.3410  1.3852
 1966SOL     OW17356   1.219   1.332   0.321 -0.0732  0.1394 -0.1515
 1966SOL    HW117357   1.149   1.303   0.263  0.2019 -0.2490 -0.2851
 1966SOL    HW217358   1.240   1.251   0.368 -0.7317  0.5929  0.9236
 1967SOL     OW17359   0.092   2.061   4.777  0.4461 -0.4812  0.0429
 1967SOL    HW117360   0.093   2.071   4.682 -2.8607 -1.6286 -0.1459
 1967SOL    HW217361   0.041   2.134   4.814 -0.8033 -1.9478  1.2645
 1968SOL     OW17362   2.293   2.826   4.548 -0.2600 -0.4396  0.4367
 1968SOL    HW117363   2.250   2.748   4.585 -0.3770 -0.6199 -0.0875
 1968SOL    HW217364   2.380   2.805   4.583 -0.3631  0.4825  1.2581
 1969SOL     OW17365   2.380   2.394   2.666  0.5812 -0.0906 -0.0851
 1969SOL    HW117366   2.367   2.300   2.671  0.4087 -0.2053 -2.5407
 1969SOL    HW217367   2.349   2.418   2.579 -0.6592  0.8165  0.6043
 1970SOL     OW17368   2.017   0.145   5.180 -0.4409 -0.4261 -0.1763
 1970SOL    HW117369   1.946   0.081   5.174  0.1122 -1.2462  1.8582
 1970SOL    HW217370   1.973   0.228   5.162  0.2227 -0.3012 -1.2550
 1971SOL     OW17371   3.499   2.198   7.232 -1.1054 -0.2110  0.0785
 1971SOL    HW117372   3.453   2.257   7.291  1.1490  0.1581  1.4711
 1971SOL    HW217373   3.515   2.126   7.294  1.6354  1.6255  1.5040
 1972SOL     OW17374   1.820   4.287  17.643 -0.6140  0.3663  0.4500
 1972SOL    HW117375   1.812   4.194  17.619 -2.8041  0.0500  2.3848
 1972SOL    HW217376   1.733   4.313  17.613 -1.6918 -1.6439  1.8179
 1973SOL     OW17377   1.379   0.605   5.961 -0.4145  0.0387 -0.6208
 1973SOL    HW117378   1.339   0.691   5.973  0.6122  0.2932  0.9886
 1973SOL    HW217379   1.330   0.565   5.890  0.4118  0.5704 -1.4945
 1974SOL     OW17380   1.813   2.178   1.871 -0.0790  0.0139 -0.0875
 1974SOL    HW117381   1.794   2.182   1.777 -0.8105  0.9035  0.1004
 1974SOL    HW217382   1.725   2.152   1.901 -0.2423  0.3745 -0.2469
 1975SOL     OW17383   1.918   0.768   6.840  0.0494  0.0015  0.9008
 1975SOL    HW117384   1.984   0.823   6.882  0.3464 -0.3252  0.8642
 1975SOL    HW217385   1.904   0.825   6.764 -1.4031 -2.7151 -0.8641
 1976SOL     OW17386   3.140   1.361   4.081 -0.3937  0.2828 -0.4722
 1976SOL    HW117387   3.129   1.299   4.009 -2.0113 -0.1150  0.1196
 1976SOL    HW217388   3.074   1.340   4.147  0.4300 -0.9966 -0.0634
 1977SOL     OW17389   4.161   2.482  12.794  0.4375  0.4082  0.4589
 1977SOL    HW117390   4.094   2.539  12.757 -0.2537 -1.3595 -1.0344
 1977SOL    HW217391   4.221   2.472  12.720 -0.2154  3.3273 -0.4515
 1978SOL     OW17392   4.421   2.433   1.983 -0.0297 -0.1097  0.4370
 1978SOL    HW117393   4.336   2.474   1.966 -0.7220 -2.2762 -1.4129
 1978SOL    HW217394   4.462   2.426   1.896  2.8194  0.6575  1.7164
 1979SOL     OW17395   2.201   0.912   8.351 -0.2276  0.6735 -0.1842
 1979SOL    HW117396   2.171   0.870   8.433  1.5440 -0.2284  0.0093
 1979SOL    HW217397   2.247   0.841   8.306 -1.3177 -1.0000  1.2967
 1980SOL     OW17398   3.157   1.718   2.316  0.8221  0.3712  0.2703
 1980SOL    HW117399   3.141   1.728   2.222  1.1521 -1.0733  0.0485
 1980SOL    HW217400   3.131   1.627   2.332 -0.2750  1.1546  2.8024
 1981SOL     OW17401   1.956   2.218  12.468  0.2969 -0.1623  0.0499
 1981SOL    HW117402   1.862   2.207  12.480  0.1900 -0.3969 -1.0160
 1981SOL    HW217403   1.976   2.240  12.559 -2.5742  0.9245  0.3897
 1982SOL     OW17404   1.314   2.054  16.100 -0.0492 -0.5050 -0.2699
 1982SOL    HW117405   1.347   1.995  16.032 -1.1044 -0.5135 -0.7819
 1982SOL    HW217406   1.332   2.137  16.057 -0.7583  0.2630  0.9118
 1983SOL     OW17407   0.957   2.851   2.328 -0.3280  0.6565  0.2793
 1983SOL    HW117408   0.899   2.895   2.390 -2.4250 -1.1779 -0.3588
 1983SOL    HW217409   0.974   2.767   2.370 -0.0212  0.9027  0.6524
 1984SOL     OW17410   0.663   3.067   7.280 -0.0385 -0.2067 -0.1599
 1984SOL    HW117411   0.621   3.044   7.363 -0.8292 -0.0995 -0.5276
 1984SOL    HW217412   0.706   2.982   7.269 -0.3438 -0.4751  0.6964
 1985SOL     OW17413   3.032   4.165  12.273 -0.2225 -0.3638  0.1942
 1985SOL    HW117414   3.027   4.197  12.183 -0.4344  2.1038  1.0941
 1985SOL    HW217415   3.012   4.073  12.256 -1.6914  0.7156 -3.8365
 1986SOL     OW17416   4.112   4.250   5.921  0.0239  0.5426  0.0573
 1986SOL    HW117417   4.074   4.276   5.837  0.3147  0.4043 -0.1162
 1986SOL    HW217418   4.142   4.160   5.909 -0.2304  0.3500  0.8068
 1987SOL     OW17419   3.736   2.234   9.720 -0.3649  0.5382  0.2558
 1987SOL    HW117420   3.817   2.197   9.755 -1.1802 -0.4146  1.1845
 1987SOL    HW217421   3.750   2.328   9.724 -1.6057  0.7092  0.8187
 1988SOL     OW17422   2.579   0.209  15.390 -0.4033 -0.4208  0.5330
 1988SOL    HW117423   2.651   0.251  15.436 -0.5624 -0.8187  1.1513
 1988SOL    HW217424   2.514   0.280  15.386  0.0897  0.0300  0.4564
 1989SOL     OW17425   1.796   2.918   2.703 -0.2382  0.2797  0.2493
 1989SOL    HW117426   1.745   2.898   2.782  1.0444 -0.7726  0.7969
 1989SOL    HW217427   1.863   2.979   2.735 -1.5779  2.3237 -0.7761
 1990SOL     OW17428   1.858   4.144   9.742  0.3638 -0.3415 -0.0384
 1990SOL    HW117429   1.866   4.166   9.649 -3.5549 -1.3733 -0.6304
 1990SOL    HW217430   1.788   4.079   9.738 -0.3195  0.3299  1.1520
 1991SOL     OW17431   4.671   2.636   5.660 -0.0202 -0.1350  1.0193
 1991SOL    HW117432   4.644   2.686   5.737  1.5811 -1.8496  2.7078
 1991SOL    HW217433   0.007   2.580   5.709  0.3635 -1.1492 -0.5976
 1992SOL     OW17434   4.631   3.654  16.642  0.5379  0.1125  0.4723
 1992SOL    HW117435   4.541   3.685  16.653  0.3335 -0.5955  0.7704
 1992SOL    HW217436   4.610   3.566  16.611 -0.5301  0.8379 -0.8668
 1993SOL     OW17437   3.340   2.541   6.817 -0.2879 -0.3766 -0.2083
 1993SOL    HW117438   3.372   2.453   6.798 -1.4577 -0.7305 -0.5205
 1993SOL    HW217439   3.425   2.575   6.846 -0.0423 -0.5761 -0.6999
 1994SOL     OW17440   2.339   3.527  15.602 -0.2794  0.0228 -0.1004
 1994SOL    HW117441   2.352   3.550  15.694 -0.4848 -1.2564  0.2373
 1994SOL    HW217442   2.276   3.594  15.577 -1.3952 -0.5255  1.2568
 1995SOL     OW17443   0.849   4.708   8.248 -0.0106 -0.0853 -0.3262
 1995SOL    HW117444   0.816   0.067   8.284 -0.6858 -0.5929  0.2248
 1995SOL    HW217445   0.828   4.644   8.316 -1.9561 -0.4229 -1.2358
 1996SOL     OW17446   1.129   2.917   0.317 -0.4402  0.4549  0.3438
 1996SOL    HW117447   1.181   2.997   0.306 -1.5715  0.8958 -1.8833
 1996SOL    HW217448   1.049   2.935   0.268 -0.8599  1.2555  1.3257
 1997SOL     OW17449   1.386   1.757   9.763  0.7107 -0.5972  0.0017
 1997SOL    HW117450   1.422   1.742   9.850  1.5352  1.6025  0.0330
 1997SOL    HW217451   1.331   1.679   9.753 -0.1522  0.1677 -1.1917
 1998SOL     OW17452   4.390   1.757   5.761 -0.3051 -0.8460  0.0458
 1998SOL    HW117453   4.383   1.847   5.730 -1.5338 -1.3242 -1.0332
 1998SOL    HW217454   4.483   1.736   5.772  0.0248  0.3312 -0.5393
 1999SOL     OW17455   2.227   3.685   9.972  0.4649 -0.2330  0.0984
 1999SOL    HW117456   2.264   3.773   9.974 -0.1215  0.0000  0.8997
 1999SOL    HW217457   2.245   3.663  10.063 -0.0209 -2.7700 -0.4194
 2000SOL     OW17458   4.312   4.668   8.755  0.0366 -0.4150 -0.0278
 2000SOL    HW117459   4.302   0.034   8.789 -0.2469 -1.2525  2.1079
 2000SOL    HW217460   4.223   4.662   8.720 -0.2559  0.1954  0.6164
 2001SOL     OW17461   4.091   2.470  10.758 -0.2233  0.2425 -0.3923
 2001SOL    HW117462   4.107   2.433  10.671  0.2158 -1.1192  0.2636
 2001SOL    HW217463   4.170   2.437  10.801 -1.1167 -1.5964 -0.1606
 2002SOL     OW17464   2.763   3.853   2.775  0.0396 -0.0415  0.2777
 2002SOL    HW117465   2.806   3.937   2.783 -0.5440  0.1817  1.0858
 2002SOL    HW217466   2.831   3.797   2.813  1.7149  2.6564  1.1952
 2003SOL     OW17467   0.102   0.505  10.668  0.0612 -0.7431  0.1047
 2003SOL    HW117468   0.053   0.500  10.750  0.4836 -0.5489  0.3651
 2003SOL    HW217469   0.189   0.485  10.703 -0.4097 -2.5351  0.2878
 2004SOL     OW17470   0.554   0.528   4.457  0.9784  0.2100  0.0509
 2004SOL    HW117471   0.639   0.526   4.502  1.9048  1.4588 -1.6333
 2004SOL    HW217472   0.579   0.547   4.367 -3.7275 -0.0253 -1.3061
 2005SOL     OW17473   1.438   1.309   4.340 -0.5403  0.2955 -0.0396
 2005SOL    HW117474   1.390   1.391   4.329 -1.4136 -0.1293  0.6173
 2005SOL    HW217475   1.401   1.277   4.422  2.0500 -0.4436  0.8297
 2006SOL     OW17476   0.486   3.686   4.897  0.2658  0.0848 -0.0511
 2006SOL    HW117477   0.543   3.629   4.949 -0.8239  0.1126  1.1855
 2006SOL    HW217478   0.422   3.722   4.959  1.2146  0.5573  0.6500
 2007SOL     OW17479   0.005   2.199   5.557  0.5407  0.3576  0.1994
 2007SOL    HW117480   0.083   2.154   5.525 -0.4116 -2.5603  2.0221
 2007SOL    HW217481   4.669   2.201   5.482  0.2892 -1.2789  0.3564
 2008SOL     OW17482   0.246   3.927   7.446  0.0778 -0.1946  0.1613
 2008SOL    HW117483   0.219   4.010   7.407  1.5730  0.1879 -0.0380
 2008SOL    HW217484   0.205   3.863   7.387 -0.8737 -0.2366  0.8684
 2009SOL     OW17485   4.075   2.712  16.405  0.5816 -0.4461  0.0405
 2009SOL    HW117486   4.015   2.645  16.373  0.1946 -0.5580  1.0022
 2009SOL    HW217487   4.155   2.666  16.431  1.3797  1.3329  0.7374
 2010SOL     OW17488   1.403   0.007  13.405 -0.5315  0.1729  0.5421
 2010SOL    HW117489   1.372   4.722  13.315  0.3514 -0.4161  0.2969
 2010SOL    HW217490   1.430   4.641  13.426 -0.4718 -0.1410 -0.9364
 2011SOL     OW17491   0.814   2.659  13.454  0.3869 -0.0464  0.5985
 2011SOL    HW117492   0.873   2.643  13.527  0.5948 -1.4666  0.1108
 2011SOL    HW217493   0.725   2.658  13.490 -0.7658  0.7069 -2.1703
 2012SOL     OW17494   3.450   3.851   4.394  0.1912 -0.0481  0.5113
 2012SOL    HW117495   3.393   3.922   4.363 -0.5036 -0.4645  0.8369
 2012SOL    HW217496   3.432   3.782   4.330  1.4483 -1.6662  1.9032
 2013SOL     OW17497   4.580   1.626   7.833  0.4057 -0.2213  0.0104
 2013SOL    HW117498   4.511   1.608   7.897  0.4040  2.0796  0.6317
 2013SOL    HW217499   4.605   1.717   7.850  0.1390  0.1403 -1.5952
 2014SOL     OW17500   3.725   2.079   6.176 -0.5872 -0.0588  0.0616
 2014SOL    HW117501   3.732   1.991   6.139 -0.5925  0.9897 -2.3830
 2014SOL    HW217502   3.815   2.111   6.168 -0.8193  0.4227 -0.6067
 2015SOL     OW17503   2.682   1.859   6.748 -0.2592 -0.4892  0.0625
 2015SOL    HW117504   2.604   1.807   6.726  0.3111 -1.0391 -0.6909
 2015SOL    HW217505   2.748   1.835   6.683  0.8114  3.2076 -0.2143
 2016SOL     OW17506   3.867   3.376   3.577 -0.3461 -0.0423 -0.9422
 2016SOL    HW117507   3.841   3.298   3.626 -0.4624 -0.5610 -1.8260
 2016SOL    HW217508   3.787   3.385   3.524 -0.5958 -1.2597 -0.7815
 2017SOL     OW17509   3.146   3.168   5.705 -0.2185 -0.1058 -0.2893
 2017SOL    HW117510   3.215   3.111   5.671  0.0516 -0.9213  1.6440
 2017SOL    HW217511   3.067   3.121   5.679 -0.0875 -1.4404  1.7719
 2018SOL     OW17512   2.197   0.963   6.388  0.5618 -0.0377 -0.3120
 2018SOL    HW117513   2.220   0.877   6.423 -0.8292 -0.9260 -1.5953
 2018SOL    HW217514   2.136   0.996   6.454 -0.2369  0.3320 -1.2432
 2019SOL     OW17515   0.554   0.601   1.185  0.3942  0.4730 -0.2119
 2019SOL    HW117516   0.479   0.563   1.139  0.3317 -1.4866  1.4981
 2019SOL    HW217517   0.545   0.689   1.149 -0.4936  0.1412 -0.8077
 2020SOL     OW17518   1.563   1.205   0.784 -0.3118  0.1891 -0.5510
 2020SOL    HW117519   1.658   1.201   0.778 -0.3292 -1.4574  0.1748
 2020SOL    HW217520   1.534   1.141   0.849 -2.0987  2.3020  0.7395
 2021SOL     OW17521   2.683   2.551   8.653  0.4615  0.0028  0.2569
 2021SOL    HW117522   2.643   2.625   8.608  0.2450  0.7171  1.6148
 2021SOL    HW217523   2.775   2.564   8.628  0.0358  1.1003 -0.7349
 2022SOL     OW17524   3.964   3.443   8.073  0.0763 -0.4619  0.1019
 2022SOL    HW117525   3.935   3.483   7.991  0.0749  1.1251  0.8851
 2022SOL    HW217526   3.996   3.357   8.047  0.3427  0.2189 -1.8436
 2023SOL     OW17527   1.221   0.946  15.292  0.1965 -0.3427 -0.1787
 2023SOL    HW117528   1.182   1.023  15.250  0.9109 -0.2150 -0.6202
 2023SOL    HW217529   1.221   0.967  15.385  2.2792  1.5684 -0.5959
 2024SOL     OW17530   3.409   2.605   4.361  0.0538  0.2864  0.3212
 2024SOL    HW117531   3.426   2.512   4.348  0.7783  0.4815 -0.1670
 2024SOL    HW217532   3.378   2.644   4.280  0.2927 -1.1179 -0.4438
 2025SOL     OW17533   1.693   3.312   4.059 -0.0212  0.3397 -0.4583
 2025SOL    HW117534   1.636   3.363   4.002 -0.2880  0.1590 -0.3546
 2025SOL    HW217535   1.773   3.365   4.063 -0.1150  0.4999 -0.7110
 2026SOL     OW17536   3.392   2.312   7.432  0.6019 -0.0881  0.1452
 2026SOL    HW117537   3.348   2.386   7.474  0.7013  1.5816 -2.6858
 2026SOL    HW217538   3.441   2.292   7.512 -1.5652 -1.8614  1.0258
 2027SOL     OW17539   4.118   1.370   4.812 -0.4154 -0.2267 -0.3612
 2027SOL    HW117540   4.192   1.390   4.869  0.8596 -0.5644 -1.8842
 2027SOL    HW217541   4.156   1.312   4.745  1.2257 -0.1147  0.4797
 2028SOL     OW17542   4.006   2.237   7.377  0.1148  0.4152  0.2515
 2028SOL    HW117543   4.072   2.172   7.352 -2.9360 -1.8128 -1.9748
 2028SOL    HW217544   3.976   2.202   7.460 -1.4574  0.8144 -0.1556
 2029SOL     OW17545   1.083   2.915   9.928  0.0537 -0.3841  0.3194
 2029SOL    HW117546   1.042   2.831   9.948 -3.2316  1.6076  2.0605
 2029SOL    HW217547   1.019   2.976   9.964  2.2597  2.4014 -0.4715
 2030SOL     OW17548   2.009   3.755  10.821 -0.4185  0.1532 -0.1293
 2030SOL    HW117549   2.033   3.832  10.770 -0.0061  0.9325  1.2181
 2030SOL    HW217550   1.996   3.699  10.745 -0.8529  0.9889 -0.6780
 2031SOL     OW17551   2.744   3.395  16.690 -0.3126 -0.5851  0.0471
 2031SOL    HW117552   2.725   3.431  16.777  1.5085 -2.0408  1.0294
 2031SOL    HW217553   2.743   3.472  16.633 -0.6687  0.1254  1.0211
 2032SOL     OW17554   4.182   1.312   7.966 -0.2897 -0.1460  0.2980
 2032SOL    HW117555   4.241   1.248   7.928 -1.3547 -1.1850  0.3983
 2032SOL    HW217556   4.169   1.377   7.896  0.5460 -1.0964 -0.7203
 2033SOL     OW17557   1.926   0.943   9.539 -0.0958 -0.4112  0.1631
 2033SOL    HW117558   1.879   1.007   9.593 -1.1585 -3.4636  2.8073
 2033SOL    HW217559   1.857   0.882   9.515  0.0361 -1.1024  1.5787
 2034SOL     OW17560   3.518   2.604   7.994  0.1586 -0.2933  0.1269
 2034SOL    HW117561   3.437   2.650   7.970  0.3469 -0.1445 -0.2147
 2034SOL    HW217562   3.523   2.640   8.083  0.9648 -1.5623  0.5816
 2035SOL     OW17563   1.188   3.010  14.786  0.1023  0.0194 -0.7799
 2035SOL    HW117564   1.202   3.023  14.692 -1.3074  2.9592 -0.5836
 2035SOL    HW217565   1.130   2.934  14.782  0.7595 -0.5212  0.0630
 2036SOL     OW17566   0.218   0.842   7.449 -0.2253  0.1034 -0.4151
 2036SOL    HW117567   0.130   0.849   7.486  0.8165  0.5394  2.0053
 2036SOL    HW217568   0.248   0.755   7.477  0.4066  0.8412  1.2012
 2037SOL     OW17569   2.988   1.084   6.991  0.2147 -0.1898  0.3343
 2037SOL    HW117570   2.912   1.044   7.033  0.3293 -0.5658  0.1816
 2037SOL    HW217571   2.965   1.175   6.972  1.5573  0.2224  0.6728
 2038SOL     OW17572   0.261   3.972   6.980  0.1161  0.6913  0.1283
 2038SOL    HW117573   0.290   4.022   7.056  0.0514  0.4918  0.2836
 2038SOL    HW217574   0.191   4.016   6.931 -2.3569 -0.8438  2.3154
 2039SOL     OW17575   0.801   1.471  16.303  0.0472 -0.1636 -0.0065
 2039SOL    HW117576   0.829   1.382  16.282  2.3302  0.3143  1.0277
 2039SOL    HW217577   0.713   1.448  16.336 -0.6639 -0.9251 -2.4226
 2040SOL     OW17578   1.818   1.727  16.771 -0.0608  0.4477 -0.2497
 2040SOL    HW117579   1.883   1.677  16.721  1.3500 -1.4036  3.4165
 2040SOL    HW217580   1.746   1.724  16.708  0.0535  1.1553 -0.4097
 2041SOL     OW17581   2.721   1.428  12.836  0.2290 -0.1105  0.3717
 2041SOL    HW117582   2.799   1.374  12.848 -0.5128 -1.2986 -0.1115
 2041SOL    HW217583   2.757   1.516  12.843  0.8985 -0.7489  5.0008
 2042SOL     OW17584   0.061   2.331   4.107 -0.1115 -0.5306 -0.3535
 2042SOL    HW117585   0.018   2.417   4.105 -3.9498 -2.4182  2.2228
 2042SOL    HW217586   4.714   2.278   4.070 -1.1410 -0.6904  1.7955
 2043SOL     OW17587   0.276   1.555   7.141 -0.3624  0.1798 -0.1616
 2043SOL    HW117588   0.233   1.551   7.226 -1.0795  2.4998 -0.4187
 2043SOL    HW217589   0.360   1.597   7.159 -1.2399  0.9980  2.0049
 2044SOL     OW17590   0.458   0.314  11.949 -0.2763 -0.3973 -0.2461
 2044SOL    HW117591   0.553   0.306  11.953 -0.2028  0.9893  0.4384
 2044SOL    HW217592   0.431   0.238  11.896 -0.7694 -1.5670  1.6620
 2045SOL     OW17593   3.627   2.361   8.679  0.4333  0.6198 -0.1013
 2045SOL    HW117594   3.591   2.334   8.595  1.7575 -0.3560 -0.3707
 2045SOL    HW217595   3.639   2.282   8.732  1.0659  1.2928  0.7805
 2046SOL     OW17596   0.476   3.089   8.932 -0.3675  0.2855  0.3185
 2046SOL    HW117597   0.451   2.998   8.949 -0.2323  0.1434 -0.2215
 2046SOL    HW217598   0.389   3.127   8.929  0.3520  1.8096 -1.4838
 2047SOL     OW17599   4.596   2.036   8.921 -0.3257  0.3516 -0.1946
 2047SOL    HW117600   4.617   2.117   8.968  1.7470 -1.1685  1.4446
 2047SOL    HW217601   4.514   2.064   8.879 -1.1980 -0.6179  0.8541
 2048SOL     OW17602   1.386   1.655   2.150  0.7279 -0.2637 -0.3234
 2048SOL    HW117603   1.457   1.700   2.105 -0.0423  1.3706  0.1028
 2048SOL    HW217604   1.319   1.680   2.086 -0.0035 -0.9829  0.1509
 2049SOL     OW17605   3.480   4.096  13.712  0.2731  0.3050 -0.3756
 2049SOL    HW117606   3.551   4.033  13.720  0.0119  0.0931  0.2715
 2049SOL    HW217607   3.436   4.053  13.639  4.2599  1.5380 -3.4818
 2050SOL     OW17608   4.212   0.884  12.763  0.0894  0.5888 -0.3926
 2050SOL    HW117609   4.292   0.901  12.713  0.2201 -1.7130 -0.9533
 2050SOL    HW217610   4.152   0.892  12.689 -1.6782  2.2634  1.2110
 2051SOL     OW17611   4.320   1.002   5.695  0.1605  0.0454 -0.5479
 2051SOL    HW117612   4.384   0.942   5.657  1.6765 -0.2295  2.4681
 2051SOL    HW217613   4.291   0.952   5.771  1.2513  0.8759  0.4175
 2052SOL     OW17614   4.307   0.981  13.269 -0.4180  0.0433  0.2887
 2052SOL    HW117615   4.247   1.055  13.273 -1.0019 -0.4171  0.0955
 2052SOL    HW217616   4.289   0.944  13.182 -2.4958  1.0765  0.2799
 2053SOL     OW17617   0.938   1.666   6.268 -0.4537  0.3264 -0.2506
 2053SOL    HW117618   0.957   1.626   6.183  0.3193 -1.1084  0.5825
 2053SOL    HW217619   0.874   1.601   6.297  0.9961  0.2637  2.8070
 2054SOL     OW17620   0.368   0.281   4.744  0.1550 -0.1230 -0.0877
 2054SOL    HW117621   0.456   0.301   4.713 -0.3736  3.4360  0.6488
 2054SOL    HW217622   0.395   0.212   4.805 -0.8655  0.1734  0.7003
 2055SOL     OW17623   4.047   4.279   8.100  0.0946  0.0154 -0.2899
 2055SOL    HW117624   4.107   4.219   8.055  1.5670  1.7519 -0.6300
 2055SOL    HW217625   4.080   4.293   8.188  0.8602  1.2962 -0.7759
 2056SOL     OW17626   2.166   3.289   7.845  0.1185  0.4033 -0.4804
 2056SOL    HW117627   2.087   3.283   7.899 -0.5640 -0.2772 -1.5552
 2056SOL    HW217628   2.138   3.357   7.783 -2.2807 -1.4198 -1.4034
 2057SOL     OW17629   3.793   2.771   0.966  0.0660  0.2858 -0.1140
 2057SOL    HW117630   3.837   2.686   0.976  1.4935  0.8756 -1.4435
 2057SOL    HW217631   3.760   2.762   0.877  0.7979  2.1229 -0.5708
 2058SOL     OW17632   3.810   2.250   3.390  0.4517  0.6040  0.3487
 2058SOL    HW117633   3.798   2.276   3.481  1.9167  3.1696 -0.2164
 2058SOL    HW217634   3.904   2.233   3.389  0.4812  0.8337 -1.1844
 2059SOL     OW17635   1.257   2.167  10.308 -0.4041 -1.0478  0.0988
 2059SOL    HW117636   1.260   2.224  10.231 -0.8241  0.3872  1.1359
 2059SOL    HW217637   1.262   2.078  10.274 -0.8803 -0.7610 -0.7000
 2060SOL     OW17638   0.567   1.431   6.439  0.3178  0.3767 -0.5983
 2060SOL    HW117639   0.565   1.446   6.344  0.7003 -1.1350 -0.8483
 2060SOL    HW217640   0.609   1.513   6.465  0.5491 -0.3984  1.4654
 2061SOL     OW17641   4.542   4.004   5.192 -0.6441 -0.5705  0.0684
 2061SOL    HW117642   4.548   4.057   5.271  0.2996  0.1715 -0.4946
 2061SOL    HW217643   4.487   4.059   5.137  3.0422  3.4152  0.3473
 2062SOL     OW17644   2.381   0.321   8.424  0.0134 -0.3636 -0.4979
 2062SOL    HW117645   2.381   0.252   8.358 -2.2389 -0.2274 -0.6455
 2062SOL    HW217646   2.472   0.325   8.453 -1.2123  0.4649  3.1905
 2063SOL     OW17647   4.366   1.954   7.220  0.3356  0.4955  0.4625
 2063SOL    HW117648   4.396   1.905   7.296 -0.7982 -0.3661  0.3635
 2063SOL    HW217649   4.417   1.898   7.161  0.1005  1.4786 -0.6889
 2064SOL     OW17650   1.153   0.473   9.785  0.1470 -0.4561 -0.3867
 2064SOL    HW117651   1.073   0.450   9.832 -0.2199 -0.4092 -0.9883
 2064SOL    HW217652   1.195   0.390   9.764  2.8612  0.3380  1.9447
 2065SOL     OW17653   2.627   3.966  10.375 -0.2618  0.2072  0.2545
 2065SOL    HW117654   2.624   4.025  10.299 -4.5990  0.8823  0.9724
 2065SOL    HW217655   2.654   3.884  10.333  1.6092 -0.0321  1.8917
 2066SOL     OW17656   1.238   2.422  15.796 -0.5331  0.0355 -0.1582
 2066SOL    HW117657   1.315   2.470  15.765  0.1037  0.0253  1.4580
 2066SOL    HW217658   1.173   2.474  15.748  1.0594  2.3722  0.2041
 2067SOL     OW17659   1.771   1.788   3.333 -0.6202  0.0252  0.0008
 2067SOL    HW117660   1.719   1.815   3.409 -0.8821  0.9463 -0.5015
 2067SOL    HW217661   1.818   1.714   3.370  1.4405  1.1235 -0.3949
 2068SOL     OW17662   2.386   2.256   8.491  0.3072  0.4774  0.6737
 2068SOL    HW117663   2.326   2.329   8.477 -0.3545 -0.2097 -0.0372
 2068SOL    HW217664   2.352   2.229   8.576  1.1317 -0.1312  0.8158
 2069SOL     OW17665   2.406   2.965  15.644  0.3121 -0.0551 -0.2512
 2069SOL    HW117666   2.411   3.018  15.564  0.1399  2.5852  1.4640
 2069SOL    HW217667   2.434   2.878  15.618 -1.7278 -0.5230 -0.8802
 2070SOL     OW17668   0.355   3.187   8.607 -0.3294  0.0452  0.3430
 2070SOL    HW117669   0.309   3.114   8.649 -0.6174 -0.8265 -1.4551
 2070SOL    HW217670   0.308   3.264   8.640  0.3897 -0.6405  2.9338
 2071SOL     OW17671   3.007   2.259   4.282  0.1050  0.6048  0.8861
 2071SOL    HW117672   2.950   2.319   4.331 -1.4736  1.6121 -2.2255
 2071SOL    HW217673   3.018   2.303   4.198  1.6026 -1.0711  0.2061
 2072SOL     OW17674   1.020   0.866   8.441 -0.0434  0.4741 -0.6341
 2072SOL    HW117675   1.014   0.950   8.396  2.1571 -0.6557 -3.0634
 2072SOL    HW217676   1.102   0.881   8.488 -0.8124  1.0825  0.5074
 2073SOL     OW17677   0.616   1.781   5.811 -0.0210  0.0713  0.3066
 2073SOL    HW117678   0.678   1.781   5.738  0.6146 -2.9280  0.8265
 2073SOL    HW217679   0.604   1.875   5.824  0.0407  0.1832 -0.4982
 2074SOL     OW17680   1.829   3.868   0.231 -0.7678 -0.3828  0.3888
 2074SOL    HW117681   1.746   3.865   0.183 -0.9321 -1.8683  0.7824
 2074SOL    HW217682   1.884   3.913   0.167 -1.6833 -1.0356 -0.8594
 2075SOL     OW17683   0.373   3.564   4.670  0.1625 -0.1557  0.8944
 2075SOL    HW117684   0.381   3.616   4.750  0.2588  0.6088  0.3998
 2075SOL    HW217685   0.278   3.564   4.665  0.3265  0.1511 -2.3064
 2076SOL     OW17686   0.622   1.158   9.547 -0.3003  0.1504  0.3183
 2076SOL    HW117687   0.637   1.161   9.641 -3.0639  1.5437  0.7223
 2076SOL    HW217688   0.666   1.241   9.527 -1.8493  0.8278 -0.2786
 2077SOL     OW17689   0.231   2.362   6.961 -0.0430  0.6732 -0.6425
 2077SOL    HW117690   0.323   2.348   6.940 -0.3082 -0.5711 -0.9661
 2077SOL    HW217691   0.252   2.393   7.050 -1.4516  1.4325 -0.5620
 2078SOL     OW17692   2.706   2.354  16.013  0.0835  0.0880  0.2437
 2078SOL    HW117693   2.645   2.293  15.972  1.3861 -1.5589  0.7616
 2078SOL    HW217694   2.707   2.308  16.097 -0.1080 -0.8963 -0.3023
 2079SOL     OW17695   2.270   1.386   4.228  0.0577  0.3317  0.0504
 2079SOL    HW117696   2.358   1.348   4.241  0.1980  0.7855  0.4285
 2079SOL    HW217697   2.294   1.452   4.163 -1.6984  2.1552  1.2828
 2080SOL     OW17698   2.891   1.463   8.365 -0.1698 -0.0544  0.1105
 2080SOL    HW117699   2.948   1.389   8.344  1.6669  0.9359  1.5391
 2080SOL    HW217700   2.923   1.543   8.324 -2.1093 -0.4532 -2.1763
 2081SOL     OW17701   1.866   3.389   5.202 -0.5350  0.5099 -0.2720
 2081SOL    HW117702   1.897   3.422   5.118 -1.3669  3.7524  0.7197
 2081SOL    HW217703   1.851   3.298   5.176 -2.7253  1.1641 -1.2736
 2082SOL     OW17704   2.790   3.006   6.897 -0.0500 -0.0776 -0.0286
 2082SOL    HW117705   2.867   2.963   6.861  0.7825  0.8339  0.6619
 2082SOL    HW217706   2.797   3.007   6.993 -0.0151 -0.7446 -0.0223
 2083SOL     OW17707   0.768   4.676   5.332 -0.0386 -0.0117 -0.2547
 2083SOL    HW117708   0.774   4.640   5.420 -0.8425  3.5224  1.2324
 2083SOL    HW217709   0.721   4.603   5.292 -1.8357  0.1680  1.5339
 2084SOL     OW17710   1.258   3.312   3.781  0.1249  0.4452 -0.6667
 2084SOL    HW117711   1.321   3.285   3.847 -0.1059 -1.6149 -1.3068
 2084SOL    HW217712   1.296   3.267   3.705  0.3057  2.8109 -1.9798
 2085SOL     OW17713   4.315   3.764   1.114 -0.3868 -0.3501 -0.1679
 2085SOL    HW117714   4.392   3.782   1.168 -0.8752 -1.6124  0.9634
 2085SOL    HW217715   4.277   3.852   1.108 -2.4427 -1.3929 -2.4107
 2086SOL     OW17716   2.451   4.194   5.964 -0.3248  0.2852 -0.1865
 2086SOL    HW117717   2.513   4.225   6.030  0.9096  2.2760 -2.2805
 2086SOL    HW217718   2.456   4.260   5.895 -2.2025  0.9241  0.3062
 2087SOL     OW17719   4.495   1.334  14.005 -0.2753 -0.5795 -0.0527
 2087SOL    HW117720   4.418   1.371  14.049 -0.3763  0.6394 -1.2416
 2087SOL    HW217721   4.560   1.391  14.045 -0.3686 -0.3625 -0.2078
 2088SOL     OW17722   2.159   2.819   7.551  0.0835  0.1425 -0.4736
 2088SOL    HW117723   2.175   2.859   7.636 -3.0011 -0.0288  0.1663
 2088SOL    HW217724   2.063   2.821   7.547 -0.0399 -4.8278  0.0238
 2089SOL     OW17725   1.856   0.965   6.078 -0.3107  0.2077  0.2115
 2089SOL    HW117726   1.799   1.041   6.086 -0.9395 -0.2722  0.3070
 2089SOL    HW217727   1.796   0.893   6.058  0.5399 -0.8334  1.4300
 2090SOL     OW17728   2.728   4.503   5.807 -0.1202  0.2220  0.0435
 2090SOL    HW117729   2.754   4.579   5.754  0.9957 -0.3964 -0.2837
 2090SOL    HW217730   2.792   4.500   5.878 -2.1724  0.2904  1.9137
 2091SOL     OW17731   2.322   3.740   5.016  0.0975 -0.6831 -0.2712
 2091SOL    HW117732   2.353   3.830   5.013 -1.7717 -0.0702 -0.7962
 2091SOL    HW217733   2.378   3.702   4.948 -2.0247 -2.0301 -1.2700
 2092SOL     OW17734   0.325   2.000  15.473  1.2066 -0.0879  0.0539
 2092SOL    HW117735   0.257   1.993  15.405 -0.2881  3.1066  1.2241
 2092SOL    HW217736   0.315   2.095  15.483  1.5388 -0.0865  0.3656
 2093SOL     OW17737   0.932   4.063   6.281 -0.0163 -0.2997 -0.3754
 2093SOL    HW117738   0.993   3.994   6.257  2.2618  1.7021 -0.3942
 2093SOL    HW217739   0.850   4.023   6.254  0.0817 -1.6994  1.4028
 2094SOL     OW17740   3.094   1.427   7.288 -0.1509  0.3163  0.0536
 2094SOL    HW117741   3.117   1.518   7.270 -1.9141  0.4365 -1.6359
 2094SOL    HW217742   3.068   1.446   7.378 -0.6801 -1.6513  0.3196
 2095SOL     OW17743   1.108   1.037   4.540  0.3296  0.2736 -0.2491
 2095SOL    HW117744   1.199   1.036   4.511  0.4094  0.5138 -0.0117
 2095SOL    HW217745   1.083   1.123   4.507  1.2464  0.5021 -0.3333
 2096SOL     OW17746   0.460   2.974   7.072 -0.0873  0.2759 -0.1563
 2096SOL    HW117747   0.375   2.970   7.115 -0.7947 -2.0413 -1.7546
 2096SOL    HW217748   0.483   3.066   7.085  1.4704 -0.3236  1.3658
 2097SOL     OW17749   3.217   0.570   5.443  0.1861 -0.2696  0.0079
 2097SOL    HW117750   3.214   0.482   5.404  2.3212  0.0350 -0.8606
 2097SOL    HW217751   3.122   0.575   5.453  0.5401 -1.2114  3.9133
 2098SOL     OW17752   0.217   3.557   6.130 -0.2650  0.1931 -0.4742
 2098SOL    HW117753   0.157   3.626   6.159  0.1434 -0.1396  1.1695
 2098SOL    HW217754   0.160   3.480   6.130  0.0763 -0.0567 -1.8390
 2099SOL     OW17755   3.103   1.779   6.951 -0.7121 -0.2990 -0.0839
 2099SOL    HW117756   3.021   1.736   6.927 -0.7955  0.1583 -0.6197
 2099SOL    HW217757   3.068   1.852   7.004 -1.8581 -1.0822  0.2374
 2100SOL     OW17758   0.700   1.443   3.357  0.5992 -0.0711 -0.3605
 2100SOL    HW117759   0.662   1.508   3.416  1.2398 -0.2016  0.1923
 2100SOL    HW217760   0.704   1.366   3.414  1.1617  0.0633 -0.2184
 2101SOL     OW17761   2.870   3.809  14.130  0.2877  0.1595 -0.2120
 2101SOL    HW117762   2.814   3.854  14.067 -1.4526 -0.7072  0.7129
 2101SOL    HW217763   2.801   3.754  14.166  0.1848  0.3757 -0.0768
 2102SOL     OW17764   0.379   2.685   5.124  0.0259 -0.1178  0.3051
 2102SOL    HW117765   0.365   2.779   5.128 -1.7170 -0.4217  1.5230
 2102SOL    HW217766   0.466   2.683   5.086  0.4704  1.0574  1.2579
 2103SOL     OW17767   2.668   4.055   5.867  0.4796 -0.7711 -0.1085
 2103SOL    HW117768   2.664   3.959   5.871 -2.2215 -0.7677 -2.6265
 2103SOL    HW217769   2.582   4.076   5.904  1.9084  0.8356  2.3320
 2104SOL     OW17770   4.483   0.799   5.601  0.1689 -0.6073  0.7132
 2104SOL    HW117771   4.567   0.759   5.579  0.5599  1.1996 -1.0675
 2104SOL    HW217772   4.446   0.736   5.663  1.8144 -0.6968  1.6106
 2105SOL     OW17773   4.141   3.309   4.248  0.3150 -0.4197  0.7285
 2105SOL    HW117774   4.157   3.386   4.194 -1.1769 -0.9678 -0.4744
 2105SOL    HW217775   4.047   3.319   4.264  0.6326  1.0152  1.6699
 2106SOL     OW17776   3.594   1.923   4.498 -0.5943 -0.0557 -0.0996
 2106SOL    HW117777   3.571   2.014   4.520 -2.0240  0.0243 -1.9464
 2106SOL    HW217778   3.671   1.908   4.553 -0.4606  1.7770  0.2241
 2107SOL     OW17779   1.134   0.566  11.985  0.2294 -0.5569  0.2009
 2107SOL    HW117780   1.081   0.604  11.915  0.0201 -0.8754  0.1896
 2107SOL    HW217781   1.215   0.554  11.934 -0.2153 -0.6593 -0.4842
 2108SOL     OW17782   2.979   0.975   0.569 -0.1543 -0.1134 -0.6537
 2108SOL    HW117783   2.941   0.985   0.657  1.1797  1.0602 -0.2096
 2108SOL    HW217784   3.069   0.986   0.598 -0.4017  0.8475 -0.2430
 2109SOL     OW17785   2.124   1.531   8.765 -0.1731  0.4557  0.5622
 2109SOL    HW117786   2.135   1.539   8.860  0.2808  1.3360  0.4405
 2109SOL    HW217787   2.216   1.547   8.745 -0.1591 -1.8086 -1.0691
 2110SOL     OW17788   1.262   2.869   6.496 -0.0352 -0.0782  0.1411
 2110SOL    HW117789   1.350   2.844   6.525  0.7964  3.9906  1.0093
 2110SOL    HW217790   1.221   2.888   6.580  1.1591  0.8830  0.5055
 2111SOL     OW17791   2.713   0.006   6.700  0.0257 -0.2994  0.1523
 2111SOL    HW117792   2.623   0.009   6.731  0.7907 -0.9386  2.4480
 2111SOL    HW217793   2.759   4.654   6.737  0.9120  0.1865  0.0603
 2112SOL     OW17794   4.174   1.294  11.334 -0.4815  0.1177  0.6205
 2112SOL    HW117795   4.215   1.362  11.280 -1.1218 -0.5947 -0.7809
 2112SOL    HW217796   4.087   1.325  11.360  0.1149  0.1200  2.5472
 2113SOL     OW17797   0.397   2.273   1.990 -0.1597 -0.0792  1.2290
 2113SOL    HW117798   0.315   2.224   2.005 -0.3422 -0.1906 -0.1649
 2113SOL    HW217799   0.408   2.328   2.068  2.6468  0.5107  0.4130
 2114SOL     OW17800   0.885   0.632   2.359 -0.0335 -0.1987  0.3867
 2114SOL    HW117801   0.840   0.670   2.284  3.1619 -0.0734 -1.4805
 2114SOL    HW217802   0.884   0.695   2.430  1.2588  0.9275 -0.6002
 2115SOL     OW17803   0.751   0.197   8.447 -0.1381  0.1145  0.0106
 2115SOL    HW117804   0.707   0.281   8.433 -0.7828 -0.5116 -1.8075
 2115SOL    HW217805   0.731   0.179   8.539 -1.4352 -2.4702 -0.7525
 2116SOL     OW17806   1.919   2.892  10.600  0.1168 -0.6727  0.4689
 2116SOL    HW117807   1.973   2.864  10.526 -0.6071 -1.5249  0.2627
 2116SOL    HW217808   1.982   2.912  10.670 -0.6492  2.3181  0.3010
 2117SOL     OW17809   4.455   0.664  17.656  0.6306  0.5022 -0.1077
 2117SOL    HW117810   4.522   0.721  17.693  1.8405 -1.8644  1.3561
 2117SOL    HW217811   4.384   0.698   0.016  1.6562  2.6393 -0.1131
 2118SOL     OW17812   2.003   3.988  11.751  0.1839 -0.3302  0.3798
 2118SOL    HW117813   2.041   3.942  11.826  1.6578 -0.2629 -0.3347
 2118SOL    HW217814   1.926   3.934  11.731  0.4391 -0.9146  1.0029
 2119SOL     OW17815   0.045   4.718   2.735  0.6042  0.5339  0.0708
 2119SOL    HW117816   4.694   4.702   2.677  0.0142  0.8283  0.7494
 2119SOL    HW217817   0.112   0.008   2.669  1.1702  1.0421  0.7445
 2120SOL     OW17818   3.464   1.747  12.540  0.2114 -0.5662 -0.0046
 2120SOL    HW117819   3.557   1.739  12.517  0.8074  1.6822  1.5965
 2120SOL    HW217820   3.470   1.695  12.620 -0.2681  0.1683  0.5021
 2121SOL     OW17821   0.974   3.280   4.454  0.0149  0.7620 -0.3834
 2121SOL    HW117822   0.907   3.310   4.514  1.6329 -0.8212  2.2531
 2121SOL    HW217823   1.040   3.269   4.523 -2.1327  0.0936  1.5824
 2122SOL     OW17824   3.259   3.710  13.373 -0.2864 -0.4439 -0.0504
 2122SOL    HW117825   3.276   3.735  13.282  1.4929  0.0425  0.4105
 2122SOL    HW217826   3.165   3.694  13.377 -0.4708  0.2688 -1.8559
 2123SOL     OW17827   0.780   3.365   1.770  0.3174  0.2501  0.3449
 2123SOL    HW117828   0.775   3.461   1.767  0.3544  0.2933  1.6333
 2123SOL    HW217829   0.855   3.357   1.710  1.3254 -0.6153  1.7243
 2124SOL     OW17830   3.199   3.216   7.154 -0.0269  0.0533  0.0631
 2124SOL    HW117831   3.284   3.211   7.110 -0.2237 -0.3102 -0.2801
 2124SOL    HW217832   3.152   3.218   7.071  0.9266 -3.5245 -0.5482
 2125SOL     OW17833   1.871   1.324   4.149  0.2912  0.3790  0.0775
 2125SOL    HW117834   1.928   1.388   4.106 -0.0695 -0.6848 -1.9956
 2125SOL    HW217835   1.848   1.374   4.227 -0.5783 -1.9700  1.2991
 2126SOL     OW17836   2.597   2.174  15.402 -0.6286 -1.0715 -0.6492
 2126SOL    HW117837   2.516   2.132  15.431 -1.9520  1.1170 -1.1931
 2126SOL    HW217838   2.578   2.157  15.310  0.1637 -1.4187 -0.7474
 2127SOL     OW17839   2.856   3.216   6.382  0.5995  0.4256 -0.5055
 2127SOL    HW117840   2.821   3.301   6.410  0.7661 -0.2192  1.6144
 2127SOL    HW217841   2.791   3.155   6.416 -1.1388  2.1783 -0.6579
 2128SOL     OW17842   3.676   2.933  16.585 -0.8444  0.7961  0.0899
 2128SOL    HW117843   3.709   2.848  16.613 -0.0026  1.0062 -0.2793
 2128SOL    HW217844   3.616   2.952  16.657  0.7057  1.4863  1.1747
 2129SOL     OW17845   2.557   2.798   4.615 -0.2915  0.2103 -0.5478
 2129SOL    HW117846   2.624   2.731   4.608  0.4666  1.0554 -1.5428
 2129SOL    HW217847   2.620   2.870   4.612 -2.2293  2.0603  1.9895
 2130SOL     OW17848   1.563   3.540   1.007  0.0662  0.2982  0.3891
 2130SOL    HW117849   1.589   3.454   1.039 -2.5170 -0.8653 -0.6723
 2130SOL    HW217850   1.516   3.557   1.088 -1.2981 -1.5165 -0.0203
 2131SOL     OW17851   4.333   1.853  15.087 -0.8760 -0.0743  0.1252
 2131SOL    HW117852   4.281   1.924  15.124  0.6378  0.6079  0.9589
 2131SOL    HW217853   4.274   1.818  15.020 -0.6399  0.1588 -0.2075
 2132SOL     OW17854   0.954   0.422   8.177  0.6680  0.5444  0.1791
 2132SOL    HW117855   0.888   0.360   8.144  0.9726 -0.6519  1.8432
 2132SOL    HW217856   0.930   0.510   8.147 -0.2674  0.3851  0.4478
 2133SOL     OW17857   0.028   1.126   7.435 -0.6973 -0.0573 -0.2803
 2133SOL    HW117858   4.678   1.096   7.489 -0.6693  0.2686 -0.0622
 2133SOL    HW217859   4.705   1.136   7.352  1.9489 -0.4104 -1.7945
 2134SOL     OW17860   3.898   4.570  16.941 -0.7656  0.0807  0.1513
 2134SOL    HW117861   3.976   4.558  16.887  0.2865  2.0001  1.2860
 2134SOL    HW217862   3.901   4.489  16.993 -1.2817 -0.4897 -0.6969
 2135SOL     OW17863   2.522   4.419   8.597  0.2758  0.4441 -0.1644
 2135SOL    HW117864   2.483   4.506   8.598 -1.3753 -0.2996  0.1680
 2135SOL    HW217865   2.612   4.445   8.618 -1.0773  3.0049  2.3806
 2136SOL     OW17866   2.596   0.000   9.341 -0.4240 -0.4802 -0.0182
 2136SOL    HW117867   2.611   4.632   9.361  0.4214  0.0740  1.9367
 2136SOL    HW217868   2.559   0.026   9.426  1.6547  1.5233  0.2879
 2137SOL     OW17869   1.936   1.975  16.959 -0.0980 -0.9385  0.0240
 2137SOL    HW117870   2.021   1.987  17.001 -0.4990 -0.3680  0.6722
 2137SOL    HW217871   1.897   2.061  16.975  0.9692 -0.1430 -1.6605
 2138SOL     OW17872   1.492   1.993  10.130  0.1927  0.2537  0.8217
 2138SOL    HW117873   1.474   1.957  10.217 -2.3988  0.4363  0.3529
 2138SOL    HW217874   1.466   1.915  10.082 -1.1317  2.0657 -1.3992
 2139SOL     OW17875   0.375   1.743   4.939  0.3752 -0.2959  0.6299
 2139SOL    HW117876   0.444   1.775   4.997 -0.8604  0.0323  1.8995
 2139SOL    HW217877   0.417   1.662   4.910  0.9500  0.4521 -0.6411
 2140SOL     OW17878   4.471   4.158  16.330  0.1980  0.6350  0.1400
 2140SOL    HW117879   4.433   4.164  16.417 -1.0306 -1.0248 -0.2723
 2140SOL    HW217880   4.530   4.083  16.337 -2.2637 -1.2942 -0.0094
 2141SOL     OW17881   1.967   2.191   2.803 -0.0858  0.5506 -0.1234
 2141SOL    HW117882   1.980   2.186   2.708 -0.6561  0.1296 -0.1814
 2141SOL    HW217883   1.946   2.282   2.819  1.7221  0.7551  1.0910
 2142SOL     OW17884   2.474   0.105  14.117  0.4012 -0.3002 -0.0707
 2142SOL    HW117885   2.479   0.175  14.181  0.0800  0.9685 -1.4427
 2142SOL    HW217886   2.552   0.123  14.064 -0.5115  2.4911 -0.4440
 2143SOL     OW17887   4.002   1.247   9.394 -0.5454 -0.0881 -0.0866
 2143SOL    HW117888   4.091   1.235   9.362 -0.9793 -1.7251 -0.7053
 2143SOL    HW217889   3.967   1.192   9.323  0.1194  0.5162 -0.8802
 2144SOL     OW17890   0.242   2.516   0.449 -0.4845 -0.2972 -0.0121
 2144SOL    HW117891   0.233   2.578   0.377  1.5945  1.7322  1.5009
 2144SOL    HW217892   0.316   2.554   0.495  0.4850 -2.8344  0.5702
 2145SOL     OW17893   3.841   0.786   5.513  0.1347 -0.6261 -0.3661
 2145SOL    HW117894   3.789   0.855   5.553 -0.1250 -1.1930  0.2690
 2145SOL    HW217895   3.814   0.806   5.424 -0.3070  0.3280 -0.0154
 2146SOL     OW17896   3.151   2.665   6.668  0.1893 -0.4400  0.2992
 2146SOL    HW117897   3.215   2.607   6.709  0.2008  0.6986  1.9235
 2146SOL    HW217898   3.193   2.667   6.582 -1.2710 -0.6091 -0.4186
 2147SOL     OW17899   1.532   0.048   9.636 -0.3402 -0.4292 -0.3763
 2147SOL    HW117900   1.620   0.032   9.671 -0.5820 -1.1380 -0.1042
 2147SOL    HW217901   1.485   4.719   9.701 -0.7494  2.5319  1.7177
 2148SOL     OW17902   3.118   2.167   5.720  0.1275  0.2121 -0.2732
 2148SOL    HW117903   3.133   2.074   5.700 -0.4718 -0.2179  1.2596
 2148SOL    HW217904   3.193   2.184   5.777 -0.1627 -0.3200  0.2702
 2149SOL     OW17905   2.371   2.208  16.935  0.7008 -0.0927  0.9111
 2149SOL    HW117906   2.362   2.115  16.916 -0.2536 -0.0329  1.0565
 2149SOL    HW217907   2.325   2.265  16.874 -0.3283 -0.9210  0.9044
 2150SOL     OW17908   4.216   0.446   6.161 -0.5902  0.3677  0.1993
 2150SOL    HW117909   4.216   0.442   6.066  4.6653  0.9443  0.2019
 2150SOL    HW217910   4.295   0.394   6.174 -0.4334  0.2296 -1.3204
 2151SOL     OW17911   1.613   2.176  17.608 -0.3315 -0.7234  0.1581
 2151SOL    HW117912   1.538   2.170  17.549 -0.2138  1.6077 -0.2552
 2151SOL    HW217913   1.573   2.208  17.689 -0.1277 -0.5031  0.1725
 2152SOL     OW17914   1.347   3.483   8.099  0.4885 -0.0858  0.4797
 2152SOL    HW117915   1.348   3.573   8.066  0.1938 -0.8345 -1.6079
 2152SOL    HW217916   1.365   3.503   8.191  2.4082  3.0952 -0.6125
 2153SOL     OW17917   0.820   1.523  15.916 -0.3128  0.4165  0.5183
 2153SOL    HW117918   0.807   1.434  15.882 -1.5807  0.4847  0.8029
 2153SOL    HW217919   0.865   1.498  15.997  0.4105  0.0815  0.0070
 2154SOL     OW17920   1.606   2.226  11.996  0.7084  0.3733  0.0924
 2154SOL    HW117921   1.606   2.222  12.091 -1.1595  0.3354  0.0938
 2154SOL    HW217922   1.547   2.300  11.985  2.6399  1.8647 -0.3354
 2155SOL     OW17923   2.233   0.996   9.937  0.4163 -0.5915 -0.5797
 2155SOL    HW117924   2.265   0.910   9.967 -1.3855 -0.3549  2.0047
 2155SOL    HW217925   2.187   0.971   9.857 -0.5855 -0.3057 -0.0883
 2156SOL     OW17926   2.628   2.886   2.615 -0.7266 -0.0901 -0.1730
 2156SOL    HW117927   2.557   2.847   2.564 -0.8615 -0.4028  0.2528
 2156SOL    HW217928   2.634   2.812   2.676  2.4566  0.1293 -0.2053
 2157SOL     OW17929   2.946   1.721   4.995 -0.3761  0.3698  0.0007
 2157SOL    HW117930   2.962   1.741   4.903 -0.3274  2.0758  0.3681
 2157SOL    HW217931   2.871   1.779   5.008 -0.2181  0.6609 -0.3779
 2158SOL     OW17932   0.123   3.034  11.612 -0.1733  0.1188  0.0054
 2158SOL    HW117933   0.123   2.949  11.568  2.4509 -0.9621  2.0431
 2158SOL    HW217934   0.217   3.052  11.605  0.0112 -1.0004 -0.3903
 2159SOL     OW17935   1.955   4.413  15.088 -0.3548  0.0652  0.2074
 2159SOL    HW117936   2.034   4.465  15.099 -0.5835  0.3660  0.4351
 2159SOL    HW217937   1.983   4.327  15.057  0.4829  0.3513  0.1676
 2160SOL     OW17938   1.179   3.043   5.354 -0.0709 -0.3698  0.1154
 2160SOL    HW117939   1.163   2.949   5.344  0.0211 -0.5532  1.6452
 2160SOL    HW217940   1.100   3.086   5.322 -0.9923 -1.3648  1.0519
 2161SOL     OW17941   0.184   3.301   7.924  0.0366  0.3001  0.3814
 2161SOL    HW117942   0.133   3.269   7.999 -1.5606 -0.5323 -1.0614
 2161SOL    HW217943   0.113   3.336   7.870 -0.0214 -1.7643 -0.8553
 2162SOL     OW17944   0.350   1.832  13.699 -0.3836  0.1252  0.1844
 2162SOL    HW117945   0.290   1.792  13.761 -2.1574 -0.0341 -1.6171
 2162SOL    HW217946   0.309   1.817  13.613 -1.4676  2.3538  0.3002
 2163SOL     OW17947   1.756   2.627   3.931  0.5766 -0.1858 -0.1132
 2163SOL    HW117948   1.804   2.710   3.934 -0.1098  0.2012 -0.0273
 2163SOL    HW217949   1.691   2.636   3.862 -1.6852  2.2536  2.3613
 2164SOL     OW17950   3.999   3.297  13.156  0.6947 -0.0597  0.2554
 2164SOL    HW117951   3.968   3.387  13.169  2.2041 -0.0140  3.4572
 2164SOL    HW217952   3.991   3.282  13.062  0.2852  1.1429  0.1007
 2165SOL     OW17953   0.711   2.367  14.070 -0.2650 -0.2222  0.4922
 2165SOL    HW117954   0.664   2.412  14.000  1.5199  0.5261 -0.2245
 2165SOL    HW217955   0.714   2.277  14.037 -2.0953 -0.4539  0.9505
 2166SOL     OW17956   0.900   2.816  17.050  0.1222  0.2529  0.2054
 2166SOL    HW117957   0.846   2.805  17.127 -1.0797 -2.0492 -0.9718
 2166SOL    HW217958   0.830   2.856  16.999  0.5160 -0.1730 -0.6743
 2167SOL     OW17959   1.948   3.516   9.528 -0.4013  0.2724  0.2992
 2167SOL    HW117960   1.887   3.587   9.545 -1.8764 -0.9123 -0.0015
 2167SOL    HW217961   2.024   3.530   9.584  1.7986 -3.3400 -1.7900
 2168SOL     OW17962   2.084   3.480   2.270 -0.1927 -0.2512 -0.1231
 2168SOL    HW117963   2.013   3.536   2.300  0.5155  1.3116 -1.3065
 2168SOL    HW217964   2.129   3.556   2.233  0.2502 -1.0990 -1.3438
 2169SOL     OW17965   3.360   4.408   5.878  0.4709  0.5830  0.0101
 2169SOL    HW117966   3.347   4.320   5.914 -0.3159  1.3028  1.4682
 2169SOL    HW217967   3.270   4.440   5.882  0.5163  0.6274  0.6656
 2170SOL     OW17968   0.012   0.983   7.936 -0.0285 -0.4474 -0.8392
 2170SOL    HW117969   4.667   0.954   7.996  0.7404 -1.3374 -0.3944
 2170SOL    HW217970   0.047   0.900   7.904  0.5848 -0.0927 -1.0881
 2171SOL     OW17971   3.922   2.344   3.957  0.2276  0.1451 -0.3983
 2171SOL    HW117972   3.859   2.271   3.952  1.2852 -0.6902 -1.4049
 2171SOL    HW217973   3.976   2.322   4.033 -0.0086  3.6116  0.7508
 2172SOL     OW17974   3.318   3.173   5.146  0.0153  0.5513  0.8740
 2172SOL    HW117975   3.264   3.094   5.144 -0.4651  0.8893  0.6239
 2172SOL    HW217976   3.273   3.236   5.202  0.2247  0.5770  1.0165
 2173SOL     OW17977   4.622   4.474   3.550  0.5806  0.3223 -0.0382
 2173SOL    HW117978   4.560   4.412   3.513 -0.6815  1.5913 -0.0477
 2173SOL    HW217979   4.632   4.444   3.641  2.3652  1.4606  0.1523
 2174SOL     OW17980   1.070   0.905  17.056 -0.2476 -0.9796  0.3027
 2174SOL    HW117981   1.126   0.911  16.978 -1.0453 -0.5068 -0.2334
 2174SOL    HW217982   1.062   0.996  17.082  1.3629 -0.8692  0.4160
 2175SOL     OW17983   2.343   4.464  14.053 -0.2173  0.1691  0.1746
 2175SOL    HW117984   2.290   4.385  14.047  1.2547 -0.9774  2.3683
 2175SOL    HW217985   2.429   4.433  14.028  0.8943  1.4161  2.4661
 2176SOL     OW17986   1.778   2.348   7.756 -0.1147 -0.1302 -0.1856
 2176SOL    HW117987   1.715   2.379   7.690 -1.4181 -0.7374  0.7888
 2176SOL    HW217988   1.808   2.263   7.725 -0.1796 -0.8213  1.6853
 2177SOL     OW17989   1.837   3.025  16.514 -0.4290 -0.4797  0.3865
 2177SOL    HW117990   1.756   3.045  16.467  0.2400  1.4409  0.0548
 2177SOL    HW217991   1.818   3.088  16.584 -0.4218  0.0695 -0.1098
 2178SOL     OW17992   4.649   3.387  13.019 -0.1971 -0.4564  0.5733
 2178SOL    HW117993   4.606   3.439  13.086  0.0890  0.4800  0.0238
 2178SOL    HW217994   4.570   3.346  12.984 -1.4021  1.8495  0.6049
 2179SOL     OW17995   2.469   3.064  15.385 -0.4827  0.4633 -0.2769
 2179SOL    HW117996   2.510   3.134  15.436  1.2256  0.6020 -1.8180
 2179SOL    HW217997   2.389   3.104  15.353  0.5942  0.5301 -2.8683
 2180SOL     OW17998   1.603   0.518   8.058  0.2693  0.7010 -0.5675
 2180SOL    HW117999   1.554   0.578   8.115 -0.4248 -2.6696  2.4111
 2180SOL    HW218000   1.556   0.514   7.975 -2.3434  2.3446  0.7984
 2181SOL     OW18001   4.542   3.946   2.822 -0.2940  0.0391  0.2469
 2181SOL    HW118002   4.473   3.897   2.778 -1.1345  0.6715  0.8709
 2181SOL    HW218003   4.612   3.900   2.775 -0.1808 -0.9033  1.3361
 2182SOL     OW18004   0.058   0.708   8.335  0.3214  0.0506  0.8006
 2182SOL    HW118005   0.021   0.743   8.416  2.0575 -0.7601  1.9341
 2182SOL    HW218006   0.089   0.622   8.364 -0.6598 -0.2604  0.9022
 2183SOL     OW18007   1.791   3.449   1.405 -0.5962  0.5083 -0.1270
 2183SOL    HW118008   1.853   3.376   1.405 -1.5857 -0.3364  0.3335
 2183SOL    HW218009   1.820   3.490   1.323  1.0154  0.5599  0.4720
 2184SOL     OW18010   3.452   4.080  12.305  0.6271 -0.5149  0.2270
 2184SOL    HW118011   3.471   4.118  12.219 -1.4482  0.0260  0.0009
 2184SOL    HW218012   3.356   4.076  12.305  0.6634 -1.3821  0.3191
 2185SOL     OW18013   1.521   2.517   8.959 -0.5401 -0.3919  0.1356
 2185SOL    HW118014   1.432   2.544   8.937 -0.8163 -2.1393 -0.8856
 2185SOL    HW218015   1.514   2.423   8.947 -1.4863 -0.1903 -0.8973
 2186SOL     OW18016   3.120   2.172   2.555  0.0711  0.2260 -0.0103
 2186SOL    HW118017   3.087   2.109   2.491 -1.4305  0.2204  0.7705
 2186SOL    HW218018   3.160   2.106   2.612 -0.9773 -1.1129 -0.8105
 2187SOL     OW18019   3.700   4.578  11.941  0.1115  0.4040 -0.0956
 2187SOL    HW118020   3.712   4.641  12.012  0.4877  0.2382 -0.0149
 2187SOL    HW218021   3.709   4.628  11.860 -1.4656  1.1003  0.1568
 2188SOL     OW18022   4.315   4.620   4.605  0.0000 -0.2056  0.0831
 2188SOL    HW118023   4.302   4.640   4.513  0.7262 -1.1659 -0.2294
 2188SOL    HW218024   4.236   4.658   4.644 -0.8316 -1.4221 -0.4088
 2189SOL     OW18025   2.196   4.422   0.618 -0.1218 -0.2525  0.1132
 2189SOL    HW118026   2.144   4.400   0.540  0.5306  0.9380 -0.6548
 2189SOL    HW218027   2.147   4.493   0.659  1.0702  0.1359  0.8359
 2190SOL     OW18028   2.196   2.242   8.958 -0.4262 -0.0296 -0.1560
 2190SOL    HW118029   2.158   2.319   9.002 -2.9538 -1.4128  0.0664
 2190SOL    HW218030   2.217   2.179   9.027  0.7136  2.1040  1.4522
 2191SOL     OW18031   1.042   4.226  10.743  0.4478 -0.0761  0.1310
 2191SOL    HW118032   0.958   4.267  10.723  0.5820  0.0401 -0.1988
 2191SOL    HW218033   1.068   4.210  10.652 -1.3911 -2.5844  0.0232
 2192SOL     OW18034   4.317   0.125   6.011  0.0516 -0.3550 -0.2102
 2192SOL    HW118035   4.244   0.074   5.975 -1.4177 -0.1954  2.5669
 2192SOL    HW218036   4.284   0.143   6.099  1.7139  0.8473  0.1651
 2193SOL     OW18037   2.923   2.006   3.280 -0.3125 -0.2653 -0.1890
 2193SOL    HW118038   2.914   2.067   3.207  1.6904  0.5081  0.2119
 2193SOL    HW218039   3.000   1.955   3.253 -0.7033 -0.1124 -1.6016
 2194SOL     OW18040   3.615   1.250   5.109  0.1141  0.1495  0.5172
 2194SOL    HW118041   3.599   1.343   5.096 -1.1159  0.1107  1.8314
 2194SOL    HW218042   3.694   1.227   5.059 -0.5786 -0.7737 -0.1476
 2195SOL     OW18043   1.134   2.674  10.523  0.2484 -0.2223  0.0043
 2195SOL    HW118044   1.145   2.766  10.497 -1.5976  0.6323  2.2938
 2195SOL    HW218045   1.064   2.659  10.459 -1.0212 -1.5650  1.7287
 2196SOL     OW18046   1.398   1.762   0.061  0.2160  0.2965 -0.6781
 2196SOL    HW118047   1.396   1.720  17.671 -0.5312 -0.0098 -0.5133
 2196SOL    HW218048   1.478   1.812   0.050 -0.2237  1.5377  1.5710
 2197SOL     OW18049   1.788   4.689   7.922 -0.6663  0.5767 -0.3579
 2197SOL    HW118050   1.694   4.706   7.930 -0.7433  0.3479 -0.7444
 2197SOL    HW218051   1.806   0.005   7.836 -2.2249  3.2226  0.5382
 2198SOL     OW18052   3.649   1.224  13.397  0.2312  0.2407 -0.3734
 2198SOL    HW118053   3.563   1.211  13.437  1.3725 -0.2582  1.9416
 2198SOL    HW218054   3.641   1.171  13.318  0.2299 -2.4414  1.4220
 2199SOL     OW18055   2.793   2.781   8.349  0.5915  1.1540  0.0059
 2199SOL    HW118056   2.872   2.827   8.377 -1.3750  3.0696  2.4069
 2199SOL    HW218057   2.825   2.694   8.324 -1.1404  0.4908  0.0331
 2200SOL     OW18058   2.648   4.614   2.258 -0.1147 -0.3480 -0.0662
 2200SOL    HW118059   2.558   4.641   2.241  0.0202 -0.1807 -0.5197
 2200SOL    HW218060   2.660   4.566   2.176 -1.0538 -1.3801  0.3998
 2201SOL     OW18061   1.024   1.684   4.680 -0.4950  0.1917  0.4420
 2201SOL    HW118062   1.066   1.600   4.701  2.5109  1.2576 -1.2256
 2201SOL    HW218063   1.000   1.712   4.768  0.2124 -0.1465  0.7471
 2202SOL     OW18064   1.909   3.732  14.050  0.2983 -0.4179 -0.1407
 2202SOL    HW118065   1.908   3.658  13.989  0.2273 -0.0210 -0.6213
 2202SOL    HW218066   1.885   3.692  14.133  1.2529  1.2312  0.9353
 2203SOL     OW18067   4.448   0.722  15.277  0.3110  0.0729 -0.0180
 2203SOL    HW118068   4.511   0.760  15.216  3.3363 -0.2749  2.9072
 2203SOL    HW218069   4.510   0.662  15.318  0.2082  0.7786  1.1721
 2204SOL     OW18070   2.351   0.723   8.102 -0.0559 -0.5477  0.0505
 2204SOL    HW118071   2.434   0.751   8.063 -1.2480  0.2342 -1.9187
 2204SOL    HW218072   2.363   0.630   8.121  0.1762 -0.4517  0.3806
 2205SOL     OW18073   2.842   2.964   3.787 -0.5758 -0.0144  0.7824
 2205SOL    HW118074   2.851   2.933   3.877 -0.9376  0.3270  0.9361
 2205SOL    HW218075   2.854   3.059   3.793 -2.3116  0.2503 -0.1113
 2206SOL     OW18076   1.431   0.615  12.770 -0.0688 -0.5139  0.5673
 2206SOL    HW118077   1.353   0.656  12.733  1.0879  1.0676 -0.1130
 2206SOL    HW218078   1.506   0.657  12.727 -1.7905  2.9067  1.0181
 2207SOL     OW18079   2.167   2.299  17.257  0.5031  0.2898  0.3221
 2207SOL    HW118080   2.245   2.269  17.209  0.4378 -0.2128  0.5400
 2207SOL    HW218081   2.130   2.219  17.292  1.2975  0.1597  0.8517
 2208SOL     OW18082   3.789   0.489   7.461 -0.1667 -0.3612  0.2684
 2208SOL    HW118083   3.827   0.507   7.547 -0.8723 -1.0888  0.7272
 2208SOL    HW218084   3.755   0.401   7.472  0.0604 -0.5499 -0.5227
 2209SOL     OW18085   0.601   2.745   5.356 -0.2225 -0.1091  0.5723
 2209SOL    HW118086   0.673   2.779   5.302 -0.6279 -0.7836 -0.3989
 2209SOL    HW218087   0.528   2.743   5.294  2.0881  0.6678 -2.2161
 2210SOL     OW18088   2.438   1.651   7.298 -0.3373 -0.9369  0.1543
 2210SOL    HW118089   2.374   1.699   7.245 -1.2528 -2.0617  0.2458
 2210SOL    HW218090   2.523   1.686   7.272  0.7067 -2.7014  1.2205
 2211SOL     OW18091   1.183   1.968   6.951  1.0929 -0.4823  0.3012
 2211SOL    HW118092   1.165   1.907   7.023 -0.0540  1.1223  1.3740
 2211SOL    HW218093   1.214   1.913   6.879 -1.1611 -0.5993 -0.5615
 2212SOL     OW18094   0.511   1.883   3.972 -0.1413 -0.5028 -0.0145
 2212SOL    HW118095   0.455   1.877   3.894  0.3532 -2.2387 -0.2366
 2212SOL    HW218096   0.591   1.924   3.939 -0.4346 -0.7107 -0.9756
 2213SOL     OW18097   2.731   0.296   6.685 -0.4680 -0.0419 -0.6455
 2213SOL    HW118098   2.729   0.203   6.708 -0.5802 -0.0030 -0.4994
 2213SOL    HW218099   2.816   0.302   6.640 -0.6667 -0.6323 -1.0969
 2214SOL     OW18100   2.416   1.755  14.176  0.1442 -0.1285 -0.2772
 2214SOL    HW118101   2.491   1.810  14.153  0.0476  0.7584  1.5601
 2214SOL    HW218102   2.459   1.695  14.236 -1.1222  0.9565  1.6968
 2215SOL     OW18103   4.274   1.341   0.961  0.1428 -0.3416  0.4480
 2215SOL    HW118104   4.256   1.300   1.046 -1.5670  0.7155  0.5946
 2215SOL    HW218105   4.347   1.282   0.942  0.3323  0.7773 -2.2033
 2216SOL     OW18106   2.863   3.863   9.475  0.1450  0.3031  0.1029
 2216SOL    HW118107   2.775   3.832   9.495 -0.4958  1.7312 -0.5344
 2216SOL    HW218108   2.912   3.822   9.546  0.0380 -0.6413 -0.3706
 2217SOL     OW18109   1.451   3.179  12.327  0.1878  0.2165  0.1424
 2217SOL    HW118110   1.436   3.273  12.338 -1.7407  0.0655 -1.2707
 2217SOL    HW218111   1.458   3.163  12.233 -2.2133  1.9153 -0.3335
 2218SOL     OW18112   0.471   4.012   8.451 -0.1494  0.0961 -0.4649
 2218SOL    HW118113   0.379   3.985   8.445 -0.0372 -0.0131 -1.6838
 2218SOL    HW218114   0.455   4.100   8.484  0.5042 -0.1488  0.4968
 2219SOL     OW18115   4.099   2.050   4.012  0.2928  0.3209 -0.1381
 2219SOL    HW118116   4.169   2.111   3.990  0.2341  1.0574  1.6915
 2219SOL    HW218117   4.094   1.993   3.936 -0.6943  0.3612 -0.0986
 2220SOL     OW18118   3.376   0.299   7.354 -0.8427 -0.1136 -0.4970
 2220SOL    HW118119   3.417   0.216   7.376 -1.2955  0.3295  1.9578
 2220SOL    HW218120   3.415   0.368   7.408 -0.4585 -1.3210  0.7510
 2221SOL     OW18121   4.701   3.408   6.754  0.2000  0.5551 -0.4393
 2221SOL    HW118122   4.663   3.370   6.675  0.7077  1.3245 -1.0567
 2221SOL    HW218123   0.043   3.343   6.779 -1.3131  0.2770  2.8853
 2222SOL     OW18124   1.242   2.778   8.534 -0.4694 -0.5135  0.1206
 2222SOL    HW118125   1.206   2.771   8.446 -1.5625 -0.0584  0.5416
 2222SOL    HW218126   1.174   2.834   8.571 -1.1510 -0.3507 -1.3869
 2223SOL     OW18127   0.937   3.474   7.316 -1.1099 -0.4548 -0.4461
 2223SOL    HW118128   1.005   3.481   7.383  0.2227 -4.1727 -1.3765
 2223SOL    HW218129   0.987   3.467   7.235  0.5971  0.3882  0.5510
 2224SOL     OW18130   4.694   4.376   5.133  0.7750  0.1675 -0.3238
 2224SOL    HW118131   4.616   4.328   5.104  0.9509 -0.7567  0.6951
 2224SOL    HW218132   4.680   4.383   5.228 -1.9914  2.8731 -0.9332
 2225SOL     OW18133   1.378   1.192  16.060 -0.3891  0.2720 -0.3225
 2225SOL    HW118134   1.306   1.236  16.014 -1.6694 -0.3844  1.0282
 2225SOL    HW218135   1.341   1.104  16.065  2.3802 -0.8973 -0.4193
 2226SOL     OW18136   0.044   0.753   8.798  0.0976 -0.1353 -0.1755
 2226SOL    HW118137   0.067   0.690   8.867 -0.9607  0.0347  0.3347
 2226SOL    HW218138   0.081   0.705   8.724  2.0440  2.0836 -0.6577
 2227SOL     OW18139   0.930   4.532   0.209 -0.2950  0.1327 -0.6541
 2227SOL    HW118140   1.014   4.549   0.251 -0.2386 -1.3310 -0.1783
 2227SOL    HW218141   0.914   4.443   0.240  0.9171  0.0992 -0.1406
 2228SOL     OW18142   1.807   2.968   5.652 -0.4359 -0.2840 -0.0413
 2228SOL    HW118143   1.818   3.000   5.562 -2.8301  0.2655 -0.1293
 2228SOL    HW218144   1.790   3.044   5.707  0.0936  0.3829 -0.7949
 2229SOL     OW18145   3.594   2.584   7.633  0.6111 -0.3267 -0.4017
 2229SOL    HW118146   3.516   2.569   7.579 -2.1032  1.7530  3.0260
 2229SOL    HW218147   3.567   2.664   7.677 -1.3525 -0.3912 -1.4748
 2230SOL     OW18148   4.572   2.392   7.941  0.4846 -0.0339  0.3207
 2230SOL    HW118149   4.548   2.309   7.901  3.5348 -1.2336  0.9875
 2230SOL    HW218150   4.564   2.449   7.864  2.8509  2.3670  1.8430
 2231SOL     OW18151   0.317   0.044   1.072 -0.5216  0.2583 -0.6040
 2231SOL    HW118152   0.341   4.703   1.138 -0.0330  0.7500 -0.3022
 2231SOL    HW218153   0.348   0.126   1.110 -1.7749  1.3417 -1.9010
 2232SOL     OW18154   4.093   3.145   2.777 -0.3737 -0.2955 -0.2040
 2232SOL    HW118155   4.072   3.111   2.690 -1.5986  1.2406 -0.5072
 2232SOL    HW218156   4.187   3.159   2.766 -0.4762 -0.1580 -0.9231
 2233SOL     OW18157   2.414   3.374  11.995 -0.1112 -0.0508 -0.0581
 2233SOL    HW118158   2.382   3.344  11.909  0.0279 -0.0998 -0.0929
 2233SOL    HW218159   2.342   3.398  12.053  0.5343  3.3239 -0.6450
 2234SOL     OW18160   0.443   0.416  12.209 -0.1419 -0.6268  0.0171
 2234SOL    HW118161   0.407   0.495  12.170  2.6505 -0.0028 -1.3073
 2234SOL    HW218162   0.456   0.369  12.127  0.4718  0.7888 -0.6914
 2235SOL     OW18163   1.951   0.672   5.443  0.0812 -0.0602 -0.5807
 2235SOL    HW118164   2.016   0.682   5.512  0.4187 -0.0827 -0.9005
 2235SOL    HW218165   1.877   0.720   5.481  0.6097  0.0605  0.3000
 2236SOL     OW18166   1.407   1.339  15.680 -0.9896 -0.8344  0.0286
 2236SOL    HW118167   1.457   1.378  15.608  1.2052  0.0509  2.0119
 2236SOL    HW218168   1.476   1.325  15.745 -0.3285  3.3233  0.2189
 2237SOL     OW18169   2.988   2.612   3.974  0.0236 -0.0391 -0.5831
 2237SOL    HW118170   2.948   2.697   3.993 -2.3479 -1.8135  2.4323
 2237SOL    HW218171   3.058   2.645   3.918  0.5250  0.3500  0.2603
 2238SOL     OW18172   4.706   1.196  11.549  0.1711  0.5424 -0.6366
 2238SOL    HW118173   0.051   1.207  11.483 -0.8488 -0.5793 -1.8712
 2238SOL    HW218174   0.027   1.182  11.633  3.3021 -0.1972 -2.4384
 2239SOL     OW18175   1.823   2.488   8.410 -0.1092 -0.1944  0.3144
 2239SOL    HW118176   1.879   2.414   8.431 -2.3540 -1.7537  0.8707
 2239SOL    HW218177   1.882   2.545   8.361 -0.8900  1.6787  1.5333
 2240SOL     OW18178   1.319   2.389   4.390  0.3224 -0.7506 -0.4867
 2240SOL    HW118179   1.374   2.314   4.366  1.4562  0.0003 -0.2419
 2240SOL    HW218180   1.265   2.338   4.450  0.0475  0.9259  0.7072
 2241SOL     OW18181   4.684   4.132   7.614 -0.0426  0.0932  0.0947
 2241SOL    HW118182   0.052   4.155   7.631 -0.1891  0.1093  0.8747
 2241SOL    HW218183   4.663   4.206   7.557 -0.6801 -0.7936 -0.8159
 2242SOL     OW18184   2.817   0.745   5.270 -0.1997 -0.0127  0.4319
 2242SOL    HW118185   2.850   0.740   5.360 -0.2277  0.4943  0.4749
 2242SOL    HW218186   2.765   0.665   5.274 -1.8448  1.0847  0.9129
 2243SOL     OW18187   4.310   2.361  15.465  0.3685  0.4248 -0.3835
 2243SOL    HW118188   4.401   2.384  15.483  0.1551 -0.3104  1.6614
 2243SOL    HW218189   4.309   2.277  15.511  1.5157  1.1535  0.9718
 2244SOL     OW18190   2.004   1.461  14.122 -0.5474  0.2338 -0.3139
 2244SOL    HW118191   1.921   1.428  14.157  0.0644 -1.1539 -0.1828
 2244SOL    HW218192   1.983   1.484  14.031  0.6009  0.3733 -0.5459
 2245SOL     OW18193   0.630   1.369   8.101  0.2556  0.0705 -0.0446
 2245SOL    HW118194   0.630   1.310   8.177  0.3797  0.2762  0.1152
 2245SOL    HW218195   0.543   1.348   8.069 -0.1030  0.6893  0.5390
 2246SOL     OW18196   3.825   4.600   7.920 -0.2016 -0.4668 -0.3651
 2246SOL    HW118197   3.800   4.522   7.970 -0.3669 -0.3274 -0.2284
 2246SOL    HW218198   3.879   4.573   7.846 -0.0603  1.2511 -0.8880
 2247SOL     OW18199   0.325   1.803  12.043  0.0073 -0.8260  0.2408
 2247SOL    HW118200   0.378   1.768  11.971  0.6063 -0.6080  0.5735
 2247SOL    HW218201   0.350   1.895  12.036  0.2582 -0.9089  0.0234
 2248SOL     OW18202   3.432   1.480  13.189 -0.6472  0.4065  0.2391
 2248SOL    HW118203   3.510   1.507  13.238  0.7552 -1.3531 -1.0424
 2248SOL    HW218204   3.387   1.564  13.178  0.1346  0.4496 -2.6758
 2249SOL     OW18205   1.103   0.700  16.097 -0.4232  0.5979 -0.3517
 2249SOL    HW118206   1.172   0.737  16.042  0.2834  0.7176  0.5928
 2249SOL    HW218207   1.034   0.763  16.081 -1.1590  0.9552  4.0908
 2250SOL     OW18208   3.189   2.611   3.185  0.4964 -0.0288  0.1233
 2250SOL    HW118209   3.284   2.596   3.186  0.2325 -1.6803 -0.7171
 2250SOL    HW218210   3.151   2.524   3.173  1.7845 -0.6976  0.8749
 2251SOL     OW18211   4.022   3.388   8.919  0.1126  0.1108 -0.2868
 2251SOL    HW118212   3.963   3.441   8.972 -0.5886 -0.1043 -0.8543
 2251SOL    HW218213   4.035   3.307   8.969 -2.0990 -0.1021 -0.0858
 2252SOL     OW18214   3.086   2.087   3.901 -0.2623  0.7135 -0.1702
 2252SOL    HW118215   3.072   2.024   3.971  4.5262 -1.9750 -1.5857
 2252SOL    HW218216   3.032   2.053   3.830  0.1987 -0.7132  0.1708
 2253SOL     OW18217   4.124   0.926   2.448  0.0937  0.3790  0.0980
 2253SOL    HW118218   4.199   0.878   2.484  0.7628  1.5762  0.3102
 2253SOL    HW218219   4.139   1.009   2.493 -0.6745 -0.0907  1.2012
 2254SOL     OW18220   0.781   2.208   8.148 -0.5140  0.0314 -0.0913
 2254SOL    HW118221   0.692   2.173   8.143 -0.6849  0.2012  1.8938
 2254SOL    HW218222   0.827   2.139   8.195 -2.3895 -0.4661  0.9910
 2255SOL     OW18223   3.041   1.172  11.317  0.6124  0.0283  0.8881
 2255SOL    HW118224   3.096   1.094  11.314 -0.2965 -0.6263  1.4483
 2255SOL    HW218225   3.029   1.192  11.224 -1.7565  1.3849  1.4770
 2256SOL     OW18226   0.030   2.888   3.231  0.8920 -0.0097 -0.4376
 2256SOL    HW118227   0.104   2.826   3.234 -0.1855 -1.3083 -0.6330
 2256SOL    HW218228   0.077   2.971   3.234  0.3203  0.3104 -0.5464
 2257SOL     OW18229   2.950   0.732  10.701  0.4494 -0.6054 -0.7547
 2257SOL    HW118230   2.870   0.710  10.750  0.4750  1.0096  0.0249
 2257SOL    HW218231   2.936   0.827  10.695 -1.7688 -0.7577  2.0321
 2258SOL     OW18232   3.232   3.735   7.016 -0.1485  0.1485  0.5511
 2258SOL    HW118233   3.160   3.697   7.067 -0.6757 -0.8569 -0.9299
 2258SOL    HW218234   3.219   3.821   7.056 -0.6989  0.7011 -0.8159
 2259SOL     OW18235   2.087   1.815  14.618  0.0693  0.6388 -0.7634
 2259SOL    HW118236   2.117   1.840  14.706 -2.3749  0.7546  0.0299
 2259SOL    HW218237   2.039   1.892  14.587 -1.1824 -1.2156 -3.4140
 2260SOL     OW18238   3.725   1.625   2.049  0.1627  0.2726  0.1950
 2260SOL    HW118239   3.640   1.625   2.005  0.9347 -2.4023 -1.3165
 2260SOL    HW218240   3.750   1.537   2.020 -2.7662 -0.4680 -0.1157
 2261SOL     OW18241   2.428   4.656   8.677  0.1833  0.2368  0.1895
 2261SOL    HW118242   2.512   4.670   8.721 -0.5314  0.4686  1.4530
 2261SOL    HW218243   2.388   0.016   8.701 -0.3955  0.3306 -1.0637
 2262SOL     OW18244   0.420   2.017   4.192 -1.1733 -0.0991  0.2774
 2262SOL    HW118245   0.468   1.984   4.116  0.4093 -2.0650  2.1118
 2262SOL    HW218246   0.435   2.110   4.178  1.0148 -0.4322  0.3826
 2263SOL     OW18247   2.165   2.712  11.357 -0.1519  0.3025 -0.3397
 2263SOL    HW118248   2.257   2.686  11.358 -0.6217 -1.1383  3.9183
 2263SOL    HW218249   2.130   2.644  11.299  1.3075 -2.5193  2.1301
 2264SOL     OW18250   0.983   2.075   2.764  0.4568  0.6768 -0.4412
 2264SOL    HW118251   1.018   2.109   2.846 -2.1939  2.0544  0.1103
 2264SOL    HW218252   0.956   1.984   2.774  1.0330  0.7082  1.2340
 2265SOL     OW18253   3.536   3.477   9.537 -0.2144  0.0859  0.5705
 2265SOL    HW118254   3.550   3.389   9.573 -0.1331  0.1806  0.7654
 2265SOL    HW218255   3.620   3.521   9.549 -1.1998  1.0234  3.8600
 2266SOL     OW18256   1.409   1.677  12.607 -0.1653  0.1179 -0.4169
 2266SOL    HW118257   1.409   1.715  12.694  2.0224 -0.9634  0.0638
 2266SOL    HW218258   1.498   1.705  12.582  0.1701  0.3886  1.1024
 2267SOL     OW18259   1.630   0.031  13.572 -0.0034  0.0106  0.3582
 2267SOL    HW118260   1.550   0.034  13.521 -0.6587 -0.5651  1.3415
 2267SOL    HW218261   1.666   0.112  13.535  0.1849  0.3777  1.3196
 2268SOL     OW18262   1.593   2.052   5.237  0.0218  0.0141 -0.0137
 2268SOL    HW118263   1.645   2.035   5.159 -0.8424  0.4244 -0.6712
 2268SOL    HW218264   1.540   1.972   5.238 -0.5708  0.4105  0.4605
 2269SOL     OW18265   1.545   0.137  13.954  0.3872  0.1057  0.0606
 2269SOL    HW118266   1.604   0.090  14.012 -0.9983 -0.2075  1.2112
 2269SOL    HW218267   1.488   0.193  14.007  0.3394 -0.0343  0.1578
 2270SOL     OW18268   0.001   0.239  13.971 -0.8381 -0.0484  0.5242
 2270SOL    HW118269   0.085   0.281  13.990 -0.2373 -1.9589  2.1847
 2270SOL    HW218270   4.694   0.213  14.058  0.9648 -0.8852  0.9173
 2271SOL     OW18271   4.040   4.705   7.666 -0.0299 -0.1123  0.6498
 2271SOL    HW118272   3.990   4.625   7.651 -1.2329  0.5166  1.3017
 2271SOL    HW218273   4.082   4.679   7.748  2.9554  1.5805 -0.3174
 2272SOL     OW18274   1.378   0.028   5.996 -0.1188 -0.0806 -0.7322
 2272SOL    HW118275   1.282   0.022   6.002 -0.0000  1.8739  2.8264
 2272SOL    HW218276   1.397   0.120   6.015 -1.5823 -0.0474  0.6442
 2273SOL     OW18277   1.571   0.618   7.661  0.0292 -0.2394  0.3290
 2273SOL    HW118278   1.535   0.612   7.573 -0.5318 -1.1421  0.6193
 2273SOL    HW218279   1.499   0.572   7.705 -0.3092  0.2893  0.3276
 2274SOL     OW18280   4.302   1.118   7.074 -0.0968 -0.2747 -0.0805
 2274SOL    HW118281   4.267   1.032   7.097 -1.5770  0.5622  0.8065
 2274SOL    HW218282   4.342   1.089   6.992 -0.5860 -1.8803  0.2567
 2275SOL     OW18283   3.264   3.837   3.058 -0.6550  0.2858 -0.3113
 2275SOL    HW118284   3.207   3.761   3.068 -0.3609 -0.0509 -1.1164
 2275SOL    HW218285   3.221   3.879   2.983  1.2357  2.3044 -0.2668
 2276SOL     OW18286   1.801   0.527   6.297  0.3669  0.5756  0.2530
 2276SOL    HW118287   1.878   0.472   6.312 -1.1583 -1.4640  0.6501
 2276SOL    HW218288   1.790   0.549   6.390 -1.0178 -0.2438  0.2892
 2277SOL     OW18289   4.636   2.753   7.030 -0.2146  0.4321  0.2040
 2277SOL    HW118290   4.624   2.670   7.078  0.2637  1.3376  1.8897
 2277SOL    HW218291   4.554   2.792   7.060 -1.6509  0.3215 -3.5479
 2278SOL     OW18292   1.034   3.108   1.023 -0.4860  0.3439  0.0906
 2278SOL    HW118293   1.086   3.054   0.963 -2.2762 -1.7264  0.3621
 2278SOL    HW218294   0.945   3.099   0.989 -1.1770 -0.9008  2.1610
 2279SOL     OW18295   1.674   1.771  12.556 -0.5404  0.0626 -0.0919
 2279SOL    HW118296   1.709   1.713  12.623 -1.7116 -0.1073  0.3802
 2279SOL    HW218297   1.677   1.851  12.609  1.8013  0.7070 -1.2336
 2280SOL     OW18298   2.025   2.588  10.665  0.6415  0.1771  0.1635
 2280SOL    HW118299   2.062   2.666  10.623 -2.9727  3.0863  2.4298
 2280SOL    HW218300   1.942   2.573  10.620  0.9846 -0.9686 -0.0860
 2281SOL     OW18301   1.279   2.308   1.990  0.2026  0.0297 -0.5795
 2281SOL    HW118302   1.251   2.245   2.056  3.2190  0.6950  1.3157
 2281SOL    HW218303   1.292   2.247   1.918 -0.9549 -0.7313 -0.1548
 2282SOL     OW18304   1.987   0.740  14.608  0.7261  0.3333 -0.2007
 2282SOL    HW118305   1.960   0.665  14.554  2.0246  0.9469 -1.7100
 2282SOL    HW218306   1.910   0.745  14.665  1.9126  3.5982  1.1130
 2283SOL     OW18307   2.025   1.625   4.068 -0.3725  0.4023 -0.2430
 2283SOL    HW118308   2.087   1.688   4.105 -2.2679  3.1711 -1.7615
 2283SOL    HW218309   1.945   1.633   4.120  0.0748 -0.3983  0.5704
 2284SOL     OW18310   2.178   4.233  16.931 -0.1966 -0.5011  0.1668
 2284SOL    HW118311   2.133   4.286  16.866  0.0785  0.4798  0.7787
 2284SOL    HW218312   2.210   4.162  16.875  1.0108  2.6689 -3.1566
 2285SOL     OW18313   2.371   4.061   2.705  0.1759 -0.1740  0.3814
 2285SOL    HW118314   2.347   4.122   2.634 -3.9700 -2.4551 -0.1859
 2285SOL    HW218315   2.395   4.123   2.774 -4.1163 -0.1064  1.8095
 2286SOL     OW18316   2.019   1.607   7.383  0.3211  0.2616  0.3782
 2286SOL    HW118317   2.007   1.516   7.354  1.9962  0.4650 -0.9597
 2286SOL    HW218318   1.933   1.650   7.384 -0.0525 -0.5015  1.4748
 2287SOL     OW18319   0.617   1.207   6.776  0.1863 -0.3203 -0.4821
 2287SOL    HW118320   0.630   1.301   6.786 -0.9313 -0.3136  0.8360
 2287SOL    HW218321   0.703   1.180   6.808 -1.0779 -1.2643  2.0617
 2288SOL     OW18322   2.244   1.364   3.408 -0.0514 -0.0320  0.8744
 2288SOL    HW118323   2.336   1.340   3.397  0.5717  2.5210  0.6637
 2288SOL    HW218324   2.246   1.446   3.359 -0.1716  0.0639  1.0317
 2289SOL     OW18325   4.666   4.014   7.859  0.2952 -0.2965  0.3254
 2289SOL    HW118326   4.667   4.051   7.771  0.2962 -0.4045  0.2799
 2289SOL    HW218327   0.002   3.939   7.851 -1.0986 -1.3383 -0.5026
 2290SOL     OW18328   4.430   0.651   8.681  0.3217  0.3163 -0.9036
 2290SOL    HW118329   4.482   0.571   8.670 -2.6947 -1.7109 -0.1962
 2290SOL    HW218330   4.343   0.614   8.693 -0.5609  2.5450 -0.4529
 2291SOL     OW18331   0.086   3.112   6.871 -0.4805 -0.3786 -0.3882
 2291SOL    HW118332   0.120   3.108   6.960  1.6643 -0.3771 -1.2215
 2291SOL    HW218333   0.159   3.115   6.810 -0.0608  0.7158  0.1504
 2292SOL     OW18334   2.815   3.749   7.485  0.3830  0.1950  0.1567
 2292SOL    HW118335   2.874   3.745   7.409  1.0830 -0.1800  0.7275
 2292SOL    HW218336   2.790   3.841   7.471 -0.0068  0.1414  0.5026
 2293SOL     OW18337   4.345   2.170   1.596  0.3094 -0.1699 -0.0603
 2293SOL    HW118338   4.421   2.189   1.541 -0.7251 -0.8114 -1.7294
 2293SOL    HW218339   4.325   2.082   1.563  0.8168 -0.9402  1.7151
 2294SOL     OW18340   0.211   1.740  16.866 -0.5541  0.1839 -0.2017
 2294SOL    HW118341   0.176   1.744  16.777 -0.6476 -1.4034 -0.2231
 2294SOL    HW218342   0.218   1.646  16.878  0.0843  0.3651  0.7614
 2295SOL     OW18343   3.466   3.968   3.207  0.0327 -0.2125  0.0514
 2295SOL    HW118344   3.406   3.957   3.134 -0.8047  0.4860  0.6259
 2295SOL    HW218345   3.511   4.040   3.163 -1.2127  0.6675  0.1802
 2296SOL     OW18346   4.008   2.211   5.321 -0.0218  0.1129 -0.0596
 2296SOL    HW118347   3.990   2.297   5.359  0.7473  0.3849 -0.3207
 2296SOL    HW218348   3.977   2.161   5.396  1.6737 -0.8720 -0.0311
 2297SOL     OW18349   1.666   4.543  15.365 -0.0040  0.0244  0.1290
 2297SOL    HW118350   1.638   4.513  15.451  2.3982 -1.4300  0.4149
 2297SOL    HW218351   1.721   4.466  15.349 -0.1825 -0.4771  2.0138
 2298SOL     OW18352   4.494   0.506   2.767  0.4984  0.5311  0.8555
 2298SOL    HW118353   4.542   0.588   2.782  2.3222 -0.4575  0.4422
 2298SOL    HW218354   4.479   0.503   2.673  0.7704  0.5577  0.8120
 2299SOL     OW18355   2.192   0.664   9.937  0.1043  0.1169 -0.2093
 2299SOL    HW118356   2.250   0.599   9.977 -0.2598 -1.0009 -1.5051
 2299SOL    HW218357   2.211   0.632   9.848  1.0568  1.0207 -0.3337
 2300SOL     OW18358   4.365   2.248   2.181 -0.2080 -0.1101  0.1706
 2300SOL    HW118359   4.383   2.318   2.119  0.3536  0.6927  1.2293
 2300SOL    HW218360   4.279   2.285   2.202  0.2006  1.6059 -1.2102
 2301SOL     OW18361   0.422   2.541  16.617 -0.1044 -0.2289  0.3715
 2301SOL    HW118362   0.336   2.528  16.657 -1.0057 -0.2251 -1.5571
 2301SOL    HW218363   0.472   2.463  16.639  0.6510 -0.0398 -0.6768
 2302SOL     OW18364   0.018   0.404   8.873  0.2496  0.5069 -0.3238
 2302SOL    HW118365   0.104   0.446   8.877  2.6781 -4.5833  0.4424
 2302SOL    HW218366   0.032   0.311   8.889  4.0929  1.3712  1.2435
 2303SOL     OW18367   4.616   4.265   8.338  0.2326 -0.2098  0.4124
 2303SOL    HW118368   4.594   4.288   8.428  1.1263  1.5393  0.1727
 2303SOL    HW218369   4.711   4.282   8.337 -0.0663  1.1691 -2.5928
 2304SOL     OW18370   0.549   2.543   3.340  0.0090 -0.1558  0.1684
 2304SOL    HW118371   0.605   2.469   3.318  0.8104  0.6194 -0.3948
 2304SOL    HW218372   0.614   2.606   3.311 -1.7006  1.0348 -1.0621
 2305SOL     OW18373   0.969   3.144   3.453  0.2502  0.3231  0.7136
 2305SOL    HW118374   1.023   3.128   3.376  1.3397 -1.1708  1.7771
 2305SOL    HW218375   0.893   3.186   3.413  1.3651 -0.1523 -1.8741
 2306SOL     OW18376   1.835   1.209   6.916  0.0331  0.5572  0.4240
 2306SOL    HW118377   1.778   1.206   6.993 -1.6357 -0.3590 -0.8454
 2306SOL    HW218378   1.774   1.193   6.844  0.7965  2.5154 -0.6596
 2307SOL     OW18379   4.153   3.764  14.247 -0.4058 -0.2215 -0.1932
 2307SOL    HW118380   4.079   3.735  14.300 -0.0474  1.5323  1.2460
 2307SOL    HW218381   4.210   3.702  14.292 -0.0034  0.8126  0.7100
 2308SOL     OW18382   1.436   4.154   4.376 -0.8245  0.2202  0.1006
 2308SOL    HW118383   1.512   4.149   4.318 -0.6571  3.1507  0.0931
 2308SOL    HW218384   1.476   4.177   4.460  0.8637  2.2511 -1.2845
 2309SOL     OW18385   1.904   3.870   7.456 -0.3505 -0.5662  0.6815
 2309SOL    HW118386   1.905   3.887   7.550 -0.8666  3.8146 -0.1186
 2309SOL    HW218387   1.891   3.954   7.411 -1.0108 -1.1128 -0.1639
 2310SOL     OW18388   0.222   3.392   8.742  0.0978 -0.3822 -0.4422
 2310SOL    HW118389   0.155   3.461   8.744  0.1588 -0.3471  0.4402
 2310SOL    HW218390   0.231   3.373   8.836 -0.1394 -1.6624 -0.6720
 2311SOL     OW18391   2.749   2.236   8.709  0.0039 -0.2762  0.5052
 2311SOL    HW118392   2.687   2.297   8.751 -0.7406 -0.3873 -0.4185
 2311SOL    HW218393   2.814   2.230   8.778 -0.0823  0.4632  0.6508
 2312SOL     OW18394   3.825   0.971   4.303  0.1184 -0.0286  0.6933
 2312SOL    HW118395   3.795   0.977   4.394  0.3341 -0.5151  0.7958
 2312SOL    HW218396   3.914   1.007   4.303 -1.6851  4.4638  0.6978
 2313SOL     OW18397   3.625   4.684   8.236  0.0623 -0.3379  0.2827
 2313SOL    HW118398   3.587   4.661   8.151 -1.3940 -0.1703  0.8801
 2313SOL    HW218399   3.719   4.691   8.219  0.3315 -1.4769  1.3118
 2314SOL     OW18400   2.908   0.895   4.940  0.4377 -0.6835  0.2772
 2314SOL    HW118401   2.813   0.893   4.950  0.3979  0.7512  0.1493
 2314SOL    HW218402   2.932   0.920   5.030 -0.6823  0.8204  0.1420
 2315SOL     OW18403   1.483   0.992   2.793 -0.4814  0.0205  0.0883
 2315SOL    HW118404   1.442   1.040   2.722  2.0471  0.8852 -0.7822
 2315SOL    HW218405   1.420   0.994   2.865 -0.2928 -1.6069  0.2911
 2316SOL     OW18406   3.468   3.674  16.375 -0.1991  0.3822  0.3504
 2316SOL    HW118407   3.558   3.688  16.347 -0.2316 -1.1642 -0.5366
 2316SOL    HW218408   3.449   3.589  16.335  2.6654 -0.4122  0.6691
 2317SOL     OW18409   1.708   1.658   4.648 -0.6737  0.8441 -0.0286
 2317SOL    HW118410   1.701   1.576   4.697  2.1910  1.1761  0.9650
 2317SOL    HW218411   1.622   1.696   4.635 -1.1502 -0.6657 -1.3061
 2318SOL     OW18412   2.083   4.485   7.273  0.1762 -0.7631  0.3671
 2318SOL    HW118413   2.037   4.504   7.354  0.2788 -0.9667  0.4709
 2318SOL    HW218414   2.140   4.560   7.254 -0.2678 -0.1890  1.3013
 2319SOL     OW18415   3.356   3.752   6.024  0.4432  0.5240  0.0539
 2319SOL    HW118416   3.274   3.787   5.990 -0.1597  0.5301  1.5227
 2319SOL    HW218417   3.333   3.697   6.099  4.1996 -1.4107 -0.2114
 2320SOL     OW18418   2.117   3.480   8.456  0.0335  0.1041  0.2221
 2320SOL    HW118419   2.072   3.396   8.463  2.4165 -1.2259 -0.2581
 2320SOL    HW218420   2.068   3.535   8.516 -0.7197  0.5395 -0.7801
 2321SOL     OW18421   2.138   3.626   9.736 -0.4726  0.2740  0.9196
 2321SOL    HW118422   2.172   3.631   9.825 -0.1537  0.5556  0.7865
 2321SOL    HW218423   2.216   3.588   9.695 -0.6045 -0.9708  1.8429
 2322SOL     OW18424   0.813   1.018   5.785 -0.0604 -0.2028  0.3172
 2322SOL    HW118425   0.853   1.103   5.763  0.5704 -0.8244 -0.9234
 2322SOL    HW218426   0.721   1.039   5.770  0.0216 -1.0425 -1.3402
 2323SOL     OW18427   0.900   2.081  11.411 -0.0223  0.1759  0.7722
 2323SOL    HW118428   0.891   1.986  11.397 -1.2595  0.1513  1.7481
 2323SOL    HW218429   0.864   2.117  11.330 -2.7398 -2.6111  0.7577
 2324SOL     OW18430   1.900   1.934   4.644 -0.2113 -0.2877  0.5069
 2324SOL    HW118431   1.991   1.962   4.630  0.1340 -1.4045  0.5038
 2324SOL    HW218432   1.891   1.839   4.636  0.7011 -0.3097 -0.2384
 2325SOL     OW18433   3.616   4.367  13.762 -0.3830 -0.0747 -0.4925
 2325SOL    HW118434   3.588   4.457  13.742 -0.0061  0.9498  3.4572
 2325SOL    HW218435   3.708   4.365  13.737 -0.5355  0.8900 -1.1302
 2326SOL     OW18436   2.293   3.997   8.072 -0.2879 -0.6371 -0.3075
 2326SOL    HW118437   2.384   3.990   8.102 -0.1035  1.2546 -0.4374
 2326SOL    HW218438   2.293   3.952   7.987  1.3739 -2.1648  0.4922
 2327SOL     OW18439   3.531   3.374   8.799  0.4683  0.1294 -0.5309
 2327SOL    HW118440   3.604   3.393   8.740 -0.2217  0.0942 -1.3962
 2327SOL    HW218441   3.572   3.312   8.860 -0.3420 -1.2080 -1.3626
 2328SOL     OW18442   1.987   3.889   4.444 -0.0856  0.5232  0.2565
 2328SOL    HW118443   2.021   3.799   4.440 -0.1941  0.5003 -0.1156
 2328SOL    HW218444   1.896   3.862   4.457  0.5360 -2.3965 -1.3436
 2329SOL     OW18445   0.688   4.511   5.545 -0.2065 -0.6978  0.0078
 2329SOL    HW118446   0.704   4.424   5.581 -0.8154 -0.8239 -0.0437
 2329SOL    HW218447   0.613   4.547   5.591 -0.0562 -2.4330  1.5834
 2330SOL     OW18448   3.868   3.889   6.994 -0.1364 -0.0265  0.1778
 2330SOL    HW118449   3.846   3.943   6.918  0.8953 -1.2279 -0.9773
 2330SOL    HW218450   3.947   3.850   6.958  1.7761  2.6286  1.5019
 2331SOL     OW18451   2.262   3.607   6.307  0.1263  0.4900  0.0274
 2331SOL    HW118452   2.202   3.545   6.266  1.1823 -0.3654 -0.2384
 2331SOL    HW218453   2.334   3.547   6.326 -0.1515  1.1914  3.2405
 2332SOL     OW18454   1.158   3.017   5.625  0.1269 -0.5083 -0.0969
 2332SOL    HW118455   1.166   3.025   5.530  0.6313  0.7440  0.0532
 2332SOL    HW218456   1.178   3.106   5.656  1.0070 -0.2109 -1.5168
 2333SOL     OW18457   0.528   1.039   8.985  0.8358  0.4236 -0.5839
 2333SOL    HW118458   0.520   1.073   9.074 -0.6359  0.2097 -0.6269
 2333SOL    HW218459   0.606   0.984   8.986  1.6659  1.5617 -1.8749
 2334SOL     OW18460   2.238   4.127   5.416 -0.3515  0.3385 -0.4152
 2334SOL    HW118461   2.196   4.211   5.434  0.5073  0.3745  1.4858
 2334SOL    HW218462   2.165   4.066   5.410  0.0659 -0.3439  1.4087
 2335SOL     OW18463   4.442   2.883   9.414  0.0997 -0.3796  0.2585
 2335SOL    HW118464   4.503   2.903   9.344  0.3708 -0.8919  0.3422
 2335SOL    HW218465   4.479   2.912   9.497  3.0381 -0.4693 -1.0267
 2336SOL     OW18466   1.217   2.961   4.595 -0.1005 -0.7809  0.0540
 2336SOL    HW118467   1.298   2.914   4.579 -0.0208 -0.6288  0.0103
 2336SOL    HW218468   1.162   2.906   4.539  0.3141 -1.3707  0.2304
 2337SOL     OW18469   0.496   2.691   7.297 -0.1867 -0.6443 -0.6048
 2337SOL    HW118470   0.529   2.624   7.358 -1.9698 -0.4324  0.5790
 2337SOL    HW218471   0.568   2.754   7.304 -2.1797  1.5460  0.1381
 2338SOL     OW18472   3.240   4.170  15.156  0.3891 -0.1778  0.4868
 2338SOL    HW118473   3.335   4.170  15.141  0.5418  0.7492  1.4217
 2338SOL    HW218474   3.225   4.255  15.199  3.1998  0.4353  0.2612
 2339SOL     OW18475   1.448   4.399  11.862  0.7052  0.0498  0.5714
 2339SOL    HW118476   1.396   4.334  11.909 -0.3642 -0.6946 -1.6321
 2339SOL    HW218477   1.451   4.365  11.772 -1.1872 -1.6257  1.1441
 2340SOL     OW18478   4.360   3.285  16.559  0.1161 -0.1061 -0.2458
 2340SOL    HW118479   4.271   3.286  16.594  0.6858 -1.1726  1.2300
 2340SOL    HW218480   4.380   3.208  16.613 -2.7229 -0.3034  0.5095
 2341SOL     OW18481   0.412   0.289   8.490 -0.1984 -0.2635  0.0754
 2341SOL    HW118482   0.398   0.378   8.523  1.2683  0.2786 -0.7323
 2341SOL    HW218483   0.426   0.244   8.573  0.2771  0.7871  0.5667
 2342SOL     OW18484   0.622   0.922  16.089 -0.2458  0.2937  0.1765
 2342SOL    HW118485   0.594   1.013  16.082  1.1116  0.8855  2.5577
 2342SOL    HW218486   0.554   0.879  16.037 -1.0553 -0.0059  1.4685
 2343SOL     OW18487   4.721   0.993   9.212 -0.0887 -0.0677  0.8073
 2343SOL    HW118488   0.038   1.079   9.206 -1.9510  0.9715  3.1729
 2343SOL    HW218489   0.022   0.977   9.303  1.3302 -1.4096  0.1862
 2344SOL     OW18490   1.473   3.205   8.253 -0.4182 -0.4580  0.0641
 2344SOL    HW118491   1.520   3.276   8.297 -1.4725 -1.3851  2.7168
 2344SOL    HW218492   1.472   3.161   8.338  1.0066 -0.7600 -0.0729
 2345SOL     OW18493   2.990   2.037  15.229 -0.6592 -0.1972  0.4362
 2345SOL    HW118494   2.963   2.076  15.312  1.3966 -0.0768  1.0450
 2345SOL    HW218495   2.902   2.019  15.196 -0.3376  1.1479 -1.1600
 2346SOL     OW18496   0.593   1.613  12.966 -0.0270  0.1181 -0.0029
 2346SOL    HW118497   0.505   1.577  12.978  0.4244 -1.2487 -0.8168
 2346SOL    HW218498   0.624   1.597  13.055  2.2239  1.2520 -0.5760
 2347SOL     OW18499   4.494   0.099   8.157 -0.0903 -0.1028  0.3573
 2347SOL    HW118500   4.434   0.166   8.124  0.0168 -0.8921 -1.4642
 2347SOL    HW218501   4.460   0.082   8.245  0.8900  0.3180  0.8191
 2348SOL     OW18502   4.580   3.076   7.130 -0.0441  0.0610 -0.2606
 2348SOL    HW118503   4.569   3.026   7.050 -1.7898 -2.7306  1.7252
 2348SOL    HW218504   4.505   3.047   7.182  0.3290 -1.0193 -0.3277
 2349SOL     OW18505   1.094   2.377   8.399  0.1550 -0.7476  0.3917
 2349SOL    HW118506   1.097   2.422   8.315  1.2348 -0.1243  0.7526
 2349SOL    HW218507   1.057   2.444   8.457 -0.1671 -0.9973  0.4744
 2350SOL     OW18508   4.681   0.852   8.532  0.4746  0.0969  0.5061
 2350SOL    HW118509   4.712   0.809   8.613  0.1106  0.3778  0.7916
 2350SOL    HW218510   4.660   0.941   8.558  2.7852 -0.1605  3.3625
 2351SOL     OW18511   4.613   4.288  14.942 -0.0933  0.5267  0.1713
 2351SOL    HW118512   4.624   4.206  14.896 -0.6701  0.1875  0.6414
 2351SOL    HW218513   4.608   4.352  14.871  1.0021  1.5974  1.0491
 2352SOL     OW18514   4.042   2.404   4.663 -0.1503  0.1235  0.1208
 2352SOL    HW118515   3.993   2.443   4.735 -0.1082  1.5217 -0.6134
 2352SOL    HW218516   4.053   2.315   4.697  0.6877 -0.2615 -1.1319
 2353SOL     OW18517   4.600   1.099   2.659  0.7501  0.8384 -0.1558
 2353SOL    HW118518   4.581   1.165   2.725  1.7453 -1.8553  2.8157
 2353SOL    HW218519   4.557   1.016   2.677  0.4522  1.0116 -0.0629
 2354SOL     OW18520   3.642   3.857   4.638 -0.2782 -0.1117  0.6666
 2354SOL    HW118521   3.557   3.871   4.595  0.3586 -1.1356 -0.9382
 2354SOL    HW218522   3.697   3.850   4.560  0.0806 -0.2267  0.9307
 2355SOL     OW18523   1.783   2.903  11.358 -0.1334 -0.3346 -0.2987
 2355SOL    HW118524   1.833   2.927  11.436  1.5911  1.0044 -1.8106
 2355SOL    HW218525   1.845   2.921  11.288  0.0897  1.2830  0.3142
 2356SOL     OW18526   2.789   0.377  13.415 -0.0848 -0.4486 -0.1494
 2356SOL    HW118527   2.748   0.300  13.376 -2.0290  0.4736  0.0877
 2356SOL    HW218528   2.853   0.331  13.469 -1.2458 -2.4043 -0.4428
 2357SOL     OW18529   0.056   2.075   8.126 -0.7664  0.0280 -0.2299
 2357SOL    HW118530   0.027   2.165   8.113  2.7486  1.0930 -0.8298
 2357SOL    HW218531   0.057   2.068   8.222 -4.2566  1.0615 -0.1067
 2358SOL     OW18532   0.211   4.197   4.281 -0.1224 -0.2584  0.4183
 2358SOL    HW118533   0.232   4.289   4.300 -1.5279 -0.2647  1.9325
 2358SOL    HW218534   0.193   4.203   4.187 -0.9242  0.1821  0.6040
 2359SOL     OW18535   3.006   0.240   3.585 -0.4799  0.6417  0.1206
 2359SOL    HW118536   3.034   0.319   3.630  0.0285  0.6659 -0.2354
 2359SOL    HW218537   3.076   0.177   3.600 -1.3644 -0.3169  0.2697
 2360SOL     OW18538   1.743   2.695   1.386  0.0233  0.3757  0.1948
 2360SOL    HW118539   1.836   2.682   1.404 -0.6720 -1.6277  2.3623
 2360SOL    HW218540   1.719   2.755   1.456 -2.4113  0.5335 -0.7541
 2361SOL     OW18541   3.845   0.258  12.519 -0.0623 -0.4422  0.1953
 2361SOL    HW118542   3.935   0.257  12.553  0.5333 -1.9924 -1.4554
 2361SOL    HW218543   3.830   0.166  12.499 -0.3897 -0.4612  0.5235
 2362SOL     OW18544   0.707   4.059   6.621 -0.1240  0.0535 -0.1445
 2362SOL    HW118545   0.778   4.057   6.685  0.7054  0.1172 -1.0732
 2362SOL    HW218546   0.753   4.016   6.549  0.2403  0.9624 -0.4426
 2363SOL     OW18547   3.449   0.161   8.351  0.1832 -0.3185  0.7772
 2363SOL    HW118548   3.511   0.091   8.335  0.1717  0.1575 -1.3204
 2363SOL    HW218549   3.463   0.183   8.443  0.9287 -0.9454  0.8090
 2364SOL     OW18550   0.231   1.158   6.257  0.4643 -0.3310 -0.4361
 2364SOL    HW118551   0.202   1.195   6.340 -0.6390 -2.0260 -0.0622
 2364SOL    HW218552   0.312   1.204   6.235 -0.2935  1.0275 -0.3597
 2365SOL     OW18553   1.543   3.447   6.340  0.4488  0.1958  0.5675
 2365SOL    HW118554   1.564   3.356   6.317 -1.2883  0.4580 -2.0795
 2365SOL    HW218555   1.507   3.476   6.256  0.8020 -1.4234 -0.1631
 2366SOL     OW18556   1.091   1.127   2.749  0.0648  0.0715 -0.6562
 2366SOL    HW118557   1.171   1.108   2.702  0.9965  0.8137  0.6299
 2366SOL    HW218558   1.021   1.122   2.683 -0.0175 -0.9699 -0.4808
 2367SOL     OW18559   2.662   3.448   5.426 -0.1779  0.0678  0.2423
 2367SOL    HW118560   2.621   3.435   5.340 -1.3632  0.6122  0.7262
 2367SOL    HW218561   2.695   3.360   5.447 -0.0535 -0.8527 -3.7072
 2368SOL     OW18562   2.322   2.584   8.820  0.0380  0.4576 -0.0775
 2368SOL    HW118563   2.375   2.664   8.823 -1.7922  1.7118 -1.1070
 2368SOL    HW218564   2.388   2.515   8.810  1.6000  1.7970  0.8532
 2369SOL     OW18565   1.267   4.254   7.456 -0.2599 -0.4674  0.6787
 2369SOL    HW118566   1.204   4.182   7.450  1.9088 -2.4446  1.8264
 2369SOL    HW218567   1.285   4.264   7.362  2.3897 -2.4133  1.0051
 2370SOL     OW18568   1.162   0.827   2.185  0.8441 -0.2874 -0.4698
 2370SOL    HW118569   1.197   0.746   2.149  2.2643  0.2954 -0.4197
 2370SOL    HW218570   1.180   0.810   2.278  0.2778  0.9542 -0.1200
 2371SOL     OW18571   2.541   2.810  10.195 -0.1162  0.1919 -0.2332
 2371SOL    HW118572   2.472   2.759  10.154 -1.3853  0.6526  1.3452
 2371SOL    HW218573   2.519   2.817  10.288  0.4922  0.1568 -0.0860
 2372SOL     OW18574   1.433   0.136   1.838  0.1714  0.2184  0.5140
 2372SOL    HW118575   1.399   0.170   1.755  0.8323  1.6083  0.7941
 2372SOL    HW218576   1.383   0.056   1.852 -0.6046  0.0218 -3.3466
 2373SOL     OW18577   0.880   4.692   6.806  0.3957  0.0650  0.4130
 2373SOL    HW118578   0.898   4.642   6.726 -1.5098 -0.3699  0.2625
 2373SOL    HW218579   0.854   4.619   6.862  2.0305 -1.2149 -0.5295
 2374SOL     OW18580   4.495   2.581   3.342  0.0095 -0.3512 -0.2099
 2374SOL    HW118581   4.555   2.625   3.402 -1.2516 -1.2775  1.7165
 2374SOL    HW218582   4.431   2.649   3.324  0.9717  1.0624  1.7005
 2375SOL     OW18583   1.102   0.412   7.199 -0.3835  0.1371 -0.4105
 2375SOL    HW118584   1.119   0.341   7.261 -1.8483  0.7515  0.6822
 2375SOL    HW218585   1.157   0.392   7.124 -0.2332  0.0415 -0.2765
 2376SOL     OW18586   4.085   2.490  15.498  0.0317 -0.3955  0.3985
 2376SOL    HW118587   4.163   2.434  15.503  0.1482 -0.2648 -0.0015
 2376SOL    HW218588   4.041   2.443  15.569 -0.5835 -0.7091 -0.2011
 2377SOL     OW18589   1.488   2.181   9.387  0.1242  0.1494 -0.0111
 2377SOL    HW118590   1.538   2.174   9.306 -1.9084  1.0362 -1.3663
 2377SOL    HW218591   1.545   2.225   9.449 -0.2148  2.5296 -1.3718
 2378SOL     OW18592   1.229   4.603  14.745 -0.3088 -0.2065  0.3429
 2378SOL    HW118593   1.319   4.587  14.774 -0.2370  1.3866  0.9564
 2378SOL    HW218594   1.204   4.675  14.803 -1.1560  0.3328 -0.6924
 2379SOL     OW18595   4.692   3.140   8.361  0.0361 -0.5157  0.3014
 2379SOL    HW118596   4.625   3.120   8.426 -1.5313 -1.1905 -1.5604
 2379SOL    HW218597   0.035   3.079   8.394 -0.2896 -1.4867 -0.8435
 2380SOL     OW18598   2.596   0.651   4.148 -0.1093 -0.8933  0.2030
 2380SOL    HW118599   2.639   0.718   4.095 -0.7204 -0.5753  0.1092
 2380SOL    HW218600   2.507   0.659   4.113 -0.0396  1.9826  0.6609
 2381SOL     OW18601   0.340   4.092   9.730  0.1145  0.1187  1.1578
 2381SOL    HW118602   0.388   4.034   9.670 -0.6421  0.4039  0.2677
 2381SOL    HW218603   0.252   4.054   9.728  0.5576 -0.9430  2.1360
 2382SOL     OW18604   0.564   1.464   2.637 -0.0048 -0.5160 -0.1168
 2382SOL    HW118605   0.584   1.530   2.703 -0.2498 -0.1037 -0.4549
 2382SOL    HW218606   0.498   1.504   2.581 -1.1132  0.5851  1.9791
 2383SOL     OW18607   1.984   2.896   4.984 -0.1687 -0.2030  0.6612
 2383SOL    HW118608   1.937   2.822   5.022  0.7675 -1.8185 -1.3770
 2383SOL    HW218609   1.967   2.874   4.892 -0.9189  0.2819  0.6771
 2384SOL     OW18610   2.394   0.815  12.371 -0.3350  0.1804  0.0960
 2384SOL    HW118611   2.421   0.881  12.306 -1.1000  2.2071  1.8325
 2384SOL    HW218612   2.374   0.734  12.325 -0.0125  0.8296 -1.2004
 2385SOL     OW18613   4.650   0.355   3.856  0.8625  0.2965 -0.1697
 2385SOL    HW118614   4.671   0.444   3.884  1.2824  0.7858 -2.0854
 2385SOL    HW218615   4.698   0.340   3.774 -0.8886 -2.7078 -0.6651
 2386SOL     OW18616   3.692   0.151   2.656 -0.1515 -0.1200 -0.2984
 2386SOL    HW118617   3.735   0.066   2.647 -0.6047 -0.3820 -0.0003
 2386SOL    HW218618   3.724   0.182   2.741 -0.5807  0.5469 -0.3726
 2387SOL     OW18619   1.814   3.746  10.564 -0.3615  0.2071 -0.3925
 2387SOL    HW118620   1.740   3.754  10.504 -0.2547  0.9797 -0.4250
 2387SOL    HW218621   1.841   3.661  10.529 -0.9747 -0.8398  1.6843
 2388SOL     OW18622   3.041   2.615   7.172  0.2237  0.7265  0.2651
 2388SOL    HW118623   3.081   2.553   7.112 -1.6263 -0.5521  0.3663
 2388SOL    HW218624   2.965   2.560   7.190  1.9325 -1.5204  0.5534
 2389SOL     OW18625   4.197   2.103   4.788  0.0700 -0.2663  0.3184
 2389SOL    HW118626   4.110   2.108   4.748  0.2998  1.8800  0.0657
 2389SOL    HW218627   4.202   2.008   4.799 -0.5420 -0.4414 -0.8120
 2390SOL     OW18628   1.668   2.838   1.623  0.1090 -0.3230 -0.5536
 2390SOL    HW118629   1.644   2.920   1.666 -0.1067 -0.8748  0.3711
 2390SOL    HW218630   1.610   2.778   1.670  1.3809 -0.2546  1.0924
 2391SOL     OW18631   2.435   1.960   4.930  0.2563  0.3435  0.7877
 2391SOL    HW118632   2.529   1.949   4.942  0.5246 -0.3720 -2.0917
 2391SOL    HW218633   2.426   1.923   4.842  2.9024 -0.5055  0.8548
 2392SOL     OW18634   2.393   1.801   9.029  0.5735  0.1181  0.0238
 2392SOL    HW118635   2.436   1.715   9.031 -0.1741 -0.2342  1.3908
 2392SOL    HW218636   2.428   1.838   9.110 -1.1883  2.5401 -0.3212
 2393SOL     OW18637   3.357   4.295   7.470 -0.2031 -0.5662 -0.2438
 2393SOL    HW118638   3.367   4.306   7.565 -2.6106  2.7182 -0.3803
 2393SOL    HW218639   3.349   4.201   7.458 -1.3285 -0.3558 -1.1036
 2394SOL     OW18640   2.405   3.545   5.894  0.0701  0.5982 -0.5565
 2394SOL    HW118641   2.426   3.519   5.804 -0.5150 -2.0013  0.0499
 2394SOL    HW218642   2.437   3.635   5.885  0.5342  0.5060  0.2009
 2395SOL     OW18643   3.184   3.404   9.898 -0.2147 -0.6272 -0.1360
 2395SOL    HW118644   3.235   3.349   9.838 -0.7448  0.6072 -1.7007
 2395SOL    HW218645   3.103   3.426   9.853 -0.8642 -1.1611  0.7713
 2396SOL     OW18646   1.020   1.939   6.306 -0.8545 -0.3460  0.4748
 2396SOL    HW118647   1.095   1.903   6.355  1.1895  3.1551 -0.0718
 2396SOL    HW218648   0.973   1.857   6.291 -0.4037 -1.0036  2.6007
 2397SOL     OW18649   4.674   3.586   8.408 -0.2372 -0.1450 -0.2688
 2397SOL    HW118650   0.034   3.547   8.432  0.7969  2.2660  0.0066
 2397SOL    HW218651   4.713   3.648   8.346 -0.6297  1.2000  0.8415
 2398SOL     OW18652   3.627   3.635   3.864  0.3750 -0.2950  0.4874
 2398SOL    HW118653   3.602   3.719   3.824  1.8126  0.2473  0.7124
 2398SOL    HW218654   3.654   3.660   3.952 -1.4665  0.2872  0.8890
 2399SOL     OW18655   1.682   3.909   3.514  0.3643  0.7172 -0.0005
 2399SOL    HW118656   1.771   3.939   3.532  0.2281 -0.0469  1.9486
 2399SOL    HW218657   1.710   3.831   3.466 -0.4960 -0.5396  1.5212
 2400SOL     OW18658   3.856   0.372   2.461 -0.1794 -1.3219  0.0143
 2400SOL    HW118659   3.813   0.429   2.524  0.5929  1.1770 -1.7193
 2400SOL    HW218660   3.836   0.418   2.379 -0.7619  0.1563  0.9888
 2401SOL     OW18661   0.715   4.391   2.068 -0.5780 -0.3526 -0.0804
 2401SOL    HW118662   0.642   4.393   2.130 -0.1275  3.3356  0.3737
 2401SOL    HW218663   0.689   4.446   1.993  0.4728 -0.3676 -0.4670
 2402SOL     OW18664   1.507   0.443   2.589  0.0343 -0.4063  0.1893
 2402SOL    HW118665   1.415   0.423   2.606 -0.2953  2.1366  1.2789
 2402SOL    HW218666   1.515   0.530   2.628 -1.4825 -0.4214  0.5597
 2403SOL     OW18667   3.015   4.212  13.060 -0.4645  0.3888 -0.1031
 2403SOL    HW118668   3.026   4.285  13.121 -0.2689  0.0288  0.2887
 2403SOL    HW218669   3.095   4.163  13.076  0.6081  2.3782  0.6609
 2404SOL     OW18670   4.321   1.814   1.800 -0.2286  0.0062  0.1304
 2404SOL    HW118671   4.388   1.745   1.800  0.9554  1.1515 -0.0857
 2404SOL    HW218672   4.366   1.898   1.814 -0.8428 -0.2455  3.5083
 2405SOL     OW18673   0.511   3.134   5.598 -0.1041 -0.4090 -0.0741
 2405SOL    HW118674   0.490   3.070   5.667  0.0412 -0.3869 -0.0106
 2405SOL    HW218675   0.511   3.212   5.653  2.3780 -0.5982  0.1656
 2406SOL     OW18676   3.796   2.997   6.332 -0.2597  0.7187  0.2920
 2406SOL    HW118677   3.869   2.973   6.389 -1.8474 -1.7128  1.3327
 2406SOL    HW218678   3.766   3.070   6.386 -0.1384 -0.4238  1.8977
 2407SOL     OW18679   3.745   2.082  15.174 -0.4345 -0.2319 -0.4210
 2407SOL    HW118680   3.772   2.000  15.134 -0.2212 -1.5121  2.3130
 2407SOL    HW218681   3.707   2.051  15.257 -0.2075 -1.6425 -0.8515
 2408SOL     OW18682   3.411   0.040  11.685  0.1504 -0.0289 -0.3916
 2408SOL    HW118683   3.436   0.035  11.593  0.1733 -0.6549 -0.3562
 2408SOL    HW218684   3.327   0.085  11.676  0.2196 -0.1026 -1.3417
 2409SOL     OW18685   1.235   3.897   7.287  0.4374  0.2039 -0.1477
 2409SOL    HW118686   1.265   3.897   7.378 -0.1063  2.7427  0.0475
 2409SOL    HW218687   1.209   3.989   7.284  1.7093  0.6467  2.4324
 2410SOL     OW18688   2.883   2.773   0.174  0.0004 -0.0123 -0.3667
 2410SOL    HW118689   2.846   2.725   0.100  0.1530  0.0169 -0.4632
 2410SOL    HW218690   2.837   2.856   0.168  0.1049  0.1051  0.5143
 2411SOL     OW18691   0.884   3.637   7.029 -0.0207 -0.1634 -0.2135
 2411SOL    HW118692   0.845   3.630   6.941 -1.6913 -3.6595  0.7867
 2411SOL    HW218693   0.947   3.707   7.013 -1.2163  0.4377 -2.3585
 2412SOL     OW18694   3.642   0.758   4.694 -0.4819 -0.1146 -0.0857
 2412SOL    HW118695   3.704   0.686   4.681  0.7863  1.1913 -1.2673
 2412SOL    HW218696   3.694   0.806   4.758 -1.2879 -2.2872  2.1835
 2413SOL     OW18697   3.526   1.806   2.220  0.1002 -0.0693  0.6546
 2413SOL    HW118698   3.592   1.736   2.220  0.3181  0.1364  0.7345
 2413SOL    HW218699   3.497   1.807   2.129  0.6416  0.6114  0.4860
 2414SOL     OW18700   4.111   3.639   0.066  0.4408 -0.1898 -0.2982
 2414SOL    HW118701   4.154   3.620  17.679  0.8761 -1.2112  0.1549
 2414SOL    HW218702   4.028   3.673   0.033 -0.1243 -3.3750 -2.0838
 2415SOL     OW18703   4.502   1.097   6.172  0.2529  0.0911 -0.4006
 2415SOL    HW118704   4.591   1.103   6.138 -0.2783  0.5090 -1.7275
 2415SOL    HW218705   4.510   1.058   6.259 -2.4452  1.3810  0.4215
 2416SOL     OW18706   1.582   1.159  16.855 -0.5998  0.0834  0.3191
 2416SOL    HW118707   1.563   1.175  16.763 -1.4176  0.3758  0.5394
 2416SOL    HW218708   1.587   1.063  16.851 -3.0602 -0.0341  0.4352
 2417SOL     OW18709   0.426   1.282   7.600 -0.3285 -0.3946 -0.9586
 2417SOL    HW118710   0.517   1.274   7.630 -0.8656  0.1626  0.7980
 2417SOL    HW218711   0.408   1.206   7.543  0.2640 -1.2122 -0.0590
 2418SOL     OW18712   0.433   2.567   0.240  0.4283 -0.5464  0.5343
 2418SOL    HW118713   0.465   2.520   0.162 -0.0883 -1.5064  0.9011
 2418SOL    HW218714   0.447   2.503   0.310 -0.2814 -3.0004 -1.5652
 2419SOL     OW18715   3.874   4.540  15.085 -0.0770 -0.1253  0.5238
 2419SOL    HW118716   3.803   4.479  15.104 -1.5249  1.6201  0.6239
 2419SOL    HW218717   3.949   4.480  15.087  0.9099  1.1231  1.3470
 2420SOL     OW18718   3.553   3.225   2.755 -0.3983  0.2207  0.2338
 2420SOL    HW118719   3.621   3.284   2.722  0.5010 -0.8777  0.1232
 2420SOL    HW218720   3.553   3.154   2.690 -1.6834 -0.4506  0.9610
 2421SOL     OW18721   3.447   4.147   6.440 -0.3645  0.1768  0.0889
 2421SOL    HW118722   3.404   4.077   6.390  0.6764 -0.5314  0.1829
 2421SOL    HW218723   3.537   4.115   6.435 -0.6218 -0.2172 -2.2216
 2422SOL     OW18724   4.183   2.401  11.486 -0.7034  0.0008  0.4359
 2422SOL    HW118725   4.104   2.450  11.465  0.0600  1.5786  1.2707
 2422SOL    HW218726   4.228   2.392  11.402 -1.7411 -2.6098  0.1630
 2423SOL     OW18727   1.850   2.290   4.614  0.6061  0.0555  0.6567
 2423SOL    HW118728   1.838   2.363   4.675  0.8449  1.1698 -0.6296
 2423SOL    HW218729   1.758   2.262   4.618  0.5780 -0.4029 -2.4748
 2424SOL     OW18730   0.365   0.891   2.318 -0.0823 -0.0783 -0.1364
 2424SOL    HW118731   0.278   0.927   2.337 -0.7403 -0.8816 -1.6083
 2424SOL    HW218732   0.383   0.920   2.229  1.5269 -0.6785 -0.0088
 2425SOL     OW18733   1.684   1.899   8.834 -0.0721 -0.1865  0.6198
 2425SOL    HW118734   1.624   1.926   8.904 -0.3712 -1.4842  0.8476
 2425SOL    HW218735   1.641   1.821   8.802 -0.5557 -1.0533  3.4213
 2426SOL     OW18736   1.209   1.184   1.785 -0.3191  0.7927  0.5367
 2426SOL    HW118737   1.304   1.175   1.776 -0.0713  0.6203  3.2128
 2426SOL    HW218738   1.191   1.202   1.693  1.0810  1.8845  0.4799
 2427SOL     OW18739   1.239   0.607   3.175  0.5613  0.5406  0.0649
 2427SOL    HW118740   1.262   0.514   3.170  2.0202  0.7990  2.0265
 2427SOL    HW218741   1.323   0.651   3.179  1.0772 -0.4326  0.0005
 2428SOL     OW18742   2.235   4.672   3.787 -0.0481 -0.5271 -0.9850
 2428SOL    HW118743   2.200   4.585   3.804  0.7412 -0.2482  2.2106
 2428SOL    HW218744   2.216   4.679   3.694  0.3438 -0.7249 -1.0771
 2429SOL     OW18745   2.486   4.125   6.620 -0.5449 -0.2467  0.4396
 2429SOL    HW118746   2.574   4.163   6.623 -0.5816 -0.1179  0.0078
 2429SOL    HW218747   2.444   4.158   6.699 -0.0412  0.0705  0.5708
 2430SOL     OW18748   3.416   1.134   4.035  0.1090  0.1679 -0.1374
 2430SOL    HW118749   3.473   1.211   4.029  0.2199 -0.0573 -1.9995
 2430SOL    HW218750   3.485   1.074   4.007  1.1784  0.9008  0.9565
 2431SOL     OW18751   0.687   4.167   4.895 -0.1278 -0.2184  0.0503
 2431SOL    HW118752   0.660   4.157   4.803 -0.6462  0.1262  0.1644
 2431SOL    HW218753   0.651   4.255   4.908  0.7094  0.2839 -0.9688
 2432SOL     OW18754   0.568   2.586  13.583 -0.6175  0.5263 -0.3108
 2432SOL    HW118755   0.532   2.515  13.529  0.0191 -0.3516  0.4048
 2432SOL    HW218756   0.488   2.635  13.604 -0.6011 -0.2768  1.6561
 2433SOL     OW18757   1.471   4.082   0.743  0.2519 -0.3737  0.1637
 2433SOL    HW118758   1.438   4.167   0.772  1.0267 -0.1913  0.5153
 2433SOL    HW218759   1.437   4.025   0.813 -0.4512 -0.2762 -0.1064
 2434SOL     OW18760   0.223   2.813  11.269  0.1837 -0.1127 -0.3331
 2434SOL    HW118761   0.284   2.881  11.240 -0.0165  0.4299  0.5149
 2434SOL    HW218762   0.200   2.779  11.182 -0.5434  1.2668 -0.6831
 2435SOL     OW18763   1.865   3.359  11.946 -0.1622 -0.3388 -0.1704
 2435SOL    HW118764   1.778   3.398  11.938 -0.3436 -0.3882  1.4988
 2435SOL    HW218765   1.918   3.426  11.990 -0.4456  1.3515 -2.4600
 2436SOL     OW18766   1.933   3.826   1.258 -0.5194 -0.4963 -0.4880
 2436SOL    HW118767   1.896   3.877   1.186 -0.9889  1.0024  0.7911
 2436SOL    HW218768   2.020   3.821   1.219  0.2730 -1.3775  1.4202
 2437SOL     OW18769   2.711   2.757   6.801 -0.0837  0.2382  0.1732
 2437SOL    HW118770   2.674   2.809   6.729  0.9156  1.7245  0.7442
 2437SOL    HW218771   2.729   2.838   6.849  0.3451 -0.1070  0.5924
 2438SOL     OW18772   0.256   4.402   9.513 -0.6510  0.1530 -0.5811
 2438SOL    HW118773   0.200   4.341   9.561  1.5918 -1.0521  0.5088
 2438SOL    HW218774   0.328   4.341   9.498 -0.2578  0.5834 -0.4563
 2439SOL     OW18775   3.412   4.407   3.568 -0.1254 -0.1826  0.1771
 2439SOL    HW118776   3.452   4.467   3.630  0.3312  0.5910 -0.8640
 2439SOL    HW218777   3.484   4.409   3.504  0.9910  1.1229  1.4938
 2440SOL     OW18778   2.884   0.495   4.783  0.5027  0.3368 -0.4716
 2440SOL    HW118779   2.973   0.466   4.763 -0.0887 -1.7888 -0.0463
 2440SOL    HW218780   2.858   0.474   4.873  0.4104  0.3328 -0.4996
 2441SOL     OW18781   4.330   2.605   5.672  0.0874  0.2890  0.0208
 2441SOL    HW118782   4.346   2.575   5.761 -0.1897 -0.7869 -0.2982
 2441SOL    HW218783   4.246   2.649   5.681  2.0238  3.7260  1.6008
 2442SOL     OW18784   3.517   2.729   4.579 -0.4108 -0.6291 -0.0342
 2442SOL    HW118785   3.569   2.649   4.582  2.0528  0.8762 -3.0828
 2442SOL    HW218786   3.456   2.690   4.516 -0.0106 -0.4727 -0.5111
 2443SOL     OW18787   3.714   3.349   1.247 -0.5386  0.1855  0.0344
 2443SOL    HW118788   3.692   3.391   1.330 -0.7010 -1.0054  0.5877
 2443SOL    HW218789   3.767   3.273   1.268  0.5042  1.1009  0.7163
 2444SOL     OW18790   0.163   3.161   9.062 -0.1123 -0.2313 -0.5358
 2444SOL    HW118791   0.107   3.151   9.138 -1.0356 -0.6405 -1.2722
 2444SOL    HW218792   0.133   3.252   9.052 -1.9309 -0.7593  0.2936
 2445SOL     OW18793   1.033   4.521   9.958  0.3680  0.1839  0.7852
 2445SOL    HW118794   0.991   4.445   9.997 -2.2158  0.9333 -0.5414
 2445SOL    HW218795   1.101   4.488   9.898 -1.4221 -3.4660  0.7743
 2446SOL     OW18796   4.492   4.411  15.833 -0.0833  0.3326 -0.4081
 2446SOL    HW118797   4.423   4.437  15.894  1.1530 -2.2798  2.1386
 2446SOL    HW218798   4.504   4.490  15.781  0.2588  0.9924  0.6794
 2447SOL     OW18799   2.570   2.976   5.910  0.2243 -0.2408 -0.3572
 2447SOL    HW118800   2.550   3.004   5.999 -2.1495 -1.4614 -0.5358
 2447SOL    HW218801   2.512   3.034   5.860  0.3152  0.0184 -0.1609
 2448SOL     OW18802   0.636   2.543  13.855  0.1191  0.5956 -0.4141
 2448SOL    HW118803   0.637   2.524  13.761 -0.5503  3.2662 -0.9823
 2448SOL    HW218804   0.543   2.522  13.863  0.0214  0.3314 -2.2718
 2449SOL     OW18805   0.590   1.465   9.057  0.1067  0.0398  0.2093
 2449SOL    HW118806   0.672   1.419   9.074 -0.8979 -1.8662 -0.0789
 2449SOL    HW218807   0.613   1.544   9.008  0.0964  0.9301  1.6413
 2450SOL     OW18808   1.164   2.145  13.747 -0.0277 -0.7999 -0.1638
 2450SOL    HW118809   1.119   2.143  13.832  0.3992  0.2963  0.0850
 2450SOL    HW218810   1.163   2.054  13.720  0.2371 -0.9126  0.1972
 2451SOL     OW18811   1.517   0.961   7.714 -0.2294  0.0164  0.3850
 2451SOL    HW118812   1.437   0.914   7.693  0.8365 -0.6886 -2.1030
 2451SOL    HW218813   1.475   1.041   7.747  0.1826  1.4025 -2.3939
 2452SOL     OW18814   1.466   1.839   5.494 -0.4620  0.2662 -0.1700
 2452SOL    HW118815   1.450   1.824   5.401 -0.4330  0.2925 -0.1792
 2452SOL    HW218816   1.380   1.824   5.533 -0.7459 -1.0749 -1.3531
 2453SOL     OW18817   3.791   3.499   9.009  0.2749 -0.3268 -0.3529
 2453SOL    HW118818   3.758   3.490   9.098  3.8990  0.1016  1.0280
 2453SOL    HW218819   3.766   3.408   8.993 -0.5753 -0.5673  2.4295
 2454SOL     OW18820   1.538   3.849   8.929  0.2635 -0.2260 -0.5205
 2454SOL    HW118821   1.590   3.771   8.945 -0.3962 -0.8265 -1.3118
 2454SOL    HW218822   1.452   3.808   8.919 -0.9645  1.4351  3.0563
 2455SOL     OW18823   3.071   4.065   9.427  0.2686 -0.5953  0.5089
 2455SOL    HW118824   3.127   4.021   9.363 -1.2634  1.0189 -1.9853
 2455SOL    HW218825   3.011   3.990   9.431 -0.3744 -0.0905  0.3098
 2456SOL     OW18826   1.153   1.853   0.014  0.0807  0.0641 -0.8138
 2456SOL    HW118827   1.239   1.828   0.048  0.3191 -0.6756 -1.9533
 2456SOL    HW218828   1.145   1.948   0.028  0.0759 -0.1428  0.5666
 2457SOL     OW18829   3.748   2.363   4.202  0.2506  0.1891  0.3232
 2457SOL    HW118830   3.801   2.442   4.191  0.8760 -0.2488  0.1727
 2457SOL    HW218831   3.805   2.300   4.158 -0.6799 -0.4765  0.0745
 2458SOL     OW18832   4.085   1.551   6.499 -0.3368 -0.2846  0.2875
 2458SOL    HW118833   4.020   1.579   6.434 -0.5898  0.6188  0.9336
 2458SOL    HW218834   4.116   1.633   6.539  0.3239 -0.7264  0.6796
 2459SOL     OW18835   0.935   2.605   8.843 -0.0871 -0.2911  0.1998
 2459SOL    HW118836   0.933   2.561   8.928 -1.5120 -1.0127 -0.1985
 2459SOL    HW218837   0.983   2.686   8.860 -2.5446  1.1832  0.1650
 2460SOL     OW18838   1.344   3.492  17.635 -0.2997  0.1695 -0.1227
 2460SOL    HW118839   1.434   3.513  17.660  0.2825 -2.0521 -0.3142
 2460SOL    HW218840   1.365   3.431  17.564  0.5331 -0.4912  0.6793
 2461SOL     OW18841   4.592   4.687   0.863 -0.3748  0.0864 -0.3491
 2461SOL    HW118842   4.566   4.686   0.771 -0.3997  0.6854 -0.3467
 2461SOL    HW218843   4.518   0.016   0.894  0.5321  1.7170 -0.9388
 2462SOL     OW18844   0.525   3.014   7.514  0.3034  0.2912 -0.7435
 2462SOL    HW118845   0.444   3.063   7.530  1.8774  2.5893  0.3103
 2462SOL    HW218846   0.544   2.985   7.604  0.1655 -1.2075 -1.2009
 2463SOL     OW18847   0.749   0.816   6.747 -0.2947 -0.6307  0.7413
 2463SOL    HW118848   0.662   0.788   6.776 -1.5161  0.5209 -1.7783
 2463SOL    HW218849   0.805   0.769   6.808  2.7263 -1.4875 -2.7420
 2464SOL     OW18850   2.929   0.807   4.433  0.7098  0.3578  0.1246
 2464SOL    HW118851   2.910   0.786   4.525  0.2351 -0.2258 -0.1049
 2464SOL    HW218852   2.965   0.895   4.449 -0.8142  1.2744 -1.4678
 2465SOL     OW18853   1.267   3.694   6.545  0.1227  0.6743  0.4650
 2465SOL    HW118854   1.284   3.601   6.557  0.2325  0.8014  1.2696
 2465SOL    HW218855   1.281   3.709   6.451  1.4305  0.6248  0.6519
 2466SOL     OW18856   1.209   1.809   4.443 -0.4772  0.2058 -0.0324
 2466SOL    HW118857   1.160   1.814   4.362  1.3240 -0.3418 -1.1521
 2466SOL    HW218858   1.152   1.857   4.504  0.6075  0.2400  0.9685
 2467SOL     OW18859   0.784   3.896   6.085  0.0432  0.1121  0.0261
 2467SOL    HW118860   0.727   3.959   6.041 -2.5242 -1.5403  1.0041
 2467SOL    HW218861   0.716   3.852   6.136  1.1117  1.1745  2.3890
 2468SOL     OW18862   2.075   1.855   3.492 -0.1434  0.1095  0.3192
 2468SOL    HW118863   2.060   1.935   3.441 -0.6085  0.3895  0.9060
 2468SOL    HW218864   2.119   1.885   3.571 -0.1946  0.7903  0.0921
 2469SOL     OW18865   3.583   3.732   2.643  0.2199 -0.2217  0.5378
 2469SOL    HW118866   3.527   3.691   2.577  0.8898  0.8931 -0.7158
 2469SOL    HW218867   3.642   3.789   2.594  2.1831 -2.6776  0.0618
 2470SOL     OW18868   2.909   0.617   8.074 -0.3913  0.6919 -0.4548
 2470SOL    HW118869   2.998   0.648   8.056  0.0384  0.1514  0.6955
 2470SOL    HW218870   2.892   0.649   8.163 -0.8851  0.1039 -0.3350
 2471SOL     OW18871   2.819   2.682   2.970 -0.0135 -0.6968 -0.5665
 2471SOL    HW118872   2.881   2.727   3.027  0.7503  0.8509 -2.6033
 2471SOL    HW218873   2.741   2.695   3.023 -1.3885 -0.4059 -2.6649
 2472SOL     OW18874   4.484   0.948  11.998  0.0629  0.0116  0.0111
 2472SOL    HW118875   4.464   1.035  12.033  1.8390  0.7262 -0.7821
 2472SOL    HW218876   4.568   0.958  11.953  0.1382  2.0972  0.6070
 2473SOL     OW18877   1.343   0.970   4.316  0.0174 -0.3886 -0.2180
 2473SOL    HW118878   1.373   1.036   4.253 -2.4706  3.8495  3.0427
 2473SOL    HW218879   1.426   0.924   4.329  0.8734  0.6383 -1.9498
 2474SOL     OW18880   2.610   1.489   8.280  0.5643  0.8877 -0.2497
 2474SOL    HW118881   2.683   1.502   8.341 -0.4765 -2.9190  1.7999
 2474SOL    HW218882   2.567   1.575   8.286 -0.2979  0.6032 -2.4450
 2475SOL     OW18883   0.733   0.498   6.022  0.0619  0.3738 -0.2671
 2475SOL    HW118884   0.678   0.574   6.041 -0.3308  0.0626 -0.1636
 2475SOL    HW218885   0.739   0.496   5.927 -0.0825 -2.2320 -0.2179
 2476SOL     OW18886   1.028   1.939   2.316 -0.2586 -0.1807  0.7253
 2476SOL    HW118887   0.970   1.866   2.297 -1.5525  1.1353 -0.3195
 2476SOL    HW218888   1.061   1.901   2.398  0.8864  0.2098  0.4566
 2477SOL     OW18889   4.109   1.772   7.919 -0.5222  0.4168  0.1525
 2477SOL    HW118890   4.054   1.699   7.949 -0.2466  0.7735  1.5184
 2477SOL    HW218891   4.049   1.812   7.855  0.8313  0.2355 -1.2281
 2478SOL     OW18892   0.182   3.641  11.968 -0.6443  0.3797 -0.2832
 2478SOL    HW118893   0.091   3.661  11.989 -0.6018  0.2873 -0.0120
 2478SOL    HW218894   0.179   3.582  11.892  0.4303 -1.9928  1.5364
 2479SOL     OW18895   1.680   0.248   8.163  0.4494  0.1703 -0.0271
 2479SOL    HW118896   1.699   0.342   8.153  1.3014  0.1293  1.1400
 2479SOL    HW218897   1.723   0.231   8.247 -1.0091 -0.6341  0.5610
 2480SOL     OW18898   0.506   0.614  14.211 -0.1728 -0.0191 -0.0580
 2480SOL    HW118899   0.482   0.524  14.189  1.4315 -0.1717 -1.1366
 2480SOL    HW218900   0.434   0.664  14.172  0.5523  1.1556  0.1091
 2481SOL     OW18901   0.828   0.606   7.764 -0.0590 -0.2117  0.3561
 2481SOL    HW118902   0.851   0.663   7.837  0.9317  1.0340 -0.9455
 2481SOL    HW218903   0.767   0.545   7.805 -0.5416  0.9045  1.3121
 2482SOL     OW18904   2.792   4.277  15.096  1.1577  0.4322 -0.0332
 2482SOL    HW118905   2.754   4.197  15.132  1.1922  0.6101  0.4065
 2482SOL    HW218906   2.802   4.326  15.178 -1.4226  2.6101 -0.9908
 2483SOL     OW18907   3.535   4.534   5.479  0.1871 -0.8552 -0.1157
 2483SOL    HW118908   3.465   4.470   5.464  0.0521 -0.8298  0.3996
 2483SOL    HW218909   3.527   4.550   5.573  0.6899  0.0983 -0.2453
 2484SOL     OW18910   1.487   1.894   1.309  0.5261  0.2721  0.2053
 2484SOL    HW118911   1.430   1.830   1.352  0.7665 -0.9365 -1.2664
 2484SOL    HW218912   1.506   1.864   1.220  2.1181 -1.0987  1.0185
 2485SOL     OW18913   2.088   2.880   4.384 -0.2205  0.4830  0.3575
 2485SOL    HW118914   2.164   2.862   4.440  0.8009  0.9733 -0.8615
 2485SOL    HW218915   2.020   2.821   4.417 -1.1282  2.0016  1.1725
 2486SOL     OW18916   0.854   0.205  12.757 -0.1408 -0.1444 -0.6340
 2486SOL    HW118917   0.796   0.135  12.786  1.2634  0.3865  3.4367
 2486SOL    HW218918   0.907   0.219  12.835 -0.7394 -0.6024 -0.1476
 2487SOL     OW18919   1.708   3.921  11.334  0.3767 -0.1533 -0.1384
 2487SOL    HW118920   1.780   3.942  11.393  0.3714 -1.4328  0.3153
 2487SOL    HW218921   1.723   3.836  11.293  1.5759  0.2906 -0.6193
 2488SOL     OW18922   2.049   2.422  16.310 -0.0993 -0.2523  0.5969
 2488SOL    HW118923   2.052   2.512  16.279  1.5638  0.1522  1.9345
 2488SOL    HW218924   1.965   2.409  16.354 -0.5367  1.3711  0.2152
 2489SOL     OW18925   2.824   4.667  11.608 -0.5009 -0.1008  0.0476
 2489SOL    HW118926   2.845   4.606  11.538  0.2898 -0.3104  0.4669
 2489SOL    HW218927   2.888   0.014  11.600  0.1126 -0.6209  0.4273
 2490SOL     OW18928   1.901   2.826   2.358 -0.4342 -0.2247 -0.1660
 2490SOL    HW118929   1.813   2.806   2.327  1.0895 -1.0017 -3.9802
 2490SOL    HW218930   1.907   2.920   2.340  0.2756 -0.2217  0.0822
 2491SOL     OW18931   2.253   0.407   3.139 -0.2616  0.4230 -0.5411
 2491SOL    HW118932   2.268   0.443   3.051  0.4324  2.4860  0.4286
 2491SOL    HW218933   2.158   0.408   3.143 -0.3775  2.3265 -3.4115
 2492SOL     OW18934   0.194   3.146   4.983 -0.6752  0.0308  0.2023
 2492SOL    HW118935   0.119   3.195   4.952  0.0418  0.6423 -0.5517
 2492SOL    HW218936   0.170   3.144   5.076 -1.5265 -0.9952 -0.0387
 2493SOL     OW18937   0.946   2.237   3.959  0.2093 -0.3613 -0.3401
 2493SOL    HW118938   0.922   2.169   4.021 -0.2555  1.5863  1.5939
 2493SOL    HW218939   1.013   2.287   4.005 -0.7568  0.7661 -0.1591
 2494SOL     OW18940   2.389   4.303   2.006  0.0037  0.1301 -0.0325
 2494SOL    HW118941   2.301   4.336   1.987  0.0618  0.3427  0.0593
 2494SOL    HW218942   2.380   4.231   1.944  3.3469 -0.6800  0.4401
 2495SOL     OW18943   2.351   0.082   1.808  0.4249  0.2164  0.6767
 2495SOL    HW118944   2.311   0.110   1.726  0.1732  0.0494  0.7418
 2495SOL    HW218945   2.275   0.090   1.867 -0.2001  3.0788 -0.5019
 2496SOL     OW18946   0.907   1.549   6.567 -0.1070  0.2331  0.5819
 2496SOL    HW118947   0.852   1.615   6.524 -0.5583  1.1638  2.5601
 2496SOL    HW218948   0.978   1.613   6.572  0.6492 -0.6315  0.8787
 2497SOL     OW18949   1.345   1.908   5.883  0.6709 -0.2770 -0.0418
 2497SOL    HW118950   1.421   1.954   5.918 -2.0040  2.6426  1.9165
 2497SOL    HW218951   1.327   1.849   5.957  0.2332 -0.2657 -0.1422
 2498SOL     OW18952   4.054   2.030  11.593  0.1503  0.4633  0.2322
 2498SOL    HW118953   4.100   2.113  11.605 -1.8810  1.4997  0.7421
 2498SOL    HW218954   3.973   2.053  11.638 -1.3159  0.1867 -2.2379
 2499SOL     OW18955   2.154   4.135   8.429 -0.0636 -0.4347  0.5422
 2499SOL    HW118956   2.220   4.076   8.466 -1.6605 -2.3577  0.2873
 2499SOL    HW218957   2.217   4.207   8.430  0.5158 -0.9075 -1.4208
 2500SOL     OW18958   0.651   2.094   7.487 -0.6943  0.3692 -0.3231
 2500SOL    HW118959   0.669   2.187   7.479 -0.3031  0.3941  0.8999
 2500SOL    HW218960   0.673   2.078   7.579 -1.8683  1.8509  0.2117
 2501SOL     OW18961   1.231   3.702   3.288  0.4026  0.1684 -0.0447
 2501SOL    HW118962   1.325   3.687   3.291  0.2612 -0.5966  0.6782
 2501SOL    HW218963   1.214   3.653   3.207  3.3085 -2.1970  0.7967
 2502SOL     OW18964   2.869   2.462  14.053 -0.0095 -0.8986 -0.2729
 2502SOL    HW118965   2.918   2.400  13.999 -0.0702 -2.1143  1.0863
 2502SOL    HW218966   2.868   2.418  14.137  1.5291  0.0578  0.2634
 2503SOL     OW18967   4.530   1.087   1.160 -0.1967 -0.4716 -0.3759
 2503SOL    HW118968   4.496   1.043   1.083  2.6829  0.0561 -1.9458
 2503SOL    HW218969   4.457   1.115   1.216 -0.3311 -1.0076 -0.2858
 2504SOL     OW18970   1.765   0.487   3.648  0.0012  0.2614  0.1900
 2504SOL    HW118971   1.721   0.514   3.567 -1.5143  0.7672  1.1632
 2504SOL    HW218972   1.856   0.484   3.619 -0.0930 -2.3622  0.2015
 2505SOL     OW18973   1.172   4.602   0.338  0.1952 -0.6047 -0.3127
 2505SOL    HW118974   1.265   4.611   0.319  0.2716 -2.5868 -0.9689
 2505SOL    HW218975   1.166   4.578   0.431  0.5686  2.3628  0.4556
 2506SOL     OW18976   1.775   4.161   5.129  0.2183  0.2929 -0.4243
 2506SOL    HW118977   1.698   4.107   5.144 -0.5208  1.1217 -1.2246
 2506SOL    HW218978   1.795   4.134   5.040  0.4386 -1.0653  0.0404
 2507SOL     OW18979   3.397   3.912   1.801 -0.9771  0.4042 -0.6493
 2507SOL    HW118980   3.467   3.956   1.754  1.8417 -1.4795  1.7763
 2507SOL    HW218981   3.426   3.923   1.891 -0.3910 -0.7152 -0.7015
 2508SOL     OW18982   4.233   0.616   5.672  0.1280  1.1657 -0.1732
 2508SOL    HW118983   4.289   0.578   5.604  1.2071  1.6556  0.4288
 2508SOL    HW218984   4.142   0.622   5.644 -0.4167 -1.0571  1.1203
 2509SOL     OW18985   0.755   0.913   8.951 -0.2517  0.3848  0.1293
 2509SOL    HW118986   0.776   0.907   8.857 -2.1902 -0.9819 -0.2359
 2509SOL    HW218987   0.844   0.909   8.986 -0.7738 -0.7156  1.3330
 2510SOL     OW18988   1.168   1.595   9.970 -0.4082  0.1125 -0.1283
 2510SOL    HW118989   1.207   1.565   9.887  0.7976  1.7033 -0.1487
 2510SOL    HW218990   1.161   1.511  10.015 -0.0661  0.7954  1.1782
 2511SOL     OW18991   2.670   1.478   7.778  0.0108 -0.4130 -0.6100
 2511SOL    HW118992   2.757   1.481   7.817 -0.4667 -2.9223  0.5914
 2511SOL    HW218993   2.625   1.428   7.845 -0.2684 -1.1137 -1.3197
 2512SOL     OW18994   4.049   2.168   3.715 -0.2722 -0.8624  0.6934
 2512SOL    HW118995   4.102   2.197   3.640 -1.6434  1.1784  0.5154
 2512SOL    HW218996   4.027   2.253   3.752  0.1589 -0.1299 -0.7076
 2513SOL     OW18997   1.307   2.047  13.113  0.0518  0.4335 -1.0966
 2513SOL    HW118998   1.281   1.968  13.065 -1.8326 -0.5148  1.5351
 2513SOL    HW218999   1.359   1.993  13.172 -1.7617 -0.4987 -0.3521
 2514SOL     OW19000   1.556   3.220   4.309 -0.2086 -0.2096 -0.0034
 2514SOL    HW119001   1.472   3.185   4.339 -0.1650 -0.6098 -0.3408
 2514SOL    HW219002   1.550   3.220   4.214  2.2181  1.3219 -0.1699
 2515SOL     OW19003   0.177   1.546   6.069 -0.1958 -0.7771  0.0891
 2515SOL    HW119004   0.259   1.581   6.104 -1.5831  0.8173  1.7256
 2515SOL    HW219005   0.123   1.530   6.146 -2.5608 -1.8223 -1.7996
 2516SOL     OW19006   1.038   3.160   6.186  0.2735  0.1109 -0.2888
 2516SOL    HW119007   1.102   3.091   6.200 -1.5096 -1.2679  1.1402
 2516SOL    HW219008   1.102   3.231   6.191  1.2342 -0.7216 -0.8037
 2517SOL     OW19009   4.399   2.571  12.618 -0.4433 -0.4815 -0.2283
 2517SOL    HW119010   4.418   2.511  12.546 -1.1048  0.4204 -1.1576
 2517SOL    HW219011   4.388   2.648  12.562 -2.9846 -1.3432 -0.9336
 2518SOL     OW19012   3.168   3.982   2.839 -0.4179 -0.2491 -0.3260
 2518SOL    HW119013   3.192   3.915   2.774  2.0891  0.5888 -0.2365
 2518SOL    HW219014   3.227   4.052   2.813 -0.6552 -0.4472 -1.4118
 2519SOL     OW19015   3.914   2.861  10.063  0.6766 -0.2249 -0.5091
 2519SOL    HW119016   3.914   2.839   9.970 -0.5457  1.3091 -0.8624
 2519SOL    HW219017   3.821   2.883  10.074  0.5799 -0.9011  0.0481
 2520SOL     OW19018   3.778   2.464   9.308  0.3867 -0.4811  0.3439
 2520SOL    HW119019   3.843   2.507   9.365 -0.0953 -1.8794  1.9619
 2520SOL    HW219020   3.699   2.490   9.354 -0.6595 -0.5309 -1.4416
 2521SOL     OW19021   0.341   2.540  13.807 -0.9563 -0.0825  0.0112
 2521SOL    HW119022   0.315   2.631  13.818 -2.0633 -0.1704 -1.8844
 2521SOL    HW219023   0.270   2.508  13.751 -1.1956  2.0022 -0.8626
 2522SOL     OW19024   3.529   2.453   9.494  0.2820  0.6142  0.0189
 2522SOL    HW119025   3.524   2.359   9.513 -0.9939  0.8513  0.8734
 2522SOL    HW219026   3.436   2.463   9.472  0.1939 -0.8356 -0.2775
 2523SOL     OW19027   2.801   3.159  13.753 -0.0566  0.2063  0.0365
 2523SOL    HW119028   2.748   3.238  13.755 -1.3827 -0.6536 -0.9697
 2523SOL    HW219029   2.748   3.115  13.820 -2.6944  0.1014 -2.0985
 2524SOL     OW19030   4.140   3.925   4.233 -0.0666 -0.3078  0.0218
 2524SOL    HW119031   4.138   4.001   4.174  0.9594  1.8413  2.7723
 2524SOL    HW219032   4.225   3.940   4.274 -0.1456  0.6023 -0.1306
 2525SOL     OW19033   4.684   2.238  13.537  0.2602  0.0586  0.0305
 2525SOL    HW119034   4.590   2.256  13.535 -0.0808 -1.8875 -1.1970
 2525SOL    HW219035   4.690   2.188  13.619 -0.6482  3.1285  1.9579
 2526SOL     OW19036   0.410   4.027   8.100  0.0861 -0.1665  0.5115
 2526SOL    HW119037   0.315   4.037   8.100  0.1796  0.6651  1.1697
 2526SOL    HW219038   0.421   4.113   8.141 -1.6308  0.5025 -0.4425
 2527SOL     OW19039   0.122   1.137  11.286  0.2550 -0.1611 -0.3161
 2527SOL    HW119040   0.069   1.210  11.254 -2.3262 -1.4513  1.0274
 2527SOL    HW219041   0.188   1.180  11.342 -1.5661  1.1376  0.8288
 2528SOL     OW19042   1.436   4.319   1.890 -0.4366 -0.5491 -0.1053
 2528SOL    HW119043   1.378   4.337   1.964 -1.8666  0.4302 -1.4624
 2528SOL    HW219044   1.401   4.232   1.870 -0.8214  0.2173 -2.8535
 2529SOL     OW19045   4.083   0.770   3.107  0.0505  0.4472  0.0285
 2529SOL    HW119046   4.166   0.766   3.154 -0.8710  2.2278  1.7714
 2529SOL    HW219047   4.087   0.858   3.069 -2.6586 -0.4495 -2.4037
 2530SOL     OW19048   4.025   3.113   8.978 -1.3248 -0.1634 -0.3605
 2530SOL    HW119049   4.100   3.095   8.922 -2.0043 -1.3565 -0.8753
 2530SOL    HW219050   3.959   3.062   8.931  0.4848 -0.3869 -2.6770
 2531SOL     OW19051   3.903   0.279   8.688  0.0866 -0.3934  0.6665
 2531SOL    HW119052   3.877   0.245   8.773  0.5775 -2.3703  0.0301
 2531SOL    HW219053   3.822   0.268   8.638  1.2327  0.3831 -1.3694
 2532SOL     OW19054   0.679   4.613   9.010  0.2722  0.0545  1.0030
 2532SOL    HW119055   0.723   4.588   8.928 -2.1796 -3.2554  0.6647
 2532SOL    HW219056   0.595   4.646   8.977  0.8378  0.2502 -0.2716
 2533SOL     OW19057   4.522   4.246   9.556 -0.0160 -0.8633 -0.8808
 2533SOL    HW119058   4.538   4.308   9.484 -0.5716 -1.4282 -1.4959
 2533SOL    HW219059   4.589   4.266   9.621 -0.4701  2.2033 -1.3323
 2534SOL     OW19060   1.669   2.850  16.178  0.0040  0.0694 -0.2906
 2534SOL    HW119061   1.629   2.931  16.208  0.1253 -0.0987  0.3346
 2534SOL    HW219062   1.735   2.885  16.118 -0.4882 -0.1867 -0.9778
 2535SOL     OW19063   3.362   3.950   2.489 -0.3266  0.0433  0.1872
 2535SOL    HW119064   3.398   3.897   2.419 -0.8491  0.3087 -0.2815
 2535SOL    HW219065   3.351   4.034   2.444  2.4459  0.1792 -0.2108
 2536SOL     OW19066   2.686   3.063  10.410  0.0936 -0.0606 -0.2107
 2536SOL    HW119067   2.750   3.009  10.363 -1.5419 -0.5334 -1.8771
 2536SOL    HW219068   2.625   2.995  10.439 -1.2922  1.5465  0.6730
 2537SOL     OW19069   0.944   1.909  10.171  0.0291  0.6911 -0.0067
 2537SOL    HW119070   0.934   1.814  10.176  1.3331  0.4507 -1.9833
 2537SOL    HW219071   1.039   1.915  10.187  0.1117  1.7935 -0.8738
 2538SOL     OW19072   0.137   2.965   9.737 -0.5264 -0.0950 -0.0036
 2538SOL    HW119073   0.086   2.994   9.661 -0.9627 -0.6272  0.0888
 2538SOL    HW219074   0.164   3.052   9.767  0.1759  0.1699 -1.4575
 2539SOL     OW19075   1.829   0.191  14.098 -0.0954  0.3972  0.1215
 2539SOL    HW119076   1.919   0.163  14.118 -0.3591 -2.2919 -2.4834
 2539SOL    HW219077   1.772   0.122  14.132  0.5673  1.2835  3.0338
 2540SOL     OW19078   1.393   1.819   6.155 -0.4953 -0.5419 -0.0363
 2540SOL    HW119079   1.447   1.758   6.205 -0.3641 -0.6442 -0.3012
 2540SOL    HW219080   1.446   1.899   6.160 -1.0625 -0.2232  0.7954
 2541SOL     OW19081   4.305   3.506   6.702  0.0856 -0.4016 -0.2376
 2541SOL    HW119082   4.329   3.548   6.619 -1.4196  1.1544  0.1173
 2541SOL    HW219083   4.242   3.566   6.741  3.1471  2.2960  0.5441
 2542SOL     OW19084   2.104   4.679   2.266 -0.3406 -0.4384 -0.5734
 2542SOL    HW119085   2.095   4.631   2.348 -2.0827 -1.3781 -1.3194
 2542SOL    HW219086   2.028   0.014   2.263 -0.6227 -0.6438  2.3242
 2543SOL     OW19087   2.698   4.039   7.159  0.2018 -0.3393 -0.3675
 2543SOL    HW119088   2.664   4.127   7.142  1.5219  0.1426 -0.5814
 2543SOL    HW219089   2.720   4.043   7.252  1.2964  0.6713 -0.6589
 2544SOL     OW19090   1.386   1.464   8.806 -0.3891 -0.1382 -0.3381
 2544SOL    HW119091   1.326   1.406   8.759 -1.3570  0.4397  0.1639
 2544SOL    HW219092   1.334   1.509   8.873 -1.3656 -1.2944 -0.3242
 2545SOL     OW19093   2.436   1.128   4.551 -0.1269  0.3543  0.1150
 2545SOL    HW119094   2.466   1.044   4.515  1.4854  0.1307  1.9625
 2545SOL    HW219095   2.513   1.184   4.556  1.0144 -1.2261  0.3978
 2546SOL     OW19096   2.813   2.296   7.942  0.2523 -0.5048  0.4585
 2546SOL    HW119097   2.751   2.314   8.013  0.5435 -0.3174  0.6666
 2546SOL    HW219098   2.828   2.387   7.915  2.3671 -1.6414 -2.1863
 2547SOL     OW19099   3.831   3.052   9.301  0.1518 -0.2558 -0.1696
 2547SOL    HW119100   3.886   3.104   9.359 -1.4812  0.1561  1.0019
 2547SOL    HW219101   3.814   3.118   9.234 -1.4602 -0.3869  0.1081
 2548SOL     OW19102   4.408   3.927   3.054  0.3796 -0.1723 -0.2000
 2548SOL    HW119103   4.443   3.957   2.970 -0.2176 -0.4308 -0.5415
 2548SOL    HW219104   4.395   3.834   3.038 -0.0209 -0.8399  4.2021
 2549SOL     OW19105   3.262   1.310  13.295 -0.1248  0.5293  0.4321
 2549SOL    HW119106   3.183   1.358  13.271  0.5673  1.2984 -0.3088
 2549SOL    HW219107   3.324   1.373  13.258 -0.6144 -0.3110 -1.8449
 2550SOL     OW19108   3.565   2.173  13.406 -0.5101  0.1569 -0.5542
 2550SOL    HW119109   3.599   2.120  13.478  0.3823  0.1961 -0.9467
 2550SOL    HW219110   3.553   2.253  13.457  2.0923  0.7192 -0.7968
 2551SOL     OW19111   0.909   4.246  13.605  0.3000  0.1639 -0.1296
 2551SOL    HW119112   0.929   4.339  13.616 -1.0655  0.4092  0.3290
 2551SOL    HW219113   0.843   4.230  13.673 -0.8431 -0.6415 -1.4227
 2552SOL     OW19114   3.776   2.352   0.201 -0.1121  0.6278 -0.0713
 2552SOL    HW119115   3.776   2.445   0.224  1.5119  0.1037  2.0832
 2552SOL    HW219116   3.778   2.308   0.286 -0.3184 -1.7372 -1.2797
 2553SOL     OW19117   2.246   3.535   4.312  0.2728 -0.2663 -0.2866
 2553SOL    HW119118   2.337   3.507   4.323 -0.2225 -1.6434  0.3067
 2553SOL    HW219119   2.209   3.447   4.313  1.1850 -0.6516 -0.3506
 2554SOL     OW19120   2.959   3.967   2.531 -0.0660  0.3744  0.4411
 2554SOL    HW119121   2.945   4.017   2.450  0.3333 -1.9844 -1.0775
 2554SOL    HW219122   2.894   3.897   2.532  0.0986  0.2179  0.2726
 2555SOL     OW19123   0.957   1.469   2.197 -0.4412  0.0658 -0.1261
 2555SOL    HW119124   0.948   1.378   2.224 -0.3635  0.1579  0.2159
 2555SOL    HW219125   1.024   1.459   2.130  0.7780  1.8137  0.8086
 2556SOL     OW19126   4.500   0.139  10.176  0.0702 -0.4079 -0.0209
 2556SOL    HW119127   4.459   0.069  10.125  0.4441  0.6363 -1.7656
 2556SOL    HW219128   4.453   0.111  10.254 -1.7082 -1.8683 -1.6223
 2557SOL     OW19129   3.935   0.722  11.016  0.3349  0.1441 -0.0112
 2557SOL    HW119130   3.913   0.779  11.090  1.2737  1.0766 -0.4491
 2557SOL    HW219131   4.006   0.770  10.973  1.8711 -2.2779 -0.1611
 2558SOL     OW19132   0.829   2.782   0.644 -0.3982 -0.5632  0.3632
 2558SOL    HW119133   0.741   2.800   0.609 -1.0653 -0.0980  2.3230
 2558SOL    HW219134   0.861   2.712   0.587 -0.1603 -0.3651  0.2566
 2559SOL     OW19135   4.452   4.223   3.860  0.1474 -0.6878  0.1061
 2559SOL    HW119136   4.494   4.161   3.801 -0.9769  1.0661 -2.5720
 2559SOL    HW219137   4.364   4.209   3.824 -0.8220 -2.3472  3.1795
 2560SOL     OW19138   1.775   2.534   6.538 -0.3270  0.2548 -0.0003
 2560SOL    HW119139   1.706   2.597   6.519 -0.6734 -0.6467 -1.6977
 2560SOL    HW219140   1.793   2.566   6.626 -1.1223  1.9030 -0.4306
 2561SOL     OW19141   1.750   3.725  12.742  0.6472 -0.0618 -0.0060
 2561SOL    HW119142   1.814   3.749  12.675 -0.7357 -0.0117 -1.2957
 2561SOL    HW219143   1.682   3.668  12.704 -0.0822  1.8195 -1.5006
 2562SOL     OW19144   0.534   0.135  13.879 -0.0778 -0.3224  0.0090
 2562SOL    HW119145   0.494   0.066  13.933 -2.8397  0.5195 -0.9411
 2562SOL    HW219146   0.627   0.114  13.884  0.1807  0.4757 -1.5497
 2563SOL     OW19147   1.107   1.372  10.056  0.1560  0.1976 -0.6058
 2563SOL    HW119148   1.104   1.316  10.134 -0.1044  0.2395 -0.5853
 2563SOL    HW219149   1.050   1.326   9.994  0.3580  1.4826 -1.7193
 2564SOL     OW19150   2.197   1.195   4.540  0.3145  0.2857 -0.0677
 2564SOL    HW119151   2.290   1.185   4.561  0.0907 -0.2116  0.6920
 2564SOL    HW219152   2.157   1.115   4.574  0.0236  0.0982 -0.8494
 2565SOL     OW19153   1.410   4.189   1.428 -0.3014 -0.2882 -0.1022
 2565SOL    HW119154   1.320   4.221   1.434  0.1077  1.2742 -2.1654
 2565SOL    HW219155   1.444   4.203   1.516 -0.6607 -0.1073  0.0065
 2566SOL     OW19156   0.270   0.241   6.267 -0.1822 -0.5419  0.2544
 2566SOL    HW119157   0.280   0.270   6.176  3.2832  1.6842  1.3529
 2566SOL    HW219158   0.325   0.165   6.281  0.1954 -0.1336  0.9726
 2567SOL     OW19159   3.700   0.130   2.205 -0.1975 -0.0609 -0.2644
 2567SOL    HW119160   3.777   0.171   2.166 -1.7343  2.2977 -0.8414
 2567SOL    HW219161   3.633   0.180   2.159  0.3486  1.1649  0.2836
 2568SOL     OW19162   4.667   0.600   9.277  0.5218  0.5442 -0.0008
 2568SOL    HW119163   4.636   0.527   9.224  0.3356  2.0445 -1.9676
 2568SOL    HW219164   4.664   0.560   9.364 -3.4982  0.3582 -0.2454
 2569SOL     OW19165   0.122   4.158   0.772 -0.4280  0.1701 -0.3751
 2569SOL    HW119166   0.049   4.101   0.747  0.3412 -1.7037  1.6208
 2569SOL    HW219167   0.144   4.126   0.860  0.7604  0.5726 -0.5382
 2570SOL     OW19168   1.900   2.856   8.284  0.1794  0.0639  0.1141
 2570SOL    HW119169   1.857   2.942   8.282 -1.1023 -0.6121 -1.3575
 2570SOL    HW219170   1.867   2.835   8.372 -0.1825  1.8284  0.4021
 2571SOL     OW19171   0.944   0.384   2.463  0.4313  0.1193 -0.0592
 2571SOL    HW119172   1.018   0.357   2.408 -0.7673 -2.2671 -0.4518
 2571SOL    HW219173   0.919   0.469   2.426  0.6808 -0.2657 -1.0981
 2572SOL     OW19174   3.367   1.168  14.220 -0.1665 -0.1280 -0.8139
 2572SOL    HW119175   3.348   1.201  14.132  1.6556 -1.8067 -1.8440
 2572SOL    HW219176   3.277   1.144  14.241 -0.5922  0.9590 -1.4192
 2573SOL     OW19177   1.048   1.117   3.938  0.3462  0.1769  0.6849
 2573SOL    HW119178   0.974   1.177   3.944  0.9822  1.0705 -0.4520
 2573SOL    HW219179   0.995   1.039   3.923  1.6822 -0.7965  0.9793
 2574SOL     OW19180   0.171   1.373   2.724  0.2438 -0.5598 -0.1854
 2574SOL    HW119181   0.175   1.462   2.689  1.9018  0.1356  1.8036
 2574SOL    HW219182   0.114   1.331   2.659  0.9436  0.1258 -1.2311
 2575SOL     OW19183   0.945   4.189   8.198 -0.7905  0.4802  0.0790
 2575SOL    HW119184   0.889   4.141   8.258 -0.4427 -0.8292 -0.6518
 2575SOL    HW219185   0.898   4.178   8.116 -2.5722 -0.3377  1.2048
 2576SOL     OW19186   1.559   2.705   7.004  0.0077  0.6326  0.2348
 2576SOL    HW119187   1.505   2.781   7.025  1.4452  0.8773  3.0219
 2576SOL    HW219188   1.501   2.631   7.021  0.3266  0.3820  0.2339
 2577SOL     OW19189   0.497   0.213   1.454 -0.6908  0.2577  0.3689
 2577SOL    HW119190   0.569   0.240   1.511  0.4085 -1.8587 -0.0176
 2577SOL    HW219191   0.524   0.121   1.450 -2.3353 -0.1604 -0.8992
 2578SOL     OW19192   1.596   1.929   0.017  0.2180 -0.0070  0.3566
 2578SOL    HW119193   1.571   2.021   0.006  0.3825 -0.1941 -1.6984
 2578SOL    HW219194   1.691   1.935   0.008  0.2150  0.0861  0.3942
 2579SOL     OW19195   1.529   1.000   4.645 -0.7168 -0.6258  0.0431
 2579SOL    HW119196   1.481   1.080   4.626 -2.2021 -1.2331  1.2366
 2579SOL    HW219197   1.540   0.975   4.553  1.5138  2.9387 -0.6714
 2580SOL     OW19198   0.275   3.293   2.829  0.0605  0.2219 -0.2386
 2580SOL    HW119199   0.246   3.332   2.912  1.2193 -1.1728  0.8098
 2580SOL    HW219200   0.344   3.356   2.812 -0.9656  1.3617 -0.2079
 2581SOL     OW19201   1.846   4.564   1.701  0.2017  0.0646  0.8578
 2581SOL    HW119202   1.889   4.620   1.766  0.0365  1.1224  0.0488
 2581SOL    HW219203   1.769   4.541   1.753 -0.9288 -0.8176 -1.2135
 2582SOL     OW19204   2.612   4.313   7.233  0.4681 -0.6726 -0.4312
 2582SOL    HW119205   2.618   4.402   7.266  1.2835 -0.4709 -1.1122
 2582SOL    HW219206   2.554   4.275   7.299  0.3131 -2.0331 -1.3322
 2583SOL     OW19207   1.033   1.015   7.254 -0.1813 -0.1843 -0.1965
 2583SOL    HW119208   1.117   0.973   7.270 -0.8366 -1.6738 -0.6652
 2583SOL    HW219209   1.015   1.042   7.344  0.6002 -2.1372  0.5339
 2584SOL     OW19210   2.320   4.284   1.626 -0.0260  0.7134 -0.4841
 2584SOL    HW119211   2.369   4.298   1.546  0.6337  0.6277 -0.0972
 2584SOL    HW219212   2.346   4.368   1.663  0.4658  0.4297 -0.1805
 2585SOL     OW19213   0.053   1.212   5.093  0.4519 -0.1305  0.2876
 2585SOL    HW119214   4.723   1.144   5.053  1.2887 -0.9853  0.6143
 2585SOL    HW219215   0.126   1.153   5.109  1.7041  1.5638  0.8928
 2586SOL     OW19216   3.231   2.970   6.164  0.4538 -0.0238  0.0999
 2586SOL    HW119217   3.299   2.926   6.114  0.7055  0.3951  0.0681
 2586SOL    HW219218   3.148   2.930   6.137 -0.8486  0.4487  3.3818
 2587SOL     OW19219   3.421   4.692   2.854  0.2615  0.5453  0.2414
 2587SOL    HW119220   3.488   4.635   2.816  0.0889 -1.0442  2.3137
 2587SOL    HW219221   3.465   0.053   2.858 -1.4534  1.5357 -2.0860
 2588SOL     OW19222   0.712   1.516   5.177 -0.5157 -0.9210  0.1419
 2588SOL    HW119223   0.653   1.574   5.129  1.5308  0.8534 -0.2497
 2588SOL    HW219224   0.657   1.482   5.247 -0.4833  0.1658  0.6989
 2589SOL     OW19225   0.310   2.475   1.714 -0.3715  0.0161 -0.0701
 2589SOL    HW119226   0.255   2.432   1.649 -1.6656  0.0501  0.9905
 2589SOL    HW219227   0.276   2.562   1.692 -1.2176 -0.4142 -0.4703
 2590SOL     OW19228   3.663   2.510   5.048  0.3097 -0.0687 -0.1731
 2590SOL    HW119229   3.606   2.527   5.123 -1.0772  0.2936 -1.2884
 2590SOL    HW219230   3.658   2.581   4.984  0.4349  0.1056  0.0133
 2591SOL     OW19231   0.653   0.435  10.321 -0.5292 -0.2280  0.1598
 2591SOL    HW119232   0.565   0.406  10.347  0.5111 -1.5703  2.1812
 2591SOL    HW219233   0.626   0.527  10.326  0.7133  0.1303  0.2274
 2592SOL     OW19234   4.690   0.616   1.899  0.0402 -0.3469  0.0091
 2592SOL    HW119235   4.617   0.556   1.885 -0.9770  0.3313  2.3501
 2592SOL    HW219236   0.023   0.595   1.825 -2.1306  0.6639 -1.9250
 2593SOL     OW19237   0.881   3.472   7.757 -0.1803 -0.4239  0.4575
 2593SOL    HW119238   0.959   3.525   7.773 -1.3864  1.1470  1.1960
 2593SOL    HW219239   0.890   3.404   7.824 -1.4912  0.9995  2.0936
 2594SOL     OW19240   4.477   1.104   2.398  0.3180  0.2153  1.0712
 2594SOL    HW119241   4.409   1.170   2.412  0.4655  0.9127 -1.5066
 2594SOL    HW219242   4.518   1.103   2.484  0.9780 -0.0171  0.7596
 2595SOL     OW19243   2.339   2.511   4.077  0.4605 -0.5719  0.1409
 2595SOL    HW119244   2.311   2.419   4.080  0.4261 -0.5891 -0.7142
 2595SOL    HW219245   2.253   2.553   4.072 -0.6009 -2.8444 -1.0316
 2596SOL     OW19246   1.605   1.396   3.583 -0.1974 -0.2683  0.3939
 2596SOL    HW119247   1.539   1.345   3.630 -1.1868  1.7888  1.2209
 2596SOL    HW219248   1.566   1.483   3.581  2.9624  1.1868  1.7133
 2597SOL     OW19249   4.366   3.661   5.382  0.2408 -0.0279  0.6604
 2597SOL    HW119250   4.302   3.632   5.317 -1.9903  1.6042  2.1041
 2597SOL    HW219251   4.416   3.720   5.326 -1.9716 -0.8799 -2.1842
 2598SOL     OW19252   3.872   4.312   3.464 -0.3042 -0.0903 -0.0820
 2598SOL    HW119253   3.837   4.255   3.395  0.8341 -0.8237 -0.0562
 2598SOL    HW219254   3.849   4.265   3.544 -0.5154  1.3741  0.7085
 2599SOL     OW19255   1.384   1.435   4.781  0.1017 -0.6720 -0.1222
 2599SOL    HW119256   1.403   1.456   4.872  0.7405 -3.9031  0.4600
 2599SOL    HW219257   1.419   1.503   4.723 -1.1310 -0.8690 -1.1027
 2600SOL     OW19258   1.480   3.094  14.570 -0.5669  0.3249  0.0734
 2600SOL    HW119259   1.535   3.163  14.533 -1.2521  0.5808 -0.4607
 2600SOL    HW219260   1.399   3.111  14.521 -0.9656 -1.1494  0.2078
 2601SOL     OW19261   4.535   1.332   8.151 -0.2106  0.0667  0.0320
 2601SOL    HW119262   4.453   1.304   8.192 -0.7292 -0.7087 -1.5469
 2601SOL    HW219263   4.593   1.310   8.223 -0.6685  0.1504  0.4315
 2602SOL     OW19264   3.867   4.190   0.312 -0.3781  0.3848  0.5159
 2602SOL    HW119265   3.882   4.226   0.399 -2.0968 -1.0702  1.4048
 2602SOL    HW219266   3.809   4.259   0.279 -0.7667 -0.7367 -1.1532
 2603SOL     OW19267   4.078   2.454   3.299 -0.1232  0.8066 -0.2415
 2603SOL    HW119268   4.170   2.447   3.274  0.5176 -0.5514  2.5460
 2603SOL    HW219269   4.053   2.379   3.352 -1.7288  0.9630 -0.7723
 2604SOL     OW19270   0.315   0.853  13.730 -1.0494 -0.3476 -0.2475
 2604SOL    HW119271   0.298   0.761  13.714  1.8870 -1.0764  0.7637
 2604SOL    HW219272   0.228   0.889  13.714  0.3209  2.2438 -2.0016
 2605SOL     OW19273   1.039   0.953   5.972 -0.2347  0.0510 -0.4443
 2605SOL    HW119274   1.062   1.046   5.975 -2.3961  0.5756 -0.8211
 2605SOL    HW219275   0.953   0.961   5.933 -0.7208  1.0114  0.8248
 2606SOL     OW19276   3.931   2.878   5.967  0.3808 -0.5529  0.2420
 2606SOL    HW119277   3.846   2.877   6.011 -0.0051 -0.0921 -0.4855
 2606SOL    HW219278   3.914   2.910   5.878  0.9784 -1.2424 -0.1201
 2607SOL     OW19279   0.918   1.216   5.266  0.2090  0.1482 -0.1385
 2607SOL    HW119280   0.899   1.287   5.327  0.8044  1.6271 -1.6724
 2607SOL    HW219281   0.827   1.195   5.243  0.6349 -0.3379 -1.3724
 2608SOL     OW19282   2.289   4.533   5.673  0.3390 -0.2344 -0.1481
 2608SOL    HW119283   2.347   4.461   5.699  0.5977  0.3101  0.7913
 2608SOL    HW219284   2.328   4.583   5.601 -1.2825 -0.2413 -1.0173
 2609SOL     OW19285   0.320   1.951  17.031 -0.0912 -0.1545  0.0237
 2609SOL    HW119286   0.311   1.866  16.988 -2.1145 -0.0840  0.2893
 2609SOL    HW219287   0.317   2.000  16.948 -0.6846  1.6749  1.1287
 2610SOL     OW19288   2.364   1.361  10.491  0.2274  0.0922 -0.0243
 2610SOL    HW119289   2.360   1.316  10.576 -1.4676  2.6405  1.2624
 2610SOL    HW219290   2.348   1.291  10.429 -0.2634  1.2829 -1.2510
 2611SOL     OW19291   0.588   1.236  10.280 -0.3202  0.8851  0.4549
 2611SOL    HW119292   0.500   1.245  10.245  0.8235  1.4431 -2.2843
 2611SOL    HW219293   0.643   1.276  10.212  0.0420 -0.1114  0.1675
 2612SOL     OW19294   4.075   3.894  17.603  0.0716 -0.0001 -0.1321
 2612SOL    HW119295   3.995   3.913  17.553  0.2085 -1.5150 -0.9516
 2612SOL    HW219296   4.107   3.981  17.627 -1.4314  0.2267  1.0549
 2613SOL     OW19297   3.474   4.338  15.977 -0.2385  0.2715  0.2850
 2613SOL    HW119298   3.424   4.257  15.987  1.2346 -0.4779  1.4901
 2613SOL    HW219299   3.448   4.363  15.889  0.0400  1.7435  0.6272
 2614SOL     OW19300   1.969   2.869  11.154 -0.0651  0.0259  0.4639
 2614SOL    HW119301   1.911   2.917  11.095  0.0995 -0.9180 -0.4775
 2614SOL    HW219302   1.942   2.780  11.128 -1.0083  1.2224 -2.7642
 2615SOL     OW19303   1.214   4.697   7.857 -0.3756 -0.0129  0.2208
 2615SOL    HW119304   1.264   4.617   7.875 -1.2493 -0.2813  1.4716
 2615SOL    HW219305   1.183   4.668   7.772 -2.9576  0.5919  0.9700
 2616SOL     OW19306   0.932   1.076  15.428 -0.1045  0.1320  0.3979
 2616SOL    HW119307   0.876   1.113  15.359  2.1792  1.3107 -0.8232
 2616SOL    HW219308   0.888   0.992  15.440  1.4716 -0.4223  2.1561
 2617SOL     OW19309   2.323   4.353   0.253  0.3526 -0.6877 -0.1559
 2617SOL    HW119310   2.236   4.380   0.281 -0.4715 -2.8124 -0.6373
 2617SOL    HW219311   2.346   4.405   0.176  0.5155  0.7783  0.8859
 2618SOL     OW19312   1.540   0.194   3.170  0.0188  0.4036 -0.0326
 2618SOL    HW119313   1.535   0.103   3.141  1.1673  0.2570  0.2000
 2618SOL    HW219314   1.611   0.206   3.233  2.2700 -2.3741 -2.0160
 2619SOL     OW19315   1.713   3.079   1.304  0.0490  0.1606  0.8527
 2619SOL    HW119316   1.670   3.114   1.382 -1.3283 -0.2077  0.2467
 2619SOL    HW219317   1.734   3.164   1.264  0.6518 -0.2818  0.2180
 2620SOL     OW19318   0.136   2.832   3.619  0.1560  0.4329  0.1550
 2620SOL    HW119319   0.177   2.915   3.643 -0.1846  0.7992 -0.5354
 2620SOL    HW219320   0.138   2.773   3.694 -0.8175 -0.6778 -0.7008
 2621SOL     OW19321   0.469   3.172  16.928  0.1615 -0.4850 -0.0303
 2621SOL    HW119322   0.479   3.255  16.880 -1.3563 -1.9721 -2.9009
 2621SOL    HW219323   0.446   3.118  16.852 -0.2075 -0.3444 -0.0198
 2622SOL     OW19324   4.327   0.051   2.349  0.2308  0.6935 -0.7788
 2622SOL    HW119325   4.414   0.082   2.324  1.6113 -1.3706  1.4678
 2622SOL    HW219326   4.262   0.091   2.291 -0.8539  0.5296  0.2998
 2623SOL     OW19327   1.012   2.452   9.047 -0.1129 -0.1055  0.3849
 2623SOL    HW119328   1.027   2.359   9.064  0.5721  0.1595  1.2082
 2623SOL    HW219329   1.023   2.479   9.138 -0.4829 -1.0331  0.7118
 2624SOL     OW19330   1.687   2.481   8.690  0.1484  0.1962  0.3692
 2624SOL    HW119331   1.634   2.405   8.666 -0.7185  1.2532 -1.0704
 2624SOL    HW219332   1.765   2.457   8.640 -0.8157  2.4646 -2.2861
 2625SOL     OW19333   2.403   4.516   1.747  0.7482 -0.0794  0.3732
 2625SOL    HW119334   2.350   4.536   1.823  1.5716  1.1848  0.6201
 2625SOL    HW219335   2.466   4.588   1.750 -1.7347  2.1014 -0.1951
 2626SOL     OW19336   0.163   2.399   2.964  0.1314  0.6699 -0.1458
 2626SOL    HW119337   0.141   2.361   3.050  0.2073  0.2013 -0.3319
 2626SOL    HW219338   0.071   2.407   2.937 -0.2553 -0.2898  0.8670
 2627SOL     OW19339   3.894   3.593  16.656 -0.2620  0.5053  0.2125
 2627SOL    HW119340   3.985   3.564  16.648 -0.0260  0.9692  1.2040
 2627SOL    HW219341   3.876   3.587  16.750  1.4923  0.8740  0.5652
 2628SOL     OW19342   4.527   2.130  15.420 -0.3090  0.2834  0.2148
 2628SOL    HW119343   4.580   2.079  15.359 -1.9367  0.6145 -1.4864
 2628SOL    HW219344   4.465   2.163  15.354 -0.3320 -1.4611 -0.6364
 2629SOL     OW19345   1.804   1.088   7.244  0.2722 -0.6478 -0.2835
 2629SOL    HW119346   1.807   0.993   7.232 -1.2338 -0.7904  0.5118
 2629SOL    HW219347   1.779   1.102   7.335 -1.9536 -4.4013 -0.3188
 2630SOL     OW19348   1.161   4.313   1.483  0.2919  0.1411 -0.0824
 2630SOL    HW119349   1.099   4.385   1.474  1.7625  1.0092 -3.5968
 2630SOL    HW219350   1.113   4.264   1.549 -0.0753  1.0695  0.3404
 2631SOL     OW19351   3.594   0.841   8.146 -0.4821  0.4249 -0.0891
 2631SOL    HW119352   3.520   0.893   8.113 -2.1093 -2.8381 -1.5182
 2631SOL    HW219353   3.618   0.768   8.089 -1.4449 -0.1872  0.2841
 2632SOL     OW19354   1.415   0.551  11.478  0.4084 -0.0417 -0.3011
 2632SOL    HW119355   1.379   0.586  11.396  3.9934  1.8118 -1.0762
 2632SOL    HW219356   1.370   0.468  11.493  0.7776 -0.2050 -0.1007
 2633SOL     OW19357   4.264   1.772   6.857 -0.2796 -0.7619 -0.1285
 2633SOL    HW119358   4.346   1.791   6.904  0.3163 -2.7249 -0.3610
 2633SOL    HW219359   4.219   1.758   6.940  0.6963 -0.8328  0.3916
 2634SOL     OW19360   1.712   4.056   7.665 -0.0617 -0.0502  0.1312
 2634SOL    HW119361   1.757   4.077   7.583  1.8861  0.1192  1.2595
 2634SOL    HW219362   1.643   4.122   7.675  1.1756  1.3187 -0.3865
 2635SOL     OW19363   0.556   0.977   7.115 -0.1106 -0.0844  0.2530
 2635SOL    HW119364   0.514   1.029   7.047  0.8838 -0.7306 -0.8448
 2635SOL    HW219365   0.633   0.959   7.062 -0.2411  0.3046 -0.0619
 2636SOL     OW19366   3.214   0.834   5.732 -0.6515  0.7057 -0.3423
 2636SOL    HW119367   3.231   0.921   5.768  1.8721 -0.1201  0.4855
 2636SOL    HW219368   3.294   0.782   5.739 -1.1044 -0.3394 -2.9517
 2637SOL     OW19369   1.229   1.115   0.470  0.3634  0.7803  0.2554
 2637SOL    HW119370   1.186   1.170   0.535 -0.8851 -0.7966  0.7324
 2637SOL    HW219371   1.230   1.034   0.520  0.9480 -0.9181 -2.5369
 2638SOL     OW19372   1.940   0.794   5.845  0.2652  0.0229  0.0654
 2638SOL    HW119373   1.981   0.777   5.760 -2.5335  2.0674 -1.6740
 2638SOL    HW219374   1.995   0.747   5.908 -0.8863 -1.4841 -0.0535
 2639SOL     OW19375   3.573   3.223   9.626 -0.0273  0.1951 -0.1329
 2639SOL    HW119376   3.592   3.133   9.652 -0.2731 -0.5091 -2.3501
 2639SOL    HW219377   3.575   3.206   9.532  0.6638  1.6123 -0.3637
 2640SOL     OW19378   2.794   3.581  15.977  0.0469  0.4816 -0.0622
 2640SOL    HW119379   2.833   3.618  15.898  0.2124  1.0244  0.2760
 2640SOL    HW219380   2.761   3.501  15.936  0.8311  0.5138 -0.7689
 2641SOL     OW19381   0.087   2.815  13.635 -0.4093 -0.4066 -0.2240
 2641SOL    HW119382   0.147   2.786  13.565  1.5779  1.7872  0.5913
 2641SOL    HW219383   0.144   2.795  13.709  0.8815  2.2930 -0.4948
 2642SOL     OW19384   3.519   1.477   4.983  0.2307  0.1657 -0.1262
 2642SOL    HW119385   3.475   1.420   4.920  1.2025 -0.2467 -0.4250
 2642SOL    HW219386   3.543   1.555   4.932  0.7131  1.1378  1.5925
 2643SOL     OW19387   4.496   0.246   3.324  0.5348  0.0617  0.3655
 2643SOL    HW119388   4.488   0.158   3.362 -1.2925  0.2728  0.4850
 2643SOL    HW219389   4.589   0.256   3.307  0.5728  0.7613  1.0361
 2644SOL     OW19390   1.264   3.087  10.034 -0.4220 -0.2704 -0.0469
 2644SOL    HW119391   1.210   3.015  10.001 -0.5705 -1.1723  2.1772
 2644SOL    HW219392   1.192   3.149  10.040 -3.0310 -3.0406 -2.8815
 2645SOL     OW19393   2.848   3.945  13.548 -0.2489  0.1269  0.1008
 2645SOL    HW119394   2.882   3.890  13.618 -2.5896 -0.2059  0.9943
 2645SOL    HW219395   2.816   4.022  13.596  1.2581 -0.1104  1.4936
 2646SOL     OW19396   4.663   2.804  13.077  0.3272  0.0090 -0.3427
 2646SOL    HW119397   0.034   2.799  13.066  0.2045 -0.0795 -1.3568
 2646SOL    HW219398   4.650   2.898  13.061 -1.0496 -0.5973 -2.8511
 2647SOL     OW19399   1.213   2.611   4.986 -0.5196  0.1202 -0.3900
 2647SOL    HW119400   1.216   2.520   5.017 -0.8677  0.9605  2.1387
 2647SOL    HW219401   1.224   2.603   4.891  1.7193  1.8927 -0.2882
 2648SOL     OW19402   4.254   1.951   1.473 -0.5254 -0.5268 -0.6466
 2648SOL    HW119403   4.272   1.857   1.462  1.6497 -0.1755  0.0495
 2648SOL    HW219404   4.283   1.979   1.386 -0.1807 -1.8197 -0.9558
 2649SOL     OW19405   1.242   0.859  13.836  0.2092  0.2550 -0.4701
 2649SOL    HW119406   1.218   0.769  13.812  0.4198  0.6223 -2.0394
 2649SOL    HW219407   1.259   0.889  13.747 -0.8470  0.1215 -0.7225
 2650SOL     OW19408   0.680   2.451  17.459 -0.5297  0.4637  0.3122
 2650SOL    HW119409   0.613   2.516  17.436 -1.7365 -0.8184  0.1834
 2650SOL    HW219410   0.632   2.374  17.427  0.0825  0.6476 -1.0614
 2651SOL     OW19411   2.570   4.203   1.020  0.5843  0.5230  0.4254
 2651SOL    HW119412   2.558   4.279   0.962 -0.9711 -0.4171 -0.4649
 2651SOL    HW219413   2.656   4.176   0.989 -0.8339  0.1174 -3.1425
 2652SOL     OW19414   1.285   1.765   8.828 -1.0872  0.1504  0.1297
 2652SOL    HW119415   1.231   1.713   8.768 -1.5979  0.1788  0.5661
 2652SOL    HW219416   1.252   1.854   8.828  2.5626  1.5016 -2.6331
 2653SOL     OW19417   1.605   1.201   5.363 -0.0165  0.4142 -0.3425
 2653SOL    HW119418   1.625   1.222   5.455 -0.9946  0.3903 -0.1297
 2653SOL    HW219419   1.691   1.203   5.321 -1.0643  1.2928 -2.4167
 2654SOL     OW19420   1.277   0.947  16.010 -0.0580 -0.2334  0.4298
 2654SOL    HW119421   1.321   0.863  15.997 -0.3097 -0.0294 -1.7928
 2654SOL    HW219422   1.222   0.943  15.932 -0.4405  2.6961  0.5515
 2655SOL     OW19423   4.128   4.074   3.275 -0.6086  0.1865  0.7957
 2655SOL    HW119424   4.037   4.058   3.301 -0.0822 -2.6577  0.9006
 2655SOL    HW219425   4.172   4.039   3.352  2.3439 -1.9742 -1.9120
 2656SOL     OW19426   3.487   1.505   0.872  0.1849  0.4910  0.9685
 2656SOL    HW119427   3.561   1.444   0.867 -1.1028 -0.8784 -1.4234
 2656SOL    HW219428   3.424   1.442   0.908 -0.4597  1.0989  0.8914
 2657SOL     OW19429   1.620   0.985   4.380  0.2099  0.1384  0.2898
 2657SOL    HW119430   1.710   0.994   4.412 -0.5690  1.1693  2.1716
 2657SOL    HW219431   1.633   1.027   4.295  3.7081 -0.7755  0.3773
 2658SOL     OW19432   2.074   4.506   5.215  0.2555  0.3736 -0.2442
 2658SOL    HW119433   2.051   4.423   5.174 -1.0229  0.9971 -0.8017
 2658SOL    HW219434   2.014   4.503   5.289  1.1721  1.8370  0.5595
 2659SOL     OW19435   1.645   2.645   3.685  0.3691 -0.0966 -0.5831
 2659SOL    HW119436   1.567   2.644   3.628 -0.1668  1.5465  0.1034
 2659SOL    HW219437   1.705   2.703   3.638 -0.1755  0.0904 -1.0607
 2660SOL     OW19438   0.986   1.889  13.128 -0.2712  0.1605  0.3388
 2660SOL    HW119439   0.928   1.858  13.059 -1.6847 -1.0074  2.0369
 2660SOL    HW219440   1.067   1.897  13.076  0.1416  0.1325  0.9729
 2661SOL     OW19441   2.599   3.600   2.750 -0.2046  0.5103 -0.2466
 2661SOL    HW119442   2.643   3.684   2.734  1.2332  0.4252  3.3981
 2661SOL    HW219443   2.657   3.546   2.696  0.8416  0.5180  0.8749
 2662SOL     OW19444   3.575   0.735  13.081  0.1979  0.0880 -0.1267
 2662SOL    HW119445   3.484   0.763  13.067 -0.1409 -0.6191  0.6323
 2662SOL    HW219446   3.563   0.651  13.126  1.7941 -0.9698 -1.7023
 2663SOL     OW19447   0.611   3.534  12.319 -0.0479 -0.0967  0.0216
 2663SOL    HW119448   0.678   3.596  12.288  1.6698 -2.6993 -1.5012
 2663SOL    HW219449   0.574   3.575  12.397  0.1217 -0.1067  0.1078
 2664SOL     OW19450   0.435   0.338  10.441 -0.3163 -0.4032 -0.0992
 2664SOL    HW119451   0.390   0.338  10.525 -2.2135  0.3184 -1.1368
 2664SOL    HW219452   0.446   0.243  10.436  1.2149 -0.2221 -0.2021
 2665SOL     OW19453   3.647   2.083   1.999 -0.4369 -0.2731 -0.2764
 2665SOL    HW119454   3.715   2.042   1.945 -0.3169 -0.3895 -0.0399
 2665SOL    HW219455   3.625   2.157   1.943  1.7424  0.6881  0.1618
 2666SOL     OW19456   0.434   0.370   2.418  0.2407 -0.1432  0.3811
 2666SOL    HW119457   0.428   0.405   2.329 -2.2509 -0.1981  0.5177
 2666SOL    HW219458   0.526   0.391   2.430  0.0987  0.6049  0.1659
 2667SOL     OW19459   4.231   2.317   9.306  0.0523  0.4911 -0.7383
 2667SOL    HW119460   4.282   2.241   9.279 -1.8484 -0.6452 -1.1587
 2667SOL    HW219461   4.307   2.372   9.328  1.1742 -2.0468  1.8269
 2668SOL     OW19462   1.159   2.863   7.242 -0.1643  0.6111 -0.3878
 2668SOL    HW119463   1.144   2.956   7.222  1.3759  0.4967 -2.0525
 2668SOL    HW219464   1.103   2.825   7.174  0.6108 -0.9638 -0.1418
 2669SOL     OW19465   1.692   0.687   5.786 -0.5134  0.4105 -0.5653
 2669SOL    HW119466   1.665   0.710   5.875  0.2159 -1.2673  0.0797
 2669SOL    HW219467   1.780   0.724   5.795  0.2783 -1.7428  0.5077
 2670SOL     OW19468   3.537   3.502  11.742  0.5462 -0.5891  0.6807
 2670SOL    HW119469   3.546   3.456  11.825 -0.5144  0.4051  1.3478
 2670SOL    HW219470   3.544   3.433  11.677  2.5573  0.2131  0.0314
 2671SOL     OW19471   2.966   1.375   7.023 -0.3320  0.0683  0.2561
 2671SOL    HW119472   2.889   1.429   7.042 -0.1444  0.8371 -1.1569
 2671SOL    HW219473   3.022   1.398   7.097 -0.9201  1.0067  0.3998
 2672SOL     OW19474   3.007   4.238   1.838  0.1868  0.2673  0.0546
 2672SOL    HW119475   3.034   4.202   1.922 -1.3309 -0.6763  0.1395
 2672SOL    HW219476   3.075   4.304   1.827 -0.7546  0.8985 -2.0829
 2673SOL     OW19477   1.110   1.110  17.418 -0.0140 -0.2234  0.2482
 2673SOL    HW119478   1.184   1.150  17.464 -0.4928 -5.6937  5.6931
 2673SOL    HW219479   1.090   1.165  17.342 -0.2458 -0.2243  0.3099
 2674SOL     OW19480   4.531   0.841  13.336  0.7941  0.0597 -0.0091
 2674SOL    HW119481   4.470   0.909  13.308  0.1353 -0.5485 -0.0387
 2674SOL    HW219482   4.553   0.795  13.255  1.4903 -2.8381  1.8247
 2675SOL     OW19483   0.814   0.447   4.593  0.1602 -0.0490  0.9515
 2675SOL    HW119484   0.900   0.453   4.551 -0.8375 -2.0087 -1.3166
 2675SOL    HW219485   0.820   0.508   4.667  0.8078  1.3511 -0.2392
 2676SOL     OW19486   0.793   4.337   2.717  0.1613  0.2268  0.2682
 2676SOL    HW119487   0.850   4.342   2.793 -2.0969 -1.9557  2.1529
 2676SOL    HW219488   0.802   4.244   2.694 -0.0200  0.2125  0.2554
 2677SOL     OW19489   1.417   4.621  16.343  0.2214 -0.2411 -0.8484
 2677SOL    HW119490   1.469   4.616  16.263 -1.2308 -0.4832 -1.7870
 2677SOL    HW219491   1.361   4.697  16.324 -1.1629 -1.9979 -3.8292
 2678SOL     OW19492   1.595   0.890   5.138 -0.0780 -0.0241  0.6641
 2678SOL    HW119493   1.527   0.916   5.076 -1.1834 -1.8843  1.0802
 2678SOL    HW219494   1.665   0.953   5.125  2.2413 -2.7344 -0.0396
 2679SOL     OW19495   3.435   3.758   3.608  0.3070 -0.0603 -0.1338
 2679SOL    HW119496   3.469   3.728   3.524 -1.5225  0.6212 -1.0972
 2679SOL    HW219497   3.401   3.844   3.585  0.2371 -0.4408 -1.4337
 2680SOL     OW19498   0.511   0.044   4.894 -0.8954  0.6598  0.3046
 2680SOL    HW119499   0.543   0.131   4.917 -1.0950  0.3217  1.8610
 2680SOL    HW219500   0.512   0.001   4.979  0.1523  2.7804  1.3557
 2681SOL     OW19501   0.952   0.799   1.989  0.3373  0.3828  0.3202
 2681SOL    HW119502   0.975   0.870   1.928  1.2697 -0.6686 -0.5427
 2681SOL    HW219503   1.016   0.806   2.059  0.4661  1.6365  0.0766
 2682SOL     OW19504   1.268   1.970   3.621 -0.1356  0.2487 -0.4700
 2682SOL    HW119505   1.286   2.019   3.702  0.4087 -0.1042 -0.3738
 2682SOL    HW219506   1.223   1.896   3.660 -0.1685 -0.9494 -2.8215
 2683SOL     OW19507   2.353   2.682   6.632 -0.2688 -0.4850 -0.4129
 2683SOL    HW119508   2.312   2.645   6.710  0.0099 -0.1691 -0.1144
 2683SOL    HW219509   2.378   2.607   6.578 -0.3397 -1.7621  1.3425
 2684SOL     OW19510   2.406   2.151  17.298  0.0698  0.4176  0.1611
 2684SOL    HW119511   2.485   2.100  17.285 -0.5132 -0.2006 -1.0015
 2684SOL    HW219512   2.388   2.131  17.389  1.6436  0.1111  0.3959
 2685SOL     OW19513   1.607   0.982  13.499  0.9100 -0.1155 -0.5254
 2685SOL    HW119514   1.517   0.950  13.500  0.7623  0.2661 -1.5346
 2685SOL    HW219515   1.616   0.991  13.404  0.6386 -1.3777 -0.6663
 2686SOL     OW19516   0.560   0.000   2.211  0.1185  0.5157 -0.3167
 2686SOL    HW119517   0.511   4.698   2.289 -1.2448 -0.9686 -1.6520
 2686SOL    HW219518   0.496   0.022   2.143  1.8192  2.9538 -1.1672
 2687SOL     OW19519   3.482   2.545   5.231  0.1917 -0.0388 -0.3989
 2687SOL    HW119520   3.451   2.455   5.240  0.1229  0.3348  3.2960
 2687SOL    HW219521   3.406   2.594   5.261 -1.5985 -2.8478 -0.3418
 2688SOL     OW19522   1.750   0.621   1.112  0.4714 -0.0484  0.1869
 2688SOL    HW119523   1.757   0.590   1.022  0.8978  1.6601 -0.3753
 2688SOL    HW219524   1.666   0.667   1.105  0.6534  0.8148  3.6384
 2689SOL     OW19525   1.985   3.658  17.357 -0.0447  0.4812 -0.7841
 2689SOL    HW119526   1.897   3.633  17.329  0.0588 -0.3886 -0.3377
 2689SOL    HW219527   1.974   3.752  17.372  0.0893  0.4814 -0.6902
 2690SOL     OW19528   1.245   1.818   8.039  0.0855 -0.3444 -0.0521
 2690SOL    HW119529   1.157   1.784   8.047 -1.0317  2.1194 -1.7131
 2690SOL    HW219530   1.269   1.835   8.130 -2.7569  2.2071  0.2065
 2691SOL     OW19531   2.550   1.379   4.904  0.5163  0.3834 -0.0459
 2691SOL    HW119532   2.526   1.368   4.812 -0.1240  0.4894  0.1032
 2691SOL    HW219533   2.461   1.369   4.939  1.6077 -2.6785  1.8841
 2692SOL     OW19534   2.731   0.713   6.689 -0.0705 -0.1088 -0.5009
 2692SOL    HW119535   2.788   0.765   6.633  1.5007  0.5114  1.6829
 2692SOL    HW219536   2.775   0.722   6.774 -0.3144  0.4799 -0.4422
 2693SOL     OW19537   4.513   0.536   6.886 -0.3917  0.2596 -0.3119
 2693SOL    HW119538   4.417   0.536   6.881 -0.3168 -2.4172 -1.8118
 2693SOL    HW219539   4.539   0.503   6.972 -0.0376  1.2500 -0.0438
 2694SOL     OW19540   3.669   1.214  15.201 -0.0333 -0.6255  0.1202
 2694SOL    HW119541   3.603   1.177  15.142  1.1912 -1.5593 -0.6640
 2694SOL    HW219542   3.744   1.223  15.142 -0.8197  1.1475 -0.6148
 2695SOL     OW19543   3.365   2.004   6.456 -0.4595 -0.0434  0.2817
 2695SOL    HW119544   3.282   1.984   6.500 -1.7487 -0.3701 -2.2591
 2695SOL    HW219545   3.413   1.923   6.473 -0.0597 -0.1105 -1.1494
 2696SOL     OW19546   2.321   0.921   4.926  0.5040  0.1394  0.2844
 2696SOL    HW119547   2.285   0.981   4.992  1.5918  1.4323 -0.2802
 2696SOL    HW219548   2.284   0.838   4.953 -1.9510  1.5658  1.2520
 2697SOL     OW19549   1.358   2.829   7.504  0.2611  0.3737 -0.2893
 2697SOL    HW119550   1.436   2.872   7.539  0.1229 -1.2434  2.0194
 2697SOL    HW219551   1.352   2.844   7.410 -0.5128  0.0714 -0.2866
 2698SOL     OW19552   3.899   2.945   7.968 -0.2602  0.0882  0.0762
 2698SOL    HW119553   3.957   2.996   7.912  1.1711 -1.3085  0.2927
 2698SOL    HW219554   3.919   2.991   8.050  0.1491 -0.8533  0.5116
 2699SOL     OW19555   3.139   4.435   7.494 -0.1549  0.1194  0.4904
 2699SOL    HW119556   3.163   4.503   7.430  1.4308 -2.9318 -2.1757
 2699SOL    HW219557   3.218   4.383   7.497  0.3651  0.8348 -0.6133
 2700SOL     OW19558   1.925   0.374   7.094 -0.0055 -0.7612 -0.2877
 2700SOL    HW119559   1.882   0.412   7.017  0.0254 -0.9404 -0.3941
 2700SOL    HW219560   1.854   0.362   7.156 -0.8785  3.0919 -0.5713
 2701SOL     OW19561   0.724   3.565   3.970 -0.0850 -0.6726  0.1455
 2701SOL    HW119562   0.703   3.481   4.011  1.3912 -0.9007  0.4224
 2701SOL    HW219563   0.640   3.609   3.986  1.7982  2.2469  1.8300
 2702SOL     OW19564   3.900   0.622   7.233 -0.1203  0.0933 -0.2916
 2702SOL    HW119565   3.856   0.587   7.310 -1.0987  1.4714 -0.2206
 2702SOL    HW219566   3.989   0.635   7.266 -0.4154  0.2879  0.4241
 2703SOL     OW19567   1.172   1.133  10.540 -0.1540  0.3687 -0.3002
 2703SOL    HW119568   1.107   1.113  10.608 -0.0920 -0.2114 -0.4119
 2703SOL    HW219569   1.184   1.050  10.494 -0.6261 -0.3585  0.8941
 2704SOL     OW19570   3.793   4.440   8.375 -0.1250 -0.0625  0.1358
 2704SOL    HW119571   3.795   4.347   8.397  0.5171 -0.5908 -2.0772
 2704SOL    HW219572   3.711   4.465   8.418  0.7755 -0.6015  2.1583
 2705SOL     OW19573   0.158   2.962   7.795  0.0431  0.6543  0.5127
 2705SOL    HW119574   0.108   3.033   7.834 -1.9341  0.4088 -1.5562
 2705SOL    HW219575   0.236   2.963   7.850  0.6030 -1.3395 -0.2542
 2706SOL     OW19576   2.480   2.562   2.895 -0.1241 -0.1020 -0.0733
 2706SOL    HW119577   2.431   2.515   2.828 -1.9698  0.7491  0.7010
 2706SOL    HW219578   2.457   2.654   2.888  0.1702 -0.0032  0.2563
 2707SOL     OW19579   2.345   3.006   8.833 -0.2253  0.2900 -0.0490
 2707SOL    HW119580   2.403   2.932   8.851  0.1169  0.4315 -0.5608
 2707SOL    HW219581   2.407   3.054   8.779  0.9717 -2.1825 -0.8770
 2708SOL     OW19582   1.304   2.327   0.854 -0.2926 -0.3356  0.1549
 2708SOL    HW119583   1.283   2.417   0.876  1.1043 -0.5626  2.3521
 2708SOL    HW219584   1.228   2.304   0.801  0.2854 -1.2700 -0.2817
 2709SOL     OW19585   3.391   4.480   8.193  0.2284  0.3326  0.0079
 2709SOL    HW119586   3.303   4.516   8.198  0.6766  1.3260  0.7681
 2709SOL    HW219587   3.427   4.524   8.117  0.6685 -1.5497 -0.8876
 2710SOL     OW19588   1.405   1.402   0.987  0.1887 -0.0872 -0.2165
 2710SOL    HW119589   1.480   1.368   1.036  2.1631  3.2127 -0.9634
 2710SOL    HW219590   1.426   1.360   0.904 -0.3737  1.2541 -1.0297
 2711SOL     OW19591   3.901   1.317   4.977  0.4568  0.8767  0.0814
 2711SOL    HW119592   3.969   1.353   4.920  0.0074 -0.8450 -1.5129
 2711SOL    HW219593   3.868   1.406   4.996 -2.2079  0.7702 -3.9765
 2712SOL     OW19594   3.718   3.305   3.021  0.1097  0.7919 -0.5103
 2712SOL    HW119595   3.780   3.362   2.977 -1.2686  0.9530 -2.2816
 2712SOL    HW219596   3.748   3.225   2.977  1.8713  0.7164  0.8546
 2713SOL     OW19597   1.891   1.119   5.561  0.3580  0.6866 -0.4739
 2713SOL    HW119598   1.810   1.162   5.586  0.7916  0.2928  1.5707
 2713SOL    HW219599   1.963   1.161   5.608  0.8361  0.5199 -1.0438
 2714SOL     OW19600   3.053   4.165  15.714  0.3346  0.0226  0.9504
 2714SOL    HW119601   2.986   4.157  15.647 -0.2449  2.3306  1.2530
 2714SOL    HW219602   3.049   4.257  15.740  0.1744  0.1968  0.3123
 2715SOL     OW19603   0.736   0.181   8.724  0.6118 -0.0977  0.0051
 2715SOL    HW119604   0.799   0.203   8.793  0.0471  2.4871 -0.2934
 2715SOL    HW219605   0.653   0.215   8.759 -0.2394 -0.9549 -1.1887
 2716SOL     OW19606   0.274   4.131  13.997  0.1060 -0.3698 -0.0954
 2716SOL    HW119607   0.345   4.088  14.045  1.5531  2.0126 -0.1267
 2716SOL    HW219608   0.272   4.217  14.040 -1.0876 -0.8401  0.8044
 2717SOL     OW19609   3.501   1.269   1.130  0.1179 -0.0249 -0.5586
 2717SOL    HW119610   3.449   1.219   1.192  0.1121  0.3741 -0.2430
 2717SOL    HW219611   3.449   1.257   1.050 -0.8797 -1.0290  0.2432
 2718SOL     OW19612   2.555   4.648   8.225  0.3179 -0.4631  0.6178
 2718SOL    HW119613   2.470   4.607   8.240 -1.1222  0.6414 -4.5397
 2718SOL    HW219614   2.541   4.705   8.149 -2.9555 -2.1578 -0.0683
 2719SOL     OW19615   1.604   3.164   5.474  0.2746 -0.1651  0.4325
 2719SOL    HW119616   1.640   3.113   5.401  1.4384  0.5621  0.4948
 2719SOL    HW219617   1.662   3.240   5.482 -0.9229  0.6750  1.0812
 2720SOL     OW19618   3.307   4.019   7.470  0.4467 -0.2071  0.7107
 2720SOL    HW119619   3.314   4.015   7.566  0.1097 -0.7185  0.7123
 2720SOL    HW219620   3.378   3.956   7.455 -1.3384 -1.7466 -1.2346
 2721SOL     OW19621   3.826   3.410  11.720  0.0888 -0.1717 -0.5602
 2721SOL    HW119622   3.777   3.329  11.707  1.5415 -1.1751  0.2425
 2721SOL    HW219623   3.787   3.441  11.802 -1.9032 -1.3850 -1.0522
 2722SOL     OW19624   4.019   1.152  12.738 -0.3714 -0.0060  0.3753
 2722SOL    HW119625   3.995   1.073  12.786  1.6623 -0.4489  0.6578
 2722SOL    HW219626   4.026   1.113  12.651 -1.1698 -1.0075  0.7517
 2723SOL     OW19627   1.226   4.259   2.295  0.3143 -0.6396 -0.2568
 2723SOL    HW119628   1.274   4.240   2.375  2.2490  0.1203 -1.2485
 2723SOL    HW219629   1.162   4.188   2.300  0.4198 -0.6851  0.5118
 2724SOL     OW19630   1.345   3.600   0.625 -0.1304 -0.0706 -0.2521
 2724SOL    HW119631   1.369   3.533   0.689 -1.5970  0.3792  0.7783
 2724SOL    HW219632   1.299   3.662   0.682 -1.8382 -0.6929 -0.9287
 2725SOL     OW19633   0.056   1.547   6.339  0.2529  0.6120 -0.6891
 2725SOL    HW119634   0.136   1.494   6.343 -0.8661 -0.9160  1.2788
 2725SOL    HW219635   0.059   1.575   6.430  1.5133 -1.3309 -0.1181
 2726SOL     OW19636   4.589   1.024   1.537  0.3049 -0.0418 -0.1158
 2726SOL    HW119637   4.587   0.932   1.509 -0.6087  0.2293 -0.9614
 2726SOL    HW219638   4.570   1.025   1.631 -0.0075 -1.2602 -0.1559
 2727SOL     OW19639   0.977   1.403  11.121 -0.2123 -0.2370  0.0156
 2727SOL    HW119640   0.937   1.318  11.137 -2.8808  1.2290  1.0907
 2727SOL    HW219641   0.932   1.444  11.047 -0.7821 -1.9278 -0.5663
 2728SOL     OW19642   1.286   3.095  12.809 -0.1453 -0.2825 -0.1258
 2728SOL    HW119643   1.379   3.095  12.831  0.1226 -2.2246 -1.1934
 2728SOL    HW219644   1.256   3.150  12.882 -2.5853 -0.2064 -1.1997
 2729SOL     OW19645   4.704   1.067   5.535 -0.2046 -0.4535 -0.2412
 2729SOL    HW119646   4.625   1.116   5.514 -0.5337 -1.8495 -2.2610
 2729SOL    HW219647   4.678   1.041   5.623 -0.2295 -0.7266 -0.3302
 2730SOL     OW19648   4.257   2.448   8.485  0.0414  0.2326 -1.1179
 2730SOL    HW119649   4.253   2.522   8.425  0.4893  0.9518 -0.2624
 2730SOL    HW219650   4.206   2.488   8.556 -0.0790 -0.1518 -0.9880
 2731SOL     OW19651   0.721   4.153   3.722  0.5151 -0.1546  0.3396
 2731SOL    HW119652   0.744   4.097   3.649 -1.6057 -0.8008  0.1830
 2731SOL    HW219653   0.626   4.148   3.727  0.5946 -1.3703  0.5364
 2732SOL     OW19654   0.899   0.351   6.956 -0.1885  0.3502 -0.0840
 2732SOL    HW119655   0.831   0.284   6.961  0.6993 -0.5598 -0.2195
 2732SOL    HW219656   0.939   0.319   7.036 -0.9015 -0.6393 -0.1251
 2733SOL     OW19657   2.484   4.339   4.415  0.3149  0.3360  0.1922
 2733SOL    HW119658   2.407   4.313   4.465  1.6053 -1.5277  1.1978
 2733SOL    HW219659   2.445   4.340   4.328 -0.9387 -0.8735  0.7598
 2734SOL     OW19660   3.224   0.632  12.031 -0.2884 -0.1866  0.0721
 2734SOL    HW119661   3.277   0.561  11.994  2.9708  1.4426  1.6506
 2734SOL    HW219662   3.264   0.643  12.117 -0.4382  3.1612 -0.2703
 2735SOL     OW19663   3.515   0.498   0.056  0.3455  0.5269 -0.1582
 2735SOL    HW119664   3.539   0.522   0.145 -0.2003 -1.1273  0.4310
 2735SOL    HW219665   3.552   0.573   0.010  0.4091 -0.6231 -1.9939
 2736SOL     OW19666   4.666   0.432   7.418 -0.0457  0.5680  0.1585
 2736SOL    HW119667   0.023   0.473   7.448 -0.6405  1.2835  0.7715
 2736SOL    HW219668   4.655   0.366   7.486  1.1383  1.3744  1.1317
 2737SOL     OW19669   1.226   4.345   9.136 -0.2497 -0.0630  0.6737
 2737SOL    HW119670   1.277   4.279   9.184  0.8024 -1.1783 -1.9662
 2737SOL    HW219671   1.239   4.424   9.188  1.0275  0.2093 -0.0585
 2738SOL     OW19672   3.713   0.893   7.231  0.0733 -0.3458 -0.8270
 2738SOL    HW119673   3.677   0.822   7.179 -2.9099 -1.0408  2.1999
 2738SOL    HW219674   3.723   0.850   7.316  1.5135 -1.5449 -1.6250
 2739SOL     OW19675   1.836   3.885   8.822 -0.5153  0.2191  0.4697
 2739SOL    HW119676   1.782   3.908   8.898  0.3439  0.7493  0.9199
 2739SOL    HW219677   1.889   3.812   8.855  0.4018  0.3872 -0.6327
 2740SOL     OW19678   2.476   3.769   5.283  0.0028  0.3041  0.1864
 2740SOL    HW119679   2.539   3.794   5.216 -2.0763  1.4678 -1.3177
 2740SOL    HW219680   2.496   3.831   5.353 -0.5684  2.0931 -1.2491
 2741SOL     OW19681   3.745   4.434   6.107 -0.4730  0.3767  0.3955
 2741SOL    HW119682   3.740   4.418   6.013  0.5977  0.8925  0.2465
 2741SOL    HW219683   3.746   4.342   6.133  1.4800  0.8238  1.9679
 2742SOL     OW19684   4.285   4.241   7.621 -0.1768  0.0399  0.2568
 2742SOL    HW119685   4.192   4.243   7.641 -0.4784  1.7156 -1.2969
 2742SOL    HW219686   4.303   4.207   7.709  0.1347 -0.5892 -0.0505
 2743SOL     OW19687   0.901   0.224   5.106  0.3196 -0.0152 -0.0164
 2743SOL    HW119688   0.908   0.197   5.198 -1.8696  0.9157  0.4344
 2743SOL    HW219689   0.890   0.318   5.119 -1.3154 -0.4673  1.9132
 2744SOL     OW19690   0.948   1.277   9.847  0.0700  0.2654  0.2653
 2744SOL    HW119691   0.900   1.324   9.778 -0.1359  1.6286  1.3353
 2744SOL    HW219692   0.994   1.213   9.792  0.9737  0.0026  1.3334
 2745SOL     OW19693   2.283   0.562   2.891  0.0071  0.7505  0.1475
 2745SOL    HW119694   2.370   0.556   2.852  1.1897  1.5038  2.6837
 2745SOL    HW219695   2.271   0.655   2.908 -0.6407  0.5360  0.8220
 2746SOL     OW19696   2.858   4.095   2.853  0.5848 -0.2721 -0.0854
 2746SOL    HW119697   2.945   4.082   2.890  0.3910 -3.1004 -0.6178
 2746SOL    HW219698   2.830   4.159   2.918 -0.3651 -1.4724  0.6951
 2747SOL     OW19699   0.241   2.646   3.143  0.1741 -0.4890 -0.9023
 2747SOL    HW119700   0.197   2.574   3.187  0.9704 -0.7929 -0.6145
 2747SOL    HW219701   0.242   2.608   3.055 -1.6656  1.5902 -1.8361
 2748SOL     OW19702   0.026   1.514   4.316 -0.4331 -0.3537  0.3317
 2748SOL    HW119703   0.044   1.582   4.250  1.3926  0.3496  1.5490
 2748SOL    HW219704   0.108   1.473   4.344 -0.4346 -2.1059 -2.2086
 2749SOL     OW19705   1.481   0.105  10.225 -0.3265  0.0610 -0.0780
 2749SOL    HW119706   1.535   0.147  10.159 -0.4388  2.6807  1.4888
 2749SOL    HW219707   1.413   0.083  10.161 -1.6746 -0.7885  1.6582
 2750SOL     OW19708   2.916   3.011   7.172 -0.2911 -0.0845 -0.3196
 2750SOL    HW119709   2.990   3.047   7.124  0.3401  0.2420  0.8838
 2750SOL    HW219710   2.944   3.031   7.261 -0.2110 -1.9593  0.0884
 2751SOL     OW19711   2.077   3.760   7.008 -0.0666 -0.0942 -0.1042
 2751SOL    HW119712   2.094   3.815   6.931 -0.1320  1.1090  0.7328
 2751SOL    HW219713   2.110   3.817   7.077 -1.1378 -0.5962  0.8165
 2752SOL     OW19714   4.619   0.346   2.519  0.0138  0.0376 -0.2853
 2752SOL    HW119715   4.693   0.371   2.573 -1.0323  2.7208 -0.0950
 2752SOL    HW219716   4.557   0.417   2.535 -0.9049 -1.2121  1.6418
 2753SOL     OW19717   1.010   0.186   2.623 -0.4547  0.6792 -0.4325
 2753SOL    HW119718   1.002   0.259   2.562 -2.8716  1.8036  1.2097
 2753SOL    HW219719   0.995   0.107   2.571  0.0427 -1.1294  2.2017
 2754SOL     OW19720   1.434   3.198   3.942 -0.1379  0.1601  0.2500
 2754SOL    HW119721   1.429   3.110   3.903 -1.8991  0.0563  0.7045
 2754SOL    HW219722   1.473   3.182   4.028  0.2397 -0.6934 -0.0799
 2755SOL     OW19723   2.899   2.302  13.828  0.2672 -0.1885  0.6714
 2755SOL    HW119724   2.919   2.329  13.739  1.4311 -0.1086  0.9564
 2755SOL    HW219725   2.805   2.285  13.820  0.0203  0.6926  1.6993
 2756SOL     OW19726   0.163   3.684   6.397 -0.0835  0.3418 -0.5483
 2756SOL    HW119727   0.084   3.702   6.448  0.4202 -0.6707  0.5684
 2756SOL    HW219728   0.187   3.599   6.434 -1.6846  0.5687  0.9713
 2757SOL     OW19729   0.673   4.074  10.807 -0.4045 -0.6749  0.2124
 2757SOL    HW119730   0.720   4.032  10.735  0.4101 -2.0012  1.5203
 2757SOL    HW219731   0.586   4.090  10.770 -1.2004 -0.4829  2.1422
 2758SOL     OW19732   0.950   3.768   9.276  0.4278 -0.1687 -0.5754
 2758SOL    HW119733   0.959   3.748   9.369 -2.6136 -0.1618 -0.2829
 2758SOL    HW219734   0.858   3.791   9.272  0.2384 -0.8027  0.2225
 2759SOL     OW19735   2.818   3.703  10.909 -0.1400 -0.0071  0.1341
 2759SOL    HW119736   2.791   3.776  10.964  1.7176  1.0382 -0.3454
 2759SOL    HW219737   2.748   3.640  10.929 -0.7058  0.5289 -0.1969
 2760SOL     OW19738   1.264   2.373  13.966 -0.6639  0.3233  0.4273
 2760SOL    HW119739   1.265   2.466  13.942 -0.3828  0.7952  2.2843
 2760SOL    HW219740   1.183   2.340  13.927  0.3694 -0.1297 -1.3684
 2761SOL     OW19741   0.421   1.913   2.155 -0.4583 -0.1203  0.9640
 2761SOL    HW119742   0.471   1.832   2.168 -2.1467 -1.3224 -0.1951
 2761SOL    HW219743   0.483   1.974   2.197  0.4863  0.8866 -1.9403
 2762SOL     OW19744   1.105   3.662   6.793 -0.0766  0.1995 -0.1570
 2762SOL    HW119745   1.136   3.718   6.864 -0.9908  0.2014  0.2416
 2762SOL    HW219746   1.148   3.703   6.718  1.1389  0.2244  0.5372
 2763SOL     OW19747   1.052   4.307  11.146 -0.0074  0.5025  0.0496
 2763SOL    HW119748   0.987   4.358  11.194  1.0459 -0.1323  2.1358
 2763SOL    HW219749   1.025   4.297  11.054 -0.6943 -0.5339  0.3692
 2764SOL     OW19750   3.736   3.091   3.252 -0.5228  0.0766 -0.5205
 2764SOL    HW119751   3.656   3.082   3.201  0.0241 -0.1162 -1.3385
 2764SOL    HW219752   3.792   3.110   3.176  0.7386  0.0444  0.3882
 2765SOL     OW19753   3.732   1.349  16.359  0.3478  0.1175 -0.0234
 2765SOL    HW119754   3.769   1.415  16.418 -1.1141  0.0418  0.9760
 2765SOL    HW219755   3.815   1.323  16.319 -0.5572 -1.6922 -0.7086
 2766SOL     OW19756   4.107   0.568   7.388  0.7855  0.2996  0.3506
 2766SOL    HW119757   4.186   0.521   7.363  0.8381  0.6476 -0.1297
 2766SOL    HW219758   4.122   0.625   7.463  2.9327  2.4568 -1.7444
 2767SOL     OW19759   0.764   4.253   4.012 -0.1798  0.2138 -0.2453
 2767SOL    HW119760   0.841   4.238   4.066 -0.7432  1.2553  0.8386
 2767SOL    HW219761   0.773   4.179   3.952  1.5138  0.3260 -0.1499
 2768SOL     OW19762   1.945   0.767   6.420  0.4476  0.5243 -0.4239
 2768SOL    HW119763   1.910   0.751   6.332 -1.6759  1.2799  0.2900
 2768SOL    HW219764   1.975   0.682   6.454  0.6235  0.0678 -1.7214
 2769SOL     OW19765   4.260   0.876   2.838  0.2858  0.5921  0.5145
 2769SOL    HW119766   4.304   0.961   2.850 -0.0104  0.6303  1.3330
 2769SOL    HW219767   4.172   0.898   2.809 -0.2409 -0.0464  1.6569
 2770SOL     OW19768   4.515   3.880   0.063  0.1018 -0.1619 -0.5383
 2770SOL    HW119769   4.470   3.935   0.126  2.4203  0.9285  0.1725
 2770SOL    HW219770   4.520   3.941  17.685 -0.2687 -0.3271 -0.7000
 2771SOL     OW19771   3.218   4.629   6.238  0.7526  0.3670  0.4318
 2771SOL    HW119772   3.204   4.643   6.332 -0.3579 -1.3433  0.5374
 2771SOL    HW219773   3.214   4.718   6.205  0.9962 -0.0297 -0.6647
 2772SOL     OW19774   4.253   1.068   6.595  0.7436  0.2235 -0.9344
 2772SOL    HW119775   4.183   1.017   6.635 -1.6044  2.0472 -2.7261
 2772SOL    HW219776   4.207   1.146   6.562  0.3040  0.1618 -0.4700
 2773SOL     OW19777   0.178   3.861   2.893 -0.3995  0.9506 -0.1392
 2773SOL    HW119778   0.169   3.949   2.857 -0.4802  1.0703  0.1654
 2773SOL    HW219779   0.140   3.810   2.822 -0.8438 -0.0203  0.7851
 2774SOL     OW19780   0.460   2.766   4.510 -0.3617  0.6590  0.1351
 2774SOL    HW119781   0.536   2.819   4.485 -0.0240 -0.4002 -1.0651
 2774SOL    HW219782   0.390   2.830   4.525  0.3433  0.9450  2.1910
 2775SOL     OW19783   0.829   3.790   0.272 -0.3642 -0.4346 -0.4453
 2775SOL    HW119784   0.834   3.884   0.254 -0.6970 -0.6131 -1.4740
 2775SOL    HW219785   0.923   3.772   0.281 -0.6194 -2.3654 -1.5995
 2776SOL     OW19786   4.047   1.079  11.225  0.0269  0.7926 -1.3902
 2776SOL    HW119787   4.019   1.067  11.316  1.1749 -0.2350 -1.1604
 2776SOL    HW219788   4.094   1.162  11.236  1.3024 -0.0889 -0.1315
 2777SOL     OW19789   3.925   1.218   5.622  0.7060 -0.1059  0.5720
 2777SOL    HW119790   3.847   1.214   5.567  1.0664  0.3822  0.0255
 2777SOL    HW219791   3.902   1.252   5.708 -2.2122 -0.6357 -0.0162
 2778SOL     OW19792   2.989   0.641   2.106  0.1193  0.7827  0.1321
 2778SOL    HW119793   2.927   0.641   2.033  0.9079 -3.0884 -0.5507
 2778SOL    HW219794   3.045   0.575   2.063  1.4388  2.8225 -1.2566
 2779SOL     OW19795   0.712   2.209   4.594 -1.2010 -0.1950 -0.1132
 2779SOL    HW119796   0.649   2.272   4.559  1.5255  0.9433 -2.9918
 2779SOL    HW219797   0.748   2.249   4.673 -0.5404  0.4649 -0.7432
 2780SOL     OW19798   2.651   1.839   6.312 -0.4504 -0.2145  0.2563
 2780SOL    HW119799   2.627   1.931   6.328 -2.0937 -0.6784  0.4918
 2780SOL    HW219800   2.609   1.808   6.232  0.8859 -1.0743 -0.1179
 2781SOL     OW19801   3.884   3.318   4.282 -0.1479 -0.3574  0.2079
 2781SOL    HW119802   3.806   3.297   4.334  0.9638 -1.1089  1.5544
 2781SOL    HW219803   3.879   3.247   4.217 -1.2801  1.2133 -1.4150
 2782SOL     OW19804   4.371   1.611  17.251  0.0304 -0.0869  0.6143
 2782SOL    HW119805   4.279   1.627  17.228  0.2908 -1.1994 -1.1591
 2782SOL    HW219806   4.380   1.524  17.212  0.8241 -0.1172  0.8701
 2783SOL     OW19807   4.572   0.254   5.338 -0.1085  0.1564 -0.3367
 2783SOL    HW119808   4.649   0.231   5.286 -0.2012 -0.4201 -0.2122
 2783SOL    HW219809   4.549   0.332   5.286 -0.1023  1.4196  1.5511
 2784SOL     OW19810   0.383   0.824   2.581  0.2379  0.3069 -0.1746
 2784SOL    HW119811   0.385   0.913   2.616 -0.9508  0.1036  0.4264
 2784SOL    HW219812   0.384   0.848   2.488  2.8398  2.5965  0.4301
 2785SOL     OW19813   1.352   1.295   5.658 -0.6517  0.3384  0.0125
 2785SOL    HW119814   1.301   1.230   5.610 -1.2523  0.2788  0.7338
 2785SOL    HW219815   1.402   1.237   5.716  0.3607  2.1147  0.9221
 2786SOL     OW19816   4.718   0.617   2.327  0.1069 -0.0969  0.0401
 2786SOL    HW119817   0.031   0.577   2.248  2.1647 -0.0379  0.9832
 2786SOL    HW219818   0.060   0.582   2.386  0.2027 -1.1844 -0.7212
 2787SOL     OW19819   1.227   2.272   5.882  0.0396  0.0906  0.1832
 2787SOL    HW119820   1.212   2.347   5.940  1.1134  0.6348 -0.2311
 2787SOL    HW219821   1.210   2.195   5.936  0.9948 -0.2410  0.0087
 2788SOL     OW19822   2.136   1.535  16.397 -0.4669 -0.3769  0.5427
 2788SOL    HW119823   2.121   1.447  16.433 -1.8195 -0.2379  0.3353
 2788SOL    HW219824   2.173   1.511  16.312 -0.9013 -1.1947  0.5891
 2789SOL     OW19825   4.250   4.244   1.387  0.3169 -0.2774 -0.1026
 2789SOL    HW119826   4.261   4.269   1.479 -1.2268  0.7520 -0.1923
 2789SOL    HW219827   4.342   4.220   1.375  0.2767  0.5811 -2.1154
 2790SOL     OW19828   3.312   4.353  13.729 -0.3067 -0.1916  0.0507
 2790SOL    HW119829   3.245   4.300  13.686 -0.9806 -0.7448  1.7823
 2790SOL    HW219830   3.295   4.439  13.689 -3.2070 -0.1313  1.3763
 2791SOL     OW19831   0.248   3.481   7.321  0.4038  0.2880  0.3802
 2791SOL    HW119832   0.332   3.490   7.365  1.7430 -0.1263 -2.1198
 2791SOL    HW219833   0.242   3.567   7.280 -0.5042 -0.1418 -0.4134
 2792SOL     OW19834   2.729   1.228   3.598  0.2126 -0.3680  0.6063
 2792SOL    HW119835   2.756   1.292   3.532  1.1949  1.0657  2.3937
 2792SOL    HW219836   2.813   1.211   3.641  2.0660  0.9329 -2.5473
 2793SOL     OW19837   3.894   3.025  17.011  0.2310 -0.3866  0.3882
 2793SOL    HW119838   3.890   2.929  17.008  0.3517 -0.3999  0.7079
 2793SOL    HW219839   3.983   3.043  17.039  0.1696  0.1379  0.2422
 2794SOL     OW19840   0.955   2.168   3.044 -0.6318  0.2021 -0.2424
 2794SOL    HW119841   0.865   2.193   3.024 -0.6571 -0.8263 -1.4226
 2794SOL    HW219842   0.931   2.113   3.120  1.1848 -1.9943 -1.2609
 2795SOL     OW19843   4.147   0.917   3.816  0.2153  0.6135 -0.0133
 2795SOL    HW119844   4.115   0.960   3.894  3.6476  0.1371  1.6560
 2795SOL    HW219845   4.127   0.827   3.841 -1.0923 -0.0141 -3.1971
 2796SOL     OW19846   3.033   0.975   3.053 -0.4069  0.1369 -0.3978
 2796SOL    HW119847   3.063   1.034   2.984  0.0786  0.2741 -0.0671
 2796SOL    HW219848   2.966   1.025   3.101  0.2587  0.6986 -0.0468
 2797SOL     OW19849   1.985   2.568  12.602  0.0160 -0.6060 -0.1159
 2797SOL    HW119850   1.919   2.550  12.669  1.0024 -1.2914  0.6742
 2797SOL    HW219851   2.030   2.483  12.599 -0.6908 -0.9792 -0.2818
 2798SOL     OW19852   1.882   3.191   7.268 -0.0139 -0.1469 -0.0461
 2798SOL    HW119853   1.816   3.144   7.318  1.0224 -2.6352 -1.0180
 2798SOL    HW219854   1.852   3.187   7.177 -2.4822  0.6425  0.7369
 2799SOL     OW19855   2.759   1.225   6.141  0.0325  0.8136 -0.3109
 2799SOL    HW119856   2.692   1.190   6.200  0.8221  0.7678  0.5477
 2799SOL    HW219857   2.756   1.316   6.169  0.6493  0.1448  1.9382
 2800SOL     OW19858   3.580   1.088   2.854 -0.0355 -0.1558 -0.4829
 2800SOL    HW119859   3.629   1.040   2.787  2.4110  0.8360  0.6001
 2800SOL    HW219860   3.539   1.018   2.905 -1.1352 -0.3951 -1.6836
 2801SOL     OW19861   4.072   3.486   4.640  0.0852  0.0650  0.1678
 2801SOL    HW119862   4.009   3.547   4.602 -1.6595 -2.3360 -0.8193
 2801SOL    HW219863   4.016   3.420   4.681 -0.0334  0.9003  1.3300
 2802SOL     OW19864   2.909   3.379   2.366  0.6385  0.5666  0.1348
 2802SOL    HW119865   2.876   3.421   2.287 -0.9157 -0.6805  0.1276
 2802SOL    HW219866   2.946   3.300   2.327 -0.8851 -0.8828  1.6514
 2803SOL     OW19867   1.049   3.684   3.987 -0.1837 -0.1259 -0.3754
 2803SOL    HW119868   1.006   3.703   4.071 -0.5119  3.8343 -1.4302
 2803SOL    HW219869   1.005   3.749   3.933  1.2828  2.6995  1.8021
 2804SOL     OW19870   3.242   0.911   2.741 -0.2938  0.0176  0.4365
 2804SOL    HW119871   3.194   0.984   2.781  1.9389  1.9322 -0.3618
 2804SOL    HW219872   3.198   0.908   2.656  0.1536 -0.0785  0.2117
 2805SOL     OW19873   2.742   2.655  13.224 -0.6750 -0.1146 -0.5183
 2805SOL    HW119874   2.713   2.687  13.138 -1.7642  0.4478  0.0678
 2805SOL    HW219875   2.716   2.728  13.281  0.0238 -0.6976  0.5412
 2806SOL     OW19876   0.691   2.190   2.984  0.0796  0.3943 -0.4715
 2806SOL    HW119877   0.598   2.210   2.972 -0.2521 -0.4104  0.7638
 2806SOL    HW219878   0.702   2.138   2.905 -0.3213 -0.9614  0.3631
 2807SOL     OW19879   0.144   3.548  10.949  0.0406 -0.4205 -0.1383
 2807SOL    HW119880   0.202   3.616  10.914  0.0286 -0.6949 -0.6852
 2807SOL    HW219881   0.143   3.584  11.038 -1.1858 -0.3118 -0.1992
 2808SOL     OW19882   1.696   2.082  14.683 -0.7529 -0.3789  0.0802
 2808SOL    HW119883   1.754   2.040  14.619  0.5139 -3.5336  3.3361
 2808SOL    HW219884   1.656   2.014  14.737  1.2606 -1.7471 -0.1294
 2809SOL     OW19885   1.774   0.062   4.215  0.3369 -0.3239 -0.1196
 2809SOL    HW119886   1.710   0.113   4.164  0.0842 -0.7497 -0.2326
 2809SOL    HW219887   1.857   0.095   4.182  0.5999  1.6779  2.5647
 2810SOL     OW19888   2.885   0.418   8.456 -0.0710  0.2623 -0.1952
 2810SOL    HW119889   2.877   0.385   8.367 -0.9880 -0.0980  0.0168
 2810SOL    HW219890   2.980   0.419   8.453 -0.1246 -0.7119 -1.9250
 2811SOL     OW19891   4.244   0.227   3.286 -0.0337  0.3331  0.1191
 2811SOL    HW119892   4.229   0.252   3.195  0.6854  1.2413  0.2512
 2811SOL    HW219893   4.332   0.255   3.310  0.6020 -0.3136 -1.4634
 2812SOL     OW19894   1.628   4.042  16.749  0.2493 -0.2189  0.0052
 2812SOL    HW119895   1.576   4.090  16.684  0.2591 -0.5781 -0.2740
 2812SOL    HW219896   1.624   3.956  16.707 -0.3767 -1.5554  2.8077
 2813SOL     OW19897   1.318   1.053   3.891 -0.2933  0.6844 -0.0115
 2813SOL    HW119898   1.374   1.074   3.966 -0.0528  0.6840 -0.1891
 2813SOL    HW219899   1.231   1.079   3.918  0.0645  0.3357  1.4817
 2814SOL     OW19900   4.038   2.247   4.227  0.1134  0.5068  0.4600
 2814SOL    HW119901   4.053   2.184   4.298  0.4680 -2.8118 -2.5912
 2814SOL    HW219902   4.126   2.283   4.216  0.6200 -0.5988  0.8715
 2815SOL     OW19903   0.760   2.587  10.891  0.0459  0.2406  0.0688
 2815SOL    HW119904   0.848   2.621  10.874  0.4169 -0.4285  0.6393
 2815SOL    HW219905   0.722   2.649  10.954  0.7204  0.6406  0.0872
 2816SOL     OW19906   1.844   1.951   4.382 -0.8351  0.1202 -0.8750
 2816SOL    HW119907   1.850   1.951   4.478 -0.8479 -1.5459 -0.8705
 2816SOL    HW219908   1.931   1.921   4.355  0.7311  4.0921 -0.1487
 2817SOL     OW19909   0.826   2.874   2.764  0.4371  0.2021 -0.3611
 2817SOL    HW119910   0.771   2.821   2.821 -1.0984  1.6927 -0.4499
 2817SOL    HW219911   0.838   2.957   2.810  1.6951 -0.2029  0.0512
 2818SOL     OW19912   2.685   4.181   5.529 -0.9766 -0.6344 -0.6457
 2818SOL    HW119913   2.612   4.121   5.545 -0.5561 -0.7868  0.7002
 2818SOL    HW219914   2.761   4.128   5.503  1.1885  3.2171 -2.2695
 2819SOL     OW19915   4.615   4.574   6.080 -0.1624  0.4192 -0.2988
 2819SOL    HW119916   4.587   4.627   6.155 -0.6500 -0.5713  0.2227
 2819SOL    HW219917   4.709   4.590   6.086  0.2611 -2.7974  1.5620
 2820SOL     OW19918   1.399   2.336  10.012 -0.6142 -0.1305 -0.1738
 2820SOL    HW119919   1.409   2.272   9.942 -0.8222 -0.2909 -0.0568
 2820SOL    HW219920   1.304   2.348  10.014 -0.6939 -0.5630 -1.6674
 2821SOL     OW19921   3.417   3.628   1.261  0.0272 -0.0626  0.4686
 2821SOL    HW119922   3.418   3.594   1.350 -0.1094  1.2341  0.9657
 2821SOL    HW219923   3.364   3.707   1.274  1.4907  0.8982  0.6716
 2822SOL     OW19924   4.057   1.358   7.232 -0.1996  0.1873  0.3920
 2822SOL    HW119925   4.056   1.301   7.155 -1.5202  1.2370 -0.3542
 2822SOL    HW219926   4.152   1.361   7.249 -0.2472 -0.3723  0.7670
 2823SOL     OW19927   0.531   4.112   7.077 -0.3391 -0.2012 -0.4128
 2823SOL    HW119928   0.484   4.168   7.016  1.3505  1.9963  0.3064
 2823SOL    HW219929   0.624   4.115   7.057 -0.3775  0.4363 -0.4881
 2824SOL     OW19930   1.821   3.357  10.664 -0.3589 -0.7183 -0.2277
 2824SOL    HW119931   1.777   3.338  10.581 -0.6567 -0.7888 -0.0529
 2824SOL    HW219932   1.832   3.270  10.701 -3.3402 -1.5549 -1.3333
 2825SOL     OW19933   1.637   2.826  10.852  0.5093 -0.1343 -1.4441
 2825SOL    HW119934   1.645   2.816  10.947  1.9137 -3.8528 -1.9630
 2825SOL    HW219935   1.561   2.769  10.838  0.2679 -0.3385  0.7334
 2826SOL     OW19936   1.796   4.295  10.950  0.2331  0.2751 -0.5585
 2826SOL    HW119937   1.728   4.341  10.900  1.3575  2.3949 -0.1032
 2826SOL    HW219938   1.840   4.367  10.995  1.0873 -0.6865  0.1509
 2827SOL     OW19939   2.589   2.125   4.739  0.0870  0.1408 -0.2151
 2827SOL    HW119940   2.676   2.149   4.771 -0.1582 -0.0526  0.5859
 2827SOL    HW219941   2.533   2.195   4.771  0.7307 -0.1486  1.5557
 2828SOL     OW19942   1.206   3.597   1.078  0.1916 -0.9267  0.4777
 2828SOL    HW119943   1.226   3.665   1.142 -0.1719 -0.8657  0.5312
 2828SOL    HW219944   1.197   3.518   1.131 -1.2696 -2.2212 -1.6967
 2829SOL     OW19945   4.209   4.621  14.549 -0.3267 -1.0517  0.4644
 2829SOL    HW119946   4.209   4.661  14.636 -0.8644  1.2700 -0.5907
 2829SOL    HW219947   4.299   4.588  14.547 -0.2914 -0.9901  1.1671
 2830SOL     OW19948   2.593   1.689   2.430 -0.3630 -0.7483 -0.3787
 2830SOL    HW119949   2.644   1.755   2.477  2.0591 -2.4080 -0.7071
 2830SOL    HW219950   2.587   1.733   2.345  1.0202  1.8727  0.8553
 2831SOL     OW19951   2.915   4.116   3.669  0.2898  0.0088 -0.1819
 2831SOL    HW119952   2.964   4.034   3.662  0.5157  0.1452 -0.1613
 2831SOL    HW219953   2.882   4.127   3.580  0.3909 -0.9462 -0.3358
 2832SOL     OW19954   1.304   0.547   5.306 -0.2956 -0.6170  0.0144
 2832SOL    HW119955   1.290   0.558   5.212  0.2681 -0.1833 -0.0191
 2832SOL    HW219956   1.262   0.624   5.344  1.0628  0.6202 -1.0091
 2833SOL     OW19957   4.313   1.419   2.918 -0.3631 -0.5741  0.4889
 2833SOL    HW119958   4.235   1.375   2.884 -0.4914 -0.4630  0.6354
 2833SOL    HW219959   4.292   1.407   3.011 -1.3458  0.9060  0.4574
 2834SOL     OW19960   1.918   3.637   2.411  0.4196 -0.2260 -0.1980
 2834SOL    HW119961   1.961   3.678   2.486  0.4874 -0.4374 -0.1229
 2834SOL    HW219962   1.826   3.617   2.431  0.4203 -0.0398 -0.0125
 2835SOL     OW19963   0.487   3.898   0.273  0.5244 -0.2958  0.4212
 2835SOL    HW119964   0.536   3.911   0.192  1.1630 -1.1628  0.6682
 2835SOL    HW219965   0.463   3.989   0.292 -3.4812 -0.8216 -2.1429
 2836SOL     OW19966   2.708   2.696  16.335 -0.1949 -0.2005  0.0353
 2836SOL    HW119967   2.769   2.659  16.271  0.1841  1.4653 -0.5846
 2836SOL    HW219968   2.761   2.773  16.356 -2.3609  0.7862  1.8786
 2837SOL     OW19969   2.199   1.734   8.270 -0.3267 -0.1116 -0.7574
 2837SOL    HW119970   2.104   1.742   8.279  0.3120  2.5842  3.7472
 2837SOL    HW219971   2.214   1.692   8.355 -1.4476  1.6759  0.3233
 2838SOL     OW19972   3.586   2.678  15.767 -0.2105  0.5240  0.1461
 2838SOL    HW119973   3.548   2.598  15.802 -0.0433  0.1712 -0.4777
 2838SOL    HW219974   3.665   2.691  15.820  0.2025 -1.6823  0.0510
 2839SOL     OW19975   1.758   2.036  11.357 -0.0447 -0.1953 -0.1663
 2839SOL    HW119976   1.759   1.955  11.407 -1.1178 -0.5744 -0.7861
 2839SOL    HW219977   1.824   2.029  11.288 -0.6288  1.5091 -0.8951
 2840SOL     OW19978   0.615   0.422   7.229  0.5842 -0.7042 -0.5249
 2840SOL    HW119979   0.674   0.496   7.242  1.0175 -1.0869 -0.3180
 2840SOL    HW219980   0.678   0.350   7.229 -0.8497 -1.9805  0.9392
 2841SOL     OW19981   4.527   0.901  12.275  0.5780  0.0404  0.1885
 2841SOL    HW119982   4.495   0.991  12.269 -0.2815 -0.2584  0.3006
 2841SOL    HW219983   4.514   0.864  12.187 -2.3049  0.6707  0.3382
 2842SOL     OW19984   2.815   2.996   5.278  0.6242  0.1332  0.1562
 2842SOL    HW119985   2.778   3.062   5.219  0.5927 -0.9212 -1.0199
 2842SOL    HW219986   2.735   2.953   5.309  0.2596  1.2896  0.8185
 2843SOL     OW19987   2.298   3.798   4.412  0.1060  0.0210 -0.0768
 2843SOL    HW119988   2.235   3.727   4.397  0.4748 -0.3440  0.1294
 2843SOL    HW219989   2.269   3.870   4.355  2.6832  1.5457  0.5670
 2844SOL     OW19990   1.031   2.533   6.859  0.2047 -0.3695  0.2434
 2844SOL    HW119991   1.116   2.574   6.849  0.4129 -1.0353 -0.7944
 2844SOL    HW219992   1.000   2.541   6.769  2.0888  1.7369 -0.2036
 2845SOL     OW19993   0.494   3.594   3.766  0.2035  0.3805 -0.3047
 2845SOL    HW119994   0.563   3.536   3.734  0.4872  0.7444 -0.3592
 2845SOL    HW219995   0.539   3.676   3.748  2.2609 -0.7604 -0.3406
 2846SOL     OW19996   3.651   2.580   2.805  0.4215 -0.5535  0.1931
 2846SOL    HW119997   3.638   2.622   2.890 -0.5330  2.6712 -1.5535
 2846SOL    HW219998   3.561   2.586   2.775  0.3934 -0.0037  0.3813
 2847SOL     OW19999   2.731   4.420   7.966 -0.1023 -0.0330 -0.0922
 2847SOL    HW120000   2.702   4.437   8.055  0.4085  0.4413 -0.0164
 2847SOL    HW220001   2.772   4.506   7.954  1.1504 -0.5493  0.6046
 2848SOL     OW20002   1.408   1.187   6.138 -0.1889  0.7263  0.0313
 2848SOL    HW120003   1.387   1.158   6.049  2.6037  0.5448 -0.5931
 2848SOL    HW220004   1.405   1.102   6.181 -1.6862  0.3904 -0.7162
 2849SOL     OW20005   4.718   1.871   3.763 -0.1825  0.2933 -0.1352
 2849SOL    HW120006   4.688   1.781   3.778  0.5940 -0.2962 -2.1101
 2849SOL    HW220007   0.035   1.895   3.846  1.7574  2.1772 -1.6478
 2850SOL     OW20008   3.845   2.503  13.054 -0.6482  0.1694  0.1047
 2850SOL    HW120009   3.774   2.499  13.117 -1.1026  0.4857 -0.3898
 2850SOL    HW220010   3.806   2.486  12.968 -1.1322 -3.5180  1.0194
 2851SOL     OW20011   2.819   3.094   6.160 -0.6016 -0.0175  0.2879
 2851SOL    HW120012   2.821   3.163   6.227 -0.2920 -0.6107  0.8959
 2851SOL    HW220013   2.769   3.025   6.205 -0.9386 -1.1549 -1.8518
 2852SOL     OW20014   0.635   4.274   0.867  0.1482  0.6686 -0.4229
 2852SOL    HW120015   0.654   4.367   0.857 -1.0075  0.6423 -2.7754
 2852SOL    HW220016   0.544   4.281   0.837  0.2449  0.9831 -0.6376
 2853SOL     OW20017   0.848   3.219  13.382 -0.6600  0.1691  1.0075
 2853SOL    HW120018   0.872   3.138  13.426  0.5470  0.4935  0.9628
 2853SOL    HW220019   0.941   3.239  13.370 -0.8216  0.3566  0.0779
 2854SOL     OW20020   3.593   1.256  16.618  0.4403 -0.3435  0.1992
 2854SOL    HW120021   3.609   1.321  16.550  1.0493  0.1252  0.7820
 2854SOL    HW220022   3.682   1.221  16.625  0.9863  0.5892 -2.3505
 2855SOL     OW20023   1.036   2.816   5.060 -0.0411 -0.0959 -0.0370
 2855SOL    HW120024   1.092   2.744   5.032 -0.5873  0.1597 -1.8016
 2855SOL    HW220025   1.045   2.878   4.987  0.6958  0.3772  0.4558
 2856SOL     OW20026   0.266   0.942   3.433  0.0407  0.0153 -0.1408
 2856SOL    HW120027   0.295   0.968   3.346 -0.3147  0.4630 -0.1227
 2856SOL    HW220028   0.174   0.921   3.417 -0.0917  0.7631 -0.3584
 2857SOL     OW20029   1.194   3.824   5.429  0.1821  0.5575 -0.5234
 2857SOL    HW120030   1.135   3.885   5.384 -1.5609 -1.1101 -0.5213
 2857SOL    HW220031   1.140   3.794   5.503  0.3328 -0.7860 -0.9632
 2858SOL     OW20032   4.168   0.427   3.937  0.1505  0.0975  0.1899
 2858SOL    HW120033   4.178   0.438   3.842  4.2967  2.2540  0.8921
 2858SOL    HW220034   4.123   0.508   3.960 -1.6253 -0.4605 -1.2860
 2859SOL     OW20035   3.759   0.962   4.996  0.0873  0.4080 -0.6316
 2859SOL    HW120036   3.807   0.896   4.946 -2.9280 -2.0916 -0.2584
 2859SOL    HW220037   3.668   0.937   4.979 -0.1362  0.8333 -0.0678
 2860SOL     OW20038   0.869   3.944   1.821 -0.0427 -0.0234 -0.4931
 2860SOL    HW120039   0.914   3.944   1.905 -0.1386 -0.7081 -0.4440
 2860SOL    HW220040   0.816   4.021   1.840  2.9474  1.5929  1.3819
 2861SOL     OW20041   1.011   2.358   7.895  0.1691 -0.2149 -0.2571
 2861SOL    HW120042   1.102   2.335   7.913  0.1793 -1.2863 -1.6813
 2861SOL    HW220043   1.014   2.354   7.800 -2.6466  0.1447 -0.3823
 2862SOL     OW20044   3.629   2.620  10.747 -0.4291  1.0686 -0.2134
 2862SOL    HW120045   3.572   2.599  10.822 -1.8552  1.9030 -1.0664
 2862SOL    HW220046   3.682   2.541  10.746 -1.5487  0.3926 -3.9182
 2863SOL     OW20047   3.727   0.955  11.669 -0.3590 -0.7968  0.0079
 2863SOL    HW120048   3.816   0.919  11.672  0.1834  0.8630  3.9546
 2863SOL    HW220049   3.752   1.044  11.694  1.3859 -0.9159 -1.2698
 2864SOL     OW20050   3.344   4.122  15.811 -0.0153 -0.0988  0.3153
 2864SOL    HW120051   3.285   4.108  15.736  1.1417 -1.0096 -0.4202
 2864SOL    HW220052   3.408   4.052  15.797 -1.5448 -1.3557 -0.4492
 2865SOL     OW20053   3.687   1.444   5.709  0.5506  0.1584  0.2586
 2865SOL    HW120054   3.743   1.522   5.705 -0.0259  0.5616  0.0559
 2865SOL    HW220055   3.636   1.462   5.630 -2.3942 -1.5056  1.8049
 2866SOL     OW20056   0.426   0.886  12.086 -0.0422 -0.0323 -0.3017
 2866SOL    HW120057   0.437   0.975  12.118  0.0850  0.9379 -3.0663
 2866SOL    HW220058   0.348   0.859  12.135  0.5864 -1.3267 -0.0089
 2867SOL     OW20059   0.726   1.290   8.741 -0.2768  0.3093  0.0193
 2867SOL    HW120060   0.792   1.264   8.677 -0.3464  0.9527 -0.3133
 2867SOL    HW220061   0.774   1.314   8.821  0.2905  0.6850 -0.4326
 2868SOL     OW20062   2.499   1.445   5.614 -0.3657 -0.5768 -0.7458
 2868SOL    HW120063   2.428   1.381   5.617 -0.7518 -0.1283 -0.2374
 2868SOL    HW220064   2.571   1.386   5.638 -0.5421 -0.9780 -1.1856
 2869SOL     OW20065   0.018   4.710   5.738 -0.1024 -0.4180  0.2126
 2869SOL    HW120066   4.649   4.710   5.765 -0.2860 -1.1779 -0.4125
 2869SOL    HW220067   0.053   4.702   5.826 -2.1018 -2.1854  0.8310
 2870SOL     OW20068   4.470   4.331   6.785  0.3569 -0.2947  0.2051
 2870SOL    HW120069   4.385   4.357   6.819 -0.1769 -1.2133 -0.4229
 2870SOL    HW220070   4.534   4.382   6.835 -0.9333  1.9641 -0.4881
 2871SOL     OW20071   3.539   0.067   7.225  0.0081 -0.4274 -0.5155
 2871SOL    HW120072   3.453   0.042   7.260  0.1528 -0.2267 -0.0158
 2871SOL    HW220073   3.572   4.709   7.185  0.2060  0.7945 -2.7962
 2872SOL     OW20074   0.402   2.611  11.020 -0.0283 -0.1526  0.0552
 2872SOL    HW120075   0.329   2.671  11.034 -1.0249 -0.6711 -2.8070
 2872SOL    HW220076   0.477   2.670  11.019 -0.3814  0.2866 -0.5722
 2873SOL     OW20077   3.168   0.040   9.976  0.6719  0.4647 -0.3198
 2873SOL    HW120078   3.176   0.130  10.009 -0.0296 -0.4342  2.2931
 2873SOL    HW220079   3.209   0.043   9.890  0.4246 -4.5743 -0.5778
 2874SOL     OW20080   2.988   1.948   4.564 -0.1126  0.3020 -0.4543
 2874SOL    HW120081   2.955   2.022   4.614 -2.8242 -0.3121 -1.3484
 2874SOL    HW220082   2.965   1.983   4.478  1.1923  1.7791 -0.2045
 2875SOL     OW20083   2.388   0.731   9.561  0.0557  0.1612 -0.1441
 2875SOL    HW120084   2.436   0.687   9.491  0.4571 -0.8439  0.7569
 2875SOL    HW220085   2.335   0.790   9.507 -1.0228 -0.8594 -0.2251
 2876SOL     OW20086   1.653   4.508   1.863  0.2061  0.0234 -0.0327
 2876SOL    HW120087   1.652   4.554   1.947 -1.4457  2.4373 -1.3703
 2876SOL    HW220088   1.600   4.432   1.885 -0.0320  0.4107  0.7169
 2877SOL     OW20089   1.914   0.309   8.883 -0.0127  0.2480  0.5252
 2877SOL    HW120090   1.972   0.237   8.910 -0.0766 -0.5446 -1.4065
 2877SOL    HW220091   1.832   0.265   8.863 -0.1509  0.7729 -0.0678
 2878SOL     OW20092   1.329   3.142   6.940  0.3120  0.1144  0.7088
 2878SOL    HW120093   1.234   3.140   6.951  0.4404  3.9509  2.5454
 2878SOL    HW220094   1.360   3.232   6.930 -0.6598  0.4288  0.4429
 2879SOL     OW20095   1.281   4.573  11.612 -0.0864 -0.5224 -0.3127
 2879SOL    HW120096   1.364   4.528  11.593 -0.7548 -1.5480 -0.8268
 2879SOL    HW220097   1.235   4.490  11.626 -1.0212  0.1764  0.6813
 2880SOL     OW20098   0.370   0.632   6.671 -0.1073  0.0335  0.0584
 2880SOL    HW120099   0.447   0.590   6.635  0.6948  0.8187  0.8636
 2880SOL    HW220100   0.423   0.693   6.722  0.3138  0.8177 -1.3347
 2881SOL     OW20101   1.648   4.585  11.847 -0.1181  0.4992  0.0182
 2881SOL    HW120102   1.576   4.523  11.863  1.4797 -0.9838  1.5525
 2881SOL    HW220103   1.717   4.536  11.892 -2.7947 -1.5101  1.9878
 2882SOL     OW20104   1.715   4.694  17.002  0.5265  0.0457 -0.0245
 2882SOL    HW120105   1.773   4.642  17.058 -0.2434  0.5338  1.2316
 2882SOL    HW220106   1.688   4.633  16.934  2.4699 -0.4228 -0.3758
 2883SOL     OW20107   4.513   0.205   9.359  0.0081  0.5279 -0.5703
 2883SOL    HW120108   4.567   0.229   9.284 -1.9108  1.1185 -1.7704
 2883SOL    HW220109   4.547   0.264   9.426  0.7233 -0.0154 -0.4635
 2884SOL     OW20110   2.219   4.683  16.333  0.2069 -0.3398 -0.0690
 2884SOL    HW120111   2.198   0.039  16.383 -0.7199 -1.0394  0.6383
 2884SOL    HW220112   2.138   4.662  16.286  2.2074  1.5567 -4.3835
 2885SOL     OW20113   2.852   1.817   3.057  0.2604  0.0520  0.0571
 2885SOL    HW120114   2.767   1.775   3.071 -0.6735  1.6251 -0.8665
 2885SOL    HW220115   2.841   1.847   2.967 -1.1348 -0.9314 -0.0954
 2886SOL     OW20116   1.891   3.901   0.996  0.1989  0.1139 -0.1556
 2886SOL    HW120117   1.808   3.860   0.971  0.2560  0.3379 -0.7001
 2886SOL    HW220118   1.938   3.928   0.917  1.0100  1.1038  0.6740
 2887SOL     OW20119   0.933   3.959  13.861 -0.0938 -0.1284  0.1608
 2887SOL    HW120120   0.920   3.865  13.872  1.2837 -0.5438 -1.6481
 2887SOL    HW220121   0.861   3.988  13.916  1.7226  0.3625  2.3024
 2888SOL     OW20122   0.906   1.044  13.706  0.0231  0.1001  0.3577
 2888SOL    HW120123   1.001   1.054  13.709  0.0371  0.3146 -1.1831
 2888SOL    HW220124   0.871   1.098  13.635 -2.4750 -0.4423  1.1821
 2889SOL     OW20125   2.113   3.422   1.169  1.3643  0.2981  0.2868
 2889SOL    HW120126   2.063   3.347   1.201  1.9837  0.2481  1.1276
 2889SOL    HW220127   2.170   3.443   1.243  0.4457  3.0100  0.2082
 2890SOL     OW20128   0.504   0.966  13.581  0.5813  0.1654 -0.3302
 2890SOL    HW120129   0.580   0.918  13.615 -1.0246 -2.2550 -0.2531
 2890SOL    HW220130   0.432   0.949  13.642  0.6053  0.6908 -0.1481
 2891SOL     OW20131   3.182   3.957   2.109  0.3202 -0.3392  0.0887
 2891SOL    HW120132   3.274   3.957   2.133  1.2223 -0.6390 -3.4684
 2891SOL    HW220133   3.173   4.044   2.071  0.4502 -0.7828 -0.9491
 2892SOL     OW20134   0.770   3.838   1.321  0.0267  0.0496  0.2034
 2892SOL    HW120135   0.760   3.933   1.314 -1.3082 -0.0156  1.2328
 2892SOL    HW220136   0.696   3.822   1.262  0.2363  0.1978 -0.0999
 2893SOL     OW20137   2.946   4.265  14.875 -0.0209  0.7854  0.0022
 2893SOL    HW120138   2.902   4.289  14.956  0.5579 -2.5060  1.3075
 2893SOL    HW220139   2.902   4.305  14.800 -2.3159  0.0748  0.9619
 2894SOL     OW20140   4.373   3.030   7.366 -0.4053  0.1724  0.2743
 2894SOL    HW120141   4.438   3.070   7.423 -2.5368  0.9613  2.1618
 2894SOL    HW220142   4.307   3.099   7.364 -0.5036  0.1384  2.2605
 2895SOL     OW20143   2.780   3.669   1.870 -0.8495  0.3289 -0.6640
 2895SOL    HW120144   2.690   3.703   1.870 -0.2614  1.8512 -0.6865
 2895SOL    HW220145   2.765   3.577   1.846  1.5967 -0.0722 -0.6257
 2896SOL     OW20146   1.828   4.252   4.676  0.1460 -0.2291 -0.3531
 2896SOL    HW120147   1.755   4.236   4.736 -0.5482 -1.6089 -1.5803
 2896SOL    HW220148   1.807   4.199   4.600  3.7494 -0.9632 -0.8390
 2897SOL     OW20149   2.109   1.720  10.325  0.0634  0.8398 -0.3639
 2897SOL    HW120150   2.188   1.678  10.359 -1.6017  0.7569  3.3979
 2897SOL    HW220151   2.049   1.665  10.375 -0.9792  1.7294 -0.6467
 2898SOL     OW20152   2.705   4.047  13.355 -0.0657 -0.2321  0.2055
 2898SOL    HW120153   2.718   3.983  13.285  0.2716 -0.3249  0.3534
 2898SOL    HW220154   2.753   4.011  13.430  0.6620  3.7447  1.6502
 2899SOL     OW20155   4.364   0.263   6.708 -0.4052 -0.2346 -0.1633
 2899SOL    HW120156   4.354   0.341   6.763  1.7734 -0.1567  0.1457
 2899SOL    HW220157   4.273   0.245   6.687 -0.4892 -0.0442  0.0356
 2900SOL     OW20158   1.219   0.072  14.279  0.3326 -0.4141 -0.7950
 2900SOL    HW120159   1.199   0.032  14.194  0.5892 -2.1457 -0.0336
 2900SOL    HW220160   1.278   0.141  14.249 -0.6621  1.2771  1.2067
 2901SOL     OW20161   3.313   4.110   6.816 -0.0878 -0.3065 -0.2410
 2901SOL    HW120162   3.402   4.123   6.783 -0.2459  0.2011 -0.4673
 2901SOL    HW220163   3.281   4.044   6.754 -1.2280 -0.5549  0.6052
 2902SOL     OW20164   0.125   4.636   3.487 -0.1403  0.0216 -0.7844
 2902SOL    HW120165   0.082   4.722   3.490  0.8445  0.4639  1.1008
 2902SOL    HW220166   0.052   4.578   3.507 -0.5940  0.4017 -1.3525
 2903SOL     OW20167   2.323   3.901   2.433 -0.0981 -0.4274  0.5951
 2903SOL    HW120168   2.404   3.883   2.480 -0.1741 -0.2822  0.7800
 2903SOL    HW220169   2.351   3.964   2.367 -0.5017 -1.3896 -0.5022
 2904SOL     OW20170   3.660   2.168   0.676  0.2265  1.0996 -0.1644
 2904SOL    HW120171   3.680   2.233   0.744  1.4515  0.4755  0.0809
 2904SOL    HW220172   3.593   2.217   0.629  0.4221  2.1851  0.6805
 2905SOL     OW20173   1.480   4.356  11.567 -0.1031  0.1340 -0.0849
 2905SOL    HW120174   1.512   4.360  11.476  1.6469  1.0262  0.5563
 2905SOL    HW220175   1.510   4.268  11.589 -0.2885 -0.4555 -2.1355
 2906SOL     OW20176   1.110   0.939  15.757 -0.3652  0.4412  0.3724
 2906SOL    HW120177   1.129   0.964  15.667 -2.5019 -0.2635 -0.2760
 2906SOL    HW220178   1.027   0.978  15.785 -1.9645 -2.3149 -0.5147
 2907SOL     OW20179   3.101   0.762   8.863  0.4632  0.2072 -0.1039
 2907SOL    HW120180   3.066   0.742   8.950  0.8130 -1.0940 -0.2589
 2907SOL    HW220181   3.155   0.687   8.836 -1.3977 -1.9491  2.1567
 2908SOL     OW20182   1.987   1.824   6.927 -0.6420  0.1543 -0.0019
 2908SOL    HW120183   2.068   1.775   6.914  1.2032  2.8850  1.3107
 2908SOL    HW220184   1.915   1.761   6.934 -1.0309  0.8748  2.4135
 2909SOL     OW20185   2.422   3.418  17.646  0.1902  0.3286  0.3872
 2909SOL    HW120186   2.387   3.437   0.038  0.3760  1.2609  0.2655
 2909SOL    HW220187   2.418   3.323  17.641 -0.6774  0.3980 -0.3354
 2910SOL     OW20188   4.619   0.309  10.391 -0.0366 -0.1481 -0.1858
 2910SOL    HW120189   4.614   0.252  10.314  1.8270  0.2127 -0.5924
 2910SOL    HW220190   4.541   0.294  10.444 -0.9314 -0.6834 -1.6569
 2911SOL     OW20191   2.038   0.512   7.657 -0.4744  0.2095  0.0531
 2911SOL    HW120192   1.995   0.438   7.615  2.1103 -0.8681 -0.6634
 2911SOL    HW220193   2.108   0.528   7.594 -0.2176 -0.0424  0.2733
 2912SOL     OW20194   3.912   3.062   5.420 -0.1329 -0.4788 -0.3545
 2912SOL    HW120195   3.846   3.000   5.389  0.4861 -1.7308  0.8314
 2912SOL    HW220196   3.873   3.146   5.395  1.4962  1.3148  3.1771
 2913SOL     OW20197   2.772   0.993   8.043 -0.0802  0.0849  0.5494
 2913SOL    HW120198   2.746   1.084   8.059 -0.2117 -0.3561  2.8072
 2913SOL    HW220199   2.816   0.975   8.126 -0.8043  2.1194  1.3844
 2914SOL     OW20200   1.415   0.818   3.563  0.9238 -0.0272 -0.0857
 2914SOL    HW120201   1.456   0.743   3.606  0.6479  1.0812  2.0795
 2914SOL    HW220202   1.332   0.833   3.608  0.6336 -0.4161 -0.4926
 2915SOL     OW20203   3.264   2.536   5.523 -0.5409  0.0429  0.4233
 2915SOL    HW120204   3.331   2.497   5.580  0.4264  0.6547 -0.2859
 2915SOL    HW220205   3.186   2.513   5.572  0.0976  0.6893  1.7330
 2916SOL     OW20206   2.023   0.167   3.210  0.1961 -0.2645  0.1783
 2916SOL    HW120207   2.019   0.182   3.304  0.2645 -0.3442  0.1938
 2916SOL    HW220208   2.068   0.084   3.193 -1.8899 -1.3368 -0.0531
 2917SOL     OW20209   3.659   0.198   1.486  0.5799 -0.6982 -0.0693
 2917SOL    HW120210   3.729   0.165   1.542  0.6973 -0.2011  0.0818
 2917SOL    HW220211   3.625   0.272   1.538  3.3307  0.9536 -0.6179
 2918SOL     OW20212   3.693   3.807   1.212 -0.1633 -0.2358 -0.0867
 2918SOL    HW120213   3.776   3.847   1.187  0.9243 -0.4248  3.2151
 2918SOL    HW220214   3.699   3.716   1.185 -0.4933 -0.0326 -0.8428
 2919SOL     OW20215   4.435   4.393   2.685  0.5180 -0.2584  0.5410
 2919SOL    HW120216   4.443   4.309   2.729 -0.2814  0.4019  1.9304
 2919SOL    HW220217   4.507   4.392   2.621  1.4236  0.1578  1.5573
 2920SOL     OW20218   2.132   2.806   2.581  0.1978  0.2806  0.7644
 2920SOL    HW120219   2.123   2.899   2.602 -1.7121 -0.3666  2.7905
 2920SOL    HW220220   2.074   2.802   2.504  0.3660  0.8738  0.6066
 2921SOL     OW20221   3.402   4.242   1.795 -0.3987  0.7006 -0.2284
 2921SOL    HW120222   3.442   4.192   1.723 -1.6985 -0.0432 -0.4405
 2921SOL    HW220223   3.483   4.277   1.832 -1.0651  1.1404  0.7947
 2922SOL     OW20224   2.117   2.949  16.620 -0.2076  0.1227  0.7352
 2922SOL    HW120225   2.034   2.994  16.602 -0.3458  0.4695  2.2546
 2922SOL    HW220226   2.106   2.866  16.573 -1.2781 -0.9975  2.9670
 2923SOL     OW20227   3.744   2.798  11.073 -0.2437 -0.1932 -0.7440
 2923SOL    HW120228   3.672   2.734  11.065  0.6554 -1.1613 -1.1146
 2923SOL    HW220229   3.715   2.836  11.156  1.5787 -1.4161  0.4487
 2924SOL     OW20230   0.883   1.739   3.119  0.2196  0.1866 -0.1584
 2924SOL    HW120231   0.892   1.645   3.134 -0.2385 -0.0192 -1.1348
 2924SOL    HW220232   0.970   1.768   3.092  0.0760  3.5882  3.1559
 2925SOL     OW20233   2.288   1.833   4.010  0.0677  0.3170  0.4019
 2925SOL    HW120234   2.202   1.812   3.975 -0.9022  1.0210  2.3512
 2925SOL    HW220235   2.286   1.929   4.006 -1.3257  0.2518 -0.3126
 2926SOL     OW20236   3.953   1.626  17.357 -0.4942  0.0538  0.1191
 2926SOL    HW120237   3.997   1.688  17.416 -1.3497  1.5706 -0.8535
 2926SOL    HW220238   3.860   1.649  17.363 -0.4564  0.6972 -2.0004
 2927SOL     OW20239   4.512   1.510   4.418  0.0781  0.2477  0.0469
 2927SOL    HW120240   4.532   1.417   4.431  2.0707  0.4760 -1.5239
 2927SOL    HW220241   4.596   1.526   4.376 -0.2964  0.9053 -0.4482
 2928SOL     OW20242   4.531   3.901   4.876  0.4488 -0.1907  0.2949
 2928SOL    HW120243   4.535   3.984   4.925 -1.2252  1.5290 -2.4997
 2928SOL    HW220244   4.495   3.838   4.939  0.5922  0.6700  1.2421
 2929SOL     OW20245   4.078   0.204   2.292 -0.1700  0.0580 -0.3069
 2929SOL    HW120246   4.037   0.239   2.213  0.6762  0.8302 -0.3925
 2929SOL    HW220247   4.006   0.152   2.330  0.7038  1.4462  3.2722
 2930SOL     OW20248   0.277   4.004   2.119 -0.2110 -0.1191 -0.3184
 2930SOL    HW120249   0.303   4.068   2.054 -1.0610 -0.2884 -0.8234
 2930SOL    HW220250   0.339   4.019   2.191  1.6073  0.3554 -2.0056
 2931SOL     OW20251   2.255   0.578   8.475  0.5204  0.2519  0.5604
 2931SOL    HW120252   2.273   0.622   8.392 -1.0424  0.5177  0.3530
 2931SOL    HW220253   2.307   0.498   8.466 -2.9371 -1.9230 -0.0826
 2932SOL     OW20254   3.871   3.960   3.355 -0.0449  0.3842  0.3615
 2932SOL    HW120255   3.845   4.027   3.292  1.7153  0.4834 -0.2644
 2932SOL    HW220256   3.804   3.969   3.422 -1.0520  1.5024 -0.7940
 2933SOL     OW20257   0.141   0.520   2.095 -0.0233  0.9114 -0.1092
 2933SOL    HW120258   0.085   0.552   2.024 -1.5863  0.5460  0.9673
 2933SOL    HW220259   0.229   0.545   2.067  1.2449 -0.6784  2.4703
 2934SOL     OW20260   4.255   0.059   6.255  0.8176  0.1412  0.2979
 2934SOL    HW120261   4.178   0.003   6.245  2.2894 -1.6668 -0.8332
 2934SOL    HW220262   4.256   0.074   6.350 -0.9017 -0.2438  0.3860
 2935SOL     OW20263   0.827   1.266   9.014  0.2717 -0.4031  0.4952
 2935SOL    HW120264   0.770   1.189   9.008  2.1445 -1.7884  0.8117
 2935SOL    HW220265   0.913   1.233   9.036  0.2328 -0.1647  0.9910
 2936SOL     OW20266   3.893   4.305   3.001  0.3333  0.2466 -0.4108
 2936SOL    HW120267   3.820   4.336   2.948  0.3024 -0.0095 -0.5185
 2936SOL    HW220268   3.970   4.338   2.954  1.2615  2.6964  2.8718
 2937SOL     OW20269   3.562   3.291  11.923  0.2342  0.0961 -0.4356
 2937SOL    HW120270   3.491   3.234  11.893 -1.5784  0.3162  3.3524
 2937SOL    HW220271   3.562   3.272  12.017 -0.0442  1.5457 -0.1460
 2938SOL     OW20272   4.434   4.097   7.435 -0.0383  0.4371  0.1688
 2938SOL    HW120273   4.404   4.160   7.501 -1.4823 -0.8706  0.7539
 2938SOL    HW220274   4.364   4.103   7.370  1.4604 -1.9062 -1.6763
 2939SOL     OW20275   1.782   0.665  11.362  0.2886  0.1484  0.0433
 2939SOL    HW120276   1.817   0.727  11.426 -1.3565 -1.1242  2.1832
 2939SOL    HW220277   1.849   0.597  11.359  3.9877  3.6969  3.1542
 2940SOL     OW20278   3.440   2.950   4.382  0.2505 -0.0020  0.2077
 2940SOL    HW120279   3.456   3.010   4.455  1.8573  1.4376 -1.2926
 2940SOL    HW220280   3.470   2.867   4.419  1.1460  1.1031  1.9594
 2941SOL     OW20281   2.021   4.271   5.103  0.4576  0.5187 -0.2901
 2941SOL    HW120282   2.047   4.192   5.055 -1.5887  0.4166 -1.2350
 2941SOL    HW220283   1.939   4.243   5.142  0.4853 -0.4547 -0.9278
 2942SOL     OW20284   0.480   2.422  11.346 -0.1845 -0.1652  0.4047
 2942SOL    HW120285   0.512   2.475  11.419  1.0355  0.1442 -0.3522
 2942SOL    HW220286   0.408   2.478  11.318  0.2490 -0.8135 -2.0294
 2943SOL     OW20287   1.144   0.657   3.733  0.5064 -0.5901 -0.2893
 2943SOL    HW120288   1.125   0.621   3.647  0.9424 -0.9298 -0.2411
 2943SOL    HW220289   1.120   0.583   3.789  0.7346  0.0582  0.6650
 2944SOL     OW20290   2.386   3.455   8.468 -0.6228  0.1790  0.3367
 2944SOL    HW120291   2.292   3.446   8.454 -0.5003  0.0183 -0.4138
 2944SOL    HW220292   2.393   3.531   8.526  0.4391 -2.6190  3.8614
 2945SOL     OW20293   2.537   2.355   3.759 -0.8158  0.1307 -0.3530
 2945SOL    HW120294   2.587   2.423   3.803 -1.2084  0.6345 -0.6825
 2945SOL    HW220295   2.451   2.397   3.750 -2.1285 -2.3584  0.3503
 2946SOL     OW20296   4.343   1.044  15.488 -0.8908  0.3956  0.1348
 2946SOL    HW120297   4.365   0.952  15.475  0.0613  0.5115  0.9215
 2946SOL    HW220298   4.324   1.079  15.401 -0.5499  0.4870  0.0963
 2947SOL     OW20299   2.850   0.012  15.536 -1.2776  0.1527 -0.4162
 2947SOL    HW120300   2.840   0.079  15.468  0.3171 -0.7619 -1.5793
 2947SOL    HW220301   2.931   0.045  15.574 -0.8590 -1.4385  0.0821
 2948SOL     OW20302   3.661   4.445   9.502  0.2357 -0.2272 -0.5593
 2948SOL    HW120303   3.632   4.489   9.421 -0.8570  1.1135  0.5570
 2948SOL    HW220304   3.662   4.513   9.569 -2.8001 -1.4694  0.7404
 2949SOL     OW20305   1.152   1.935   8.561 -0.1637  0.0436 -0.1189
 2949SOL    HW120306   1.097   2.007   8.592  0.2251  0.6010 -0.7299
 2949SOL    HW220307   1.094   1.862   8.584 -1.1144  0.0411 -2.5013
 2950SOL     OW20308   1.914   4.077   6.235  0.7159 -0.0459 -0.2161
 2950SOL    HW120309   1.885   4.036   6.154 -1.0347  1.0261 -0.1118
 2950SOL    HW220310   1.855   4.152   6.231  0.5919 -0.3805 -4.2351
 2951SOL     OW20311   1.255   3.306   4.563 -0.0820  0.5674 -0.1315
 2951SOL    HW120312   1.338   3.298   4.610 -0.2442 -2.1720 -0.3173
 2951SOL    HW220313   1.262   3.232   4.503 -0.1463  1.6014 -1.4144
 2952SOL     OW20314   1.365   1.786   1.666 -0.9126 -0.1950 -0.2258
 2952SOL    HW120315   1.434   1.779   1.732 -0.7297 -0.8833 -0.4966
 2952SOL    HW220316   1.291   1.817   1.718  0.6821  0.3132  1.7422
 2953SOL     OW20317   4.408   2.542  16.791  0.1731 -0.1168 -0.6022
 2953SOL    HW120318   4.452   2.594  16.859  2.2740 -0.4025 -1.7506
 2953SOL    HW220319   4.342   2.498  16.845 -0.3128  3.2703  1.5890
 2954SOL     OW20320   3.724   4.061   5.356 -0.8594 -0.0544 -0.2174
 2954SOL    HW120321   3.630   4.059   5.374 -0.4661 -0.0362  1.7744
 2954SOL    HW220322   3.773   4.073   5.437  0.5093 -1.3991 -0.8553
 2955SOL     OW20323   2.935   1.315   2.393 -0.3899 -0.5981  0.1690
 2955SOL    HW120324   2.860   1.375   2.381 -1.1183 -1.0893  2.2944
 2955SOL    HW220325   3.010   1.364   2.358 -0.4898 -0.8317 -0.3757
 2956SOL     OW20326   4.526   2.422   8.417 -0.1342  0.1613 -0.4975
 2956SOL    HW120327   4.432   2.422   8.433 -0.0244 -1.9125  0.1746
 2956SOL    HW220328   4.562   2.448   8.502 -0.3462  0.4799 -0.5057
 2957SOL     OW20329   1.827   2.167  17.379  0.1766 -0.7718  0.1132
 2957SOL    HW120330   1.922   2.174  17.389  0.0400 -1.0495  1.6044
 2957SOL    HW220331   1.804   2.243  17.325  0.4038 -0.4147  0.5107
 2958SOL     OW20332   1.160   3.368   8.807  0.1528 -0.0575 -0.3678
 2958SOL    HW120333   1.116   3.283   8.817 -1.8309  1.3380  2.6448
 2958SOL    HW220334   1.197   3.392   8.891 -0.4180  1.7167 -0.6357
 2959SOL     OW20335   1.172   1.398  11.351 -0.1953 -0.5936 -0.2268
 2959SOL    HW120336   1.103   1.376  11.288 -0.8247  0.6954 -0.0057
 2959SOL    HW220337   1.154   1.339  11.424  1.0697 -0.6656  0.0206
 2960SOL     OW20338   3.120   0.914   8.131  0.3377 -0.3694  0.0870
 2960SOL    HW120339   3.163   0.958   8.205  1.6097 -0.4652 -0.5880
 2960SOL    HW220340   3.129   0.823   8.160 -0.0356  0.1080  1.6925
 2961SOL     OW20341   0.943   0.497   1.726  0.4953 -0.0870  0.6732
 2961SOL    HW120342   0.961   0.587   1.701 -0.4426 -0.6301 -1.9927
 2961SOL    HW220343   1.011   0.452   1.674  1.0481  1.6259 -0.0966
 2962SOL     OW20344   3.773   4.142   3.666 -0.1472 -0.0291  0.1862
 2962SOL    HW120345   3.678   4.152   3.660 -0.2598 -1.4087 -0.4724
 2962SOL    HW220346   3.780   4.059   3.618  0.4885  0.3096 -0.3098
 2963SOL     OW20347   0.661   2.976   1.714  0.1544 -0.2204 -0.3431
 2963SOL    HW120348   0.672   2.894   1.667  1.8077  0.1576 -0.6198
 2963SOL    HW220349   0.748   3.015   1.710 -0.7334  1.9059  1.1566
 2964SOL     OW20350   4.665   2.904   9.230  0.0432 -0.1929  0.4669
 2964SOL    HW120351   4.694   2.994   9.244 -0.4543 -0.1277  1.1032
 2964SOL    HW220352   4.680   2.906   9.136  2.4739 -2.4985  0.7757
 2965SOL     OW20353   0.378   2.232   7.416 -0.2958 -0.5991 -0.1981
 2965SOL    HW120354   0.352   2.161   7.475 -2.6406 -0.5729 -1.1981
 2965SOL    HW220355   0.355   2.300   7.479  0.0054  0.3298 -1.0993
 2966SOL     OW20356   3.056   3.834   4.013 -0.2498 -0.0048 -0.1689
 2966SOL    HW120357   3.021   3.751   3.982  2.2437 -2.3020  3.1261
 2966SOL    HW220358   2.976   3.883   4.033 -1.4100 -1.7642 -0.5236
 2967SOL     OW20359   2.446   0.489   2.065 -0.0441 -0.2183 -0.0462
 2967SOL    HW120360   2.434   0.483   1.971  0.2871 -0.8180 -0.0487
 2967SOL    HW220361   2.382   0.425   2.096 -0.7052  0.2609 -0.4268
 2968SOL     OW20362   2.291   3.394   5.022  0.0369  0.2386  0.1856
 2968SOL    HW120363   2.243   3.334   4.966 -2.0170  0.4093  1.7595
 2968SOL    HW220364   2.243   3.379   5.104 -0.0448  0.3189  0.1520
 2969SOL     OW20365   4.467   2.517   5.923  0.5942 -0.0212  0.0739
 2969SOL    HW120366   4.521   2.594   5.941  3.0682 -1.0496 -2.7593
 2969SOL    HW220367   4.532   2.454   5.890  1.0158  0.9253 -0.9270
 2970SOL     OW20368   0.881   2.916  14.108 -0.4932 -0.1606  0.3157
 2970SOL    HW120369   0.883   2.884  14.198 -0.2704 -1.5331 -0.1701
 2970SOL    HW220370   0.865   2.836  14.057  0.1804 -1.4536  2.1469
 2971SOL     OW20371   3.090   1.424   4.963 -0.3460 -0.3525 -0.4002
 2971SOL    HW120372   3.005   1.450   4.928  0.0498  0.7044 -0.5461
 2971SOL    HW220373   3.154   1.426   4.892  0.8565 -0.2226  0.6855
 2972SOL     OW20374   4.306   3.367  13.580  0.3208  0.3059 -0.2455
 2972SOL    HW120375   4.318   3.308  13.505  0.4303  0.0278 -0.0072
 2972SOL    HW220376   4.393   3.403  13.593 -0.2011  0.6377  2.2709
 2973SOL     OW20377   1.602   4.153   0.251 -0.5301 -0.0462 -0.1237
 2973SOL    HW120378   1.572   4.132   0.340 -1.6356 -3.7434 -1.3533
 2973SOL    HW220379   1.609   4.064   0.217 -0.3588  0.0891 -0.4393
 2974SOL     OW20380   0.690   0.632   4.249 -0.5531 -0.0592  0.2575
 2974SOL    HW120381   0.742   0.712   4.254  0.2924 -0.4964 -1.9086
 2974SOL    HW220382   0.747   0.590   4.185  0.2806  2.2282 -0.4794
 2975SOL     OW20383   0.798   3.168   6.083 -0.4793  0.4428 -0.2199
 2975SOL    HW120384   0.889   3.171   6.113 -0.7613  1.6475  0.5000
 2975SOL    HW220385   0.797   3.076   6.056 -0.2689 -0.1851  1.8468
 2976SOL     OW20386   3.979   0.087   6.397  0.0325  0.2156 -0.2240
 2976SOL    HW120387   4.028   0.167   6.417 -1.6892  1.3350 -0.5393
 2976SOL    HW220388   3.924   0.109   6.322  1.1770 -1.0391 -1.4292
 2977SOL     OW20389   3.821   2.964  13.248  0.3156 -0.5901 -0.0303
 2977SOL    HW120390   3.877   2.943  13.173  0.0045  1.1512 -0.7607
 2977SOL    HW220391   3.744   3.005  13.209  0.2032  0.7365  1.5781
 2978SOL     OW20392   0.500   0.028   5.364 -0.2535 -0.0611 -0.1114
 2978SOL    HW120393   0.489   0.088   5.438  0.6472  0.5966 -0.5042
 2978SOL    HW220394   0.595   0.035   5.365 -0.4191  2.3448  0.5425
 2979SOL     OW20395   1.322   4.596   6.622 -0.0131 -0.2782 -0.0649
 2979SOL    HW120396   1.300   4.684   6.590  0.0964 -0.0939  0.3604
 2979SOL    HW220397   1.258   4.587   6.692 -0.2811  0.5710 -0.1999
 2980SOL     OW20398   1.463   1.533  11.856  0.4214  0.7177  0.4402
 2980SOL    HW120399   1.536   1.589  11.883  1.2748 -0.9625  1.5803
 2980SOL    HW220400   1.460   1.554  11.763  0.6554 -1.2547 -0.0119
 2981SOL     OW20401   3.803   0.478   4.087 -0.6844  0.3490 -0.4977
 2981SOL    HW120402   3.840   0.539   4.151 -0.6344 -0.1310 -0.0713
 2981SOL    HW220403   3.784   0.401   4.140 -1.2570 -0.2239 -1.5389
 2982SOL     OW20404   4.319   3.828   8.700  0.1157 -0.3217 -0.4489
 2982SOL    HW120405   4.302   3.867   8.786 -1.0049  0.3889 -0.9966
 2982SOL    HW220406   4.409   3.858   8.690 -0.6061  1.1521 -2.5290
 2983SOL     OW20407   4.058   3.952  15.364 -0.3859 -0.2614 -0.0782
 2983SOL    HW120408   4.004   3.993  15.431 -0.6292 -3.2790  1.5838
 2983SOL    HW220409   4.031   4.013  15.296  0.7090  0.2609 -0.0447
 2984SOL     OW20410   1.682   0.373   6.055  0.0045 -0.4688 -0.0332
 2984SOL    HW120411   1.747   0.413   5.997 -1.8220  0.3284 -1.4924
 2984SOL    HW220412   1.731   0.378   6.138 -1.3790 -0.0245  0.7486
 2985SOL     OW20413   1.281   3.879   7.732 -0.1274 -0.4268 -0.0315
 2985SOL    HW120414   1.303   3.968   7.759  0.6304 -0.4826 -0.4618
 2985SOL    HW220415   1.218   3.861   7.802 -1.7889  2.6061 -0.7778
 2986SOL     OW20416   2.983   1.737   8.162  0.8370  0.2017  1.1236
 2986SOL    HW120417   3.059   1.728   8.105  1.7917  0.0198  2.4138
 2986SOL    HW220418   2.902   1.738   8.111  1.3923 -2.3840  0.1760
 2987SOL     OW20419   1.678   2.769  11.115 -0.1454  0.1176  0.4411
 2987SOL    HW120420   1.616   2.700  11.141  1.0079 -1.5023 -1.0649
 2987SOL    HW220421   1.666   2.833  11.185 -1.9193  0.4559 -0.1832
 2988SOL     OW20422   0.392   2.771   7.641 -1.2770  0.0571 -0.6655
 2988SOL    HW120423   0.438   2.817   7.711  0.4926 -1.4281 -0.8676
 2988SOL    HW220424   0.455   2.784   7.571 -1.4391  0.4426 -0.7385
 2989SOL     OW20425   2.374   2.485   9.166  0.4675  0.7543  0.0376
 2989SOL    HW120426   2.457   2.531   9.153 -0.9544  2.5403 -2.7772
 2989SOL    HW220427   2.383   2.403   9.214 -1.2990 -0.1726 -1.2061
 2990SOL     OW20428   2.085   0.376   1.892 -0.2995 -0.0976 -0.1814
 2990SOL    HW120429   1.993   0.363   1.914 -0.4325  2.0623  0.6178
 2990SOL    HW220430   2.128   0.298   1.926  0.6913  0.2973 -0.5094
 2991SOL     OW20431   4.610   3.959   6.988 -0.3212  0.0056  0.7727
 2991SOL    HW120432   4.583   4.042   6.949 -0.7973 -0.6713 -0.3670
 2991SOL    HW220433   4.629   3.981   7.079  2.3481  1.7443 -0.2093
 2992SOL     OW20434   1.295   4.370  10.019 -0.0028 -0.1145  0.2117
 2992SOL    HW120435   1.380   4.399  10.050  1.3020 -0.8679 -2.6433
 2992SOL    HW220436   1.291   4.281  10.054  1.2824 -0.6847 -1.0903
 2993SOL     OW20437   1.354   2.310  12.581 -0.1377  0.4739  0.0792
 2993SOL    HW120438   1.322   2.247  12.645 -0.8021  0.3327 -0.4010
 2993SOL    HW220439   1.280   2.321  12.522  2.7223  2.8075 -3.0758
 2994SOL     OW20440   1.303   1.445   7.818 -0.6136 -0.1447 -0.5175
 2994SOL    HW120441   1.338   1.531   7.842 -1.0829 -0.0829 -0.0636
 2994SOL    HW220442   1.286   1.464   7.726  2.0366  1.5807 -0.6341
 2995SOL     OW20443   2.544   3.398  14.774  0.7302 -0.6113 -0.3156
 2995SOL    HW120444   2.472   3.338  14.794 -0.1814 -0.3122 -2.6347
 2995SOL    HW220445   2.593   3.407  14.856 -1.4577  0.3204  0.9057
 2996SOL     OW20446   1.698   1.065   8.977 -0.0590  0.4623  0.3699
 2996SOL    HW120447   1.717   1.144   9.027 -2.7745  0.9869  0.5631
 2996SOL    HW220448   1.620   1.028   9.019  1.7186 -2.3465  1.2107
 2997SOL     OW20449   2.408   0.181   9.555  0.7347  0.1121  0.1884
 2997SOL    HW120450   2.388   0.087   9.551  0.7694  0.0783  0.8550
 2997SOL    HW220451   2.326   0.217   9.521  3.1146  1.2404 -4.2765
 2998SOL     OW20452   3.527   0.932   0.857  0.1303 -0.3588  0.2533
 2998SOL    HW120453   3.437   0.958   0.876 -0.2150  0.5076 -2.4812
 2998SOL    HW220454   3.534   0.847   0.899  1.0054 -0.8748 -0.9343
 2999SOL     OW20455   2.770   4.613   1.775 -0.5744  0.1393 -0.1365
 2999SOL    HW120456   2.740   4.522   1.781 -0.5399 -0.0235 -2.2066
 2999SOL    HW220457   2.855   4.605   1.818  0.4972  2.9606 -1.6996
 3000SOL     OW20458   1.784   4.067   6.709  0.2375 -0.6502  1.0633
 3000SOL    HW120459   1.784   4.000   6.641 -0.3737 -1.0531  1.4602
 3000SOL    HW220460   1.875   4.094   6.709  0.2124 -0.5706  1.2025
 3001SOL     OW20461   0.992   4.527   2.124 -0.0709 -0.0567  0.1829
 3001SOL    HW120462   1.068   4.506   2.178  0.3000  1.6892  0.3124
 3001SOL    HW220463   0.929   4.464   2.162 -1.2965  0.0766 -1.6377
 3002SOL     OW20464   2.180   0.437   7.893  0.2032 -0.0111 -0.1194
 3002SOL    HW120465   2.198   0.346   7.870  0.7189  0.0952 -0.1200
 3002SOL    HW220466   2.126   0.465   7.819  0.0607 -0.0240 -0.0204
 3003SOL     OW20467   2.794   2.188   3.954 -0.4715  0.4384 -0.0922
 3003SOL    HW120468   2.861   2.238   4.001 -1.2348 -0.5689  2.0526
 3003SOL    HW220469   2.748   2.257   3.906  1.3126  1.0773 -0.8876
 3004SOL     OW20470   4.090   1.058   4.316  0.2179 -0.3091  0.0895
 3004SOL    HW120471   4.126   1.023   4.397  1.6406 -0.4478 -0.6041
 3004SOL    HW220472   4.106   1.150   4.336  0.1536 -0.2020 -0.3344
 3005SOL     OW20473   4.008   3.722   1.207 -0.0623 -0.0739 -0.2788
 3005SOL    HW120474   4.099   3.750   1.217 -0.2786  0.3360  0.4685
 3005SOL    HW220475   3.982   3.702   1.297  3.2085  3.4096  1.4193
 3006SOL     OW20476   3.540   3.389  14.015  0.6770 -0.4530 -0.5106
 3006SOL    HW120477   3.600   3.317  13.994  0.1329 -1.4633  1.3589
 3006SOL    HW220478   3.525   3.378  14.109 -1.5538 -2.1769 -1.0302
 3007SOL     OW20479   3.934   4.487   4.904  0.1108 -0.5622  0.1986
 3007SOL    HW120480   3.913   4.405   4.949  0.2304 -0.9044 -0.3718
 3007SOL    HW220481   3.946   4.456   4.814 -0.5359 -0.5780  0.1204
 3008SOL     OW20482   3.705   2.216   8.947 -0.1566  0.0394  0.1388
 3008SOL    HW120483   3.619   2.174   8.945  1.8941 -4.0118 -2.2015
 3008SOL    HW220484   3.685   2.296   8.996  3.1552  0.4924  0.7042
 3009SOL     OW20485   4.071   4.556   6.494 -0.2460 -0.6882 -0.3284
 3009SOL    HW120486   3.981   4.589   6.493 -0.5390 -1.4567  0.4869
 3009SOL    HW220487   4.079   4.511   6.410 -0.2839  0.0366 -0.7247
 3010SOL     OW20488   2.962   1.077   4.205 -0.2800  0.1389 -0.0211
 3010SOL    HW120489   2.925   1.136   4.271 -0.6605 -3.0066  2.5611
 3010SOL    HW220490   3.056   1.073   4.224 -0.0466  0.4120 -1.0714
 3011SOL     OW20491   3.684   1.120   9.398 -0.5503  0.6981  0.1234
 3011SOL    HW120492   3.611   1.061   9.376  1.3556 -1.0042 -1.7163
 3011SOL    HW220493   3.741   1.110   9.322 -0.2861  0.1914  0.3854
 3012SOL     OW20494   2.146   1.445  12.215  0.0743  0.4525 -0.4287
 3012SOL    HW120495   2.168   1.359  12.181  1.0298  1.1565 -1.5956
 3012SOL    HW220496   2.229   1.483  12.245  1.0030 -2.8375  1.1222
 3013SOL     OW20497   3.090   0.913   9.589  0.5000  0.2748  0.2929
 3013SOL    HW120498   3.063   0.975   9.521 -3.9258 -0.9348  0.9127
 3013SOL    HW220499   3.114   0.846   9.524  2.4817 -2.3350  3.6968
 3014SOL     OW20500   2.538   2.191  14.114  0.3485  0.0752 -0.3260
 3014SOL    HW120501   2.556   2.229  14.029  0.2111 -1.5904 -1.1017
 3014SOL    HW220502   2.556   2.098  14.098 -0.3319 -0.7151  3.3031
 3015SOL     OW20503   3.629   1.737  15.278  0.1563 -0.2577 -0.6374
 3015SOL    HW120504   3.712   1.758  15.235  1.1254 -0.9864  0.8604
 3015SOL    HW220505   3.649   1.663  15.336  0.1421 -0.2004 -0.5602
 3016SOL     OW20506   0.706   2.316   5.863 -0.5289 -0.4450  0.1578
 3016SOL    HW120507   0.774   2.294   5.927  1.0906  0.9959 -1.0353
 3016SOL    HW220508   0.641   2.365   5.913  0.5821  3.4971 -2.2666
 3017SOL     OW20509   1.501   3.946   7.456  0.0821  0.1724 -0.4474
 3017SOL    HW120510   1.524   4.001   7.531 -0.5450 -1.1622  0.7297
 3017SOL    HW220511   1.499   4.009   7.385 -1.7351 -0.9737 -1.4289
 3018SOL     OW20512   3.177   3.872   9.028  0.6687 -0.7696  0.2355
 3018SOL    HW120513   3.209   3.817   8.957 -1.0910  0.8388 -1.7949
 3018SOL    HW220514   3.229   3.851   9.106 -2.6897 -2.2990  2.0372
 3019SOL     OW20515   1.346   3.586  10.065  0.0147 -0.6426 -0.5549
 3019SOL    HW120516   1.261   3.572  10.107  0.0507  0.9327  0.0263
 3019SOL    HW220517   1.393   3.509  10.098 -0.5757  0.2086  2.2743
 3020SOL     OW20518   2.765   2.615   5.222  0.4743  0.0136  0.3612
 3020SOL    HW120519   2.689   2.624   5.279 -0.4449 -0.3864 -0.8097
 3020SOL    HW220520   2.792   2.526   5.242 -0.4520 -0.2144  0.6137
 3021SOL     OW20521   1.543   1.937  11.841  0.3721 -0.0353 -0.1539
 3021SOL    HW120522   1.634   1.968  11.842 -0.4795  2.4639 -0.0116
 3021SOL    HW220523   1.562   1.856  11.887  0.5801 -0.0445 -0.2509
 3022SOL     OW20524   2.618   3.023  10.058  0.3018  0.1287 -0.2046
 3022SOL    HW120525   2.526   3.050  10.068  1.2593  3.0103  0.7279
 3022SOL    HW220526   2.603   2.944  10.110  1.3955  0.4013  0.5272
 3023SOL     OW20527   2.541   1.957  16.640  0.1345  0.3569  0.0471
 3023SOL    HW120528   2.482   1.941  16.714  1.9173 -2.6038  0.8237
 3023SOL    HW220529   2.620   1.988  16.684 -0.4401  1.6844  0.1613
 3024SOL     OW20530   0.413   4.025   2.343  0.3139 -0.0341 -0.5250
 3024SOL    HW120531   0.423   3.963   2.415 -1.0794 -1.3907 -1.5064
 3024SOL    HW220532   0.406   4.107   2.391  0.6156  0.5788 -1.5146
 3025SOL     OW20533   2.616   1.200   2.513 -0.1416 -0.3093  0.1655
 3025SOL    HW120534   2.536   1.246   2.487  1.4670  1.7119 -1.2081
 3025SOL    HW220535   2.582   1.112   2.497  0.7720 -0.6545  0.1165
 3026SOL     OW20536   0.525   2.820   0.319  0.6279  0.7266  0.0832
 3026SOL    HW120537   0.480   2.740   0.292  3.4685 -0.4826 -1.0821
 3026SOL    HW220538   0.595   2.819   0.254 -0.8208 -0.2460 -1.4611
 3027SOL     OW20539   1.195   0.972   6.457 -0.0428 -0.0550  0.3105
 3027SOL    HW120540   1.184   1.066   6.469 -0.7132 -0.0096 -0.5707
 3027SOL    HW220541   1.104   0.954   6.433 -0.3912  1.5582  0.3902
 3028SOL     OW20542   1.053   2.823   4.410  0.1794  0.1670 -0.3172
 3028SOL    HW120543   1.065   2.728   4.407  0.1676  0.1358  0.7240
 3028SOL    HW220544   1.017   2.849   4.325 -1.5950 -1.3535 -0.0378
 3029SOL     OW20545   2.011   3.261   8.256 -0.8911 -0.0209  0.2061
 3029SOL    HW120546   1.935   3.262   8.315  1.1381  1.1592  2.7831
 3029SOL    HW220547   2.073   3.202   8.298 -0.2184  1.1767  0.9026
 3030SOL     OW20548   0.852   0.134   4.834 -0.3039  0.1470 -0.0523
 3030SOL    HW120549   0.838   0.177   4.918 -0.6424  2.0431 -1.0725
 3030SOL    HW220550   0.942   0.153   4.808 -0.4172 -0.1406 -0.6745
 3031SOL     OW20551   4.709   2.448   0.518  0.0285  0.3962 -0.6179
 3031SOL    HW120552   4.651   2.485   0.451  0.5566  0.0325 -1.2639
 3031SOL    HW220553   0.065   2.497   0.496  0.3116 -0.7532 -2.0575
 3032SOL     OW20554   0.309   1.724  15.921 -0.1349  0.2348 -0.2650
 3032SOL    HW120555   0.297   1.775  15.841 -3.7711  1.4317  1.0515
 3032SOL    HW220556   0.394   1.683  15.902  0.6399  1.1564  1.2831
 3033SOL     OW20557   1.260   1.413   6.876 -0.7336 -0.1237 -0.0808
 3033SOL    HW120558   1.189   1.441   6.818  0.8283  1.8802 -1.0201
 3033SOL    HW220559   1.225   1.426   6.964 -0.7040  1.6805 -0.3276
 3034SOL     OW20560   1.364   1.466   0.145 -0.5959  0.5312  0.3225
 3034SOL    HW120561   1.314   1.407   0.202  1.0049 -0.4438  0.7163
 3034SOL    HW220562   1.377   1.416   0.064  0.7228 -0.9232  1.4205
 3035SOL     OW20563   4.412   1.686  11.008  0.1014 -0.2482 -0.0288
 3035SOL    HW120564   4.450   1.762  10.963 -1.4182  0.5041 -0.0459
 3035SOL    HW220565   4.327   1.724  11.032 -0.0521  0.4446 -1.6287
 3036SOL     OW20566   4.041   3.649   4.244 -0.7438 -0.1855  0.1450
 3036SOL    HW120567   4.070   3.739   4.263 -1.1555  0.1660 -0.9078
 3036SOL    HW220568   4.113   3.608   4.197  0.3897  1.3171  0.5334
 3037SOL     OW20569   1.673   0.135  11.800  0.1605 -0.0638 -0.0217
 3037SOL    HW120570   1.660   0.045  11.829  0.6065 -0.1353 -0.0384
 3037SOL    HW220571   1.769   0.139  11.791  0.2176 -0.0862  0.5597
 3038SOL     OW20572   1.742   0.756  14.910 -0.0157 -0.0306  0.3700
 3038SOL    HW120573   1.727   0.804  14.829 -1.4624  1.7324  1.6854
 3038SOL    HW220574   1.658   0.713  14.929 -0.9408  0.6116 -2.2932
 3039SOL     OW20575   2.008   2.882   6.086 -0.0106 -0.0113  0.2779
 3039SOL    HW120576   1.976   2.923   6.166 -0.0323  1.4688 -0.4883
 3039SOL    HW220577   2.088   2.932   6.073 -0.6109  1.0823  0.8757
 3040SOL     OW20578   2.245   2.750   4.932  0.3278  0.2841  0.1161
 3040SOL    HW120579   2.324   2.701   4.909 -2.1109 -3.6230 -0.0884
 3040SOL    HW220580   2.204   2.677   4.979 -1.6620  0.6867 -0.9851
 3041SOL     OW20581   2.191   3.887   1.734  0.3371  0.4636  0.0227
 3041SOL    HW120582   2.192   3.792   1.721 -3.3227  0.2254  1.5623
 3041SOL    HW220583   2.113   3.896   1.790  0.1362  2.2218 -0.5248
 3042SOL     OW20584   0.710   0.894   8.433 -0.2569 -0.4930 -0.1020
 3042SOL    HW120585   0.634   0.870   8.486  0.5837 -3.5696 -0.3356
 3042SOL    HW220586   0.711   0.814   8.381 -2.0055 -0.1702 -0.6345
 3043SOL     OW20587   0.922   0.113  15.279  0.1784  0.1213 -0.2225
 3043SOL    HW120588   0.843   0.167  15.278 -0.1558 -0.3525  0.6271
 3043SOL    HW220589   0.974   0.164  15.341 -0.3580  0.3385  0.0535
 3044SOL     OW20590   3.390   2.648  16.078 -0.4054  0.3131  0.4641
 3044SOL    HW120591   3.415   2.735  16.046  0.4987  0.0126  0.3323
 3044SOL    HW220592   3.480   2.613  16.077 -0.2271  0.8408 -1.7270
 3045SOL     OW20593   2.256   4.719   5.241 -0.2288  0.4214  0.2828
 3045SOL    HW120594   2.187   4.656   5.263  0.7620  0.0974  2.4866
 3045SOL    HW220595   2.207   0.070   5.208 -0.5224 -0.6534 -1.6900
 3046SOL     OW20596   2.984   3.751  13.292  0.1643  0.3148  0.2277
 3046SOL    HW120597   2.910   3.763  13.232 -0.0909 -0.8260  0.3057
 3046SOL    HW220598   3.009   3.843  13.292  1.3339 -0.0140 -1.6492
 3047SOL     OW20599   3.416   0.167   3.970 -0.4038 -0.4738  0.1994
 3047SOL    HW120600   3.449   0.253   3.942 -3.1593  0.2062 -0.9848
 3047SOL    HW220601   3.330   0.172   3.927  1.0254  1.7795 -2.4174
 3048SOL     OW20602   1.501   4.342   0.461  0.6695 -0.3210  0.1287
 3048SOL    HW120603   1.585   4.321   0.500  0.8882 -3.6380 -2.0242
 3048SOL    HW220604   1.440   4.344   0.534 -2.0378  2.1768 -2.2063
 3049SOL     OW20605   4.381   0.856  12.500  0.3108 -0.6520  0.3366
 3049SOL    HW120606   4.436   0.863  12.422 -1.6252  0.0968 -0.9497
 3049SOL    HW220607   4.404   0.766  12.524  1.6555 -0.7206 -1.1697
 3050SOL     OW20608   2.397   4.190   8.750  0.0174  0.6640  0.0634
 3050SOL    HW120609   2.340   4.221   8.821  4.1101  0.2553  3.5319
 3050SOL    HW220610   2.433   4.274   8.722  1.7805  0.1971  0.9628
 3051SOL     OW20611   0.673   0.343   7.848 -0.5320  0.1787  0.4370
 3051SOL    HW120612   0.720   0.290   7.912  0.6987 -0.7171 -1.2233
 3051SOL    HW220613   0.582   0.342   7.877 -0.9392  3.2696 -0.6943
 3052SOL     OW20614   3.760   0.597   1.912  0.4551 -0.1412 -0.2102
 3052SOL    HW120615   3.788   0.681   1.948 -0.5794 -0.5488  1.5297
 3052SOL    HW220616   3.823   0.578   1.843 -1.6147  0.1619 -2.1896
 3053SOL     OW20617   0.231   3.138   6.644 -0.0744 -0.3672 -0.3388
 3053SOL    HW120618   0.309   3.190   6.624 -0.8255  0.8674 -0.0375
 3053SOL    HW220619   0.217   3.101   6.557 -0.7038  0.5945 -0.6437
 3054SOL     OW20620   1.380   0.546  13.041  0.1672  0.0776 -0.8832
 3054SOL    HW120621   1.380   0.568  12.948 -0.3020 -1.7076 -1.3001
 3054SOL    HW220622   1.425   0.622  13.077 -1.2191  1.1387 -1.4122
 3055SOL     OW20623   2.189   1.969  17.095  0.4503  0.4500 -0.4601
 3055SOL    HW120624   2.248   1.894  17.094  0.0754  0.1699 -3.5020
 3055SOL    HW220625   2.244   2.030  17.144  0.9319  0.6906 -1.2930
 3056SOL     OW20626   1.726   4.649   4.464  0.3875 -0.1333 -0.0054
 3056SOL    HW120627   1.807   4.613   4.500 -0.1123  1.4387  2.6462
 3056SOL    HW220628   1.756   4.704   4.391  0.2150  2.7564  2.1141
 3057SOL     OW20629   3.771   3.861   4.385  0.3715 -0.3661 -0.3143
 3057SOL    HW120630   3.731   3.894   4.304  0.9899  0.6224 -0.2221
 3057SOL    HW220631   3.853   3.911   4.389  0.0098  0.1969  0.1655
 3058SOL     OW20632   1.133   2.598  15.209  0.6128 -0.6656  0.3695
 3058SOL    HW120633   1.163   2.507  15.203 -0.0693 -0.9486  1.2781
 3058SOL    HW220634   1.208   2.645  15.246 -0.4988  1.6260 -0.3212
 3059SOL     OW20635   3.439   3.528   3.346  0.5936 -0.3441  0.4178
 3059SOL    HW120636   3.498   3.532   3.270 -1.4165  0.2329 -1.1280
 3059SOL    HW220637   3.470   3.460   3.405 -0.6916 -1.2261  0.0740
 3060SOL     OW20638   0.915   1.246   5.707 -0.4391  0.0656  0.1322
 3060SOL    HW120639   0.933   1.329   5.750 -2.1521  0.4226  0.1369
 3060SOL    HW220640   0.892   1.270   5.617  3.4781  0.4370 -0.7931
 3061SOL     OW20641   3.173   4.278   8.779 -0.3627  0.4643 -0.0553
 3061SOL    HW120642   3.130   4.272   8.864  2.0981 -0.0170  1.1536
 3061SOL    HW220643   3.252   4.228   8.799 -0.0380  0.1629 -2.0440
 3062SOL     OW20644   0.470   2.043   6.938  0.2909 -0.4631  0.4684
 3062SOL    HW120645   0.490   2.077   7.025 -0.1982  0.5398  0.1939
 3062SOL    HW220646   0.414   1.969   6.959 -1.8392  1.4691  1.5725
 3063SOL     OW20647   3.236   0.549   2.734 -0.1519  0.1692  0.0159
 3063SOL    HW120648   3.239   0.459   2.703 -2.3829  0.3742 -0.8117
 3063SOL    HW220649   3.312   0.553   2.791  0.6532 -0.5435 -1.0219
 3064SOL     OW20650   3.832   4.595   2.105  0.2143  0.4964 -0.1256
 3064SOL    HW120651   3.777   4.532   2.152 -0.3153  0.5762 -0.6446
 3064SOL    HW220652   3.765   4.623   2.043 -1.3371  2.0225  2.2427
 3065SOL     OW20653   4.528   2.147   7.548  0.3530 -0.1562 -0.2842
 3065SOL    HW120654   4.433   2.143   7.548  0.3616 -0.2544 -1.2663
 3065SOL    HW220655   4.557   2.194   7.470 -0.1619  1.9661  0.7838
 3066SOL     OW20656   3.326   3.652   7.834 -0.6687 -0.0180  0.1831
 3066SOL    HW120657   3.232   3.669   7.822 -0.2080  1.5627 -1.0565
 3066SOL    HW220658   3.342   3.605   7.753  0.6342 -0.2856  0.5888
 3067SOL     OW20659   1.896   0.525   5.967 -0.5865  0.2633 -0.1905
 3067SOL    HW120660   1.984   0.559   5.985  0.0561 -0.7460 -1.3548
 3067SOL    HW220661   1.904   0.501   5.874 -0.0978 -0.1923 -0.0362
 3068SOL     OW20662   4.105   3.240   7.933 -0.0710 -0.4102  0.4993
 3068SOL    HW120663   4.136   3.316   7.883  2.1491 -1.0022  0.9685
 3068SOL    HW220664   4.095   3.175   7.863  0.4575  1.0833 -0.9714
 3069SOL     OW20665   3.069   0.520   7.459  0.3938  0.1245  0.3968
 3069SOL    HW120666   3.011   0.595   7.468  0.1523  0.1278 -1.2838
 3069SOL    HW220667   3.106   0.509   7.547  0.7532  0.7981  0.3279
 3070SOL     OW20668   0.529   0.770   6.396 -0.1095 -0.0787  0.0463
 3070SOL    HW120669   0.472   0.723   6.336 -0.8601  1.7013 -0.6193
 3070SOL    HW220670   0.586   0.697   6.421  0.5904  0.1754 -0.7842
 3071SOL     OW20671   0.370   1.456  13.002 -0.1729 -0.1089 -0.2604
 3071SOL    HW120672   0.364   1.377  13.056  0.0685 -0.4579 -0.7374
 3071SOL    HW220673   0.337   1.437  12.914  0.9146 -3.2795  0.0111
 3072SOL     OW20674   4.468   2.086  13.084 -0.1217 -0.4082 -0.0174
 3072SOL    HW120675   4.433   2.057  13.168 -0.5587  0.6933  0.1807
 3072SOL    HW220676   4.384   2.101  13.039 -0.3748  0.5037  0.7575
 3073SOL     OW20677   0.656   4.082  12.255  0.1274 -0.5929  0.5923
 3073SOL    HW120678   0.657   4.102  12.161  0.6598 -0.2650  0.6673
 3073SOL    HW220679   0.604   4.002  12.267 -0.9812 -0.1959 -1.4289
 3074SOL     OW20680   2.436   0.652  17.604 -0.5318  0.3425 -0.4832
 3074SOL    HW120681   2.469   0.577  17.653 -0.5282  1.0848  0.6307
 3074SOL    HW220682   2.377   0.697  17.664 -0.1291 -0.0768  0.2140
 3075SOL     OW20683   0.985   3.774   1.081 -0.9684 -0.8577  0.0221
 3075SOL    HW120684   1.013   3.685   1.059 -0.9715 -0.9431  0.3594
 3075SOL    HW220685   0.970   3.759   1.174 -3.2678 -0.6470 -0.3306
 3076SOL     OW20686   1.900   4.551   8.142  0.3980 -0.0713 -0.0333
 3076SOL    HW120687   1.827   4.489   8.134  1.9165 -1.6138 -2.0591
 3076SOL    HW220688   1.964   4.493   8.182 -0.6227 -1.3651 -0.2711
 3077SOL     OW20689   4.122   3.546   5.850  0.4685  0.0711 -0.3305
 3077SOL    HW120690   4.093   3.529   5.761  1.8013 -0.4382 -0.6753
 3077SOL    HW220691   4.214   3.567   5.832  1.2995 -1.3183  2.2040
 3078SOL     OW20692   0.916   1.078   7.891 -0.6600  0.3552 -0.1997
 3078SOL    HW120693   0.951   1.100   7.977  2.3693 -1.9960 -0.8426
 3078SOL    HW220694   0.839   1.022   7.902  0.4120 -1.5300 -2.2314
 3079SOL     OW20695   0.861   4.601   3.183 -0.1516 -0.3047 -0.7446
 3079SOL    HW120696   0.815   4.655   3.247  1.7119  0.8556 -0.3891
 3079SOL    HW220697   0.792   4.543   3.150 -0.8436  0.1431 -0.0736
 3080SOL     OW20698   1.367   1.985  15.353  0.1989 -0.5241 -0.1337
 3080SOL    HW120699   1.382   1.918  15.419  4.1939  0.1749 -0.3737
 3080SOL    HW220700   1.375   2.066  15.403  2.9733 -0.6920 -0.3091
 3081SOL     OW20701   0.150   1.193   7.990 -0.4449  0.2957  0.0576
 3081SOL    HW120702   0.098   1.113   7.986  1.2233 -0.7527 -0.4267
 3081SOL    HW220703   0.093   1.270   7.992  0.3899  0.8611  2.0447
 3082SOL     OW20704   4.648   2.750   5.052 -0.4060 -0.0470  0.0551
 3082SOL    HW120705   4.567   2.741   5.001  0.3694 -0.1292 -1.1612
 3082SOL    HW220706   4.712   2.701   5.000 -1.9266 -0.4859 -1.4185
 3083SOL     OW20707   2.118   1.476   6.790  0.3087  0.2385  0.9107
 3083SOL    HW120708   2.037   1.470   6.839  0.2191 -0.9717  0.6006
 3083SOL    HW220709   2.164   1.543   6.840 -3.3919  1.6137  2.4502
 3084SOL     OW20710   0.505   0.022   8.048 -0.2748  0.3942  0.3357
 3084SOL    HW120711   0.518   0.030   8.143 -0.3312  0.3776  0.3446
 3084SOL    HW220712   0.415   4.714   8.049 -1.2273  3.1103  1.4065
 3085SOL     OW20713   4.152   4.539   5.439 -0.4850 -0.2794  0.3913
 3085SOL    HW120714   4.199   4.606   5.390  0.2163 -0.0856  1.3215
 3085SOL    HW220715   4.124   4.583   5.519 -2.4239 -0.7904 -0.0116
 3086SOL     OW20716   1.843   4.424  11.921  0.3712 -0.2850 -0.0963
 3086SOL    HW120717   1.835   4.373  12.002 -1.9112 -0.1775 -0.2396
 3086SOL    HW220718   1.937   4.432  11.908  0.8401 -2.7305  1.6999
 3087SOL     OW20719   1.262   1.536   9.730  0.4187  0.3878  0.4139
 3087SOL    HW120720   1.305   1.515   9.647  1.8725  0.9342  1.0247
 3087SOL    HW220721   1.173   1.534   9.695  0.4659 -4.4470  0.6065
 3088SOL     OW20722   1.951   3.770   6.597 -0.1447 -0.0718 -0.1318
 3088SOL    HW120723   1.997   3.697   6.557 -0.5425 -1.2668  1.6133
 3088SOL    HW220724   1.945   3.835   6.527 -2.5190  0.0287  0.1522
 3089SOL     OW20725   0.277   1.452   4.443  0.3507 -0.0050  0.4898
 3089SOL    HW120726   0.291   1.393   4.369  2.8728  1.2376 -0.0205
 3089SOL    HW220727   0.322   1.406   4.514 -1.1733 -1.7434  0.3208
 3090SOL     OW20728   4.088   1.710   7.060  0.1345 -0.4189  0.2748
 3090SOL    HW120729   4.061   1.711   7.151 -1.6270  0.4346 -0.2717
 3090SOL    HW220730   4.084   1.617   7.040  1.4634 -0.9560  2.5558
 3091SOL     OW20731   1.176   0.282   6.090  0.0501  0.3822  0.1158
 3091SOL    HW120732   1.264   0.289   6.127 -0.3282  4.1045  0.3179
 3091SOL    HW220733   1.119   0.310   6.162 -0.8406 -0.5785 -0.2323
 3092SOL     OW20734   0.541   2.645   5.671 -0.4762 -0.1361  0.1074
 3092SOL    HW120735   0.556   2.599   5.588  1.7816 -1.0421  1.0263
 3092SOL    HW220736   0.625   2.685   5.693 -0.3116 -0.3690 -0.1040
 3093SOL     OW20737   1.544   3.544   9.564 -0.4285  0.6225  0.1028
 3093SOL    HW120738   1.494   3.462   9.557 -2.4461  2.0182 -1.8518
 3093SOL    HW220739   1.506   3.579   9.644 -0.0728  0.9733  0.1181
 3094SOL     OW20740   1.400   2.245   5.211 -0.6189 -0.9566 -0.1496
 3094SOL    HW120741   1.458   2.178   5.247 -0.9713 -1.4036 -0.4271
 3094SOL    HW220742   1.449   2.326   5.227 -0.8580 -0.4439 -1.9979
 3095SOL     OW20743   4.435   2.013  13.374  0.0791  0.1626  0.4966
 3095SOL    HW120744   4.523   1.983  13.351 -0.7955 -2.0022  0.0803
 3095SOL    HW220745   4.442   2.009  13.470  0.6556  2.1033  0.5416
 3096SOL     OW20746   3.860   3.117  16.569 -0.0917  0.0837  0.1706
 3096SOL    HW120747   3.943   3.068  16.572  0.7271  1.3564 -1.5194
 3096SOL    HW220748   3.798   3.045  16.556 -1.4041  1.1082  0.7214
 3097SOL     OW20749   0.637   2.746   8.292  0.0172 -0.2231  0.1854
 3097SOL    HW120750   0.669   2.663   8.258  0.2243 -0.1533  0.2123
 3097SOL    HW220751   0.705   2.767   8.356  2.0123  0.1955 -2.0663
 3098SOL     OW20752   3.552   3.011   2.565 -0.6509  0.4165  0.1298
 3098SOL    HW120753   3.608   2.943   2.602 -1.9632 -1.5260 -1.4495
 3098SOL    HW220754   3.539   2.961   2.484  1.1908 -1.7456  1.1979
 3099SOL     OW20755   1.628   3.924   9.496  0.5091 -0.0050  0.2683
 3099SOL    HW120756   1.683   3.855   9.531 -0.4103 -0.8876 -0.0382
 3099SOL    HW220757   1.600   3.978   9.570 -1.3380 -2.8537  1.6271
 3100SOL     OW20758   3.239   3.556   3.696 -0.1873 -1.0994  1.0328
 3100SOL    HW120759   3.307   3.512   3.746  0.2760 -0.2089  1.1916
 3100SOL    HW220760   3.277   3.643   3.686  0.0055 -1.2765  0.2399
 3101SOL     OW20761   1.390   3.021   9.513 -0.0503  0.2705  0.2291
 3101SOL    HW120762   1.377   2.979   9.598  1.2141  1.0207  0.7954
 3101SOL    HW220763   1.298   3.040   9.494  0.4593 -0.5679 -3.2032
 3102SOL     OW20764   4.128   2.898   8.374 -0.4701 -0.1199  0.2718
 3102SOL    HW120765   4.169   2.915   8.289 -2.5128  1.8636 -0.3260
 3102SOL    HW220766   4.196   2.846   8.416 -0.1092  0.0988 -0.0405
 3103SOL     OW20767   3.451   4.399  16.466 -0.0747 -0.1271  0.0876
 3103SOL    HW120768   3.460   4.423  16.373 -1.0041 -0.8574 -0.1924
 3103SOL    HW220769   3.490   4.473  16.512  1.1246  0.5483 -1.9741
 3104SOL     OW20770   0.538   0.387  14.596 -0.0890  0.3196 -0.0322
 3104SOL    HW120771   0.471   0.422  14.655 -1.6617 -0.8243 -1.1290
 3104SOL    HW220772   0.582   0.469  14.571 -1.1724  0.3911 -1.7319
 3105SOL     OW20773   1.024   1.707   5.212 -0.1370 -0.5360 -0.3354
 3105SOL    HW120774   1.052   1.745   5.296 -1.1101  0.0963 -0.3077
 3105SOL    HW220775   0.933   1.691   5.238  0.1650 -1.0402  0.4265
 3106SOL     OW20776   0.310   3.580   3.570 -0.5103 -0.2239  0.0180
 3106SOL    HW120777   0.257   3.657   3.590  1.4072  0.6274  1.8943
 3106SOL    HW220778   0.384   3.583   3.631  1.0487 -1.9717 -1.7916
 3107SOL     OW20779   3.842   0.824   5.242  0.2125  0.0869  0.3719
 3107SOL    HW120780   3.807   0.738   5.218  2.0956 -0.5607 -0.0222
 3107SOL    HW220781   3.787   0.885   5.193  0.0704 -1.4066 -1.3375
 3108SOL     OW20782   4.067   3.195  13.390 -0.4345 -0.6805 -0.2294
 3108SOL    HW120783   4.021   3.228  13.313  1.4813  2.2241 -0.0853
 3108SOL    HW220784   4.154   3.176  13.356 -0.3629  0.1034 -0.4763
 3109SOL     OW20785   2.105   1.944  10.161 -0.2665 -0.4860  0.0052
 3109SOL    HW120786   2.156   1.895  10.097  0.0664 -2.0574  1.4685
 3109SOL    HW220787   2.100   1.871  10.223  1.4123 -2.0316 -1.7205
 3110SOL     OW20788   0.571   2.870   0.593  0.0267 -0.0771  0.4018
 3110SOL    HW120789   0.555   2.963   0.607  1.2012 -0.1697  2.2593
 3110SOL    HW220790   0.537   2.864   0.503 -1.3095  1.2309  0.8089
 3111SOL     OW20791   1.648   1.759  16.585  0.2713  0.1979  0.2896
 3111SOL    HW120792   1.634   1.685  16.526 -0.0422 -1.7199  2.7715
 3111SOL    HW220793   1.573   1.815  16.566  0.6957  0.4286 -0.7073
 3112SOL     OW20794   0.865   1.384   5.492  0.3537 -0.5698 -0.1085
 3112SOL    HW120795   0.939   1.438   5.519 -0.4400 -0.2522  1.4327
 3112SOL    HW220796   0.799   1.454   5.497  3.3364  2.2929 -0.3959
 3113SOL     OW20797   2.175   4.131  15.207  0.4670 -0.6686  0.5605
 3113SOL    HW120798   2.237   4.187  15.160 -0.8296 -1.1182 -1.6767
 3113SOL    HW220799   2.101   4.125  15.147  0.7291 -1.0456  0.2778
 3114SOL     OW20800   0.295   0.458  11.051 -0.1971 -0.4987 -0.2077
 3114SOL    HW120801   0.313   0.466  10.957 -0.9868 -1.0205 -0.3980
 3114SOL    HW220802   0.218   0.514  11.058 -0.1846 -0.4197 -0.6912
 3115SOL     OW20803   0.725   4.347  15.997  0.4212  0.3023  0.9580
 3115SOL    HW120804   0.726   4.438  16.025  1.6901  1.0507 -1.5544
 3115SOL    HW220805   0.638   4.321  15.967  1.1802  0.9591 -1.8458
 3116SOL     OW20806   2.073   2.010   6.188 -0.3255 -0.3262 -0.0162
 3116SOL    HW120807   2.150   2.065   6.196 -2.5087  2.1990  3.5648
 3116SOL    HW220808   2.083   1.958   6.268  3.4057 -0.1531 -0.3823
 3117SOL     OW20809   3.625   2.877   0.683 -0.3651 -0.0665 -0.6481
 3117SOL    HW120810   3.629   2.941   0.612 -1.9820  0.1993 -0.5006
 3117SOL    HW220811   3.564   2.923   0.740  0.5597 -2.2777  2.1072
 3118SOL     OW20812   4.002   0.678   0.775 -0.4154  0.3384 -0.0377
 3118SOL    HW120813   4.010   0.586   0.749 -0.8400 -0.0022  1.0455
 3118SOL    HW220814   3.938   0.651   0.840 -1.0505 -0.0328 -0.8175
 3119SOL     OW20815   3.748   1.318   7.525  0.0193 -0.3183 -0.7422
 3119SOL    HW120816   3.655   1.325   7.506  0.5003  2.2024 -2.0911
 3119SOL    HW220817   3.753   1.253   7.595 -1.1552  1.0384  0.5930
 3120SOL     OW20818   2.329   3.381   3.046 -0.0956  1.0255 -0.2128
 3120SOL    HW120819   2.418   3.346   3.040 -0.6795 -0.1266 -2.2562
 3120SOL    HW220820   2.286   3.313   3.096  1.0812  0.5773  0.1770
 3121SOL     OW20821   2.800   4.430  14.662 -0.5144 -0.0263  0.3675
 3121SOL    HW120822   2.714   4.460  14.630 -0.4862 -0.2520  0.0790
 3121SOL    HW220823   2.837   4.428  14.574  1.2091 -2.0405  1.1454
 3122SOL     OW20824   2.517   4.519   1.032  0.1914  0.4533 -0.1571
 3122SOL    HW120825   2.606   4.549   1.047  0.1811  0.4929 -0.1754
 3122SOL    HW220826   2.490   4.584   0.967 -1.5342  0.7058  0.8027
 3123SOL     OW20827   3.872   3.611   3.738  0.2040  0.1200 -0.4796
 3123SOL    HW120828   3.858   3.527   3.695  0.1749  0.1874 -0.6021
 3123SOL    HW220829   3.795   3.611   3.795 -0.7548 -2.0927 -1.8093
 3124SOL     OW20830   3.717   4.143   7.463 -0.1931 -0.3256  0.0751
 3124SOL    HW120831   3.680   4.057   7.443 -1.4105  0.2535 -0.1895
 3124SOL    HW220832   3.807   4.121   7.484 -0.5177  0.5394  2.3551
 3125SOL     OW20833   1.788   0.149   9.790 -0.2878  0.1855 -0.6633
 3125SOL    HW120834   1.856   0.146   9.857 -0.6177  1.0589 -0.2750
 3125SOL    HW220835   1.841   0.152   9.711  0.0123  1.1424 -0.4289
 3126SOL     OW20836   0.723   0.135   5.714  0.3306 -0.3469 -0.8031
 3126SOL    HW120837   0.767   0.173   5.790  0.3861  0.2763 -1.1418
 3126SOL    HW220838   0.757   0.184   5.639  3.0084  0.1939  0.7868
 3127SOL     OW20839   2.979   2.214  14.205 -0.0724  0.3727 -0.2134
 3127SOL    HW120840   3.057   2.242  14.158 -0.1765 -0.9841 -1.1896
 3127SOL    HW220841   2.976   2.283  14.271 -0.0344  1.1213 -0.9937
 3128SOL     OW20842   0.915   1.527   7.088 -0.1519 -1.1433 -0.3470
 3128SOL    HW120843   0.889   1.438   7.113 -0.2134 -1.0447 -0.0539
 3128SOL    HW220844   0.874   1.541   7.003  0.6901  0.6077 -0.4628
 3129SOL     OW20845   2.246   1.630  12.040 -0.4102  0.2242 -0.3896
 3129SOL    HW120846   2.209   1.565  12.099 -0.2211 -0.0247 -0.5461
 3129SOL    HW220847   2.170   1.662  11.992  0.2420  0.9696 -0.9356
 3130SOL     OW20848   1.336   0.404   7.994  0.4186 -0.3233 -0.6257
 3130SOL    HW120849   1.371   0.329   8.041 -0.5375 -0.6910 -0.5045
 3130SOL    HW220850   1.359   0.391   7.902 -0.4425 -0.3622 -0.8356
 3131SOL     OW20851   4.721   1.465  14.115 -0.4977  0.6374 -0.2896
 3131SOL    HW120852   0.041   1.474  14.030  0.2036 -2.1249 -0.2113
 3131SOL    HW220853   0.063   1.507  14.170 -0.3794 -2.1326  1.7148
 3132SOL     OW20854   3.604   1.138   3.226  0.0943  0.0096 -0.4629
 3132SOL    HW120855   3.590   1.205   3.293 -0.6947 -0.3617 -0.2602
 3132SOL    HW220856   3.511   1.124   3.208  0.4475 -0.7199 -1.7282
 3133SOL     OW20857   2.133   2.549   5.103 -0.2099  0.3516  0.1469
 3133SOL    HW120858   2.097   2.461   5.090 -0.9618  0.4701  1.3919
 3133SOL    HW220859   2.142   2.553   5.198  0.7949  0.0593  0.0746
 3134SOL     OW20860   0.667   1.526   7.426  0.9782 -0.4957 -0.6987
 3134SOL    HW120861   0.582   1.545   7.465  1.2598 -3.6635  1.5318
 3134SOL    HW220862   0.720   1.542   7.505  1.1896 -1.9460 -0.5455
 3135SOL     OW20863   2.705   1.115   2.181 -0.8725 -0.0560  0.2429
 3135SOL    HW120864   2.762   1.114   2.258  1.9222  2.8143 -1.7852
 3135SOL    HW220865   2.638   1.181   2.195 -0.2807  0.7431 -0.6871
 3136SOL     OW20866   1.840   2.870  11.842 -0.2065 -0.4543 -0.3662
 3136SOL    HW120867   1.838   2.949  11.895 -0.3933 -0.1416 -0.8422
 3136SOL    HW220868   1.842   2.798  11.906  0.1460 -1.3123 -1.3315
 3137SOL     OW20869   3.307   2.688   9.530 -0.1571  0.8603 -0.1768
 3137SOL    HW120870   3.262   2.608   9.559  0.6327  0.0760 -1.1085
 3137SOL    HW220871   3.338   2.715   9.616  3.2428  1.1434 -1.4812
 3138SOL     OW20872   0.141   2.408  14.495 -0.0271 -0.1757  0.1540
 3138SOL    HW120873   0.122   2.406  14.401 -1.7757  1.9942  0.4616
 3138SOL    HW220874   0.059   2.395  14.541  0.5111  1.2328  1.5014
 3139SOL     OW20875   4.292   2.189   8.373 -0.2155  0.4384 -0.3607
 3139SOL    HW120876   4.234   2.265   8.378  0.5229  0.9192  1.0046
 3139SOL    HW220877   4.348   2.188   8.451 -2.6609 -0.0993  1.4096
 3140SOL     OW20878   4.102   1.630   8.416 -0.3339  0.1761  0.3284
 3140SOL    HW120879   4.092   1.719   8.383  0.3947 -0.1080 -0.6574
 3140SOL    HW220880   4.013   1.600   8.397 -0.3726  1.0038 -0.7727
 3141SOL     OW20881   2.009   0.769   5.193  0.3739  0.3526 -0.3299
 3141SOL    HW120882   1.968   0.845   5.234  1.2317  1.1908 -1.0126
 3141SOL    HW220883   1.997   0.701   5.258 -0.0384  0.3544 -0.4071
 3142SOL     OW20884   2.377   3.443   2.685  0.3839 -0.1559 -0.1018
 3142SOL    HW120885   2.459   3.489   2.701 -1.0619  1.7767  1.8510
 3142SOL    HW220886   2.372   3.451   2.590 -0.2795  4.6062  0.3048
 3143SOL     OW20887   4.208   4.022   3.546 -0.0446  0.3468 -0.4363
 3143SOL    HW120888   4.204   3.946   3.604 -1.5879  2.1442  1.7918
 3143SOL    HW220889   4.202   4.092   3.611  0.0095  0.9745 -1.1046
 3144SOL     OW20890   3.972   2.884   5.140 -0.2138 -0.2223 -0.7470
 3144SOL    HW120891   3.912   2.910   5.209 -2.3021 -2.7265 -1.6408
 3144SOL    HW220892   4.019   2.968   5.132 -1.1143  0.4053  0.7091
 3145SOL     OW20893   3.248   3.764  16.509  0.2566 -0.3152 -0.0861
 3145SOL    HW120894   3.177   3.719  16.463 -0.6280 -0.7753  1.6973
 3145SOL    HW220895   3.324   3.715  16.480  0.7750  0.0412  0.6868
 3146SOL     OW20896   2.490   3.749   7.587 -0.2385  0.3362  0.2251
 3146SOL    HW120897   2.543   3.672   7.606  1.7652  2.1394  1.8611
 3146SOL    HW220898   2.541   3.817   7.629 -1.1032  0.3740  1.2330
 3147SOL     OW20899   4.061   0.394   7.151  0.0635  0.1982 -0.4192
 3147SOL    HW120900   4.003   0.332   7.196 -0.6605  0.5073 -0.9220
 3147SOL    HW220901   4.067   0.456   7.224  1.9506 -1.5605  0.9258
 3148SOL     OW20902   4.623   3.667   0.185 -0.5942 -0.1975 -0.0861
 3148SOL    HW120903   4.695   3.674   0.123  2.3583 -2.2286  3.1128
 3148SOL    HW220904   4.586   3.753   0.164  1.7997  0.6155 -1.0221
 3149SOL     OW20905   2.608   4.582  14.533  0.0841 -0.0978 -1.2315
 3149SOL    HW120906   2.552   4.507  14.555 -0.5221  0.4565 -0.9204
 3149SOL    HW220907   2.616   4.577  14.438 -2.1290  0.5724 -1.4331
 3150SOL     OW20908   2.491   1.701   2.011 -0.1802 -0.0182 -0.0687
 3150SOL    HW120909   2.524   1.743   2.090 -0.6128  1.0372 -0.4518
 3150SOL    HW220910   2.488   1.777   1.953  0.5131  1.3471  1.6957
 3151SOL     OW20911   0.807   2.368   6.897 -0.0611 -0.0083  0.3993
 3151SOL    HW120912   0.890   2.416   6.890 -1.0266  1.3614 -1.4866
 3151SOL    HW220913   0.795   2.347   6.805 -2.4504  1.3106  0.4076
 3152SOL     OW20914   1.202   4.532   0.607  0.1070 -0.0398 -0.9687
 3152SOL    HW120915   1.127   4.516   0.664  0.2070  1.1302 -0.5077
 3152SOL    HW220916   1.229   4.441   0.593 -0.4638 -0.0726 -1.8023
 3153SOL     OW20917   4.392   2.682   4.941  0.0357 -0.6004 -0.5204
 3153SOL    HW120918   4.394   2.602   4.993 -3.2705  0.6303  1.4693
 3153SOL    HW220919   4.299   2.685   4.917  0.0914  0.9796 -0.5400
 3154SOL     OW20920   3.967   1.528  10.490 -0.3919  0.1828 -0.0521
 3154SOL    HW120921   3.985   1.450  10.544 -0.9060  0.0875 -0.0200
 3154SOL    HW220922   3.972   1.601  10.551 -0.9416 -0.9912  1.4260
 3155SOL     OW20923   3.643   0.255   1.827  0.1828  0.4128 -0.0518
 3155SOL    HW120924   3.730   0.232   1.796 -0.5799 -2.4032 -0.1187
 3155SOL    HW220925   3.628   0.320   1.758  1.4412  2.2833  1.4502
 3156SOL     OW20926   4.360   0.921   7.366  0.2263 -0.3126  0.2364
 3156SOL    HW120927   4.357   0.884   7.278  1.0070 -1.9540  0.8984
 3156SOL    HW220928   4.265   0.927   7.375  0.1625 -0.9117 -0.0070
 3157SOL     OW20929   2.315   0.337   7.557  0.3028  0.3920 -0.4486
 3157SOL    HW120930   2.272   0.286   7.488  0.6268 -0.6586  0.1339
 3157SOL    HW220931   2.291   0.425   7.527  1.6602  0.1163 -2.3723
 3158SOL     OW20932   3.588   0.376   3.931 -0.0417 -0.0645  0.6309
 3158SOL    HW120933   3.630   0.425   4.002  1.5705  0.3297 -0.6096
 3158SOL    HW220934   3.574   0.438   3.860  1.1602  1.9381  2.1670
 3159SOL     OW20935   0.957   2.621  10.024 -0.3948 -0.1528  0.2080
 3159SOL    HW120936   0.863   2.605  10.021 -0.3595 -0.6544  1.5890
 3159SOL    HW220937   0.982   2.595   9.936 -2.9458 -1.5581 -0.1003
 3160SOL     OW20938   2.699   2.457   4.146 -0.1048  0.4973 -0.0921
 3160SOL    HW120939   2.639   2.529   4.129 -0.7424  0.1880  0.8691
 3160SOL    HW220940   2.633   2.391   4.162 -2.2873  2.2291 -1.9697
 3161SOL     OW20941   4.367   2.857   7.107  0.0635  0.2068  0.7452
 3161SOL    HW120942   4.350   2.796   7.179  1.8809  0.4790  1.3826
 3161SOL    HW220943   4.298   2.923   7.119 -1.5447 -1.1728 -0.7965
 3162SOL     OW20944   0.876   2.730   8.467 -0.1688  0.6678 -0.4467
 3162SOL    HW120945   0.905   2.808   8.515  0.0525  0.8312 -0.8411
 3162SOL    HW220946   0.939   2.723   8.394 -0.2875 -2.3005 -0.2330
 3163SOL     OW20947   2.945   0.131   7.727  0.2172 -0.3830 -0.5475
 3163SOL    HW120948   2.890   0.105   7.653  0.3361 -1.5344 -0.2203
 3163SOL    HW220949   2.888   0.199   7.762  0.3825 -0.9155  0.7441
 3164SOL     OW20950   4.397   1.141  12.184 -0.5275 -0.3138 -0.2222
 3164SOL    HW120951   4.358   1.177  12.263  2.1772 -0.3231  1.1330
 3164SOL    HW220952   4.481   1.187  12.176 -0.4704 -0.3260  0.3210
 3165SOL     OW20953   2.090   2.716   7.038  0.4515 -0.4625  0.3595
 3165SOL    HW120954   2.116   2.709   7.130 -0.6845 -1.1365  0.6349
 3165SOL    HW220955   2.010   2.664   7.048  0.0612  0.3526  1.4284
 3166SOL     OW20956   4.444   2.810   7.969 -0.8287 -0.8189  0.2447
 3166SOL    HW120957   4.437   2.737   8.030  1.7238 -2.3951 -1.3887
 3166SOL    HW220958   4.430   2.770   7.884  0.9197 -2.5379  0.7790
 3167SOL     OW20959   1.962   4.391   6.837 -0.2067 -0.6092 -0.0576
 3167SOL    HW120960   1.872   4.395   6.868 -0.3316 -0.6186 -0.4142
 3167SOL    HW220961   2.003   4.369   6.921 -0.8492 -0.3507  0.3233
 3168SOL     OW20962   0.046   3.037   2.938 -0.0214 -0.7942  0.2380
 3168SOL    HW120963   4.675   3.042   2.928 -0.0420  1.1761  1.4884
 3168SOL    HW220964   0.064   3.119   2.984 -0.2041  0.2796 -1.5799
 3169SOL     OW20965   0.956   3.275   4.740  0.1465  0.1406  0.1982
 3169SOL    HW120966   0.887   3.299   4.678 -0.2560 -1.2891  0.0774
 3169SOL    HW220967   1.018   3.348   4.739 -0.0767  0.3023 -1.4255
 3170SOL     OW20968   4.167   1.574   5.438  0.1777  0.3046 -0.2574
 3170SOL    HW120969   4.102   1.523   5.390 -1.9096  0.8601  1.9557
 3170SOL    HW220970   4.206   1.628   5.369 -0.8396  0.0036 -1.0659
 3171SOL     OW20971   3.948   3.786   4.854 -0.0778  0.1684 -0.1438
 3171SOL    HW120972   3.892   3.739   4.792  1.4750 -2.4183  0.4309
 3171SOL    HW220973   3.902   3.759   4.933  2.3145 -1.8958  0.5538
 3172SOL     OW20974   3.375   1.435   5.922 -0.7238  0.3108 -0.1822
 3172SOL    HW120975   3.348   1.400   5.838  0.6024 -0.8523 -0.1337
 3172SOL    HW220976   3.417   1.515   5.891  2.4615 -0.9566  0.7841
 3173SOL     OW20977   3.816   2.695   2.397  1.2806  0.4948  0.0771
 3173SOL    HW120978   3.784   2.761   2.335  1.3966  0.4898  0.0112
 3173SOL    HW220979   3.830   2.757   2.468  3.1563 -1.0174  1.0535
 3174SOL     OW20980   1.200   3.412   6.867 -0.2209 -1.2147 -0.1021
 3174SOL    HW120981   1.283   3.429   6.912 -0.5230 -3.4630  1.2972
 3174SOL    HW220982   1.154   3.496   6.874  3.6795  1.0697 -1.9723
 3175SOL     OW20983   4.635   1.687   3.145 -0.5151 -0.0764 -0.5975
 3175SOL    HW120984   4.645   1.626   3.071 -2.4928 -0.6966 -0.3458
 3175SOL    HW220985   4.654   1.631   3.220 -0.1779  2.2606  1.0459
 3176SOL     OW20986   0.539   1.078   5.708  0.1141  0.5167 -0.1012
 3176SOL    HW120987   0.457   1.057   5.752  0.7605  1.1370  1.3960
 3176SOL    HW220988   0.507   1.136   5.639  1.5514 -2.6564 -3.4641
 3177SOL     OW20989   3.232   3.309   3.557 -0.4946 -0.1512 -0.5553
 3177SOL    HW120990   3.221   3.401   3.580 -0.4136  0.0922 -1.5123
 3177SOL    HW220991   3.230   3.317   3.462 -0.2337  0.1873 -0.5324
 3178SOL     OW20992   1.193   3.253   8.265 -0.2297  0.1817 -0.1560
 3178SOL    HW120993   1.181   3.253   8.170  1.0599  0.7200 -0.3232
 3178SOL    HW220994   1.288   3.264   8.264 -0.5154  2.9242  3.4224
 3179SOL     OW20995   1.739   0.392   8.554 -0.1630  0.2336  0.1375
 3179SOL    HW120996   1.827   0.355   8.564 -0.3600  0.0702  1.2569
 3179SOL    HW220997   1.689   0.312   8.539  2.7161 -1.7548  1.2272
 3180SOL     OW20998   0.306   0.491   7.793  0.1728 -0.5079 -0.0304
 3180SOL    HW120999   0.318   0.404   7.829 -0.7488 -0.5355  0.2203
 3180SOL    HW221000   0.318   0.545   7.871  0.0542 -0.0785 -0.3048
 3181SOL     OW21001   4.157   1.396   3.698 -0.4324  0.5829 -0.1639
 3181SOL    HW121002   4.117   1.378   3.784 -0.8693 -2.6883 -1.0509
 3181SOL    HW221003   4.193   1.313   3.668  0.1950  0.9894 -0.5321
 3182SOL     OW21004   4.664   4.121   3.664 -0.2890 -0.7921 -0.3108
 3182SOL    HW121005   4.626   4.056   3.605 -1.8465 -2.1740  2.1995
 3182SOL    HW221006   4.723   4.175   3.613 -0.8476 -0.8440 -1.0089
 3183SOL     OW21007   4.334   2.510   9.926 -0.0157 -0.2040 -0.7182
 3183SOL    HW121008   4.287   2.444   9.978  1.3728 -0.1224  0.6534
 3183SOL    HW221009   4.381   2.454   9.864  1.2098 -2.0533  1.8296
 3184SOL     OW21010   2.461   3.821  12.528 -0.0096  0.4524 -0.4222
 3184SOL    HW121011   2.453   3.904  12.481  0.4225 -0.6834 -2.5052
 3184SOL    HW221012   2.554   3.826  12.553  0.2915 -0.3234 -1.4230
 3185SOL     OW21013   0.289   1.876  14.739  0.0551  0.0998  0.0562
 3185SOL    HW121014   0.286   1.971  14.735  0.9434  0.1676  0.8056
 3185SOL    HW221015   0.207   1.857  14.784 -1.7590  0.3892 -3.1689
 3186SOL     OW21016   3.401   0.184   8.908  0.0320 -0.0290  0.1873
 3186SOL    HW121017   3.417   0.271   8.872 -2.1424 -0.3123 -1.4514
 3186SOL    HW221018   3.484   0.147   8.939 -0.0074 -0.5904 -0.3803
 3187SOL     OW21019   0.099   2.804  11.496 -0.3862 -0.2046 -0.2446
 3187SOL    HW121020   0.143   2.803  11.411 -0.8776 -1.5946 -0.4881
 3187SOL    HW221021   0.135   2.723  11.532 -2.4380 -0.9450  0.1202
 3188SOL     OW21022   0.591   0.682   4.958 -0.4189 -0.1647  0.2999
 3188SOL    HW121023   0.551   0.627   5.025 -1.0710 -0.9885 -0.7694
 3188SOL    HW221024   0.623   0.752   5.015  2.6948 -0.0330 -1.5800
 3189SOL     OW21025   0.610   3.947   9.904  0.0727  0.1661 -0.5210
 3189SOL    HW121026   0.653   3.862   9.916  1.3959  0.7258 -1.3075
 3189SOL    HW221027   0.614   3.965   9.810 -0.6480  0.0807 -0.5639
 3190SOL     OW21028   2.716   3.588   6.701  0.2639  0.1106  0.0041
 3190SOL    HW121029   2.660   3.666   6.696  3.1243  1.9944 -2.4940
 3190SOL    HW221030   2.768   3.613   6.777  1.3117 -0.7106 -0.4394
 3191SOL     OW21031   2.986   4.622   1.257 -0.1935 -0.3803  0.1896
 3191SOL    HW121032   3.068   4.632   1.209 -0.3789 -0.9991 -0.2575
 3191SOL    HW221033   2.979   4.527   1.264  0.9135 -0.7144 -3.1104
 3192SOL     OW21034   3.357   3.990   3.458 -0.5761 -0.5242  0.2350
 3192SOL    HW121035   3.270   3.981   3.420 -1.0347  4.0499  0.1788
 3192SOL    HW221036   3.412   3.986   3.380 -0.2724 -1.2720  0.4901
 3193SOL     OW21037   1.597   3.163  16.184 -0.1131  0.2481 -0.1433
 3193SOL    HW121038   1.689   3.177  16.161  0.0217 -2.8741 -1.4447
 3193SOL    HW221039   1.565   3.161  16.094 -2.2876 -0.9934  0.6754
 3194SOL     OW21040   1.013   4.607   2.691 -0.3919 -0.2229  0.0761
 3194SOL    HW121041   0.980   4.644   2.609 -0.7848  1.9924  1.2303
 3194SOL    HW221042   1.031   4.520   2.655  0.2968  0.2391 -0.7065
 3195SOL     OW21043   4.129   3.328  16.780 -0.2129  0.1067  0.4182
 3195SOL    HW121044   4.038   3.340  16.809 -0.2089  0.8870  0.1216
 3195SOL    HW221045   4.157   3.279  16.857  0.1740  0.7949  0.7122
 3196SOL     OW21046   2.214   4.705   4.428 -0.0457 -0.1063  0.5285
 3196SOL    HW121047   2.247   4.672   4.512 -2.0629  0.9687  1.7560
 3196SOL    HW221048   2.259   4.655   4.360  0.6363  0.7140  0.3741
 3197SOL     OW21049   2.216   3.897   7.542 -0.0999  0.3017  0.3532
 3197SOL    HW121050   2.175   3.863   7.462 -0.9196 -0.5544  1.1468
 3197SOL    HW221051   2.301   3.859   7.522 -0.0341  0.5420  0.1679
 3198SOL     OW21052   0.810   4.590   3.528  0.2065  0.4277 -0.0316
 3198SOL    HW121053   0.724   4.583   3.568 -1.1073  1.5345 -2.6252
 3198SOL    HW221054   0.861   4.517   3.563 -0.3622 -0.3328 -0.7886
 3199SOL     OW21055   1.443   0.690  14.772 -0.1799 -0.1681 -0.0291
 3199SOL    HW121056   1.457   0.715  14.863 -0.3798 -0.1112 -0.0147
 3199SOL    HW221057   1.359   0.734  14.755 -0.5507 -0.8771 -0.0223
 3200SOL     OW21058   1.052   0.533   4.804 -0.6150 -0.5371  0.2391
 3200SOL    HW121059   1.035   0.614   4.851  2.5721  0.4659 -0.3312
 3200SOL    HW221060   1.085   0.482   4.877 -0.7226 -0.8285  0.0835
 3201SOL     OW21061   3.161   0.066   1.635  0.0007 -0.6546  0.1776
 3201SOL    HW121062   3.256   0.075   1.626 -0.1508  0.4410 -0.3143
 3201SOL    HW221063   3.146   4.722   1.570 -0.3307 -1.9451  1.6026
 3202SOL     OW21064   2.579   1.447   0.402  0.2672 -0.2610  0.3249
 3202SOL    HW121065   2.550   1.385   0.335 -2.0281 -0.1064  1.1641
 3202SOL    HW221066   2.643   1.403   0.458  1.2219 -0.0611 -0.6016
 3203SOL     OW21067   3.265   0.833   3.558 -0.0872  0.1175  0.3330
 3203SOL    HW121068   3.283   0.923   3.586  0.1728 -0.0866  0.8291
 3203SOL    HW221069   3.265   0.780   3.638  0.3205 -0.2139  0.1164
 3204SOL     OW21070   4.611   1.531   5.232  0.0875  0.0429 -0.1416
 3204SOL    HW121071   4.551   1.524   5.158 -1.0622 -2.5027  1.0419
 3204SOL    HW221072   4.607   1.450   5.282  1.5324  0.2461  0.3068
 3205SOL     OW21073   2.095   1.559  14.598  0.4287 -0.5497  0.3175
 3205SOL    HW121074   2.191   1.562  14.606  0.5602 -0.9814 -1.0615
 3205SOL    HW221075   2.073   1.652  14.606  2.0179 -0.2586  1.3069
 3206SOL     OW21076   1.087   2.274   3.717  0.0987 -0.2039 -0.2448
 3206SOL    HW121077   1.152   2.205   3.730 -0.4785 -0.5294  0.9383
 3206SOL    HW221078   1.037   2.256   3.797  1.2720 -1.5546  0.1757
 3207SOL     OW21079   2.873   3.685   7.736  0.1653 -0.0901 -0.2110
 3207SOL    HW121080   2.786   3.645   7.739 -1.0113  2.6363  1.6680
 3207SOL    HW221081   2.866   3.720   7.647  2.0794  1.1314  0.1347
 3208SOL     OW21082   4.182   2.126  13.378 -0.9276 -0.4973  0.1334
 3208SOL    HW121083   4.107   2.076  13.410 -1.9369  1.0156  0.1404
 3208SOL    HW221084   4.252   2.061  13.387 -0.0919  0.4100  0.1741
 3209SOL     OW21085   4.378   0.647   7.172 -0.1384 -0.5406  0.7675
 3209SOL    HW121086   4.349   0.579   7.233 -0.3364  1.2131  2.6535
 3209SOL    HW221087   4.468   0.673   7.194 -0.1187 -0.2975  0.4087
 3210SOL     OW21088   1.117   1.841   5.425 -0.0380 -0.2892  0.3876
 3210SOL    HW121089   1.093   1.832   5.517 -1.0332  0.6041  0.2222
 3210SOL    HW221090   1.173   1.919   5.429  0.0714 -0.3343 -0.2189
 3211SOL     OW21091   2.536   1.498  16.387 -0.1598 -0.4330 -0.4026
 3211SOL    HW121092   2.593   1.532  16.318 -2.0026  1.7464 -0.8599
 3211SOL    HW221093   2.547   1.569  16.450 -1.3809  1.0357 -1.8620
 3212SOL     OW21094   0.214   0.309  15.346  0.1213 -0.5250  0.1325
 3212SOL    HW121095   0.183   0.226  15.309 -0.7799 -0.6654  1.2028
 3212SOL    HW221096   0.156   0.366  15.295 -0.7373 -0.7314  0.8684
 3213SOL     OW21097   2.417   1.867   1.570  0.0903  0.0534 -0.1419
 3213SOL    HW121098   2.406   1.774   1.587 -0.5495 -0.2193 -2.0707
 3213SOL    HW221099   2.366   1.872   1.489  0.5210  2.1383 -0.2777
 3214SOL     OW21100   0.959   1.454   3.296 -0.1981 -0.1057 -0.4529
 3214SOL    HW121101   0.970   1.523   3.361 -1.3731  0.5274 -0.9286
 3214SOL    HW221102   0.865   1.444   3.307 -0.3107 -0.2668 -1.5035
 3215SOL     OW21103   2.876   0.476   3.212  0.1247  0.3561 -0.2867
 3215SOL    HW121104   2.937   0.550   3.222  0.8669 -0.3523  0.4889
 3215SOL    HW221105   2.858   0.483   3.119 -0.9014 -1.2691 -0.2139
 3216SOL     OW21106   2.297   2.014  14.336 -0.5983  0.2865 -0.7072
 3216SOL    HW121107   2.352   1.968  14.399 -0.1147  1.5713 -0.1870
 3216SOL    HW221108   2.314   1.956  14.262  0.8058  0.2239 -0.3372
 3217SOL     OW21109   3.791   1.827   4.660  0.4964 -0.1585 -0.3084
 3217SOL    HW121110   3.871   1.774   4.656  0.7846  0.2113  0.3804
 3217SOL    HW221111   3.818   1.881   4.735  0.8151 -1.0125  0.1857
 3218SOL     OW21112   1.699   3.871   2.381 -0.2195 -0.0611 -0.0059
 3218SOL    HW121113   1.708   3.904   2.471 -3.1107 -1.5278  0.8454
 3218SOL    HW221114   1.611   3.831   2.381  1.0219 -2.7574 -0.6617
 3219SOL     OW21115   1.330   2.001   3.148 -0.3428 -0.4821 -0.0654
 3219SOL    HW121116   1.388   2.062   3.194  0.3166 -0.3397 -1.1070
 3219SOL    HW221117   1.342   2.019   3.055 -2.2505  1.0610 -0.0251
 3220SOL     OW21118   4.566   2.419   8.721  0.4277 -0.0836 -0.0834
 3220SOL    HW121119   4.652   2.460   8.736 -1.3047  2.7623  2.1316
 3220SOL    HW221120   4.506   2.471   8.774  0.3201  1.4335 -1.7122
 3221SOL     OW21121   3.581   1.531   2.501  0.1769 -0.2994  0.0004
 3221SOL    HW121122   3.496   1.575   2.499  0.1873 -0.3214 -0.8282
 3221SOL    HW221123   3.630   1.611   2.482 -0.7754  0.0237 -1.0610
 3222SOL     OW21124   1.007   2.953   8.612 -0.4019  0.0158 -0.4490
 3222SOL    HW121125   1.042   3.035   8.579  2.9951 -2.1049 -2.1208
 3222SOL    HW221126   0.917   2.984   8.608 -1.5561 -3.3736 -0.7580
 3223SOL     OW21127   2.626   1.622  10.263  0.4387  0.0836  0.7670
 3223SOL    HW121128   2.625   1.528  10.248  0.7261  0.2953 -0.5454
 3223SOL    HW221129   2.716   1.639  10.292  0.8340 -2.6048  1.0919
 3224SOL     OW21130   4.292   2.464   4.460  0.1064  0.0136 -0.4869
 3224SOL    HW121131   4.257   2.387   4.504  0.7481  0.1941  0.3462
 3224SOL    HW221132   4.321   2.416   4.382  1.0415 -2.5385  1.4340
 3225SOL     OW21133   3.518   3.536   4.264  0.6161  0.3774 -0.2664
 3225SOL    HW121134   3.576   3.476   4.310 -0.2563 -1.4459 -1.5534
 3225SOL    HW221135   3.462   3.477   4.214  1.1458 -1.9070  1.8494
 3226SOL     OW21136   3.115   1.084   0.144 -0.3805  0.2433 -0.1129
 3226SOL    HW121137   3.136   0.997   0.108  0.4956  0.6098 -0.4879
 3226SOL    HW221138   3.037   1.069   0.197 -1.6025  1.2734 -1.6184
 3227SOL     OW21139   2.727   1.157  15.065 -0.2059  0.3150 -0.2926
 3227SOL    HW121140   2.820   1.141  15.048  0.2931  2.7627  0.0785
 3227SOL    HW221141   2.720   1.233  15.007 -0.7370  1.9483  1.9192
 3228SOL     OW21142   2.408   1.005   7.867  0.7331 -0.4224  0.3005
 3228SOL    HW121143   2.376   1.025   7.779 -3.1035 -1.3382  1.4756
 3228SOL    HW221144   2.328   0.974   7.910 -0.1048  2.0835  0.5867
 3229SOL     OW21145   1.419   0.888   7.261 -0.2065  0.3629  0.2705
 3229SOL    HW121146   1.417   0.983   7.247  2.0544  0.6465  1.7746
 3229SOL    HW221147   1.360   0.882   7.336  1.5438 -0.2278  1.6038
 3230SOL     OW21148   2.457   1.630   4.082  0.6163  0.0750  0.1517
 3230SOL    HW121149   2.406   1.705   4.051 -0.1029 -0.3994  0.1718
 3230SOL    HW221150   2.531   1.675   4.123  1.0769 -0.2253 -0.3681
 3231SOL     OW21151   4.380   3.712   3.769  0.5170  0.2242 -0.0252
 3231SOL    HW121152   4.423   3.791   3.737 -0.4112  0.8090  0.1767
 3231SOL    HW221153   4.288   3.732   3.784  0.6052 -0.5548  1.5723
 3232SOL     OW21154   4.455   4.282   3.471  0.1580  0.3456 -0.1657
 3232SOL    HW121155   4.451   4.188   3.488 -0.0690  0.2104 -0.9809
 3232SOL    HW221156   4.413   4.301   3.388  0.4232 -0.2538 -0.4403
 3233SOL     OW21157   4.564   2.977   6.864  0.2912  0.0961  0.3531
 3233SOL    HW121158   4.594   2.888   6.882  0.9098 -0.0042 -1.1427
 3233SOL    HW221159   4.643   3.028   6.880  0.5241  0.2912 -1.4454
 3234SOL     OW21160   2.503   1.720   6.611 -0.0087  0.7245  1.2094
 3234SOL    HW121161   2.561   1.661   6.563 -0.2050 -0.6984  2.7265
 3234SOL    HW221162   2.451   1.765   6.545  0.7710 -1.1948 -0.7077
 3235SOL     OW21163   0.241   2.015   3.113 -0.1857  0.2701 -0.4627
 3235SOL    HW121164   0.226   2.032   3.020  0.3075 -0.3837 -0.6606
 3235SOL    HW221165   0.181   2.078   3.153  0.7070  0.2172  0.9633
 3236SOL     OW21166   0.439   4.281   7.311 -0.2876 -0.2422  0.1462
 3236SOL    HW121167   0.406   4.270   7.222  1.2936  1.3114 -0.6356
 3236SOL    HW221168   0.431   4.376   7.319 -1.8746 -0.0645 -3.3157
 3237SOL     OW21169   3.414   2.233  14.739 -0.7086 -0.0916  0.5598
 3237SOL    HW121170   3.350   2.163  14.729 -1.4527  0.5585  0.7332
 3237SOL    HW221171   3.478   2.197  14.801  1.6096  0.8078 -1.3078
 3238SOL     OW21172   2.314   2.142   5.479  0.2466  0.2275  0.1722
 3238SOL    HW121173   2.318   2.068   5.540  2.0162  1.2876  1.3118
 3238SOL    HW221174   2.220   2.159   5.477 -0.2517 -2.4827  0.0311
 3239SOL     OW21175   1.509   0.742   1.721  0.1128  0.4109  0.5189
 3239SOL    HW121176   1.460   0.790   1.654 -0.0572  0.8958  0.9909
 3239SOL    HW221177   1.450   0.666   1.726 -1.2052  1.4007  0.1223
 3240SOL     OW21178   2.437   4.009  12.341 -0.5872  0.2257  0.3387
 3240SOL    HW121179   2.408   3.956  12.267 -0.4528  1.8100 -0.8501
 3240SOL    HW221180   2.522   4.044  12.312  0.4459 -1.8998  0.7954
 3241SOL     OW21181   0.714   3.700  10.814 -0.0673  0.3093  0.7339
 3241SOL    HW121182   0.720   3.607  10.795 -2.0618  0.0749  1.2465
 3241SOL    HW221183   0.631   3.721  10.857 -0.1258 -0.1886  0.8609
 3242SOL     OW21184   1.423   2.095   7.407  0.3627  0.0853 -0.0989
 3242SOL    HW121185   1.369   2.173   7.395  0.1505  0.0396  0.5729
 3242SOL    HW221186   1.387   2.063   7.490 -0.1804  1.1966  0.1014
 3243SOL     OW21187   2.001   3.869   5.982  0.0847  0.2531 -0.3785
 3243SOL    HW121188   2.094   3.887   5.996  0.4088 -1.6032 -0.1924
 3243SOL    HW221189   1.988   3.937   5.916 -2.0721  1.0000  0.8231
 3244SOL     OW21190   4.570   3.778   6.283 -1.1595  0.1819  0.6531
 3244SOL    HW121191   4.530   3.857   6.247  0.7044  0.4525 -0.8074
 3244SOL    HW221192   4.624   3.809   6.356 -0.1501 -1.4671  0.6100
 3245SOL     OW21193   4.567   3.684  10.069 -1.3364 -0.6786  0.1851
 3245SOL    HW121194   4.631   3.620  10.100  2.1314  2.0272 -1.3663
 3245SOL    HW221195   4.497   3.680  10.134  0.1524 -1.6135  1.7274
 3246SOL     OW21196   0.746   1.777   1.965  0.3123 -0.7695 -0.0130
 3246SOL    HW121197   0.832   1.737   1.950  0.0717 -1.1616 -0.3237
 3246SOL    HW221198   0.718   1.783   1.874 -1.5849 -0.7561  0.5804
 3247SOL     OW21199   2.829   1.538   9.935  0.4876  0.2863  0.2958
 3247SOL    HW121200   2.748   1.487   9.939  1.1261 -0.9104 -2.2276
 3247SOL    HW221201   2.872   1.503   9.857 -0.1713 -2.8410  1.3440
 3248SOL     OW21202   0.301   2.171   5.523  0.3813 -0.0327 -0.3534
 3248SOL    HW121203   0.353   2.135   5.594 -0.8837 -1.3813 -0.1157
 3248SOL    HW221204   0.360   2.181   5.448 -1.5529 -1.8720 -2.1183
 3249SOL     OW21205   4.045   3.445  11.017  0.5251 -0.3263  0.1219
 3249SOL    HW121206   4.128   3.398  11.030  0.8716  0.5713  1.1285
 3249SOL    HW221207   4.014   3.448  11.108 -1.4452 -0.6168 -0.5341
 3250SOL     OW21208   0.268   1.834  11.346  0.0279  0.1260  0.0756
 3250SOL    HW121209   0.360   1.860  11.349  0.2812 -0.6960 -0.5893
 3250SOL    HW221210   0.230   1.899  11.287  0.8222  0.4397 -0.0942
 3251SOL     OW21211   3.195   0.419  15.759  0.5616 -0.1535  0.2323
 3251SOL    HW121212   3.178   0.487  15.823 -2.1505 -0.3419 -0.2896
 3251SOL    HW221213   3.236   0.356  15.819 -0.2596  1.6631  2.7157
 3252SOL     OW21214   1.305   1.142   8.380  0.4053 -0.5788 -0.0844
 3252SOL    HW121215   1.283   1.121   8.471 -0.5365 -0.1228 -0.2151
 3252SOL    HW221216   1.400   1.155   8.377  0.3342 -0.5398 -1.9704
 3253SOL     OW21217   1.421   0.438   9.935  0.3315 -0.5153 -0.3608
 3253SOL    HW121218   1.414   0.487   9.853 -1.9191  0.7090  0.5624
 3253SOL    HW221219   1.343   0.383   9.925 -0.7748  0.9859  0.0452
 3254SOL     OW21220   4.330   2.335   4.198 -0.5950  0.6859  0.0532
 3254SOL    HW121221   4.373   2.410   4.158 -0.2853  1.6519  2.2227
 3254SOL    HW221222   4.353   2.266   4.136  2.0346  1.9087 -0.3080
 3255SOL     OW21223   3.287   0.532  17.585  0.0744  0.0979 -0.7027
 3255SOL    HW121224   3.328   0.570  17.507  1.6396 -0.5815 -0.2151
 3255SOL    HW221225   3.360   0.492  17.632 -2.2892 -1.7591  1.3517
 3256SOL     OW21226   1.982   0.040   8.549  0.0288  0.8624  0.7318
 3256SOL    HW121227   1.904   4.717   8.578  1.6448 -2.6338 -0.6497
 3256SOL    HW221228   2.045   0.004   8.611  0.4031 -0.3104 -0.3614
 3257SOL     OW21229   4.429   1.975  11.793 -0.4373 -0.2840  0.3469
 3257SOL    HW121230   4.497   1.911  11.770 -0.4673 -0.3482  0.4387
 3257SOL    HW221231   4.480   2.047  11.830 -1.3610  1.0988 -1.0695
 3258SOL     OW21232   1.509   1.529   5.579  0.5028 -0.6988  0.8335
 3258SOL    HW121233   1.478   1.439   5.573  0.8528 -0.9725  3.3836
 3258SOL    HW221234   1.535   1.526   5.671  0.9103 -1.6533  0.6957
 3259SOL     OW21235   1.942   1.339   7.231  0.3100 -0.0930 -0.4235
 3259SOL    HW121236   1.897   1.259   7.202 -1.6276  0.8054  0.1972
 3259SOL    HW221237   1.971   1.311   7.318  1.9556 -1.2087 -1.3102
 3260SOL     OW21238   3.031   4.633  17.411 -0.0637 -0.3565  0.5441
 3260SOL    HW121239   3.101   4.633  17.477  1.9231  1.4039 -1.5530
 3260SOL    HW221240   3.074   4.637  17.326  0.7836  0.7223  1.0192
 3261SOL     OW21241   3.080   2.241   8.736 -0.1616 -0.9459 -0.1055
 3261SOL    HW121242   3.169   2.246   8.701 -0.7825 -1.8925 -1.8352
 3261SOL    HW221243   3.068   2.146   8.739 -0.9410 -0.9023 -1.7108
 3262SOL     OW21244   1.333   3.601   8.364  0.4976  0.2286  0.1494
 3262SOL    HW121245   1.384   3.677   8.392  0.6327  0.4702 -0.7225
 3262SOL    HW221246   1.258   3.605   8.423  0.3680 -1.5783  0.1004
 3263SOL     OW21247   1.784   0.874  17.647  0.0932  0.4172  0.0708
 3263SOL    HW121248   1.801   0.930  17.571 -1.8989  2.1775  0.9216
 3263SOL    HW221249   1.864   0.892   0.001  1.0021 -2.2233 -0.4560
 3264SOL     OW21250   1.883   0.984   5.329 -0.0086 -0.6464 -0.3865
 3264SOL    HW121251   1.822   0.920   5.366 -0.1928 -0.1969  0.0858
 3264SOL    HW221252   1.887   1.035   5.410  0.1294  0.5196 -1.1211
 3265SOL     OW21253   0.459   2.382   9.304  0.2470 -0.1582  0.4223
 3265SOL    HW121254   0.530   2.429   9.347 -1.2818  0.2004  2.5657
 3265SOL    HW221255   0.387   2.445   9.296 -1.5945 -2.2998 -0.1190
 3266SOL     OW21256   3.317   0.699   0.185  0.2426  0.2695  0.4526
 3266SOL    HW121257   3.280   0.736   0.104  0.3971  1.1845  0.8028
 3266SOL    HW221258   3.309   0.606   0.166 -0.4434  0.6511 -1.2120
 3267SOL     OW21259   1.377   4.246  11.280 -0.1117  0.6528 -0.1747
 3267SOL    HW121260   1.358   4.208  11.194  0.6739  1.7757 -0.8434
 3267SOL    HW221261   1.333   4.330  11.269 -0.0223  1.0149  2.3394
 3268SOL     OW21262   2.852   4.147   5.262 -0.1220 -0.0751  0.0452
 3268SOL    HW121263   2.912   4.165   5.190  1.5692  1.1880  1.7578
 3268SOL    HW221264   2.909   4.167   5.337 -0.7622 -1.4848  0.9184
 3269SOL     OW21265   1.191   0.077   2.808  0.0705  0.5893 -0.1042
 3269SOL    HW121266   1.144   4.720   2.788 -1.6029  1.8512 -1.2123
 3269SOL    HW221267   1.120   0.140   2.793 -0.5351  0.0292  0.4442
 3270SOL     OW21268   2.073   0.116   9.845  0.1610  0.6047  0.3241
 3270SOL    HW121269   2.162   0.106   9.880 -0.4552 -0.0184  1.7343
 3270SOL    HW221270   2.099   0.076   9.762  0.9007 -1.8308  1.7216
 3271SOL     OW21271   0.881   4.174   2.142  0.1773  0.2042 -0.2074
 3271SOL    HW121272   0.818   4.106   2.120  2.1927 -2.0332  0.8848
 3271SOL    HW221273   0.830   4.255   2.139 -0.3695 -0.0558  2.2697
 3272SOL     OW21274   0.386   0.895  15.930  0.5206  0.2987  0.1474
 3272SOL    HW121275   0.314   0.833  15.938  0.8776  0.0087  1.1123
 3272SOL    HW221276   0.403   0.886  15.837 -1.5428  2.5438 -0.4450
 3273SOL     OW21277   1.710   3.903   6.511  0.4230  0.2455  0.6061
 3273SOL    HW121278   1.683   3.926   6.423  1.2324 -1.4564 -0.0883
 3273SOL    HW221279   1.735   3.810   6.502  0.0057  0.1085  0.8905
 3274SOL     OW21280   2.683   0.341   6.239 -0.0001  0.2709 -0.6132
 3274SOL    HW121281   2.711   0.330   6.149  1.0458 -0.2599 -0.2290
 3274SOL    HW221282   2.767   0.367   6.278  0.9678 -0.7099 -2.0550
 3275SOL     OW21283   3.584   0.825   6.292  0.0885  0.0559  0.2792
 3275SOL    HW121284   3.597   0.916   6.317  1.8387 -0.3310  0.7691
 3275SOL    HW221285   3.624   0.826   6.205 -1.4047  0.4927 -0.4086
 3276SOL     OW21286   0.472   3.010   8.411  0.2520  0.1864 -0.4226
 3276SOL    HW121287   0.420   3.082   8.449 -0.4790  0.0845 -1.2320
 3276SOL    HW221288   0.409   2.995   8.341 -1.0648  0.9069  0.5924
 3277SOL     OW21289   1.606   1.006  13.237 -0.3017 -0.1239 -0.3695
 3277SOL    HW121290   1.583   1.088  13.193 -0.7954  1.3979  2.6833
 3277SOL    HW221291   1.598   0.947  13.162  1.2223  0.0861 -0.6897
 3278SOL     OW21292   4.584   4.070   1.695 -0.5992 -0.7505  0.3569
 3278SOL    HW121293   4.626   4.155   1.711  1.6680 -2.0965  1.4730
 3278SOL    HW221294   4.495   4.105   1.691 -1.1754 -2.2461  0.1376
 3279SOL     OW21295   2.102   3.722   0.495  0.1586  0.4887 -0.2684
 3279SOL    HW121296   2.014   3.701   0.463 -0.1392 -0.0516  0.8840
 3279SOL    HW221297   2.116   3.808   0.457 -1.0512  0.2882 -1.1728
 3280SOL     OW21298   0.131   0.453  10.403  0.0921 -0.0851  0.1374
 3280SOL    HW121299   0.052   0.400  10.390  0.1751  0.0622 -0.9839
 3280SOL    HW221300   0.116   0.476  10.494  0.3654  1.9518 -0.3417
 3281SOL     OW21301   0.783   0.154   2.781  0.2414  0.3474 -0.0092
 3281SOL    HW121302   0.798   0.131   2.872  0.1603 -1.3351 -0.4138
 3281SOL    HW221303   0.869   0.164   2.740  0.3517 -0.5399  0.0009
 3282SOL     OW21304   4.428   2.285   6.529 -0.2659 -0.1050  0.4341
 3282SOL    HW121305   4.396   2.222   6.595 -2.6253  1.4567  0.7888
 3282SOL    HW221306   4.456   2.232   6.454 -0.9827  0.9287 -0.5562
 3283SOL     OW21307   4.550   1.860   7.395 -0.0110 -0.0989  0.4542
 3283SOL    HW121308   4.622   1.921   7.411  0.5115 -0.2622 -1.3112
 3283SOL    HW221309   4.593   1.775   7.399 -0.9432 -0.5755  0.2053
 3284SOL     OW21310   1.869   1.295   7.718  0.4405 -0.0147 -0.4022
 3284SOL    HW121311   1.964   1.298   7.725  0.4722 -1.5136 -0.0414
 3284SOL    HW221312   1.838   1.385   7.726  0.7287  0.0398  0.0527
 3285SOL     OW21313   1.962   3.502   3.565  0.0683  0.1436  0.3427
 3285SOL    HW121314   1.871   3.524   3.585  0.2029  0.7394  0.3028
 3285SOL    HW221315   1.995   3.581   3.522  0.1208  2.0935  3.9927
 3286SOL     OW21316   0.882   2.872   3.202  0.1698  0.1097  0.0562
 3286SOL    HW121317   0.810   2.877   3.264 -1.2459  1.3301 -1.6675
 3286SOL    HW221318   0.873   2.962   3.170  0.7814 -0.0266 -0.5107
 3287SOL     OW21319   1.973   0.259   2.758  0.1259 -0.1733  0.4348
 3287SOL    HW121320   2.066   0.242   2.768  0.7077  3.0242  0.4212
 3287SOL    HW221321   1.973   0.354   2.761 -1.1334 -0.1732  0.6413
 3288SOL     OW21322   0.835   2.248  10.820  0.2393  0.2491 -0.3417
 3288SOL    HW121323   0.844   2.155  10.842 -1.6414  0.2831  0.5411
 3288SOL    HW221324   0.795   2.279  10.902  1.6642  1.8987 -0.2771
 3289SOL     OW21325   2.744   1.994   1.556 -0.0332 -0.5623  0.0781
 3289SOL    HW121326   2.659   1.983   1.513  0.2578  1.3080 -0.9564
 3289SOL    HW221327   2.783   1.908   1.543 -1.1053 -1.1613  0.7753
 3290SOL     OW21328   1.688   4.069   6.957 -0.5022  0.3477 -0.1046
 3290SOL    HW121329   1.761   4.124   6.986  0.9298 -1.3204 -0.5319
 3290SOL    HW221330   1.719   4.057   6.866 -1.9221  2.9901 -0.9073
 3291SOL     OW21331   1.744   2.315   9.977 -0.0493 -0.6236 -0.0678
 3291SOL    HW121332   1.738   2.270  10.061 -2.9970  0.9635  0.5809
 3291SOL    HW221333   1.698   2.394  10.004 -0.2972 -1.4427  1.9103
 3292SOL     OW21334   4.435   2.582   8.098 -0.5324  0.5321 -0.5124
 3292SOL    HW121335   4.404   2.543   8.180  2.4487 -1.4538 -0.3345
 3292SOL    HW221336   4.451   2.508   8.040  0.3440  0.1581  0.2166
 3293SOL     OW21337   3.539   2.560   7.344 -0.7243 -0.5676  0.1036
 3293SOL    HW121338   3.450   2.526   7.346 -1.3676  1.1392  0.6121
 3293SOL    HW221339   3.581   2.500   7.282 -0.3747  0.3403 -0.5271
 3294SOL     OW21340   2.628   3.209   3.603  0.0163 -0.0724 -0.1727
 3294SOL    HW121341   2.700   3.271   3.613  0.1647 -0.5389  1.6229
 3294SOL    HW221342   2.671   3.131   3.568  0.6343  0.3491 -0.3516
 3295SOL     OW21343   1.139   3.566   7.529  0.4563 -0.1688 -0.3997
 3295SOL    HW121344   1.231   3.557   7.503 -0.0182 -0.7553 -1.8735
 3295SOL    HW221345   1.138   3.510   7.606  1.6980 -0.4391 -0.5746
 3296SOL     OW21346   2.564   1.773   3.020 -0.1053 -0.6774 -0.1861
 3296SOL    HW121347   2.543   1.865   3.005  2.1684 -0.3494 -1.3782
 3296SOL    HW221348   2.551   1.735   2.933  2.8277  1.0322 -1.3573
 3297SOL     OW21349   0.146   2.172   1.939  0.4290 -0.2830  0.0773
 3297SOL    HW121350   0.077   2.220   1.985  0.6523  1.2738 -1.2499
 3297SOL    HW221351   0.128   2.193   1.848 -0.9713 -1.9367 -0.0269
 3298SOL     OW21352   2.470   4.192  10.198  0.2018  0.3771  0.0455
 3298SOL    HW121353   2.534   4.259  10.173  2.1613 -2.3829 -2.1893
 3298SOL    HW221354   2.390   4.215  10.150  0.3099 -0.5318 -0.5525
 3299SOL     OW21355   2.974   0.607  12.639  0.3695 -0.3590 -0.4576
 3299SOL    HW121356   3.036   0.643  12.576 -1.8780  1.0145 -1.9061
 3299SOL    HW221357   3.035   0.565  12.700  1.2174 -1.9373 -2.3879
 3300SOL     OW21358   3.553   0.223  17.002 -0.1581  0.0788 -0.3027
 3300SOL    HW121359   3.468   0.185  16.979 -0.3179  0.6544 -0.6654
 3300SOL    HW221360   3.588   0.239  16.914 -3.6095  0.3929 -1.6058
 3301SOL     OW21361   1.796   3.364   5.583 -0.3173  0.4242  0.0847
 3301SOL    HW121362   1.735   3.388   5.653  0.1326 -0.6673  0.8649
 3301SOL    HW221363   1.792   3.442   5.529  0.9059  0.0422 -0.5613
 3302SOL     OW21364   3.095   0.147   5.784 -1.0612  0.5676 -0.0080
 3302SOL    HW121365   3.129   0.058   5.778  1.1572  1.5159 -1.2684
 3302SOL    HW221366   3.033   0.158   5.712 -0.3828  1.3229 -0.4668
 3303SOL     OW21367   1.180   4.154  11.452  0.5051  0.0950 -0.6500
 3303SOL    HW121368   1.158   4.115  11.367  0.8839  1.1016 -1.2070
 3303SOL    HW221369   1.261   4.189  11.414  0.3711 -0.4411 -1.4207
 3304SOL     OW21370   4.461   2.613   4.640  0.1657 -0.3722 -0.1394
 3304SOL    HW121371   4.389   2.596   4.579  2.2980 -0.8764 -2.5247
 3304SOL    HW221372   4.447   2.707   4.656 -0.8940 -0.3894 -0.9388
 3305SOL     OW21373   1.671   3.981   2.648  0.4495  0.1498  0.2036
 3305SOL    HW121374   1.634   3.998   2.735 -1.8640  1.2392 -0.9985
 3305SOL    HW221375   1.695   4.071   2.626  1.2754 -0.2633 -0.5824
 3306SOL     OW21376   2.417   2.837   2.838 -0.5424 -0.0858  0.0318
 3306SOL    HW121377   2.399   2.863   2.928 -0.7866 -0.9567  0.2327
 3306SOL    HW221378   2.424   2.921   2.793  1.2383 -1.8679 -2.9821
 3307SOL     OW21379   3.768   0.137   7.867  0.0617 -0.1600  0.4447
 3307SOL    HW121380   3.794   0.052   7.902 -0.5945 -0.1300  1.0238
 3307SOL    HW221381   3.845   0.192   7.873 -0.2778  0.1230  2.3365
 3308SOL     OW21382   2.465   2.657   2.519  0.3878  0.6563  0.0151
 3308SOL    HW121383   2.404   2.721   2.480 -1.3024 -0.7502  0.3404
 3308SOL    HW221384   2.494   2.595   2.452  0.3299 -0.8572  1.3917
 3309SOL     OW21385   0.228   3.063  13.035  0.2632  0.2041 -0.3148
 3309SOL    HW121386   0.264   3.140  13.079 -3.5120  3.3870 -2.7855
 3309SOL    HW221387   0.182   3.107  12.964  0.2544  2.0160  0.8301
 3310SOL     OW21388   0.260   3.139   7.475 -0.2525 -0.4678  0.1821
 3310SOL    HW121389   0.246   3.198   7.401  0.5053 -1.3799 -0.6918
 3310SOL    HW221390   0.278   3.198   7.549  1.4788  0.8668 -1.3229
 3311SOL     OW21391   4.359   2.041   8.786 -0.1775 -0.1658 -0.0902
 3311SOL    HW121392   4.323   2.055   8.874 -1.6693  4.6937 -1.4854
 3311SOL    HW221393   4.277   2.008   8.748  0.3749  0.8373 -2.1388
 3312SOL     OW21394   3.238   1.224   7.905  0.1562  0.1326  0.0040
 3312SOL    HW121395   3.145   1.219   7.887  0.4455 -0.3621 -1.3680
 3312SOL    HW221396   3.273   1.294   7.849 -0.0592  1.0129  0.9625
 3313SOL     OW21397   4.282   3.535  14.447 -0.2122  0.0556  0.5909
 3313SOL    HW121398   4.354   3.473  14.434 -0.1408  0.3652 -0.5064
 3313SOL    HW221399   4.314   3.591  14.518  1.3670 -0.1373  0.0264
 3314SOL     OW21400   4.235   1.316  17.014  0.0893 -0.1355  0.4239
 3314SOL    HW121401   4.172   1.365  17.067 -0.8557  3.6891 -4.2105
 3314SOL    HW221402   4.318   1.343  17.054 -0.2207 -1.0809  1.6845
 3315SOL     OW21403   3.070   4.537   4.301 -0.0083 -0.3414 -0.3701
 3315SOL    HW121404   3.056   4.617   4.251 -2.2737  0.7039  1.9347
 3315SOL    HW221405   2.994   4.487   4.273  0.7543 -0.9627 -1.2940
 3316SOL     OW21406   2.765   4.134  14.037 -0.2258 -0.3485  0.1212
 3316SOL    HW121407   2.841   4.108  13.985  1.0422  3.3141  0.1512
 3316SOL    HW221408   2.697   4.092  13.985 -0.4655  0.5184 -0.2575
 3317SOL     OW21409   1.438   3.550   2.189  0.4142  0.1303 -0.7562
 3317SOL    HW121410   1.394   3.625   2.149 -0.9609 -1.2714 -1.8942
 3317SOL    HW221411   1.475   3.505   2.112  1.0446  0.9137 -0.9045
 3318SOL     OW21412   2.170   2.969  11.291 -0.3367  0.0766 -0.0739
 3318SOL    HW121413   2.113   2.938  11.220 -0.0510  1.1420 -0.7660
 3318SOL    HW221414   2.163   2.892  11.347 -2.5716  0.0938 -0.3103
 3319SOL     OW21415   1.906   1.769   7.699 -0.2039  0.3791  0.1144
 3319SOL    HW121416   2.001   1.779   7.702 -0.1563  0.0953 -0.4790
 3319SOL    HW221417   1.888   1.743   7.789  0.9406  0.1158  0.2655
 3320SOL     OW21418   3.710   1.462  13.236  0.2588  0.4764  0.2904
 3320SOL    HW121419   3.722   1.407  13.159  0.0457  1.2959 -0.3195
 3320SOL    HW221420   3.697   1.393  13.301  0.3476 -2.3029 -2.6672
 3321SOL     OW21421   0.601   3.618   3.078 -0.1604  0.0930  0.1727
 3321SOL    HW121422   0.531   3.683   3.068  1.8274  1.6806 -3.4168
 3321SOL    HW221423   0.638   3.640   3.163  0.8142  0.3981 -0.3295
 3322SOL     OW21424   1.590   3.720   4.099  0.1985  0.3668 -0.1987
 3322SOL    HW121425   1.648   3.665   4.151 -0.0820 -1.4033 -1.7513
 3322SOL    HW221426   1.506   3.692   4.137  0.1337  0.0277 -0.5829
 3323SOL     OW21427   2.322   4.264  15.511 -0.2546 -0.3569  0.0856
 3323SOL    HW121428   2.305   4.270  15.605  0.6360  1.5472  0.1382
 3323SOL    HW221429   2.233   4.246  15.481 -1.0046  0.6712  1.6983
 3324SOL     OW21430   0.734   1.739   4.399 -0.3003 -0.9467 -0.2646
 3324SOL    HW121431   0.647   1.701   4.406 -0.2219 -1.3712 -1.5129
 3324SOL    HW221432   0.708   1.828   4.423 -0.1066 -0.4778 -1.7951
 3325SOL     OW21433   1.401   3.370  17.389  0.2391 -0.4358 -0.2939
 3325SOL    HW121434   1.452   3.309  17.337 -1.9172 -2.0333 -0.5157
 3325SOL    HW221435   1.419   3.454  17.345  1.7414 -0.2041  0.7355
 3326SOL     OW21436   3.722   2.901   2.248  0.2566 -0.6137  0.3552
 3326SOL    HW121437   3.752   2.835   2.186 -0.7529 -1.8549  1.1672
 3326SOL    HW221438   3.630   2.874   2.240 -0.2747  0.8658  1.3262
 3327SOL     OW21439   4.552   3.157   7.556 -0.1918 -0.5587 -0.0882
 3327SOL    HW121440   4.579   3.244   7.524 -0.0581 -0.9657 -1.0829
 3327SOL    HW221441   4.625   3.109   7.516  0.6632  1.1136 -0.5566
 3328SOL     OW21442   1.860   3.163  12.252 -0.4633  0.6845 -0.1665
 3328SOL    HW121443   1.939   3.111  12.266 -1.1002  0.0596  0.9970
 3328SOL    HW221444   1.816   3.105  12.190  1.0095 -0.1573 -0.4327
 3329SOL     OW21445   3.223   1.355   5.409  0.0682 -0.1866  0.0462
 3329SOL    HW121446   3.187   1.267   5.415  0.7886 -0.3758  1.5994
 3329SOL    HW221447   3.234   1.375   5.316  0.5207 -0.9691 -0.0728
 3330SOL     OW21448   1.295   3.087   4.355 -0.1837  0.3349  0.2950
 3330SOL    HW121449   1.309   3.015   4.294  1.4672  1.1493 -0.2686
 3330SOL    HW221450   1.249   3.036   4.422  0.0200 -2.0423 -1.3346
 3331SOL     OW21451   4.388   1.986   1.257 -0.4242 -0.2080 -0.3100
 3331SOL    HW121452   4.418   2.046   1.189  1.3119  0.7240  1.2764
 3331SOL    HW221453   4.461   1.926   1.274  0.9753  1.1093 -1.6253
 3332SOL     OW21454   2.130   1.183   6.947 -0.1551  0.2980 -0.5738
 3332SOL    HW121455   2.035   1.200   6.951 -0.3495 -0.4927 -1.8027
 3332SOL    HW221456   2.172   1.261   6.982  3.4579 -1.9404  0.0712
 3333SOL     OW21457   2.615   2.735   9.332  0.0447  0.0336  0.1469
 3333SOL    HW121458   2.676   2.802   9.301 -1.6772  0.4518 -2.3849
 3333SOL    HW221459   2.530   2.778   9.344 -1.0261 -1.8514 -0.6481
 3334SOL     OW21460   1.606   3.816   6.138 -0.0979  0.0551  0.2536
 3334SOL    HW121461   1.565   3.889   6.183 -0.8875 -0.5261  0.4739
 3334SOL    HW221462   1.672   3.862   6.086 -1.7743  3.8519  1.4871
 3335SOL     OW21463   3.429   0.890  13.333  0.2611 -0.1802 -0.0759
 3335SOL    HW121464   3.375   0.957  13.291 -0.6913 -0.0640  1.3526
 3335SOL    HW221465   3.475   0.866  13.252 -0.0010  3.1110 -1.1879
 3336SOL     OW21466   2.172   2.803   1.738 -0.1307 -0.7112 -0.7569
 3336SOL    HW121467   2.251   2.837   1.695  0.8633 -2.6341 -0.4526
 3336SOL    HW221468   2.100   2.852   1.697  0.2276  1.1736  0.8622
 3337SOL     OW21469   2.224   2.594   6.842  0.7920  0.1288  0.1289
 3337SOL    HW121470   2.292   2.535   6.874  0.3426 -0.2808  0.3136
 3337SOL    HW221471   2.193   2.643   6.918  1.1000 -1.2912  1.1597
 3338SOL     OW21472   3.427   4.289  11.870  0.9168  0.1739 -0.4036
 3338SOL    HW121473   3.387   4.239  11.798  2.4267 -1.5638 -0.0461
 3338SOL    HW221474   3.477   4.350  11.817  1.0827 -0.1072 -0.5710
 3339SOL     OW21475   1.169   4.604   6.118  0.3170 -0.3236 -0.9066
 3339SOL    HW121476   1.236   4.640   6.177 -0.1198  1.0189 -1.2284
 3339SOL    HW221477   1.210   4.523   6.089 -1.4369 -2.2530  2.0156
 3340SOL     OW21478   1.415   3.709   7.547 -0.3094  0.8701 -0.0835
 3340SOL    HW121479   1.365   3.773   7.598 -1.7227 -1.0315  0.9296
 3340SOL    HW221480   1.444   3.765   7.474 -0.2995  2.2399  0.9625
 3341SOL     OW21481   0.369   1.591   6.599  0.2118  0.0083 -0.3118
 3341SOL    HW121482   0.369   1.652   6.672 -0.6873 -0.1181 -0.2061
 3341SOL    HW221483   0.301   1.624   6.541  0.8477  1.9255  0.0340
 3342SOL     OW21484   4.173   0.822   3.507 -0.1126 -0.2501  0.2123
 3342SOL    HW121485   4.130   0.874   3.575 -0.9346  2.0417 -2.0952
 3342SOL    HW221486   4.100   0.809   3.447 -2.5826  0.9338  2.9749
 3343SOL     OW21487   2.807   4.475   3.023  0.0939 -0.3744 -0.8146
 3343SOL    HW121488   2.856   4.455   2.944 -0.9045 -1.0073 -1.2861
 3343SOL    HW221489   2.729   4.519   2.990  0.0364 -0.2099 -0.4634
 3344SOL     OW21490   0.119   1.722   4.142 -0.4627  0.1916 -0.1242
 3344SOL    HW121491   0.146   1.804   4.101 -1.6170  0.5921 -0.0653
 3344SOL    HW221492   0.033   1.753   4.168 -0.0103  0.4986  1.0085
 3345SOL     OW21493   3.023   2.528  15.252 -0.1467  0.2076  0.1967
 3345SOL    HW121494   3.070   2.487  15.323  0.1331 -0.6482 -0.4855
 3345SOL    HW221495   3.020   2.452  15.195 -3.0303 -0.7220  1.6010
 3346SOL     OW21496   2.217   1.763   7.198 -0.5430 -0.1214 -0.2100
 3346SOL    HW121497   2.182   1.849   7.176 -1.0481  0.2858  2.1379
 3346SOL    HW221498   2.157   1.736   7.268  0.2941  1.3231  1.0646
 3347SOL     OW21499   4.545   4.568   6.445  0.2329  0.3455 -0.0969
 3347SOL    HW121500   4.473   4.615   6.487 -0.7085 -0.0250 -1.2886
 3347SOL    HW221501   4.498   4.504   6.391 -0.5232 -0.3659  1.4246
 3348SOL     OW21502   3.185   0.065   1.934 -0.0361  0.6837  0.3995
 3348SOL    HW121503   3.116   0.007   1.965  0.4902 -0.2114 -0.1179
 3348SOL    HW221504   3.193   0.048   1.841 -3.5821  1.1400  0.0252
 3349SOL     OW21505   2.382   0.623   3.754 -0.0283  0.3262 -0.7344
 3349SOL    HW121506   2.387   0.702   3.699  0.0623 -0.2043 -1.4974
 3349SOL    HW221507   2.439   0.568   3.699  0.1071 -0.7904  0.5171
 3350SOL     OW21508   0.342   0.784   5.847 -0.3128 -0.3302 -0.4743
 3350SOL    HW121509   0.345   0.869   5.804  0.3640  0.3942  1.0011
 3350SOL    HW221510   0.250   0.768   5.867  0.3109 -0.7066  2.0513
 3351SOL     OW21511   2.089   2.742   3.103 -0.4505  0.1415 -0.4729
 3351SOL    HW121512   2.171   2.774   3.066  0.0767 -1.3084 -0.5721
 3351SOL    HW221513   2.026   2.813   3.090  0.5427  1.1930  0.4553
 3352SOL     OW21514   2.098   4.557   2.716  0.1747  0.7186 -0.1627
 3352SOL    HW121515   2.092   4.644   2.677  3.7671  1.0594 -0.0348
 3352SOL    HW221516   2.166   4.568   2.783  0.5935 -0.1482 -0.4440
 3353SOL     OW21517   3.532   1.220   6.000  0.3290 -0.0859  0.2035
 3353SOL    HW121518   3.498   1.308   5.991  0.7583  0.1020  0.3962
 3353SOL    HW221519   3.471   1.196   6.070 -0.4389 -0.7007 -0.6795
 3354SOL     OW21520   1.612   0.624   8.480 -0.1028 -0.5165  0.2669
 3354SOL    HW121521   1.560   0.573   8.419 -1.0431  0.0334  0.6082
 3354SOL    HW221522   1.667   0.557   8.519  0.5283  0.8392  1.7203
 3355SOL     OW21523   1.104   2.348   7.087 -0.5641 -0.2460  0.1927
 3355SOL    HW121524   1.181   2.309   7.045 -0.4535 -0.2965  0.4420
 3355SOL    HW221525   1.055   2.370   7.008 -1.9639  0.5593  1.2962
 3356SOL     OW21526   3.193   3.176   3.273  0.1059 -0.8643 -0.4880
 3356SOL    HW121527   3.170   3.135   3.190 -3.4373  2.9341 -1.3948
 3356SOL    HW221528   3.109   3.198   3.313 -0.1304 -2.8965  0.1369
 3357SOL     OW21529   4.217   4.272  14.275  0.5376 -0.3869  0.2653
 3357SOL    HW121530   4.241   4.362  14.254  0.3832 -0.2226  0.7784
 3357SOL    HW221531   4.221   4.238  14.186 -0.3545  1.6860 -0.5905
 3358SOL     OW21532   4.065   1.003   7.441 -0.3169 -0.1037 -0.5022
 3358SOL    HW121533   3.973   1.031   7.436 -0.3466 -0.6847 -3.1295
 3358SOL    HW221534   4.067   0.956   7.524 -2.3640 -0.9929 -0.9582
 3359SOL     OW21535   1.376   2.927  16.588  0.0093  0.1412 -0.1615
 3359SOL    HW121536   1.299   2.976  16.560 -0.5534 -1.4440 -1.4169
 3359SOL    HW221537   1.445   2.987  16.558 -0.2648 -0.7514 -2.6193
 3360SOL     OW21538   3.052   3.071  17.323 -0.4447  0.1809  0.4256
 3360SOL    HW121539   2.979   3.063  17.263  1.5147 -4.0308 -1.3652
 3360SOL    HW221540   3.119   3.021  17.277 -0.3682  0.6519  0.0248
 3361SOL     OW21541   4.652   2.110   1.710  0.1388  0.2773  0.6121
 3361SOL    HW121542   4.669   2.042   1.775  1.0990  1.1017  1.2283
 3361SOL    HW221543   4.606   2.067   1.639 -2.9224  1.5059  1.8470
 3362SOL     OW21544   1.964   2.094   3.391 -0.8049 -0.4981  0.5052
 3362SOL    HW121545   1.912   2.167   3.356  0.3927 -1.0640 -2.4377
 3362SOL    HW221546   1.890   2.045   3.426 -1.7179  0.8674  0.5112
 3363SOL     OW21547   1.768   1.001  13.710 -0.1615 -0.1775 -0.1741
 3363SOL    HW121548   1.698   0.998  13.644 -1.8492 -2.0042  1.7098
 3363SOL    HW221549   1.720   1.059  13.768  0.3440 -1.2803  1.3363
 3364SOL     OW21550   0.297   2.430  10.184 -0.1596  0.2458 -0.6300
 3364SOL    HW121551   0.294   2.344  10.142 -1.0424  0.7917 -1.6791
 3364SOL    HW221552   0.337   2.416  10.270 -0.4521  0.8968 -0.3798
 3365SOL     OW21553   2.517   2.482   4.647 -0.6942  0.3690 -0.1140
 3365SOL    HW121554   2.458   2.418   4.687 -0.7914  2.0538  2.4778
 3365SOL    HW221555   2.478   2.497   4.561  2.4204 -0.1686 -1.6026
 3366SOL     OW21556   0.241   3.868   8.451  0.0985  0.1321 -0.2362
 3366SOL    HW121557   0.160   3.861   8.400  1.2566 -0.7068 -1.9241
 3366SOL    HW221558   0.280   3.785   8.425 -2.5184 -1.0652 -0.3858
 3367SOL     OW21559   2.475   3.624   6.983 -0.1811  0.5128  0.4939
 3367SOL    HW121560   2.395   3.573   6.998  1.0404 -1.1461  1.2703
 3367SOL    HW221561   2.433   3.681   6.918 -1.1897 -0.0286  0.6666
 3368SOL     OW21562   3.570   0.170   4.616  0.4351  0.0176  0.6599
 3368SOL    HW121563   3.663   0.168   4.593  0.8902  1.0436  2.4082
 3368SOL    HW221564   3.582   0.248   4.671  1.0229  0.7494 -0.4954
 3369SOL     OW21565   2.384   0.133   6.023  0.0465  0.2249 -0.0311
 3369SOL    HW121566   2.384   0.222   5.988 -3.3518  1.0325  2.0065
 3369SOL    HW221567   2.439   0.153   6.099 -1.6386  0.9444  0.9898
 3370SOL     OW21568   2.532   2.921   4.865 -0.1438 -0.2435  0.1920
 3370SOL    HW121569   2.566   2.836   4.891  0.0395 -0.7831 -1.8141
 3370SOL    HW221570   2.522   2.903   4.772 -0.5103  1.3409 -0.0905
 3371SOL     OW21571   4.288   3.330   0.840  0.1251  0.0356  0.4410
 3371SOL    HW121572   4.356   3.397   0.846 -1.4041  1.4985  1.5869
 3371SOL    HW221573   4.268   3.316   0.932 -0.1856 -2.8692 -0.0712
 3372SOL     OW21574   1.759   0.501   2.544  0.2396  0.4416  0.4202
 3372SOL    HW121575   1.744   0.570   2.608  0.6597 -0.2105  1.2217
 3372SOL    HW221576   1.671   0.462   2.546  0.0149  0.7948 -2.3159
 3373SOL     OW21577   2.961   4.212  13.416 -0.2450  0.2835  0.1745
 3373SOL    HW121578   2.869   4.225  13.393  0.2129  0.8460 -1.3534
 3373SOL    HW221579   2.996   4.277  13.356  2.0113 -0.2246  0.9410
 3374SOL     OW21580   1.519   2.611  10.654  0.3129  0.3820 -0.8008
 3374SOL    HW121581   1.435   2.598  10.699  0.4451  2.8903  0.1736
 3374SOL    HW221582   1.519   2.539  10.591  0.5796 -0.4419  0.1359
 3375SOL     OW21583   2.565   2.030   8.618  0.1529 -0.9980 -0.1490
 3375SOL    HW121584   2.616   2.111   8.620 -0.8014 -0.3709 -1.1782
 3375SOL    HW221585   2.607   1.986   8.692  0.5139  1.2752  0.9972
 3376SOL     OW21586   3.129   1.921   1.769  0.3827 -0.4035  0.3016
 3376SOL    HW121587   3.198   1.896   1.830 -0.2613 -3.1168 -0.0830
 3376SOL    HW221588   3.180   1.958   1.696  0.7057 -2.4497 -0.5045
 3377SOL     OW21589   1.249   2.545  10.731 -0.1310 -0.3106 -0.1080
 3377SOL    HW121590   1.263   2.450  10.732 -2.1453 -0.6237 -1.2164
 3377SOL    HW221591   1.230   2.564  10.639 -0.3649 -1.3501 -0.2830
 3378SOL     OW21592   0.261   2.452   5.892  0.3701 -0.5514 -0.3952
 3378SOL    HW121593   0.250   2.450   5.797  0.3483  0.3269 -0.4187
 3378SOL    HW221594   0.347   2.493   5.906 -0.6320  0.9227  1.4498
 3379SOL     OW21595   3.097   4.317   3.743 -0.2832  0.0206  0.1544
 3379SOL    HW121596   3.024   4.256   3.740 -0.3024 -0.0226  1.7418
 3379SOL    HW221597   3.076   4.381   3.674  0.5640  1.0851  0.8906
 3380SOL     OW21598   4.596   3.831   0.926 -0.6574 -0.0471 -0.3026
 3380SOL    HW121599   4.530   3.806   0.862 -0.4797 -0.2587 -0.4027
 3380SOL    HW221600   4.551   3.894   0.982 -2.7860 -0.4878 -1.5249
 3381SOL     OW21601   2.472   4.000  17.690 -0.2379 -0.5522 -0.0082
 3381SOL    HW121602   2.549   4.004   0.050 -0.8853 -1.5059  0.9666
 3381SOL    HW221603   2.400   4.032   0.048 -0.1870  1.1052 -0.9442
 3382SOL     OW21604   2.185   3.225  16.155  0.4336 -0.0633 -0.2373
 3382SOL    HW121605   2.210   3.150  16.208 -1.3036 -0.6899 -0.3182
 3382SOL    HW221606   2.205   3.187  16.069  0.1021 -0.3145 -0.1988
 3383SOL     OW21607   3.771   2.463   5.838  0.5428  0.6730  0.2486
 3383SOL    HW121608   3.744   2.520   5.766 -1.1502 -1.1495 -0.5635
 3383SOL    HW221609   3.691   2.465   5.890  0.7621  0.2095  0.6007
 3384SOL     OW21610   1.770   4.252   8.668 -0.1463  0.2368  0.4591
 3384SOL    HW121611   1.693   4.271   8.722  0.8392  0.4249  1.7916
 3384SOL    HW221612   1.791   4.161   8.689 -1.3238 -0.4004 -1.1070
 3385SOL     OW21613   1.209   2.420   3.192 -0.9793  0.1900 -0.7869
 3385SOL    HW121614   1.193   2.502   3.239  0.3806 -0.3046  0.5197
 3385SOL    HW221615   1.285   2.448   3.142  0.8509 -1.1678  1.2346
 3386SOL     OW21616   0.187   4.416  13.280  0.1248  0.1237  0.0897
 3386SOL    HW121617   0.114   4.375  13.327  1.4516 -1.0794  1.1147
 3386SOL    HW221618   0.138   4.462  13.212  2.0648  0.0701 -1.3455
 3387SOL     OW21619   4.071   2.463   3.743  0.2395 -0.7377  0.0984
 3387SOL    HW121620   4.031   2.464   3.830 -1.8627 -1.7471 -0.8487
 3387SOL    HW221621   4.131   2.537   3.745  0.5909 -1.0292  0.3880
 3388SOL     OW21622   0.200   2.241   8.456  0.2179 -0.8166  0.3106
 3388SOL    HW121623   0.125   2.236   8.397 -0.6055  1.4622  1.1610
 3388SOL    HW221624   0.207   2.146   8.465 -1.0607 -1.1391 -2.1069
 3389SOL     OW21625   4.366   3.035   6.262  0.5838  0.1961 -0.4175
 3389SOL    HW121626   4.372   3.081   6.178  1.7606 -0.5115 -0.7262
 3389SOL    HW221627   4.350   3.109   6.320 -2.7323  0.3512 -1.5416
 3390SOL     OW21628   1.271   3.122   2.324 -0.4670 -0.3589  0.5529
 3390SOL    HW121629   1.354   3.096   2.363  1.2903  1.8884 -1.7033
 3390SOL    HW221630   1.232   3.036   2.308  4.2091 -2.6670  1.8281
 3391SOL     OW21631   2.947   3.207   3.401 -0.3105  0.3685 -0.5707
 3391SOL    HW121632   2.874   3.228   3.344  0.5788 -1.1157 -2.2597
 3391SOL    HW221633   2.926   3.271   3.469  0.1713  0.5175 -0.5587
 3392SOL     OW21634   2.007   4.272  15.671  0.1784  0.4503 -0.4890
 3392SOL    HW121635   1.962   4.354  15.690  0.9556  0.9868 -0.9408
 3392SOL    HW221636   2.079   4.287  15.733 -0.6401  1.9873  0.0864
 3393SOL     OW21637   3.272   1.671   4.084 -0.0149 -0.4247  0.5853
 3393SOL    HW121638   3.291   1.652   3.992 -0.0531  1.3054  0.2268
 3393SOL    HW221639   3.225   1.593   4.114  1.1138 -1.0788  0.6601
 3394SOL     OW21640   1.226   0.183   7.308  0.0033 -0.1230 -0.5918
 3394SOL    HW121641   1.219   0.130   7.229 -0.2864 -2.8853  1.3177
 3394SOL    HW221642   1.138   0.164   7.341  0.1607  0.5975  0.2433
 3395SOL     OW21643   2.313   1.297   7.498 -0.1871 -0.6459 -0.0460
 3395SOL    HW121644   2.304   1.383   7.539 -2.0851  0.0222 -1.8958
 3395SOL    HW221645   2.222   1.281   7.475 -0.2359  1.3453 -1.2839
 3396SOL     OW21646   3.845   0.127   4.547 -0.1922 -0.0798 -0.1082
 3396SOL    HW121647   3.857   0.095   4.637  0.3725  0.2854 -0.0569
 3396SOL    HW221648   3.907   0.072   4.500  0.7997  1.4835 -0.6211
 3397SOL     OW21649   2.460   4.155  13.152  0.1578 -0.4175  0.1669
 3397SOL    HW121650   2.402   4.212  13.101 -0.2946  1.5318  2.8568
 3397SOL    HW221651   2.479   4.087  13.087 -0.3371 -0.2338 -0.1690
 3398SOL     OW21652   0.612   4.535   4.465 -0.1179 -0.0299 -0.0956
 3398SOL    HW121653   0.591   4.628   4.477 -2.2753 -0.5690  0.3102
 3398SOL    HW221654   0.687   4.525   4.524  0.0396 -1.3952 -0.5287
 3399SOL     OW21655   3.676   1.531   5.983  0.4022 -0.2969 -0.0057
 3399SOL    HW121656   3.693   1.534   5.888 -0.2276  0.3966 -0.0949
 3399SOL    HW221657   3.610   1.599   5.993  1.8459  1.2196 -0.7786
 3400SOL     OW21658   0.181   4.268  10.713 -0.2480  0.9194  0.1007
 3400SOL    HW121659   0.222   4.326  10.648  0.8099 -1.7357 -1.6142
 3400SOL    HW221660   0.089   4.285  10.694 -0.1761 -1.7670 -2.7554
 3401SOL     OW21661   1.053   1.583  13.086 -0.0278 -0.1737 -0.1490
 3401SOL    HW121662   0.980   1.630  13.046 -0.8776 -2.4750 -1.2826
 3401SOL    HW221663   1.129   1.620  13.041 -0.9335  2.6925  0.6770
 3402SOL     OW21664   2.091   3.979   9.080  0.6195  0.0123  0.3688
 3402SOL    HW121665   1.998   3.993   9.061  0.2603 -0.5848  1.7118
 3402SOL    HW221666   2.090   3.934   9.164 -2.5783  2.6435  1.7717
 3403SOL     OW21667   0.469   3.527  11.021 -0.3663 -0.8902  0.1625
 3403SOL    HW121668   0.434   3.567  10.941  1.1676  2.7297  1.3162
 3403SOL    HW221669   0.412   3.565  11.087  0.1697  2.5579 -1.3579
 3404SOL     OW21670   4.682   4.360  15.618  0.1740 -0.2278  0.6067
 3404SOL    HW121671   4.610   4.421  15.636 -0.2908 -0.2674 -1.0949
 3404SOL    HW221672   4.697   4.380  15.525 -0.4525 -0.2064  0.5085
 3405SOL     OW21673   2.965   1.192   8.129 -0.2091  0.3401  0.0897
 3405SOL    HW121674   2.958   1.192   8.225  2.9828  1.0217  0.3397
 3405SOL    HW221675   3.046   1.142   8.120  0.1697  1.0220 -0.1979
 3406SOL     OW21676   3.195   1.914   5.657 -0.0126  0.2341  0.0108
 3406SOL    HW121677   3.267   1.851   5.649 -0.8408 -0.5801 -1.0705
 3406SOL    HW221678   3.159   1.915   5.568  3.4249  0.1565 -1.3854
 3407SOL     OW21679   2.599   4.178  15.654  0.2053  0.5308  0.0954
 3407SOL    HW121680   2.535   4.108  15.646  0.2746  0.5410 -0.5363
 3407SOL    HW221681   2.673   4.142  15.606  0.7192  0.6447  0.8128
 3408SOL     OW21682   0.247   3.446  16.131  0.2279  0.2506 -0.3113
 3408SOL    HW121683   0.221   3.426  16.041 -1.9275  0.2870  0.3094
 3408SOL    HW221684   0.284   3.360  16.149  1.2770  0.4980 -1.2554
 3409SOL     OW21685   2.574   0.699   7.709 -0.4000 -0.1565 -0.2775
 3409SOL    HW121686   2.547   0.746   7.787  1.2278  0.2820  0.0263
 3409SOL    HW221687   2.649   0.657   7.751 -0.0231  0.0471 -0.7459
 3410SOL     OW21688   1.186   2.023   8.942  0.0630  0.1994  0.4122
 3410SOL    HW121689   1.201   2.025   9.037 -0.2175  1.0988  0.4386
 3410SOL    HW221690   1.190   2.112   8.908 -0.0603 -0.2904 -0.8662
 3411SOL     OW21691   3.789   4.180   0.870 -0.5497 -0.3106 -0.0238
 3411SOL    HW121692   3.844   4.129   0.811  0.5542  0.9792 -0.1215
 3411SOL    HW221693   3.794   4.124   0.948  2.6272 -0.9151 -0.6267
 3412SOL     OW21694   3.377   2.452   2.144 -0.1327 -0.0795 -0.0719
 3412SOL    HW121695   3.321   2.407   2.082  0.0525  1.0477 -1.0668
 3412SOL    HW221696   3.427   2.511   2.087 -0.5948  0.6561  0.2857
 3413SOL     OW21697   0.237   0.904   4.391 -0.3039 -0.4356  0.7542
 3413SOL    HW121698   0.251   0.968   4.461  1.5000 -0.8166  0.7621
 3413SOL    HW221699   0.327   0.882   4.364 -0.4544 -0.5405  0.3440
 3414SOL     OW21700   4.090   2.384   6.717 -0.4674 -0.3921 -0.6157
 3414SOL    HW121701   4.148   2.444   6.671 -0.2704  0.7874  1.1614
 3414SOL    HW221702   4.043   2.444   6.774  0.2340  0.3138 -0.7858
 3415SOL     OW21703   2.612   3.522   9.402 -0.9990  0.2748  0.1543
 3415SOL    HW121704   2.544   3.586   9.384 -1.4983 -0.9011 -2.1475
 3415SOL    HW221705   2.612   3.536   9.497 -0.8721 -0.3661  0.2531
 3416SOL     OW21706   2.143   1.800   9.578  0.1988  0.0352 -0.0945
 3416SOL    HW121707   2.066   1.811   9.633  1.1712 -2.2631  1.6896
 3416SOL    HW221708   2.104   1.789   9.491 -1.6740  2.2712  0.4494
 3417SOL     OW21709   0.372   0.619  12.018 -0.2687 -0.1625  0.3205
 3417SOL    HW121710   0.458   0.589  11.990 -0.2782  0.8451 -0.7503
 3417SOL    HW221711   0.388   0.713  12.014  1.1088 -0.4631 -1.0583
 3418SOL     OW21712   1.352   0.063   8.337 -0.0284 -0.3379 -0.2284
 3418SOL    HW121713   1.298   0.122   8.389  0.6737 -0.9453  1.2261
 3418SOL    HW221714   1.303   4.709   8.365 -0.0719 -0.7395 -1.4228
 3419SOL     OW21715   1.804   2.259   8.077  0.1064  0.3117 -0.2351
 3419SOL    HW121716   1.733   2.302   8.124 -0.7837 -1.1321 -0.2610
 3419SOL    HW221717   1.834   2.191   8.138  1.5849  0.2094 -1.0679
 3420SOL     OW21718   3.806   3.937   5.854 -0.2409 -0.5643 -0.0230
 3420SOL    HW121719   3.844   3.900   5.933 -1.0340  1.4746  1.3009
 3420SOL    HW221720   3.717   3.958   5.882  0.7058  0.2747  2.3474
 3421SOL     OW21721   0.920   4.160   5.766 -0.4854 -0.3329 -0.5400
 3421SOL    HW121722   0.969   4.079   5.778  1.5791  0.7854 -1.4281
 3421SOL    HW221723   0.969   4.216   5.827  0.7312 -1.4522 -0.4821
 3422SOL     OW21724   1.042   2.364  11.009  0.2054 -0.1547  1.1982
 3422SOL    HW121725   1.101   2.338  11.080  2.6893 -1.2629 -1.2412
 3422SOL    HW221726   1.007   2.445  11.044  0.1467  0.5174 -0.3886
 3423SOL     OW21727   3.593   3.640   5.273 -0.4044  0.5798 -0.2078
 3423SOL    HW121728   3.506   3.607   5.299  0.6529 -1.0104  1.2974
 3423SOL    HW221729   3.596   3.607   5.183 -0.7420 -0.4859  0.1663
 3424SOL     OW21730   3.797   0.561  10.266 -0.3134 -0.2813 -0.5268
 3424SOL    HW121731   3.851   0.590  10.340 -2.5737  1.0331  0.6085
 3424SOL    HW221732   3.772   0.645  10.227 -0.4878 -0.7598 -1.4549
 3425SOL     OW21733   0.132   0.635   1.679  0.4880  0.1326 -0.3096
 3425SOL    HW121734   0.210   0.590   1.646  0.6811  0.6785 -0.5859
 3425SOL    HW221735   0.159   0.727   1.682 -0.0866  0.2739  0.4959
 3426SOL     OW21736   3.502   3.845   6.670 -0.0327 -0.7953  0.0370
 3426SOL    HW121737   3.483   3.806   6.756 -2.1109 -2.4107 -1.1565
 3426SOL    HW221738   3.431   3.812   6.615 -0.9350 -0.3129  0.9046
 3427SOL     OW21739   1.209   3.711   1.940 -0.2297 -0.1057  0.3530
 3427SOL    HW121740   1.169   3.763   1.870  0.6547 -0.1576 -0.1932
 3427SOL    HW221741   1.250   3.784   1.985 -0.2835  1.4747 -2.1669
 3428SOL     OW21742   2.856   3.662   6.931  0.5326  0.2491 -1.3755
 3428SOL    HW121743   2.800   3.647   7.008  2.1152 -0.1850 -0.3146
 3428SOL    HW221744   2.854   3.758   6.936 -4.7141  0.1496 -0.7231
 3429SOL     OW21745   1.024   3.087   2.848 -0.3068  0.2758  0.2060
 3429SOL    HW121746   1.014   3.181   2.832  0.1053  0.3485  0.3606
 3429SOL    HW221747   1.067   3.057   2.769 -1.2203 -0.6965  0.0787
 3430SOL     OW21748   3.485   3.386   6.455  0.1206  0.0637  0.0878
 3430SOL    HW121749   3.508   3.417   6.542  2.0924  0.8948 -0.7270
 3430SOL    HW221750   3.397   3.359   6.481 -0.3125  1.5464  0.1718
 3431SOL     OW21751   2.535   3.911  11.549 -0.9290 -0.6442  0.6685
 3431SOL    HW121752   2.577   3.855  11.484 -0.1647 -0.8723  1.3605
 3431SOL    HW221753   2.455   3.929  11.500 -0.2213  1.4833  0.3067
 3432SOL     OW21754   2.424   4.506   0.716  0.2141  0.1370  0.1954
 3432SOL    HW121755   2.462   4.419   0.727  1.6969  0.6362 -1.0224
 3432SOL    HW221756   2.332   4.484   0.701 -0.1624 -0.3580  3.2699
 3433SOL     OW21757   3.451   4.570   9.841  0.2383 -0.2613  0.2814
 3433SOL    HW121758   3.419   4.649   9.798  1.0841 -0.4811 -0.7491
 3433SOL    HW221759   3.394   4.498   9.815  1.6763 -0.8959 -1.1009
 3434SOL     OW21760   4.609   2.468  10.177 -0.1752  0.0522 -0.2470
 3434SOL    HW121761   4.646   2.436  10.260  1.4908 -0.8709 -1.3484
 3434SOL    HW221762   4.519   2.446  10.198  0.7233 -1.3810  2.1099
 3435SOL     OW21763   2.261   4.621  15.660 -0.3270  0.5683  0.2482
 3435SOL    HW121764   2.355   4.640  15.660 -0.0668 -0.7291  0.5867
 3435SOL    HW221765   2.249   4.596  15.752  1.4858  0.6998  0.5210
 3436SOL     OW21766   3.252   2.123   1.285  0.5243 -0.1844 -0.0886
 3436SOL    HW121767   3.318   2.067   1.244  0.4609 -0.0389 -0.3962
 3436SOL    HW221768   3.276   2.211   1.254 -0.0716  0.9019  2.5274
 3437SOL     OW21769   2.990   3.026   4.183  0.1869  0.3681  0.8448
 3437SOL    HW121770   3.001   3.121   4.188  0.3514  0.3455  0.9406
 3437SOL    HW221771   3.082   3.012   4.160 -0.3751  0.3516 -1.3967
 3438SOL     OW21772   2.267   4.040  16.738 -0.6436 -0.5942 -0.5893
 3438SOL    HW121773   2.241   4.071  16.651 -2.0057 -1.2276 -0.4096
 3438SOL    HW221774   2.324   3.965  16.721  0.1680  0.0685 -0.7790
 3439SOL     OW21775   1.557   3.179   6.258  0.1411  0.1806 -0.2955
 3439SOL    HW121776   1.489   3.127   6.213  1.3530 -2.1497  0.5723
 3439SOL    HW221777   1.621   3.110   6.274 -1.1106 -0.9452 -0.0341
 3440SOL     OW21778   2.216   0.125   2.784  0.2124  0.2972 -0.2412
 3440SOL    HW121779   2.299   0.091   2.751  1.0370 -0.3625  2.5279
 3440SOL    HW221780   2.240   0.119   2.877  0.2328  4.3550  0.0334
 3441SOL     OW21781   2.269   4.262  15.818  0.0706  0.3894 -0.4652
 3441SOL    HW121782   2.274   4.338  15.876  0.9666  0.3923 -0.5490
 3441SOL    HW221783   2.273   4.191  15.883  0.7807  1.8552  1.0889
 3442SOL     OW21784   4.608   1.098   2.149 -0.5183  0.4288  0.7717
 3442SOL    HW121785   4.592   1.006   2.130 -0.1560  0.9107 -1.9255
 3442SOL    HW221786   4.553   1.116   2.225 -1.9089 -0.1160 -0.0915
 3443SOL     OW21787   2.527   1.289   2.950  0.8534 -0.4593  0.6567
 3443SOL    HW121788   2.540   1.222   2.883  2.6222 -0.9095  1.4709
 3443SOL    HW221789   2.436   1.267   2.972  0.7980  0.3682  1.2365
 3444SOL     OW21790   0.274   0.797  12.296  0.1704 -0.4534  0.2329
 3444SOL    HW121791   0.220   0.718  12.302 -2.7477  1.3085 -3.5248
 3444SOL    HW221792   0.212   0.855  12.339 -2.1754 -1.8380 -1.3318
 3445SOL     OW21793   3.155   1.753   5.178  0.2922  0.2355  0.9116
 3445SOL    HW121794   3.110   1.726   5.099  0.3685 -2.1450  1.6749
 3445SOL    HW221795   3.137   1.847   5.179  0.1440  0.2295 -2.4272
 3446SOL     OW21796   4.442   2.102  14.341 -0.1431  0.1698  0.0387
 3446SOL    HW121797   4.431   2.194  14.316 -1.8969  0.2018  0.9511
 3446SOL    HW221798   4.536   2.093  14.357 -0.5040 -1.8357  1.0205
 3447SOL     OW21799   3.157   3.533  17.176  0.3150 -0.4448 -0.2332
 3447SOL    HW121800   3.229   3.592  17.153 -0.0674 -0.3381 -1.1394
 3447SOL    HW221801   3.087   3.548  17.112  0.5653 -1.5242 -0.7429
 3448SOL     OW21802   1.396   4.706   0.650  0.0359  0.0060  0.3851
 3448SOL    HW121803   1.320   4.648   0.643 -0.5856  0.5799  2.5204
 3448SOL    HW221804   1.380   0.030   0.731 -1.0837  0.7893 -0.3087
 3449SOL     OW21805   1.009   3.355   7.078  0.5543  0.2732 -0.0124
 3449SOL    HW121806   0.955   3.308   7.015 -0.2574  1.6615 -0.3672
 3449SOL    HW221807   1.068   3.395   7.015  1.7693  1.4766  1.9069
 3450SOL     OW21808   1.564   4.538   0.889 -0.1224  0.3015  0.1904
 3450SOL    HW121809   1.610   4.564   0.968  0.3298 -0.3907  0.1561
 3450SOL    HW221810   1.636   4.546   0.826 -1.0589  1.5888 -0.7235
 3451SOL     OW21811   1.737   2.494  10.223  0.3414 -0.3515 -0.3908
 3451SOL    HW121812   1.778   2.578  10.205 -2.0777  0.6520 -1.2380
 3451SOL    HW221813   1.807   2.445  10.266  0.3981 -0.2675 -0.3876
 3452SOL     OW21814   1.130   3.072   1.959 -0.0495  0.3184 -0.1551
 3452SOL    HW121815   1.179   3.009   1.906 -1.0281 -0.0841 -0.5729
 3452SOL    HW221816   1.045   3.030   1.952  0.6509 -1.7714  4.3485
 3453SOL     OW21817   2.231   2.096   4.230 -0.0367  0.1932  0.1247
 3453SOL    HW121818   2.232   2.137   4.317 -0.2487  1.1368 -0.3187
 3453SOL    HW221819   2.233   2.180   4.184 -0.1871 -1.0829 -2.1833
 3454SOL     OW21820   2.460   1.378   7.294  0.8987  0.3818 -0.3093
 3454SOL    HW121821   2.455   1.473   7.300  0.2909  0.2569  1.0880
 3454SOL    HW221822   2.398   1.347   7.360  1.1323  0.6980  0.0589
 3455SOL     OW21823   2.370   2.408   5.662  0.2487  0.7351  0.4149
 3455SOL    HW121824   2.416   2.405   5.578  0.0820 -0.3626  0.3585
 3455SOL    HW221825   2.302   2.475   5.654 -2.4885 -1.8636  1.4993
 3456SOL     OW21826   0.582   2.031  10.582 -0.1647 -0.3955  0.2851
 3456SOL    HW121827   0.630   1.956  10.618  2.3578  0.6866 -0.8378
 3456SOL    HW221828   0.526   2.054  10.656  2.8298  0.6482  2.2140
 3457SOL     OW21829   1.617   1.125  13.900  0.3484 -0.0609  0.8409
 3457SOL    HW121830   1.553   1.069  13.944 -1.8628  3.4718  2.0632
 3457SOL    HW221831   1.630   1.190  13.968  0.7238 -2.3355  2.9553
 3458SOL     OW21832   0.605   1.312   4.033 -0.0410 -0.5218 -0.2553
 3458SOL    HW121833   0.537   1.245   4.044  0.4748 -0.9334  0.3968
 3458SOL    HW221834   0.602   1.337   4.125  0.3161  0.0081 -0.3857
 3459SOL     OW21835   2.105   3.892   9.625 -0.2230  0.2892  0.0776
 3459SOL    HW121836   2.129   3.804   9.652  1.8382  0.8098 -0.0384
 3459SOL    HW221837   2.019   3.906   9.665 -0.5919 -0.6056 -0.4047
 3460SOL     OW21838   0.127   1.407   8.207  0.8995  0.2247  0.6205
 3460SOL    HW121839   0.162   1.455   8.282  1.1432  1.8595 -0.5251
 3460SOL    HW221840   0.195   1.425   8.142 -1.4865 -1.1086 -2.2882
 3461SOL     OW21841   1.755   4.320   6.221 -0.1003 -0.2345 -0.2430
 3461SOL    HW121842   1.667   4.304   6.188 -0.7064 -0.5787  1.5502
 3461SOL    HW221843   1.805   4.348   6.144  0.6359 -1.7860 -0.3317
 3462SOL     OW21844   3.694   4.722   5.052  0.2030  1.0457 -0.7475
 3462SOL    HW121845   3.628   4.655   5.071 -0.7847  2.2244  0.0515
 3462SOL    HW221846   3.761   4.698   5.115  0.2101  1.2347 -0.6818
 3463SOL     OW21847   3.694   3.258   8.374  0.3177 -0.3945 -0.0190
 3463SOL    HW121848   3.651   3.340   8.394 -0.9839 -1.3583  1.0634
 3463SOL    HW221849   3.680   3.253   8.279 -2.8723 -3.5721  0.6079
 3464SOL     OW21850   1.400   0.292  14.935 -0.9282 -0.5073  0.5127
 3464SOL    HW121851   1.395   0.197  14.932 -1.0356 -0.4788 -0.1728
 3464SOL    HW221852   1.354   0.311  15.016  1.3650 -0.0926  1.7290
 3465SOL     OW21853   1.991   3.144   5.137 -0.4252  0.5032  0.0658
 3465SOL    HW121854   1.975   3.055   5.106  1.2802 -0.3959  1.7570
 3465SOL    HW221855   2.038   3.178   5.061 -1.2271  0.2266 -0.5463
 3466SOL     OW21856   0.316   3.110   4.162  0.2142  0.2888  0.0757
 3466SOL    HW121857   0.313   3.017   4.183 -2.0651  0.3432  0.0517
 3466SOL    HW221858   0.282   3.157   4.238 -1.2534 -0.0513 -0.3641
 3467SOL     OW21859   3.955   0.786   3.355 -0.0349  0.0801  0.6165
 3467SOL    HW121860   3.995   0.749   3.277 -1.2194 -0.0855  0.0896
 3467SOL    HW221861   3.896   0.854   3.323 -2.0053 -0.8504  2.2180
 3468SOL     OW21862   3.113   3.922  15.826  0.3064 -0.5863 -0.1987
 3468SOL    HW121863   3.097   4.013  15.802 -0.6725 -0.5051  0.7443
 3468SOL    HW221864   3.203   3.927  15.858  0.0795 -0.2608  0.4033
 3469SOL     OW21865   1.973   2.487  17.140 -0.0204 -0.1102  0.2104
 3469SOL    HW121866   2.045   2.550  17.145 -0.1581  0.2089 -1.7210
 3469SOL    HW221867   2.025   2.409  17.123 -2.0577 -1.2808 -0.6848
 3470SOL     OW21868   1.070   2.302   1.079  0.7151  0.1661 -0.2031
 3470SOL    HW121869   1.010   2.348   1.138  0.6631  1.2528 -1.1091
 3470SOL    HW221870   1.062   2.364   1.007  2.1111  0.7251  0.1347
 3471SOL     OW21871   1.264   4.024  10.739 -0.0098 -1.3547  0.4572
 3471SOL    HW121872   1.207   3.959  10.781 -1.3964 -0.8126 -0.5671
 3471SOL    HW221873   1.198   4.036  10.670 -0.9741 -1.0719  1.4234
 3472SOL     OW21874   0.980   0.729  15.098 -0.3182 -0.4649 -0.1395
 3472SOL    HW121875   0.951   0.649  15.054  2.0340 -1.1067 -0.5358
 3472SOL    HW221876   0.898   0.754  15.141  1.7996 -0.4315  3.9292
 3473SOL     OW21877   2.044   3.068   9.299 -0.7753 -0.3438 -0.2052
 3473SOL    HW121878   2.132   3.104   9.286 -0.1721 -2.3073 -1.6482
 3473SOL    HW221879   2.010   3.144   9.346  0.6211  2.6716 -4.1378
 3474SOL     OW21880   4.490   1.619  14.966  0.5945 -1.3191 -0.0613
 3474SOL    HW121881   4.505   1.704  15.006  0.1425 -0.5840 -1.4702
 3474SOL    HW221882   4.396   1.627  14.952  0.9161 -0.1117 -1.5070
 3475SOL     OW21883   0.267   1.335   3.145  0.4657  0.1103  0.1676
 3475SOL    HW121884   0.308   1.397   3.205 -0.4111 -0.0151  0.8961
 3475SOL    HW221885   0.203   1.393   3.104  0.5131  0.7407  0.9749
 3476SOL     OW21886   1.744   2.327  11.372 -0.2769  0.2254  0.3323
 3476SOL    HW121887   1.738   2.231  11.369  3.1618  0.0423 -0.4392
 3476SOL    HW221888   1.830   2.342  11.410 -0.8009  2.1968  0.7403
 3477SOL     OW21889   1.342   3.477   5.572  0.1434 -0.1254 -0.1135
 3477SOL    HW121890   1.433   3.505   5.580  0.7997 -2.1154 -0.5594
 3477SOL    HW221891   1.343   3.446   5.481 -3.3992  1.1292 -0.5768
 3478SOL     OW21892   1.669   4.368   3.842 -0.0518 -0.8757 -0.0181
 3478SOL    HW121893   1.688   4.346   3.934 -0.4431  2.4663  0.8369
 3478SOL    HW221894   1.619   4.287   3.831  1.9661 -1.9698 -1.1013
 3479SOL     OW21895   3.402   1.204   0.768  0.4561  0.0858  0.2151
 3479SOL    HW121896   3.356   1.267   0.824 -3.6883  0.2217 -3.3531
 3479SOL    HW221897   3.490   1.216   0.804  0.0249  1.1073  0.9296
 3480SOL     OW21898   2.150   0.816   5.568 -0.2502  0.4066 -0.0624
 3480SOL    HW121899   2.239   0.787   5.551 -0.5786 -1.4450  1.3571
 3480SOL    HW221900   2.156   0.911   5.559  0.5238  0.3091 -0.5423
 3481SOL     OW21901   1.791   1.894   2.970 -0.0448 -0.1095 -0.8796
 3481SOL    HW121902   1.882   1.888   2.942 -0.7102  1.0624 -3.3394
 3481SOL    HW221903   1.740   1.911   2.890  3.2153  3.0415 -2.2544
 3482SOL     OW21904   0.336   3.367   3.798  0.1644  0.8635  0.1683
 3482SOL    HW121905   0.377   3.450   3.775  2.7981 -0.6935 -0.8260
 3482SOL    HW221906   0.244   3.392   3.793 -0.2614 -0.6436  0.4657
 3483SOL     OW21907   1.776   4.118   8.020  0.8556 -0.4293  0.9303
 3483SOL    HW121908   1.792   4.188   8.082  1.2339  0.3270 -0.0242
 3483SOL    HW221909   1.840   4.048   8.032 -0.0252 -1.3885  0.0339
 3484SOL     OW21910   3.796   2.781   8.902  0.1829  1.2001 -0.5171
 3484SOL    HW121911   3.812   2.689   8.879 -3.1671  0.6863 -0.7966
 3484SOL    HW221912   3.863   2.791   8.969  0.1234  0.3734 -0.3420
 3485SOL     OW21913   1.994   1.940   3.998  0.3493  0.3105 -0.2863
 3485SOL    HW121914   1.900   1.925   3.995  0.1079  1.2239  2.8596
 3485SOL    HW221915   2.015   1.906   4.085 -0.7385  1.2614  0.3472
 3486SOL     OW21916   2.401   1.933  16.874 -0.3147  0.4748  0.7794
 3486SOL    HW121917   2.331   1.891  16.823 -0.6718 -0.2046  1.8494
 3486SOL    HW221918   2.435   1.857  16.921  0.9878  1.1308  0.8925
 3487SOL     OW21919   3.603   1.348  15.895 -0.6356 -0.7257 -0.2560
 3487SOL    HW121920   3.602   1.256  15.919  0.3709 -0.3990  1.0692
 3487SOL    HW221921   3.610   1.393  15.980 -0.6565 -0.7198 -0.2575
 3488SOL     OW21922   4.230   2.889   3.779 -0.3487  0.2168  0.4673
 3488SOL    HW121923   4.294   2.953   3.749  0.1666 -1.4098 -1.9323
 3488SOL    HW221924   4.156   2.949   3.790 -0.6837  0.0228 -0.6676
 3489SOL     OW21925   1.608   2.229   9.155  0.4935 -0.4308 -0.6850
 3489SOL    HW121926   1.543   2.240   9.086  0.1167 -2.8395 -0.6935
 3489SOL    HW221927   1.688   2.236   9.102  0.7054 -0.2388 -0.3439
 3490SOL     OW21928   4.700   2.007   6.549  0.8968 -0.5341 -0.7058
 3490SOL    HW121929   0.058   1.958   6.536 -0.9624 -3.5867 -1.0077
 3490SOL    HW221930   0.009   2.083   6.596 -0.1374 -0.2004 -0.5366
 3491SOL     OW21931   1.971   2.829   4.712  0.3842 -0.4919 -0.0425
 3491SOL    HW121932   1.912   2.790   4.648 -0.2973  0.4477  0.0081
 3491SOL    HW221933   2.046   2.770   4.702 -0.1294 -1.2253  0.4779
 3492SOL     OW21934   3.691   3.949   4.111 -0.1496  0.3336  0.3258
 3492SOL    HW121935   3.617   3.958   4.050 -0.9033 -2.1888  0.8509
 3492SOL    HW221936   3.697   4.037   4.147 -0.9678 -0.2242  1.8141
 3493SOL     OW21937   3.461   1.758   6.598  0.0394 -0.0235 -0.0210
 3493SOL    HW121938   3.393   1.800   6.651 -1.0079  0.2344 -1.5711
 3493SOL    HW221939   3.419   1.673   6.612 -2.6865  1.1263 -1.2788
 3494SOL     OW21940   2.803   4.528  13.247  0.1505 -0.2191  0.2273
 3494SOL    HW121941   2.806   4.623  13.235  1.9487 -0.1822  1.0534
 3494SOL    HW221942   2.893   4.496  13.236 -0.3360 -1.9435  1.3095
 3495SOL     OW21943   2.985   1.832  15.473 -0.3504 -0.5904 -0.4758
 3495SOL    HW121944   3.080   1.831  15.458 -0.1018 -2.4266  1.1386
 3495SOL    HW221945   2.960   1.915  15.433 -0.1722 -0.7068 -0.8357
 3496SOL     OW21946   1.584   2.309   6.564 -0.0873 -0.0806  0.1974
 3496SOL    HW121947   1.547   2.281   6.481  1.1527  0.5781 -0.5817
 3496SOL    HW221948   1.674   2.323   6.535 -0.2019 -1.4260 -0.7659
 3497SOL     OW21949   0.968   2.323   9.719  0.0470 -0.0783 -0.3062
 3497SOL    HW121950   0.915   2.401   9.733  1.9188  1.2592 -0.5853
 3497SOL    HW221951   0.908   2.254   9.748  0.9899 -0.8649 -0.1936
 3498SOL     OW21952   1.786   2.079   7.862  0.0967 -0.0091  0.1079
 3498SOL    HW121953   1.791   2.147   7.929 -2.0609 -0.4036  0.6678
 3498SOL    HW221954   1.861   2.025   7.887  1.4874  0.7965 -2.2219
 3499SOL     OW21955   1.556   4.274  17.477  0.0961 -0.7353  0.1764
 3499SOL    HW121956   1.488   4.231  17.424  2.4883 -1.6465 -2.1177
 3499SOL    HW221957   1.631   4.234  17.433  1.4214  1.0125  0.8470
 3500SOL     OW21958   2.739   0.328   7.808  0.5228 -0.4416  0.1559
 3500SOL    HW121959   2.775   0.415   7.825  0.8039 -0.3985 -0.6844
 3500SOL    HW221960   2.683   0.354   7.735  4.6107  1.6656 -2.2138
 3501SOL     OW21961   0.584   2.479   6.670 -0.2560 -0.1149 -0.0982
 3501SOL    HW121962   0.634   2.557   6.693  0.0747  0.0770 -1.4806
 3501SOL    HW221963   0.647   2.409   6.687 -0.3827  0.0595  1.0994
 3502SOL     OW21964   2.969   2.434   8.585  0.0270  0.7700  0.0010
 3502SOL    HW121965   3.046   2.491   8.582  0.6317  0.0307  1.2055
 3502SOL    HW221966   3.000   2.364   8.643 -0.8733  0.3762  0.0160
 3503SOL     OW21967   1.961   2.360   2.018  1.3875  0.6011  0.3643
 3503SOL    HW121968   2.036   2.389   1.967 -0.5195  1.0448 -2.2349
 3503SOL    HW221969   1.921   2.299   1.956  1.5050 -0.4263  1.3068
 3504SOL     OW21970   2.291   1.807   0.456  0.3185  0.4224  0.0522
 3504SOL    HW121971   2.348   1.731   0.466 -3.3594 -1.9997  2.6536
 3504SOL    HW221972   2.210   1.756   0.459  1.8791 -2.0603  0.2795
 3505SOL     OW21973   0.571   0.696   2.341  0.1359  0.2072  0.9761
 3505SOL    HW121974   0.502   0.762   2.341 -0.7453 -0.7251 -3.0013
 3505SOL    HW221975   0.610   0.705   2.254 -0.0442 -2.2992  0.6280
 3506SOL     OW21976   0.151   0.686   6.056  0.1353 -0.6056  0.3201
 3506SOL    HW121977   0.116   0.658   6.141  1.5304 -1.6845  0.5352
 3506SOL    HW221978   0.226   0.737   6.087  0.5020 -0.7025 -0.4034
 3507SOL     OW21979   2.179   2.905  11.947 -0.0750  0.0275  0.4335
 3507SOL    HW121980   2.132   2.986  11.966 -0.0491  0.3145 -0.7154
 3507SOL    HW221981   2.187   2.918  11.852 -0.2703 -0.5500  0.3354
 3508SOL     OW21982   1.096   0.388   3.806 -0.0073 -0.0216 -0.0190
 3508SOL    HW121983   1.026   0.323   3.813 -1.6365  1.8279  0.7525
 3508SOL    HW221984   1.171   0.354   3.855 -0.3043  0.0610  0.4903
 3509SOL     OW21985   0.293   2.023  17.300  0.3575  0.3199  0.0486
 3509SOL    HW121986   0.229   1.953  17.288  0.9294 -0.5269  2.0836
 3509SOL    HW221987   0.332   2.030  17.213 -1.4781 -0.3768 -0.8352
 3510SOL     OW21988   4.067   2.078   1.123  0.8619  0.5036  0.1561
 3510SOL    HW121989   4.116   2.007   1.082  0.8387  0.2881  0.4944
 3510SOL    HW221990   3.981   2.035   1.131  1.8013 -1.3066  0.4026
 3511SOL     OW21991   0.228   2.774   7.331 -0.0851 -0.0264 -0.0794
 3511SOL    HW121992   0.218   2.828   7.253 -0.5147 -2.1235 -1.4650
 3511SOL    HW221993   0.320   2.749   7.321  0.2331  1.0810  0.0882
 3512SOL     OW21994   2.413   0.581   6.994  0.4071  0.6908 -0.3834
 3512SOL    HW121995   2.369   0.660   6.962  0.5236  2.1179  3.0022
 3512SOL    HW221996   2.468   0.557   6.919 -0.9456 -1.3890 -0.7325
 3513SOL     OW21997   4.115   1.473  17.205  0.3417 -0.1072 -0.3541
 3513SOL    HW121998   4.040   1.516  17.246 -0.4094 -2.4581  0.7219
 3513SOL    HW221999   4.117   1.405  17.272 -0.2540  0.2985  0.0727
 3514SOL     OW22000   1.719   3.304   8.191  0.0018 -0.2383 -0.1738
 3514SOL    HW122001   1.680   3.389   8.209  1.5799  0.6145 -0.7683
 3514SOL    HW222002   1.656   3.258   8.135 -1.0290 -2.1714  2.6039
 3515SOL     OW22003   3.956   0.273   4.928 -0.9898 -0.2876 -0.3122
 3515SOL    HW122004   3.971   0.186   4.967 -1.2078 -0.1044  0.1798
 3515SOL    HW222005   4.030   0.278   4.867  0.6447 -1.9783  1.4905
 3516SOL     OW22006   3.355   4.524   7.168 -0.6667 -0.0069  0.6300
 3516SOL    HW122007   3.359   4.590   7.237 -2.8419 -0.6014  1.3354
 3516SOL    HW222008   3.420   4.459   7.195 -0.9762  0.6307  2.8832
 3517SOL     OW22009   2.790   1.782   8.367  0.3999  0.4423  0.3299
 3517SOL    HW122010   2.847   1.743   8.300  0.9091  2.1573 -0.2261
 3517SOL    HW222011   2.778   1.865   8.321  1.0536  0.4903  0.2399
 3518SOL     OW22012   4.340   3.277   6.386  0.7173  0.3151 -0.5333
 3518SOL    HW122013   4.246   3.295   6.386  0.6046 -0.2663 -0.3020
 3518SOL    HW222014   4.376   3.364   6.375  2.4820 -0.3463 -0.0492
 3519SOL     OW22015   1.062   4.244   1.942 -0.2059  0.3158 -0.7164
 3519SOL    HW122016   1.018   4.306   1.884 -0.4013  0.9839  0.1562
 3519SOL    HW222017   0.991   4.211   1.997 -0.0119  0.0860 -0.6068
 3520SOL     OW22018   1.465   3.731   0.433  0.7491  0.6271  0.4266
 3520SOL    HW122019   1.459   3.670   0.359  0.4256  1.8552 -0.5575
 3520SOL    HW222020   1.437   3.670   0.501  1.0310  0.1401  0.1077
 3521SOL     OW22021   0.777   2.929   5.532  0.3698  0.5224  0.4493
 3521SOL    HW122022   0.681   2.936   5.526  0.0644 -3.3481  0.8828
 3521SOL    HW222023   0.801   2.898   5.445 -1.1185 -0.6211  0.4516
 3522SOL     OW22024   1.182   3.764   2.585 -0.2280  0.3581 -0.4375
 3522SOL    HW122025   1.170   3.685   2.638 -0.1789  0.8869  0.3575
 3522SOL    HW222026   1.092   3.770   2.553 -0.7604 -0.4674  0.8898
 3523SOL     OW22027   0.437   3.986  17.489 -0.0994  0.3214 -0.2937
 3523SOL    HW122028   0.505   3.927  17.455  0.2504  1.3561 -1.3766
 3523SOL    HW222029   0.472   3.987  17.579 -2.4251 -0.5128  0.6105
 3524SOL     OW22030   2.413   1.766   5.217  0.8141  0.3495  0.2758
 3524SOL    HW122031   2.435   1.856   5.239 -0.8551  1.0556 -0.9479
 3524SOL    HW222032   2.414   1.724   5.303 -0.4511  0.4053  0.3266
 3525SOL     OW22033   3.898   2.237  10.549 -0.5377 -0.9336 -0.0542
 3525SOL    HW122034   3.989   2.265  10.543 -1.3031  1.8348  1.1710
 3525SOL    HW222035   3.891   2.162  10.489  3.1466  1.5452 -3.5892
 3526SOL     OW22036   1.550   1.311  14.096 -0.5425 -0.0782 -0.3898
 3526SOL    HW122037   1.616   1.354  14.151  0.0917 -0.5935 -0.7532
 3526SOL    HW222038   1.507   1.248  14.154  1.7518 -0.4373  0.9025
 3527SOL     OW22039   0.029   0.687  10.281  0.1182 -0.1500 -0.1293
 3527SOL    HW122040   0.097   0.623  10.301 -0.1103 -0.4629 -0.3555
 3527SOL    HW222041   0.003   0.725  10.365  0.4467  1.7284 -0.8758
 3528SOL     OW22042   2.939   2.499   7.493 -0.1377  0.1244 -0.5677
 3528SOL    HW122043   2.863   2.552   7.516  0.2934  0.4374  0.1212
 3528SOL    HW222044   2.928   2.465   7.404 -0.1317 -0.3345 -0.3968
 3529SOL     OW22045   3.282   3.193  13.967 -0.1610  0.5735 -0.4115
 3529SOL    HW122046   3.194   3.229  13.976  0.0059  0.8023  0.2752
 3529SOL    HW222047   3.314   3.205  14.056  2.8665  1.2182 -1.5800
 3530SOL     OW22048   3.041   3.189   8.768  0.6650 -0.0513 -0.3749
 3530SOL    HW122049   3.104   3.233   8.711  0.2850  1.8411  0.6827
 3530SOL    HW222050   3.013   3.260   8.826  0.1206  2.1192 -3.3207
 3531SOL     OW22051   1.208   0.710   2.913  0.2385 -0.0572 -0.7485
 3531SOL    HW122052   1.217   0.677   3.003  3.6513 -0.5115 -1.2779
 3531SOL    HW222053   1.221   0.802   2.938  0.3130 -0.4916  0.8255
 3532SOL     OW22054   1.212   3.877   9.664  0.0787 -0.0133 -0.1984
 3532SOL    HW122055   1.226   3.941   9.734 -1.6263  1.4059 -1.1400
 3532SOL    HW222056   1.235   3.803   9.720 -1.6824  0.9619  1.8344
 3533SOL     OW22057   1.910   0.249   2.216 -0.1957  0.1412  0.6177
 3533SOL    HW122058   1.901   0.319   2.281  0.4872  0.5897  0.2287
 3533SOL    HW222059   1.855   0.284   2.146 -1.0198  1.6481  2.0082
 3534SOL     OW22060   1.930   1.310   3.143 -0.2309  0.3789 -0.4080
 3534SOL    HW122061   1.838   1.315   3.116 -1.0726 -1.5409  2.1515
 3534SOL    HW222062   1.953   1.222   3.113  1.3571 -0.3751  3.1259
 3535SOL     OW22063   2.827   2.017   8.215  0.0034  0.4511 -0.4428
 3535SOL    HW122064   2.901   2.051   8.166 -0.5324  0.4904 -1.2170
 3535SOL    HW222065   2.805   2.083   8.281  1.4963 -0.0101  0.5085
 3536SOL     OW22066   1.988   1.912   7.318  0.1900  0.1153 -0.0270
 3536SOL    HW122067   2.040   1.968   7.376 -1.6811  2.7880 -0.9406
 3536SOL    HW222068   1.943   1.966   7.254 -0.4621 -0.2184  0.1545
 3537SOL     OW22069   0.706   1.420   3.044 -0.2036 -0.1952  0.3779
 3537SOL    HW122070   0.704   1.397   3.137 -0.7107  0.4626  0.5335
 3537SOL    HW222071   0.629   1.476   3.034  1.4540  2.0163 -0.1319
 3538SOL     OW22072   3.265   3.569   2.333 -0.0208  0.4427 -0.3024
 3538SOL    HW122073   3.235   3.555   2.243 -0.9528  1.9692 -0.2185
 3538SOL    HW222074   3.197   3.631   2.360 -1.2711 -1.9706  2.0916
 3539SOL     OW22075   2.889   0.768   4.699 -0.0969  0.3981  0.0461
 3539SOL    HW122076   2.917   0.799   4.785 -0.3287  0.6676  0.0207
 3539SOL    HW222077   2.889   0.673   4.711  0.0490 -0.0342 -3.5464
 3540SOL     OW22078   0.680   4.417   2.485  0.0343 -0.4363  0.8744
 3540SOL    HW122079   0.757   4.404   2.430 -0.5883 -2.1789  0.4187
 3540SOL    HW222080   0.715   4.416   2.574  3.7374 -0.0597 -0.5729
 3541SOL     OW22081   2.252   0.954   2.753  0.3615  0.1297  0.2212
 3541SOL    HW122082   2.281   1.044   2.738  0.2102  0.5580  2.4669
 3541SOL    HW222083   2.264   0.926   2.662  1.7429 -0.8995  0.7194
 3542SOL     OW22084   1.988   0.448   3.017  0.0847  0.6416  0.0083
 3542SOL    HW122085   1.896   0.424   3.014  0.4126 -0.7271  0.9134
 3542SOL    HW222086   1.992   0.503   2.939  2.1442  1.7067  0.8481
 3543SOL     OW22087   4.609   1.385   3.724 -0.0324 -0.3077  0.3078
 3543SOL    HW122088   4.565   1.397   3.640 -0.2289 -1.5026  0.2369
 3543SOL    HW222089   4.689   1.336   3.705 -0.1175  0.1524 -1.1999
 3544SOL     OW22090   1.051   1.845  13.392 -0.1206 -0.0245 -0.3133
 3544SOL    HW122091   1.002   1.922  13.421 -2.4760 -2.1762  1.4817
 3544SOL    HW222092   1.030   1.861  13.300  1.6160  0.3686 -0.6366
 3545SOL     OW22093   4.180   4.285   2.900 -0.3334 -0.5602 -0.1714
 3545SOL    HW122094   4.250   4.348   2.917 -1.2718  0.3185  0.4848
 3545SOL    HW222095   4.199   4.206   2.950  0.3227 -0.4250 -0.2040
 3546SOL     OW22096   0.809   4.717   1.610  0.1706 -0.2562  0.6264
 3546SOL    HW122097   0.722   0.009   1.574 -0.1171 -0.3410  1.3038
 3546SOL    HW222098   0.817   0.064   1.674 -1.3200  3.6737 -3.5427
 3547SOL     OW22099   3.494   2.371   3.933  0.5372 -0.2482 -0.8316
 3547SOL    HW122100   3.557   2.331   3.874  0.6379  0.9740 -1.5622
 3547SOL    HW222101   3.484   2.304   4.000  1.0020  0.4597 -0.0491
 3548SOL     OW22102   3.779   3.486   2.306  0.1283 -0.4687 -0.1063
 3548SOL    HW122103   3.721   3.456   2.236  1.3420 -0.2030 -1.2376
 3548SOL    HW222104   3.772   3.414   2.368  1.2958  0.6525  1.3399
 3549SOL     OW22105   1.644   0.130   8.520  0.3628  0.1029 -0.4213
 3549SOL    HW122106   1.549   0.117   8.516  0.5028 -0.9212 -0.4040
 3549SOL    HW222107   1.663   0.054   8.465 -1.6571 -1.1097  0.5183
 3550SOL     OW22108   3.376   0.330   3.621 -0.6013  0.1065 -0.4404
 3550SOL    HW122109   3.288   0.361   3.644 -0.3508 -1.5264  2.7019
 3550SOL    HW222110   3.356   0.290   3.537 -1.0416 -0.8169  0.1070
 3551SOL     OW22111   3.665   4.559   4.521  0.2253  0.5353 -0.2054
 3551SOL    HW122112   3.753   4.581   4.489 -0.2642  0.8967 -1.2794
 3551SOL    HW222113   3.678   4.464   4.520 -1.8361  0.2769 -1.7629
 3552SOL     OW22114   3.031   1.252  13.601  0.3369  0.1817  0.0273
 3552SOL    HW122115   3.100   1.293  13.550  0.3912 -1.3524 -1.1060
 3552SOL    HW222116   2.954   1.256  13.544  1.3557 -1.1959 -1.4151
 3553SOL     OW22117   3.386   3.091   3.480 -0.5552 -0.0160 -0.5217
 3553SOL    HW122118   3.336   3.171   3.497 -0.3289 -0.2254  1.1414
 3553SOL    HW222119   3.353   3.081   3.391  0.5553 -1.3076 -0.7829
 3554SOL     OW22120   2.020   3.516   5.780 -0.1439  0.3723  0.0396
 3554SOL    HW122121   1.951   3.565   5.824 -1.1520 -0.9340 -0.0834
 3554SOL    HW222122   1.987   3.429   5.758 -0.8009  0.4807  0.6164
 3555SOL     OW22123   3.938   1.924   7.761 -0.3508  0.0280 -0.1033
 3555SOL    HW122124   3.877   1.997   7.771  0.2705  0.6679 -0.9033
 3555SOL    HW222125   3.954   1.923   7.666 -1.6955 -0.0853 -0.3256
 3556SOL     OW22126   1.946   2.307   7.279  0.6724  0.1608 -0.6727
 3556SOL    HW122127   1.946   2.237   7.214  0.1931 -0.7142  0.2852
 3556SOL    HW222128   1.877   2.277   7.337  2.1834 -2.4708 -0.2419
 3557SOL     OW22129   3.504   3.409   6.161  0.4560 -0.4275 -0.2599
 3557SOL    HW122130   3.415   3.440   6.149 -0.4871 -3.0511  0.0633
 3557SOL    HW222131   3.519   3.420   6.255  0.8279 -1.0100 -0.2480
 3558SOL     OW22132   2.877   2.544   8.947  0.1593 -0.3065 -0.0573
 3558SOL    HW122133   2.962   2.500   8.958  0.7534  0.4541 -1.4738
 3558SOL    HW222134   2.904   2.587   8.866 -3.7451 -0.0861 -1.2097
 3559SOL     OW22135   0.968   2.925   3.597  0.3679  0.1557 -0.2572
 3559SOL    HW122136   0.969   3.008   3.550 -0.7475 -0.9107 -2.1998
 3559SOL    HW222137   0.885   2.888   3.568 -0.4927  0.7923  1.4011
 3560SOL     OW22138   2.728   1.415   2.141  0.1495 -0.0486 -0.3622
 3560SOL    HW122139   2.646   1.377   2.172 -1.0475  1.0712 -2.1277
 3560SOL    HW222140   2.697   1.502   2.118 -2.1209 -1.0095 -0.9594
 3561SOL     OW22141   2.093   3.553  15.384  0.1047 -0.5091 -0.2439
 3561SOL    HW122142   2.003   3.521  15.380 -0.2388  0.4977 -0.5319
 3561SOL    HW222143   2.105   3.589  15.295 -0.8653  1.4976  0.4427
 3562SOL     OW22144   3.494   1.843  15.048 -0.7304 -0.1234  0.2453
 3562SOL    HW122145   3.429   1.892  15.099 -1.5244 -0.2183 -0.6798
 3562SOL    HW222146   3.546   1.792  15.110 -0.1038  0.0393 -0.1508
 3563SOL     OW22147   2.306   4.312   2.597 -0.0575 -0.1837 -0.4444
 3563SOL    HW122148   2.330   4.339   2.685  0.9400 -2.1031 -0.1260
 3563SOL    HW222149   2.312   4.394   2.548  0.0770 -0.3187 -0.6556
 3564SOL     OW22150   1.408   1.051   3.373 -0.3022  0.0209  0.6572
 3564SOL    HW122151   1.429   0.963   3.403 -0.4609  0.1080  1.0229
 3564SOL    HW222152   1.313   1.053   3.378 -0.4754  1.3282 -3.0734
 3565SOL     OW22153   4.568   0.401   9.129  0.0695 -0.3447 -0.1082
 3565SOL    HW122154   4.563   0.461   9.055  3.2340  0.7201  0.5434
 3565SOL    HW222155   4.613   0.336   9.076 -0.6246 -1.5675  0.8090
 3566SOL     OW22156   3.360   3.487   9.304 -0.5288 -0.5893  0.0308
 3566SOL    HW122157   3.367   3.549   9.376 -0.7637 -0.3725 -0.1302
 3566SOL    HW222158   3.364   3.404   9.350  0.9004 -0.8978 -0.6622
 3567SOL     OW22159   1.371   3.859   9.420 -0.0836  0.3045 -0.0760
 3567SOL    HW122160   1.444   3.906   9.462  0.0112  0.5882 -0.5538
 3567SOL    HW222161   1.305   3.844   9.487  0.7406 -2.7607  0.0539
 3568SOL     OW22162   0.998   2.595  13.641 -0.3999 -0.0398 -0.2535
 3568SOL    HW122163   1.084   2.578  13.602  0.1940  1.3382  0.4705
 3568SOL    HW222164   1.017   2.556  13.726 -0.1696  0.6708  0.0176
 3569SOL     OW22165   2.829   3.117   9.091 -0.6428 -0.0928  0.1537
 3569SOL    HW122166   2.813   3.162   9.008 -3.7636 -1.7726 -0.1642
 3569SOL    HW222167   2.809   3.179   9.162  0.0636 -0.1568  0.4072
 3570SOL     OW22168   2.141   2.902  16.903 -0.5327 -0.0459 -0.2189
 3570SOL    HW122169   2.217   2.948  16.939  1.4421 -2.1102 -1.7530
 3570SOL    HW222170   2.149   2.928  16.811 -1.3577 -1.3796 -0.6642
 3571SOL     OW22171   3.129   2.323   6.645 -0.2004  0.3086 -0.3871
 3571SOL    HW122172   3.222   2.300   6.646 -0.3914 -0.4659  0.6171
 3571SOL    HW222173   3.087   2.253   6.594 -1.6252  0.8045  0.1029
 3572SOL     OW22174   0.259   4.219   6.327  0.3953 -0.5007  0.2656
 3572SOL    HW122175   0.229   4.182   6.244 -1.9559 -2.5561  2.0332
 3572SOL    HW222176   0.251   4.314   6.312 -3.0123 -0.7956  0.1330
 3573SOL     OW22177   3.222   3.627   4.134 -0.0476 -0.1966 -0.0794
 3573SOL    HW122178   3.218   3.722   4.132  0.7890 -0.1745 -0.7117
 3573SOL    HW222179   3.135   3.601   4.165  0.7836  0.0375  2.4266
 3574SOL     OW22180   4.337   3.287   7.126  0.3427  0.2938 -1.0881
 3574SOL    HW122181   4.329   3.225   7.054  3.4056  0.4047 -1.5347
 3574SOL    HW222182   4.398   3.349   7.086 -0.6740  1.8087 -0.2762
 3575SOL     OW22183   1.704   3.214   7.579  0.2269 -0.0451 -0.3143
 3575SOL    HW122184   1.705   3.304   7.545  2.4184 -0.6595 -1.8154
 3575SOL    HW222185   1.783   3.224   7.632 -1.7235 -1.0061  2.7451
 3576SOL     OW22186   4.593   1.464   5.917  0.2342  0.2267 -0.0456
 3576SOL    HW122187   4.596   1.497   6.007  3.2801  0.5064 -0.2617
 3576SOL    HW222188   4.667   1.404   5.917 -2.2012 -2.8327  0.6326
 3577SOL     OW22189   3.555   4.290   7.972  0.4914  0.2020  0.0247
 3577SOL    HW122190   3.643   4.304   8.006  2.0995 -3.2552 -2.6240
 3577SOL    HW222191   3.507   4.332   8.043 -0.5128 -1.1791  0.1738
 3578SOL     OW22192   1.026   4.310   6.220  0.8342 -0.3742 -1.0115
 3578SOL    HW122193   0.939   4.346   6.231  1.3877  1.2628 -2.0396
 3578SOL    HW222194   1.008   4.220   6.248  0.4461 -0.3915 -1.3268
 3579SOL     OW22195   0.470   4.437   7.633 -0.5858  0.1243 -0.0184
 3579SOL    HW122196   0.490   4.344   7.631 -3.1644 -0.4472  0.8484
 3579SOL    HW222197   0.546   4.459   7.687 -0.6903 -1.3389  0.7291
 3580SOL     OW22198   1.397   2.487   2.982 -0.0216  0.4381  0.0095
 3580SOL    HW122199   1.383   2.492   2.887 -0.3214  1.5225  0.1188
 3580SOL    HW222200   1.492   2.489   2.990 -0.1964  2.0617  1.5255
 3581SOL     OW22201   3.846   1.937   4.939 -0.7509  0.2803  0.1430
 3581SOL    HW122202   3.931   1.949   4.983 -1.1256  1.0542  0.6470
 3581SOL    HW222203   3.789   1.888   4.998 -0.5005  0.6166  0.6687
 3582SOL     OW22204   3.062   0.072   2.854 -0.5087  0.2480 -0.7734
 3582SOL    HW122205   3.086   0.019   2.778  1.4486  1.2722 -0.8585
 3582SOL    HW222206   2.980   0.030   2.882  1.0723 -1.1584  1.7704
 3583SOL     OW22207   0.533   3.657   8.597 -0.2199 -0.7194 -0.2305
 3583SOL    HW122208   0.624   3.673   8.569  0.2625  0.9405  2.2219
 3583SOL    HW222209   0.494   3.647   8.511 -1.3142  0.8410  0.0756
 3584SOL     OW22210   1.615   4.594   3.294  0.2083  0.6356 -0.2873
 3584SOL    HW122211   1.548   4.623   3.233 -1.0933 -0.0379  0.8089
 3584SOL    HW222212   1.598   4.500   3.281  0.4044  0.5736 -0.1121
 3585SOL     OW22213   2.358   2.710  15.879 -0.0015 -0.2640  0.3364
 3585SOL    HW122214   2.393   2.742  15.796  1.3484 -2.7275 -0.0383
 3585SOL    HW222215   2.432   2.662  15.917  0.9534  0.3002 -0.8342
 3586SOL     OW22216   1.089   3.964   6.617 -0.8355 -0.7944 -0.0976
 3586SOL    HW122217   1.157   4.026   6.591 -0.9815 -0.8162 -0.5421
 3586SOL    HW222218   1.088   3.907   6.540 -0.3171  0.3759 -0.9731
 3587SOL     OW22219   0.700   3.881   9.306  0.5764 -0.4355  0.2606
 3587SOL    HW122220   0.664   3.952   9.359  0.4672 -1.6777  1.8559
 3587SOL    HW222221   0.714   3.919   9.219  1.1247  0.4643  0.7373
 3588SOL     OW22222   4.364   3.980   0.532  0.0891  0.4142  0.0222
 3588SOL    HW122223   4.412   4.017   0.457  2.0439 -0.2570  0.9415
 3588SOL    HW222224   4.406   3.895   0.531  1.0566  0.8800  1.2820
 3589SOL     OW22225   2.791   2.129   6.626  0.0136 -0.2614  0.2200
 3589SOL    HW122226   2.762   2.057   6.683  1.0085 -0.3985  0.5518
 3589SOL    HW222227   2.750   2.207   6.663  2.1888  1.3381 -0.8095
 3590SOL     OW22228   1.638   3.501  15.855  0.2264  0.2524 -0.2149
 3590SOL    HW122229   1.652   3.592  15.832  2.2422 -0.1464 -0.6224
 3590SOL    HW222230   1.545   3.507  15.877  0.9814 -0.0457  3.0824
 3591SOL     OW22231   1.403   2.841   2.926  0.2030  0.1865  0.4292
 3591SOL    HW122232   1.312   2.858   2.949  0.4033  0.6679  0.8721
 3591SOL    HW222233   1.431   2.930   2.905  0.0025  0.2427  0.4017
 3592SOL     OW22234   2.093   2.568   5.398 -0.6147  0.4271 -0.4782
 3592SOL    HW122235   2.110   2.520   5.479  0.7931  1.0029 -0.4419
 3592SOL    HW222236   2.171   2.623   5.403 -0.1217 -0.4642  1.4925
 3593SOL     OW22237   0.923   4.002   2.882  0.2107 -0.0518  0.8698
 3593SOL    HW122238   0.834   4.024   2.910  0.5682  1.8044  0.5137
 3593SOL    HW222239   0.941   4.059   2.808 -1.0992  0.3767  0.8765
 3594SOL     OW22240   2.305   2.897   3.418  0.3495 -0.0467 -0.0054
 3594SOL    HW122241   2.253   2.843   3.477 -2.4168 -0.3282 -2.6807
 3594SOL    HW222242   2.242   2.969   3.409  0.3951 -0.1256 -0.9762
 3595SOL     OW22243   3.440   2.362   3.475  0.5033 -0.1776 -0.3779
 3595SOL    HW122244   3.492   2.441   3.456  1.4592 -1.0172 -1.2251
 3595SOL    HW222245   3.348   2.386   3.488  0.9170  1.3420 -0.2017
 3596SOL     OW22246   0.984   4.264   0.289 -0.2554  0.3873  0.4983
 3596SOL    HW122247   0.922   4.237   0.356 -0.1295  1.6954  1.1468
 3596SOL    HW222248   1.008   4.181   0.248 -1.9874  1.0243 -1.8056
 3597SOL     OW22249   2.223   3.094   1.923  0.2290 -0.1655 -0.7075
 3597SOL    HW122250   2.210   3.165   1.985 -1.9411 -1.4488  0.3232
 3597SOL    HW222251   2.160   3.139   1.867 -0.3853 -0.7910 -0.5172
 3598SOL     OW22252   3.413   2.871  14.591  0.6927  0.5056  0.4609
 3598SOL    HW122253   3.341   2.932  14.610 -0.1967  0.1227 -1.7856
 3598SOL    HW222254   3.481   2.933  14.564  0.3280  0.5871 -0.2575
 3599SOL     OW22255   3.394   0.248   4.373 -0.0905  0.2395 -0.9220
 3599SOL    HW122256   3.431   0.183   4.432 -0.3775 -1.0386 -2.1683
 3599SOL    HW222257   3.339   0.195   4.316 -0.4395 -2.3060  1.8333
 3600SOL     OW22258   0.592   0.473   5.638  0.3618 -0.2764 -0.7165
 3600SOL    HW122259   0.604   0.524   5.557  2.8386 -0.0745 -0.2440
 3600SOL    HW222260   0.682   0.488   5.670 -0.4455 -0.0373  1.4311
 3601SOL     OW22261   1.058   0.410  16.830 -0.2658  0.0223 -0.0752
 3601SOL    HW122262   1.150   0.438  16.823 -1.0723  2.6627 -0.2596
 3601SOL    HW222263   1.013   0.483  16.787 -0.0109  0.1237 -0.1712
 3602SOL     OW22264   0.190   4.623   5.941  0.0284 -0.1118 -0.4354
 3602SOL    HW122265   0.199   4.537   5.898 -0.5544 -0.3155 -0.1554
 3602SOL    HW222266   0.180   4.600   6.034 -1.2461  1.9083 -0.0716
 3603SOL     OW22267   3.152   3.357   3.030 -0.9667  0.3980 -0.2999
 3603SOL    HW122268   3.108   3.277   2.999  1.7458 -0.7942 -1.0696
 3603SOL    HW222269   3.241   3.324   3.026 -1.0731 -0.0052  0.8706
 3604SOL     OW22270   3.283   2.368  15.823 -0.6712  0.1688 -0.0561
 3604SOL    HW122271   3.377   2.387  15.830 -0.5153 -0.7317  0.4031
 3604SOL    HW222272   3.270   2.403  15.735 -0.2778  1.7063  0.4930
 3605SOL     OW22273   3.575   2.585  11.033 -0.0317  0.1089 -0.1912
 3605SOL    HW122274   3.634   2.513  11.012  1.5159  1.3065  0.0412
 3605SOL    HW222275   3.490   2.542  11.044 -0.6978  1.1608 -1.2279
 3606SOL     OW22276   1.612   1.470  11.594  0.0654 -0.2098 -0.2353
 3606SOL    HW122277   1.584   1.486  11.504 -0.8549  0.6788  0.2088
 3606SOL    HW222278   1.569   1.388  11.615  0.7326 -0.4794  0.0901
 3607SOL     OW22279   2.558   2.433   8.848 -0.3420  0.0127  0.4907
 3607SOL    HW122280   2.579   2.475   8.765  1.4426  1.1154  1.5069
 3607SOL    HW222281   2.585   2.502   8.908 -0.2012 -0.1139  0.5707
 3608SOL     OW22282   2.388   3.971   3.537 -0.2845  0.0341  0.3633
 3608SOL    HW122283   2.406   3.920   3.458 -2.1922  2.1390 -1.4624
 3608SOL    HW222284   2.467   3.971   3.591  1.3240 -0.3091 -2.0043
 3609SOL     OW22285   2.313   4.297  13.415  0.0281 -0.3694  0.2602
 3609SOL    HW122286   2.287   4.366  13.476 -2.1511 -1.1035  0.1640
 3609SOL    HW222287   2.247   4.312  13.347  0.4392  1.1376  0.1766
 3610SOL     OW22288   3.214   3.057   6.714 -0.1735 -0.5310  0.1587
 3610SOL    HW122289   3.301   3.041   6.751  0.4997 -0.6350 -1.4699
 3610SOL    HW222290   3.227   3.028   6.624  1.7581  0.0218  0.2614
 3611SOL     OW22291   0.125   1.117   2.564  0.0126 -0.0351  0.2473
 3611SOL    HW122292   0.103   1.047   2.502  1.3634  0.4518 -0.7527
 3611SOL    HW222293   0.044   1.115   2.615 -0.1930  3.7136  0.0755
 3612SOL     OW22294   0.343   0.202   4.007  0.1284 -0.3044 -0.0765
 3612SOL    HW122295   0.426   0.231   4.045 -0.1615 -2.6682  2.3604
 3612SOL    HW222296   0.332   0.261   3.933  0.6794  0.1260  0.1849
 3613SOL     OW22297   3.051   1.924   1.344  0.2355 -0.5941  0.8289
 3613SOL    HW122298   3.131   1.899   1.299  2.2521  3.1509  2.3341
 3613SOL    HW222299   3.043   2.011   1.306  0.7883 -1.3068 -0.9193
 3614SOL     OW22300   2.731   4.141  13.687  0.0412  0.0609 -0.3671
 3614SOL    HW122301   2.676   4.208  13.729 -1.4863  0.0942 -2.4139
 3614SOL    HW222302   2.799   4.134  13.754 -0.6628  0.9190  0.4443
 3615SOL     OW22303   4.076   4.584   2.203  0.0679 -0.0641 -0.1864
 3615SOL    HW122304   3.992   4.554   2.169 -0.4507 -1.0037  1.9518
 3615SOL    HW222305   4.037   4.660   2.245  1.5577  0.5624  0.0663
 3616SOL     OW22306   0.820   2.381   4.783  0.3406 -0.2299  0.1887
 3616SOL    HW122307   0.855   2.463   4.748 -0.4648 -0.8912 -2.2178
 3616SOL    HW222308   0.795   2.418   4.867  2.5308  0.1707  0.6774
 3617SOL     OW22309   4.285   2.708   2.129  0.3743 -0.1566  0.0665
 3617SOL    HW122310   4.270   2.661   2.047  2.8666 -0.9976  0.0779
 3617SOL    HW222311   4.380   2.723   2.130  0.3853 -0.2132 -0.1151
 3618SOL     OW22312   1.817   3.713  12.074  0.3308 -0.0664 -0.5191
 3618SOL    HW122313   1.796   3.750  12.159 -0.0556  0.1770 -0.7204
 3618SOL    HW222314   1.733   3.696  12.032 -0.4160 -1.9234  1.7730
 3619SOL     OW22315   4.201   3.287   3.127 -0.6460 -0.0651 -0.1600
 3619SOL    HW122316   4.282   3.337   3.125  0.1767 -1.5184 -2.7380
 3619SOL    HW222317   4.231   3.200   3.155 -1.5521  0.3427  2.1369
 3620SOL     OW22318   2.891   2.220   1.621 -0.3793  0.5949 -0.2689
 3620SOL    HW122319   2.821   2.159   1.597 -0.5406  0.0587  1.5165
 3620SOL    HW222320   2.887   2.270   1.540  1.1863 -0.7541 -1.1954
 3621SOL     OW22321   2.155   1.039   7.262  0.3170 -0.4590  0.4207
 3621SOL    HW122322   2.232   0.995   7.227  0.0131 -0.1366 -0.6462
 3621SOL    HW222323   2.139   1.105   7.195 -1.5818 -1.4782 -0.1333
 3622SOL     OW22324   2.961   4.415  15.455  0.5008  0.0110  0.2730
 3622SOL    HW122325   2.878   4.452  15.485  0.1339 -0.1937 -0.4984
 3622SOL    HW222326   2.937   4.323  15.447  1.0759 -0.3437  2.7734
 3623SOL     OW22327   0.866   3.934   3.596  0.3974  0.2569  0.1868
 3623SOL    HW122328   0.932   3.911   3.531  0.4752 -0.3953  0.4963
 3623SOL    HW222329   0.833   3.848   3.621  4.1399 -1.7585 -1.8061
 3624SOL     OW22330   0.618   0.632   9.352 -0.0664 -0.3090 -0.4753
 3624SOL    HW122331   0.684   0.628   9.283 -0.3373  0.9318 -0.8184
 3624SOL    HW222332   0.624   0.546   9.393 -0.1871  0.5637  1.3555
 3625SOL     OW22333   2.915   2.404   9.395  0.6387  0.3265  0.5651
 3625SOL    HW122334   2.881   2.349   9.465  1.4901  0.7590  1.3244
 3625SOL    HW222335   3.009   2.398   9.413  0.5790 -1.1884  0.4000
 3626SOL     OW22336   0.288   3.803   3.130 -0.1072  0.1952  0.0338
 3626SOL    HW122337   0.362   3.862   3.120  0.1999  0.0220  1.2067
 3626SOL    HW222338   0.250   3.813   3.043  3.1048  0.2415 -1.3601
 3627SOL     OW22339   2.520   1.410  15.166  0.2773  0.1340  0.2401
 3627SOL    HW122340   2.574   1.382  15.092  1.8336 -0.6787  1.7009
 3627SOL    HW222341   2.563   1.492  15.192 -0.2859  0.4953  0.0389
 3628SOL     OW22342   3.247   0.123   3.061 -0.3197 -0.3297  0.2349
 3628SOL    HW122343   3.211   0.093   2.977 -2.2764 -2.1054  1.7051
 3628SOL    HW222344   3.290   0.042   3.088 -1.2092 -1.5400 -1.9656
 3629SOL     OW22345   3.798   2.125   6.451  0.8259  0.1520  0.0644
 3629SOL    HW122346   3.794   2.030   6.443  1.6361 -0.1322  3.1301
 3629SOL    HW222347   3.760   2.143   6.364  1.4404  0.2539 -0.1824
 3630SOL     OW22348   1.370   3.892   1.594  0.6914 -0.0171 -0.4748
 3630SOL    HW122349   1.364   3.889   1.499 -0.4788  1.7170 -0.4558
 3630SOL    HW222350   1.465   3.906   1.602  0.6913 -0.4133  0.1764
 3631SOL     OW22351   0.593   2.869   3.165 -0.2758 -0.3272  0.0267
 3631SOL    HW122352   0.577   2.957   3.130  2.2432  0.1387  0.0607
 3631SOL    HW222353   0.558   2.867   3.253 -0.6787  0.9131 -0.1178
 3632SOL     OW22354   2.148   3.651   9.210  0.2574 -0.3945  0.1948
 3632SOL    HW122355   2.168   3.682   9.298  0.4539  1.2376 -0.4165
 3632SOL    HW222356   2.226   3.682   9.165 -0.3801  1.4742  0.3569
 3633SOL     OW22357   0.140   4.667   5.276 -0.3175  0.5755  0.2552
 3633SOL    HW122358   0.174   4.621   5.353  0.1265  1.5121  0.6163
 3633SOL    HW222359   0.085   4.593   5.247 -1.3368  1.6368 -0.5145
 3634SOL     OW22360   3.580   1.442   8.448  0.0798 -0.9996 -0.1343
 3634SOL    HW122361   3.593   1.426   8.355  0.2891  0.4554 -0.3567
 3634SOL    HW222362   3.643   1.509   8.472 -0.5978  0.2255 -1.7740
 3635SOL     OW22363   2.066   1.928   2.298  0.7682  0.4285 -0.0196
 3635SOL    HW122364   2.055   1.966   2.211  2.0017  0.4037 -0.1841
 3635SOL    HW222365   2.065   1.837   2.268  0.7846  0.6229 -0.6073
 3636SOL     OW22366   1.891   3.275   3.422 -0.3578 -0.4319  0.2328
 3636SOL    HW122367   1.937   3.340   3.476  0.4767  0.3707 -1.4352
 3636SOL    HW222368   1.893   3.333   3.346 -0.5119  0.4902  0.9291
 3637SOL     OW22369   2.366   4.618   2.194  0.8499  0.1502 -0.2986
 3637SOL    HW122370   2.273   4.639   2.199  1.2437  1.3872  2.0743
 3637SOL    HW222371   2.364   4.603   2.100 -1.6129  1.2276 -0.4012
 3638SOL     OW22372   3.614   2.933   3.761 -0.2877  0.3994 -0.2397
 3638SOL    HW122373   3.625   2.948   3.667  1.3477  0.9479  0.0418
 3638SOL    HW222374   3.556   2.858   3.778  0.0218  0.4170  0.9214
 3639SOL     OW22375   1.242   0.064   2.225  0.4224 -0.1270 -0.1649
 3639SOL    HW122376   1.288   0.038   2.145  0.1706  1.1634 -0.7294
 3639SOL    HW222377   1.175   4.720   2.228 -0.2226  0.5439  0.7685
 3640SOL     OW22378   4.120   1.933   3.545 -0.5827 -0.5196 -0.4769
 3640SOL    HW122379   4.118   1.841   3.569  1.5860 -0.1956  0.9948
 3640SOL    HW222380   4.049   1.972   3.595  0.0583  0.5942 -0.4269
 3641SOL     OW22381   1.181   0.294  10.024 -0.3289  0.3953 -0.0495
 3641SOL    HW122382   1.142   0.208  10.007 -2.3222  1.0799  1.1088
 3641SOL    HW222383   1.191   0.300  10.119 -2.7922 -0.0822  0.2269
 3642SOL     OW22384   3.962   3.399   7.190 -0.5214 -0.6627  0.0855
 3642SOL    HW122385   4.001   3.483   7.214  1.5579 -1.4836 -0.4088
 3642SOL    HW222386   3.918   3.441   7.116 -3.6735 -2.3121  1.0432
 3643SOL     OW22387   4.182   0.289   3.033 -0.2973  0.9338 -0.0698
 3643SOL    HW122388   4.195   0.364   2.975 -0.1102  0.5477 -0.5278
 3643SOL    HW222389   4.130   0.230   2.978 -0.1577  1.0324 -0.3083
 3644SOL     OW22390   0.308   0.372  12.458 -0.1713  0.4193  0.2377
 3644SOL    HW122391   0.347   0.370  12.370  2.1756  1.8331  1.2254
 3644SOL    HW222392   0.352   0.451  12.490 -2.1354  1.8062 -0.5187
 3645SOL     OW22393   4.539   3.298   5.785  0.3898  0.1682 -0.2574
 3645SOL    HW122394   4.555   3.291   5.691 -0.0385  0.3137 -0.3430
 3645SOL    HW222395   4.447   3.324   5.781  0.3164 -0.3669 -1.8077
 3646SOL     OW22396   2.758   3.741   2.439 -0.4760 -0.4072  0.0335
 3646SOL    HW122397   2.699   3.770   2.508 -2.7374 -0.6659 -1.7839
 3646SOL    HW222398   2.700   3.739   2.362 -1.0414  0.0857  0.4450
 3647SOL     OW22399   2.753   3.865  13.159  0.1054  0.5391 -0.1155
 3647SOL    HW122400   2.693   3.807  13.113  0.0101 -1.2604  2.3421
 3647SOL    HW222401   2.801   3.895  13.082  0.9068 -0.6850 -0.0938
 3648SOL     OW22402   3.123   3.524   4.601 -0.2497  0.4043  0.6855
 3648SOL    HW122403   3.179   3.598   4.579 -0.1649 -0.1415 -0.9861
 3648SOL    HW222404   3.033   3.557   4.610 -1.4977 -2.7713 -0.0493
 3649SOL     OW22405   3.539   4.486   8.969 -0.1502  0.1017  0.6316
 3649SOL    HW122406   3.500   4.399   8.978 -1.9665  0.6886 -1.8168
 3649SOL    HW222407   3.531   4.526   9.055 -0.1625 -1.2890  1.2788
 3650SOL     OW22408   1.401   1.596  16.094  0.5965  0.0900  0.4152
 3650SOL    HW122409   1.347   1.543  16.153  0.3849  1.5813  1.5531
 3650SOL    HW222410   1.392   1.682  16.136  1.5611 -0.1378  1.0790
 3651SOL     OW22411   2.167   0.141   2.024 -0.2559  0.0495 -0.4530
 3651SOL    HW122412   2.146   0.089   2.102 -1.1531  1.5799  0.3096
 3651SOL    HW222413   2.185   0.225   2.065 -0.9200  0.5834 -1.2474
 3652SOL     OW22414   1.580   2.053   7.197  0.0458  0.5798  0.0987
 3652SOL    HW122415   1.589   2.142   7.162 -0.9448  0.0419 -1.5485
 3652SOL    HW222416   1.542   2.066   7.283  1.4578 -0.7533  0.9256
 3653SOL     OW22417   2.745   4.197  15.985  0.1813 -0.6241  0.3220
 3653SOL    HW122418   2.741   4.292  15.978  0.3676 -0.4397  2.6071
 3653SOL    HW222419   2.838   4.179  15.996  0.5313 -0.0797 -1.7801
 3654SOL     OW22420   3.049   3.253   8.003 -0.4499 -0.1299 -0.3498
 3654SOL    HW122421   2.977   3.286   8.056  1.0186  2.0044  0.3039
 3654SOL    HW222422   3.051   3.317   7.932  1.4311 -1.2530 -1.3251
 3655SOL     OW22423   1.353   1.675   1.417 -0.0463 -0.4009 -0.0408
 3655SOL    HW122424   1.297   1.598   1.408  0.6530 -0.7586 -1.1516
 3655SOL    HW222425   1.331   1.697   1.508  1.6946  0.7739  0.1020
 3656SOL     OW22426   2.299   3.761  11.043 -0.3457  0.4202  0.5594
 3656SOL    HW122427   2.300   3.700  10.970  1.4019  0.9067  0.1788
 3656SOL    HW222428   2.384   3.757  11.087 -0.4325 -2.8201  0.4228
 3657SOL     OW22429   1.875   4.020   5.370 -0.3487  0.2265 -0.2181
 3657SOL    HW122430   1.806   4.082   5.390  1.1065  1.6764  0.2914
 3657SOL    HW222431   1.868   4.015   5.274  0.9797 -3.4234 -0.1235
 3658SOL     OW22432   2.977   4.622   7.145 -0.0350  0.0613  0.0230
 3658SOL    HW122433   2.907   4.646   7.085 -2.1424 -0.6980  2.1992
 3658SOL    HW222434   2.935   4.567   7.212 -0.5376  0.0746 -0.2822
 3659SOL     OW22435   2.890   3.647  11.234 -0.8466 -0.2239 -0.2816
 3659SOL    HW122436   2.904   3.554  11.247 -0.9762 -0.3655 -1.1365
 3659SOL    HW222437   2.972   3.684  11.201  0.5006 -2.7350  0.3184
 3660SOL     OW22438   1.662   4.275   2.959 -0.2787 -0.3102  0.8819
 3660SOL    HW122439   1.702   4.293   3.044 -2.2560 -0.2800  1.8047
 3660SOL    HW222440   1.712   4.205   2.915 -1.2602 -0.5456  0.1372
 3661SOL     OW22441   4.493   4.512   3.825  0.1723 -0.5807  0.1933
 3661SOL    HW122442   4.405   4.548   3.817  1.2279  1.9202 -0.2585
 3661SOL    HW222443   4.474   4.421   3.849  0.7039 -0.9136 -0.6403
 3662SOL     OW22444   2.294   4.661   7.183 -0.0721 -0.4318 -0.0798
 3662SOL    HW122445   2.232   4.691   7.116 -2.2064 -0.6288  1.7835
 3662SOL    HW222446   2.333   0.014   7.223 -1.0704 -0.8754  1.7625
 3663SOL     OW22447   2.699   2.005   7.406  0.4218  0.8042  0.2512
 3663SOL    HW122448   2.784   2.044   7.424  1.0804 -0.5340  0.0371
 3663SOL    HW222449   2.676   1.974   7.493  0.3343 -3.2394 -1.1873
 3664SOL     OW22450   1.930   3.588  11.675 -0.0720  0.2871  0.0007
 3664SOL    HW122451   1.892   3.533  11.606  0.0038 -0.3440  0.4618
 3664SOL    HW222452   1.966   3.661  11.624 -0.1849  2.1848  2.6340
 3665SOL     OW22453   0.984   3.104   8.301 -0.2172  0.8903  0.2795
 3665SOL    HW122454   1.065   3.138   8.263 -0.7972 -0.2168 -1.9584
 3665SOL    HW222455   1.003   3.133   8.390 -2.6371 -0.6005  1.3109
 3666SOL     OW22456   1.784   4.137   7.407  0.0150 -0.7012 -0.6820
 3666SOL    HW122457   1.823   4.198   7.344 -1.0661  1.0737  0.3688
 3666SOL    HW222458   1.694   4.134   7.376 -0.0394  0.8482 -0.6940
 3667SOL     OW22459   4.141   3.133   9.212  0.5150 -0.2055 -1.1089
 3667SOL    HW122460   4.078   3.199   9.242  0.9629 -0.6634  0.8547
 3667SOL    HW222461   4.107   3.134   9.123  0.8236 -1.4407 -1.2413
 3668SOL     OW22462   2.010   0.797   0.930  0.4439  0.1644  0.1327
 3668SOL    HW122463   2.105   0.795   0.919  0.4342  2.0008 -0.3260
 3668SOL    HW222464   1.990   0.709   0.900  1.9659  0.0385 -0.5155
 3669SOL     OW22465   2.600   3.727  12.916  0.7471  0.3689  0.0057
 3669SOL    HW122466   2.577   3.650  12.968 -1.0108 -0.1539 -1.5497
 3669SOL    HW222467   2.643   3.689  12.840  0.5067  0.0218  0.0424
 3670SOL     OW22468   1.176   2.703  11.421  0.2931  0.0222  0.3693
 3670SOL    HW122469   1.194   2.704  11.516  0.0281 -1.7073  0.4319
 3670SOL    HW222470   1.164   2.608  11.417  0.0606  0.1194 -0.9953
 3671SOL     OW22471   2.590   3.948   7.777  0.5505  0.6392 -0.1996
 3671SOL    HW122472   2.585   4.032   7.731 -0.1071 -0.0608 -1.3977
 3671SOL    HW222473   2.558   3.989   7.857 -0.8565 -0.4354 -0.2287
 3672SOL     OW22474   4.395   4.126   7.876 -0.7090 -0.4200 -0.7268
 3672SOL    HW122475   4.386   4.169   7.962 -1.6933 -1.4102 -0.3420
 3672SOL    HW222476   4.485   4.092   7.874 -0.4810  0.1346  0.1954
 3673SOL     OW22477   2.310   2.819   2.000 -0.0957 -0.1166  0.4919
 3673SOL    HW122478   2.259   2.778   1.929  0.8115  0.2861 -0.3959
 3673SOL    HW222479   2.291   2.906   1.966  0.6882 -0.2923 -0.4059
 3674SOL     OW22480   2.700   2.643  17.187 -0.0174  0.4830 -0.0609
 3674SOL    HW122481   2.637   2.595  17.241 -0.7249  2.7394  1.0866
 3674SOL    HW222482   2.701   2.597  17.103  0.7524  1.6336 -0.6851
 3675SOL     OW22483   0.296   3.447   4.120  1.1843 -0.1248 -0.2718
 3675SOL    HW122484   0.247   3.495   4.186  3.2382  0.7335  0.6334
 3675SOL    HW222485   0.378   3.426   4.165 -0.9893 -0.5011  3.4589
 3676SOL     OW22486   3.842   1.919   1.144  0.0928 -0.3812 -0.0285
 3676SOL    HW122487   3.895   1.845   1.175 -0.6662 -1.2162 -0.7440
 3676SOL    HW222488   3.771   1.890   1.201 -1.3019 -0.7222 -1.9561
 3677SOL     OW22489   4.361   0.544   2.266  0.8943 -0.2494 -0.1804
 3677SOL    HW122490   4.364   0.634   2.232 -1.4819 -0.1156 -0.0152
 3677SOL    HW222491   4.429   0.492   2.224 -0.9082 -2.9722  0.2971
 3678SOL     OW22492   2.596   2.257  17.076  0.2561  1.1273  0.6637
 3678SOL    HW122493   2.575   2.344  17.045  0.0303  1.0642  0.6440
 3678SOL    HW222494   2.514   2.216  17.051  0.7742 -1.0355  2.4274
 3679SOL     OW22495   0.225   4.247   9.920 -0.0188  0.2477 -0.1263
 3679SOL    HW122496   0.295   4.285   9.972 -0.8428  3.1549 -1.1242
 3679SOL    HW222497   0.270   4.192   9.855 -1.8535 -0.6883 -0.6091
 3680SOL     OW22498   1.963   2.435  17.527  0.0958 -0.4401  0.6512
 3680SOL    HW122499   1.942   2.521  17.491 -0.4167 -0.0847  1.7794
 3680SOL    HW222500   2.058   2.433  17.530  0.1244  1.1448  0.8604
 3681SOL     OW22501   0.989   3.349   2.840  0.4820  0.0200  0.5002
 3681SOL    HW122502   0.902   3.386   2.851  0.8307  0.3984  1.9275
 3681SOL    HW222503   1.022   3.395   2.763 -0.1712 -1.4109 -0.6511
 3682SOL     OW22504   0.677   0.166   1.174 -0.0417  0.0754 -0.1817
 3682SOL    HW122505   0.721   0.228   1.231  2.0499 -0.8810 -0.7418
 3682SOL    HW222506   0.749   0.142   1.116 -0.0266  0.5274 -0.3507
 3683SOL     OW22507   3.000   0.508  14.328  0.0702 -0.1349 -0.4563
 3683SOL    HW122508   2.967   0.569  14.395  1.2652  0.4660 -0.4168
 3683SOL    HW222509   2.941   0.434  14.339 -0.6010  0.2187 -1.7133
 3684SOL     OW22510   1.539   3.267  10.599 -0.1320  0.2150  0.5763
 3684SOL    HW122511   1.490   3.188  10.622  0.0956 -0.0287  0.2175
 3684SOL    HW222512   1.591   3.247  10.521 -0.0953 -1.8794  1.1372
 3685SOL     OW22513   1.824   1.645  11.687  0.1639 -0.0779  0.8996
 3685SOL    HW122514   1.850   1.572  11.743  0.1212 -0.6074  0.2249
 3685SOL    HW222515   1.743   1.603  11.661  0.0553  1.5558 -1.3814
 3686SOL     OW22516   1.073   1.227   1.543 -0.3046 -0.4422 -0.1152
 3686SOL    HW122517   1.089   1.301   1.484  0.4797 -1.7087 -1.4649
 3686SOL    HW222518   1.022   1.165   1.491  0.6534  0.8518 -2.5969
 3687SOL     OW22519   2.728   3.911  11.050  0.2588 -0.0606 -0.1321
 3687SOL    HW122520   2.814   3.905  11.092  1.2083  0.2984 -2.0465
 3687SOL    HW222521   2.732   4.001  11.017 -0.5555 -0.0852 -0.2855
 3688SOL     OW22522   4.116   2.554  10.300 -0.6868  0.2223 -0.0853
 3688SOL    HW122523   4.145   2.644  10.288  0.8653 -0.3180 -0.3644
 3688SOL    HW222524   4.046   2.546  10.236 -1.4622 -0.3335  0.8322
 3689SOL     OW22525   4.113   3.560   0.849  0.1092 -0.5518  0.0040
 3689SOL    HW122526   4.140   3.469   0.832  0.2206 -0.4899 -0.1495
 3689SOL    HW222527   4.109   3.583   0.756 -3.0897 -1.5634 -0.1252
 3690SOL     OW22528   3.598   3.799   8.968  0.4081 -0.0046 -0.4484
 3690SOL    HW122529   3.627   3.878   9.015  0.0171  1.9273 -3.4120
 3690SOL    HW222530   3.584   3.740   9.041 -1.6303  1.1462  0.1063
 3691SOL     OW22531   4.358   1.814   6.441  0.3363 -0.0453  0.2387
 3691SOL    HW122532   4.366   1.808   6.536 -0.2539  0.1403  0.3025
 3691SOL    HW222533   4.445   1.835   6.408  0.2436 -0.8157 -0.4923
 3692SOL     OW22534   0.588   3.565   6.933  0.7225 -0.1494 -0.2150
 3692SOL    HW122535   0.624   3.646   6.896 -0.3351 -0.9911 -3.0854
 3692SOL    HW222536   0.583   3.509   6.855  1.6468 -0.7846  0.1884
 3693SOL     OW22537   3.776   4.264   2.319 -0.3149  0.0599  0.1424
 3693SOL    HW122538   3.795   4.295   2.407 -0.2154  0.8133 -0.1427
 3693SOL    HW222539   3.846   4.200   2.306 -0.9688 -0.2097 -2.0429
 3694SOL     OW22540   3.525   3.887   7.858  0.0628  0.4616 -0.1238
 3694SOL    HW122541   3.476   3.805   7.860 -1.1676  1.1401 -3.9969
 3694SOL    HW222542   3.581   3.875   7.782  3.9055 -1.4801  3.0001
 3695SOL     OW22543   2.250   4.063  16.146  0.1459  0.7970  0.2405
 3695SOL    HW122544   2.188   3.998  16.114  1.0145 -0.7623  1.7673
 3695SOL    HW222545   2.332   4.036  16.103 -0.0181 -2.3563  1.9209
 3696SOL     OW22546   4.678   0.906   7.147  0.0672 -0.1480 -0.6806
 3696SOL    HW122547   0.042   0.933   7.120 -0.3932  1.4029 -0.5871
 3696SOL    HW222548   4.645   0.987   7.186  2.6256 -0.0253  1.2379
 3697SOL     OW22549   2.047   2.992   6.983 -0.3072  1.0562  0.4092
 3697SOL    HW122550   1.952   2.984   6.986 -0.3010  1.0295  0.5113
 3697SOL    HW222551   2.069   2.902   7.004 -0.4267  1.1440  0.9233
 3698SOL     OW22552   0.988   2.532   8.591 -0.1366 -0.5326 -0.0429
 3698SOL    HW122553   0.938   2.600   8.547 -0.4852 -0.5510  0.3268
 3698SOL    HW222554   0.964   2.557   8.680 -0.3918 -0.7212 -0.0603
 3699SOL     OW22555   0.395   0.731   2.844 -0.5085  0.2870 -0.2165
 3699SOL    HW122556   0.374   0.750   2.753  1.0285 -1.3572 -0.9029
 3699SOL    HW222557   0.413   0.818   2.880  0.0387 -0.3177  0.9834
 3700SOL     OW22558   0.406   0.992  14.959 -0.3305  0.8572  0.0612
 3700SOL    HW122559   0.358   1.060  14.911  0.7859  0.0769 -2.1666
 3700SOL    HW222560   0.402   0.922  14.893 -0.1188  1.6602 -0.7991
 3701SOL     OW22561   0.887   0.796   5.646  0.2542  0.6589 -0.6138
 3701SOL    HW122562   0.852   0.871   5.694 -3.1222 -1.5428  0.3345
 3701SOL    HW222563   0.909   0.825   5.557 -1.2443  2.3886 -0.4076
 3702SOL     OW22564   0.256   2.320   0.669  0.1263 -0.1640  0.1866
 3702SOL    HW122565   0.186   2.332   0.732  0.5840  2.6467  0.1384
 3702SOL    HW222566   0.233   2.398   0.618  0.3289 -2.3675 -3.2811
 3703SOL     OW22567   3.792   4.188   3.228 -0.0224  0.2471 -0.2305
 3703SOL    HW122568   3.843   4.227   3.156 -0.2695 -0.9709 -1.0714
 3703SOL    HW222569   3.705   4.202   3.189 -0.1810 -0.6595 -0.2101
 3704SOL     OW22570   3.506   2.220   9.239 -0.0549 -0.0578 -0.2060
 3704SOL    HW122571   3.458   2.298   9.210 -0.4147  0.1368  0.8757
 3704SOL    HW222572   3.514   2.237   9.333  0.0915  0.5038 -0.3207
 3705SOL     OW22573   3.587   1.794  17.026  0.8713 -0.0611 -0.2834
 3705SOL    HW122574   3.563   1.713  16.979 -0.5669  0.7963 -1.0415
 3705SOL    HW222575   3.502   1.839  17.023 -0.0114 -1.6930 -0.3336
 3706SOL     OW22576   1.302   3.909   4.468  0.5440  0.6213  0.3144
 3706SOL    HW122577   1.225   3.897   4.523 -0.7553  0.9262 -1.4705
 3706SOL    HW222578   1.310   4.003   4.447 -0.8920  0.7960  0.5702
 3707SOL     OW22579   2.110   4.276   7.955  0.3717  0.1216 -0.1844
 3707SOL    HW122580   2.097   4.288   8.049 -0.4026  2.7619 -0.6332
 3707SOL    HW222581   2.137   4.362   7.922  0.9425  0.1837  0.4516
 3708SOL     OW22582   3.968   0.621   1.699 -0.2409  0.0457 -0.2853
 3708SOL    HW122583   3.927   0.704   1.673 -0.9627 -1.0702 -2.7017
 3708SOL    HW222584   3.933   0.554   1.641  1.1403 -0.4615 -0.5249
 3709SOL     OW22585   1.224   0.136   8.102  0.0260  0.3121 -0.1142
 3709SOL    HW122586   1.215   0.061   8.161 -0.3851 -1.4451 -2.4003
 3709SOL    HW222587   1.194   0.102   8.017  1.1743 -0.6937 -0.1125
 3710SOL     OW22588   4.207   0.156   3.715 -0.0649  0.1669 -0.3863
 3710SOL    HW122589   4.142   0.136   3.782 -0.8488  0.0940 -1.1801
 3710SOL    HW222590   4.185   0.247   3.697  0.1015  0.1769 -0.5415
 3711SOL     OW22591   3.924   0.659   4.285 -0.0228 -0.0091  0.0977
 3711SOL    HW122592   4.014   0.691   4.272 -0.0939  0.8411  1.7300
 3711SOL    HW222593   3.875   0.734   4.320  0.9453  0.9378 -0.5514
 3712SOL     OW22594   1.993   3.446   7.281  0.2310 -0.1928 -0.1314
 3712SOL    HW122595   1.945   3.489   7.352  1.0066 -1.2668  1.0444
 3712SOL    HW222596   1.958   3.357   7.283 -0.9273  0.2689  0.2967
 3713SOL     OW22597   1.023   2.966   4.803  0.2356 -0.0605 -0.5627
 3713SOL    HW122598   1.093   2.952   4.739 -1.3304 -1.4321 -1.9482
 3713SOL    HW222599   1.026   3.062   4.797  0.6108 -0.0382 -0.0087
 3714SOL     OW22600   0.797   1.847   7.515 -0.2175 -0.1680 -0.2693
 3714SOL    HW122601   0.796   1.911   7.586  1.2866 -1.2454  0.7421
 3714SOL    HW222602   0.735   1.900   7.465  0.0254  0.3420 -0.0302
 3715SOL     OW22603   1.038   4.071   2.328  0.6692  0.1200  0.3468
 3715SOL    HW122604   0.977   4.085   2.256 -0.3521 -1.4674  0.9033
 3715SOL    HW222605   1.046   3.976   2.324 -0.1952  0.0715 -0.1516
 3716SOL     OW22606   2.592   4.578   7.310  0.5277  0.8079  0.2520
 3716SOL    HW122607   2.539   4.626   7.374 -0.7111 -2.8130  1.9054
 3716SOL    HW222608   2.582   4.632   7.231 -0.0022  0.9924  0.4473
 3717SOL     OW22609   1.052   1.938   3.400  0.6444 -0.0487  0.3678
 3717SOL    HW122610   0.986   2.007   3.404  0.3613 -0.2388 -0.8078
 3717SOL    HW222611   0.995   1.872   3.361  1.5095  0.2756 -1.4481
 3718SOL     OW22612   2.570   3.796   0.534  0.1690  0.2119  0.2596
 3718SOL    HW122613   2.479   3.771   0.518  1.2991 -3.4616 -0.2949
 3718SOL    HW222614   2.615   3.717   0.506  1.3748  1.0596 -0.2148
 3719SOL     OW22615   4.613   0.986   5.790  0.5481 -0.6044 -0.0291
 3719SOL    HW122616   4.633   0.896   5.818  1.6310 -0.2177  0.4316
 3719SOL    HW222617   4.518   0.988   5.800  0.7543  0.0983  1.8294
 3720SOL     OW22618   2.571   2.105   7.844 -0.6177 -0.4286  0.0338
 3720SOL    HW122619   2.567   2.028   7.788  2.7816 -1.3688  1.1021
 3720SOL    HW222620   2.567   2.072   7.933  2.8391 -1.0698 -0.0797
 3721SOL     OW22621   0.766   2.517   5.303  0.3175  0.3404  0.4394
 3721SOL    HW122622   0.820   2.578   5.353  2.9887 -1.2937 -0.4472
 3721SOL    HW222623   0.683   2.564   5.309  0.3644  0.6056 -0.8569
 3722SOL     OW22624   1.951   3.171   1.851  0.0937  0.5044 -0.3280
 3722SOL    HW122625   1.943   3.119   1.930 -1.7611 -1.4684 -1.7979
 3722SOL    HW222626   1.896   3.244   1.878  2.7674  2.6569 -0.6794
 3723SOL     OW22627   2.119   0.121  15.311 -0.2485  0.4640 -0.6551
 3723SOL    HW122628   2.213   0.131  15.326 -0.3524  0.2027  0.2238
 3723SOL    HW222629   2.084   0.208  15.328 -2.4793 -0.6308  0.5011
 3724SOL     OW22630   1.669   2.745   6.171  0.4905 -0.4100 -0.1378
 3724SOL    HW122631   1.585   2.779   6.138  0.9102  1.3083  0.5726
 3724SOL    HW222632   1.634   2.679   6.232  0.7902  0.8901  1.4597
 3725SOL     OW22633   3.314   3.109  13.712  0.2280 -0.3718 -0.9260
 3725SOL    HW122634   3.222   3.084  13.720  0.5141 -1.0463  0.2248
 3725SOL    HW222635   3.325   3.144  13.800 -2.5078  1.7440 -1.4286
 3726SOL     OW22636   0.685   1.219   7.722 -0.1477  0.4287 -0.1641
 3726SOL    HW122637   0.720   1.199   7.809 -0.7670 -2.9917 -0.7005
 3726SOL    HW222638   0.667   1.128   7.700 -0.3188 -0.4608  3.5286
 3727SOL     OW22639   0.152   2.966   7.139 -0.8591  0.5659  0.1749
 3727SOL    HW122640   0.057   2.956   7.138 -0.9256  1.1492  0.8688
 3727SOL    HW222641   0.158   3.051   7.183 -3.3682  1.8093 -1.8936
 3728SOL     OW22642   1.435   1.050   9.086  0.0859  0.0640 -0.3714
 3728SOL    HW122643   1.394   1.133   9.112 -0.9010 -0.7380  0.5939
 3728SOL    HW222644   1.479   1.029   9.169  2.2574 -0.4292 -1.6355
 3729SOL     OW22645   2.210   3.346   1.477 -0.1618 -0.6675 -0.5822
 3729SOL    HW122646   2.261   3.395   1.412  0.4072 -1.7521 -0.9516
 3729SOL    HW222647   2.244   3.389   1.555 -0.6122 -0.8764 -0.2713
 3730SOL     OW22648   3.779   2.702   7.459  0.1119 -0.4139  0.1815
 3730SOL    HW122649   3.714   2.661   7.515  0.7618 -0.9849  0.5169
 3730SOL    HW222650   3.784   2.636   7.390  0.3665  0.1731 -0.3678
 3731SOL     OW22651   3.409   2.235   3.086  0.1110  0.2720  0.2174
 3731SOL    HW122652   3.428   2.328   3.096 -1.1083  0.3209  2.1026
 3731SOL    HW222653   3.495   2.201   3.107  0.1440  1.3411  1.7740
 3732SOL     OW22654   3.339   4.464  12.320  0.9056  0.2258  0.5603
 3732SOL    HW122655   3.389   4.457  12.238 -0.0541  0.5805 -0.0512
 3732SOL    HW222656   3.339   4.559  12.336  1.7992  0.8742 -3.2344
 3733SOL     OW22657   2.448   3.624  12.287 -0.3889 -0.2348  1.0292
 3733SOL    HW122658   2.371   3.576  12.258  0.2555  0.1251 -1.2766
 3733SOL    HW222659   2.454   3.697  12.226  1.8746 -0.3472  1.1098
 3734SOL     OW22660   2.881   1.137  16.877 -0.3668 -0.0881 -0.0616
 3734SOL    HW122661   2.965   1.165  16.914  0.1400 -0.8651 -0.6229
 3734SOL    HW222662   2.860   1.061  16.932  1.8599  1.3378  2.7774
 3735SOL     OW22663   0.342   2.309  11.083  0.2966  0.0601 -0.4518
 3735SOL    HW122664   0.308   2.223  11.107  1.6771 -0.1330  0.8006
 3735SOL    HW222665   0.352   2.354  11.167  0.3776 -1.4055  0.3099
 3736SOL     OW22666   3.056   1.105   2.808 -0.3017 -0.1776  0.6621
 3736SOL    HW122667   3.078   1.195   2.832 -1.0107 -0.0494  0.8303
 3736SOL    HW222668   2.984   1.121   2.748  0.3517  1.2073  0.2594
 3737SOL     OW22669   4.636   3.042   6.233 -0.3049  0.0242  0.0160
 3737SOL    HW122670   4.541   3.050   6.231 -0.3715 -0.5320  1.1389
 3737SOL    HW222671   4.651   2.949   6.253  1.5954 -0.4995 -3.7360
 3738SOL     OW22672   1.971   4.038  14.212 -0.2160  0.2102 -0.1637
 3738SOL    HW122673   1.937   3.952  14.237 -0.9242  0.0555 -1.6415
 3738SOL    HW222674   2.059   4.039  14.251 -0.3946  0.0102  0.2361
 3739SOL     OW22675   3.926   2.829  13.040 -0.7777  0.6074 -0.2184
 3739SOL    HW122676   4.013   2.788  13.032 -0.4598  1.3242 -0.4234
 3739SOL    HW222677   3.866   2.759  13.015 -1.8736  1.1218  0.9906
 3740SOL     OW22678   3.803   3.257   7.410  0.3857 -0.1774 -0.4480
 3740SOL    HW122679   3.724   3.264   7.356 -0.7466 -1.0212  1.1177
 3740SOL    HW222680   3.795   3.168   7.443  3.2899  0.6033  2.3594
 3741SOL     OW22681   2.810   3.741   8.619 -0.4473 -0.1175  0.3150
 3741SOL    HW122682   2.897   3.702   8.623 -0.0243  0.4210 -3.4182
 3741SOL    HW222683   2.764   3.673   8.570  0.2099 -0.6198  0.4011
 3742SOL     OW22684   2.379   2.839   8.301 -0.3053 -0.0843 -0.3523
 3742SOL    HW122685   2.406   2.862   8.213  1.5553  0.4664  0.3657
 3742SOL    HW222686   2.298   2.890   8.299 -0.5022 -0.3892 -0.2135
 3743SOL     OW22687   1.939   0.846   3.313  0.1715  0.2739 -0.5515
 3743SOL    HW122688   2.028   0.872   3.339  0.2822  0.1361 -0.7879
 3743SOL    HW222689   1.883   0.899   3.369  1.1390  0.4280  0.2855
 3744SOL     OW22690   1.091   1.887   4.211 -0.2326  0.4657  0.0342
 3744SOL    HW122691   1.096   1.850   4.123  1.0292  1.0278 -0.1293
 3744SOL    HW222692   1.004   1.928   4.211 -1.6058 -2.4705  2.0402
 3745SOL     OW22693   2.568   2.936   7.111  0.0120  0.0097 -0.0423
 3745SOL    HW122694   2.581   2.938   7.206  1.9019  1.6463 -0.3255
 3745SOL    HW222695   2.646   2.889   7.079  0.7048  0.2230  1.3220
 3746SOL     OW22696   0.616   4.494   1.147 -0.1940 -0.0699  0.0252
 3746SOL    HW122697   0.685   4.505   1.212  0.7696  2.4071 -1.3926
 3746SOL    HW222698   0.582   4.409   1.173  1.4450 -0.2941  1.3781
 3747SOL     OW22699   1.188   0.855   7.825  0.4314 -0.3893  0.4200
 3747SOL    HW122700   1.225   0.883   7.909  1.0410 -0.5282  0.1984
 3747SOL    HW222701   1.186   0.760   7.836 -2.4701 -0.4175 -0.4289
 3748SOL     OW22702   3.912   2.427   0.562 -0.0725  0.1820  0.5496
 3748SOL    HW122703   3.982   2.411   0.625 -0.7447 -0.2235  1.2040
 3748SOL    HW222704   3.896   2.518   0.585 -3.7253  0.3251 -2.5846
 3749SOL     OW22705   4.021   2.240   8.680 -0.6521 -0.4047 -0.3872
 3749SOL    HW122706   4.016   2.257   8.774 -2.8589 -1.1127 -0.3772
 3749SOL    HW222707   4.060   2.321   8.649 -1.9279  0.0530 -0.7480
 3750SOL     OW22708   3.339   1.150   9.204  0.0108  0.1215 -0.2310
 3750SOL    HW122709   3.281   1.222   9.230 -1.0541 -0.5186 -0.8162
 3750SOL    HW222710   3.302   1.103   9.129 -1.4317 -0.2268  0.6752
 3751SOL     OW22711   2.855   2.839   4.030 -0.2120 -0.1587 -0.0016
 3751SOL    HW122712   2.920   2.889   4.079 -0.0721  1.1235 -1.4830
 3751SOL    HW222713   2.781   2.834   4.091  1.5503 -0.4496  2.1215
 3752SOL     OW22714   3.987   1.351  11.073 -0.0547  0.4359 -0.1587
 3752SOL    HW122715   3.944   1.385  11.151  1.3097  4.1222 -1.0153
 3752SOL    HW222716   3.984   1.255  11.079 -0.9026  0.4637 -0.1201
 3753SOL     OW22717   3.063   3.862   6.436  0.4522  0.3882  0.2786
 3753SOL    HW122718   3.050   3.772   6.409 -0.1387  0.2192  1.1206
 3753SOL    HW222719   2.974   3.898   6.431 -1.0301 -3.4298 -0.5901
 3754SOL     OW22720   2.877   2.584  16.161 -0.5001  0.5450  0.2615
 3754SOL    HW122721   2.895   2.494  16.132  2.6290  0.9839  0.9296
 3754SOL    HW222722   2.964   2.622  16.157  0.1653 -1.2055 -2.0230
 3755SOL     OW22723   3.328   1.071  13.153  0.2179  0.3185  0.9581
 3755SOL    HW122724   3.300   1.102  13.067 -0.5170 -1.7464  0.4489
 3755SOL    HW222725   3.301   1.152  13.196  0.7870  0.6396  0.7163
 3756SOL     OW22726   0.735   2.141  13.672  0.0690 -0.1463  0.3157
 3756SOL    HW122727   0.795   2.104  13.606  0.7773  0.1050  0.8177
 3756SOL    HW222728   0.730   2.230  13.637  1.4987  0.6499  2.1643
 3757SOL     OW22729   3.685   2.403   6.771 -0.2012  0.3209 -0.3991
 3757SOL    HW122730   3.656   2.482   6.816 -0.4070 -0.8242  1.4532
 3757SOL    HW222731   3.700   2.343   6.844 -1.2535 -1.5801 -1.7658
 3758SOL     OW22732   4.695   3.389   7.439  0.3692 -0.1651  0.0149
 3758SOL    HW122733   4.669   3.400   7.348 -1.7119 -1.2110  0.4791
 3758SOL    HW222734   0.066   3.406   7.434  0.0619  1.1055 -1.3406
 3759SOL     OW22735   4.103   2.714   6.111  0.0066 -0.2010  0.3376
 3759SOL    HW122736   4.061   2.794   6.080  0.0526  0.1862  1.2617
 3759SOL    HW222737   4.030   2.652   6.113  0.3624 -0.6808 -3.1271
 3760SOL     OW22738   0.364   3.461   3.322  0.1221 -0.1851  0.1565
 3760SOL    HW122739   0.349   3.497   3.409  0.7958 -0.7369  0.4974
 3760SOL    HW222740   0.423   3.529   3.288  1.0633 -0.5918  0.9898
 3761SOL     OW22741   4.563   4.474   7.614 -0.8152  0.9798 -0.5210
 3761SOL    HW122742   4.650   4.509   7.594  0.4354 -1.0224  1.4088
 3761SOL    HW222743   4.512   4.499   7.537 -2.8009  0.4569  0.6230
 3762SOL     OW22744   2.240   1.904   8.825 -0.0201  0.3081  0.5652
 3762SOL    HW122745   2.169   1.877   8.883 -0.7868  2.0874  0.4591
 3762SOL    HW222746   2.317   1.884   8.879 -0.2936  0.4064  0.9986
 3763SOL     OW22747   0.933   2.899   1.579  0.6383  0.3980 -0.0409
 3763SOL    HW122748   0.979   2.983   1.584 -0.9841  1.3742 -1.5421
 3763SOL    HW222749   0.966   2.856   1.658 -4.2333  0.9158  2.2718
 3764SOL     OW22750   2.468   4.592  16.292 -0.0393 -0.2632  0.1105
 3764SOL    HW122751   2.387   4.641  16.304 -1.6040 -2.3155 -2.0218
 3764SOL    HW222752   2.518   4.664  16.253 -0.0592  0.4787  1.4513
 3765SOL     OW22753   4.415   3.980   4.280 -0.1507  0.4968  0.3236
 3765SOL    HW122754   4.464   3.910   4.322 -0.5613 -1.0898 -1.8442
 3765SOL    HW222755   4.483   4.021   4.227  1.1186 -1.8033  0.1922
 3766SOL     OW22756   4.640   3.255  14.553  0.5335  0.0844  0.2221
 3766SOL    HW122757   4.576   3.185  14.551  0.1431  0.3878  2.1069
 3766SOL    HW222758   4.701   3.214  14.491  0.2332 -0.5705  0.3649
 3767SOL     OW22759   3.765   4.411  14.163  0.1799  0.1317 -0.3911
 3767SOL    HW122760   3.734   4.455  14.242 -0.2563 -1.5346  0.3646
 3767SOL    HW222761   3.813   4.483  14.123 -0.0720  0.7132  0.3543
 3768SOL     OW22762   1.978   1.558  16.632  0.4810  0.1469 -0.3253
 3768SOL    HW122763   1.968   1.484  16.573  0.2946  0.0280 -0.1432
 3768SOL    HW222764   2.068   1.553  16.663  0.3478 -0.6970 -0.0834
 3769SOL     OW22765   4.161   2.251  14.702  0.1618 -0.1691  0.5419
 3769SOL    HW122766   4.165   2.222  14.793 -1.3942  0.9705  0.9653
 3769SOL    HW222767   4.067   2.266  14.700 -0.0275 -1.6679 -1.1991
 3770SOL     OW22768   3.747   3.202  16.817 -0.6202 -0.2322  0.1560
 3770SOL    HW122769   3.754   3.118  16.862 -1.1721  0.4068  1.4295
 3770SOL    HW222770   3.778   3.182  16.728 -0.6088  0.2538  0.0473
 3771SOL     OW22771   0.824   3.070   8.102 -0.4531 -0.3372  0.2108
 3771SOL    HW122772   0.824   2.975   8.097  1.3205 -0.2148 -1.9904
 3771SOL    HW222773   0.881   3.079   8.179  1.3707 -0.9903 -1.0745
 3772SOL     OW22774   3.714   1.422   9.361  0.2718  0.4390  0.5471
 3772SOL    HW122775   3.732   1.334   9.330  0.0854  0.5245  0.1939
 3772SOL    HW222776   3.623   1.407   9.388 -1.5343  0.5217 -5.4723
 3773SOL     OW22777   4.485   1.731   3.984 -0.4744 -0.1211 -0.4756
 3773SOL    HW122778   4.526   1.774   4.059  0.2699 -0.3430 -0.7619
 3773SOL    HW222779   4.551   1.665   3.961 -0.2964 -1.1994  3.0556
 3774SOL     OW22780   0.070   0.198   5.963  0.2695  0.1475  0.0104
 3774SOL    HW122781   0.072   0.146   6.044 -1.2805 -0.6631 -0.4803
 3774SOL    HW222782   4.717   0.252   5.982 -1.2352 -1.0545 -2.6952
 3775SOL     OW22783   0.162   0.907  10.008  0.2967  0.4365 -0.3975
 3775SOL    HW122784   0.146   0.868  10.093 -0.6619  1.1774 -0.2466
 3775SOL    HW222785   0.168   0.995  10.047  0.1391  1.2321 -2.1626
 3776SOL     OW22786   1.960   1.045   3.087  0.4113  0.8254 -0.0925
 3776SOL    HW122787   2.004   0.968   3.123  1.7909  1.6082 -0.0877
 3776SOL    HW222788   1.870   1.025   3.111  0.2381  0.9460 -0.6328
 3777SOL     OW22789   1.158   3.177   7.698 -0.1057  0.0876 -0.3473
 3777SOL    HW122790   1.073   3.221   7.702  0.0020  0.3303 -0.7533
 3777SOL    HW222791   1.203   3.202   7.779 -0.2979  0.5898 -0.3915
 3778SOL     OW22792   1.451   1.097   5.839  0.2778  0.1653  0.0541
 3778SOL    HW122793   1.395   1.022   5.858  3.4114 -1.7623  1.6080
 3778SOL    HW222794   1.540   1.065   5.821  0.9495  1.4230  1.1667
 3779SOL     OW22795   3.623   4.695   8.837  0.2283  0.3526  0.1236
 3779SOL    HW122796   3.599   4.612   8.878 -0.3935  0.3298 -0.2870
 3779SOL    HW222797   3.558   4.695   8.768  0.0153  1.7539  0.3144
 3780SOL     OW22798   2.184   4.002  10.946  0.4945 -0.1363 -0.2780
 3780SOL    HW122799   2.241   4.002  10.869  2.2614  0.5508  1.0297
 3780SOL    HW222800   2.220   3.921  10.981 -0.5552 -0.5364 -0.1241
 3781SOL     OW22801   0.473   3.782   7.550  0.3618 -0.5809  0.8645
 3781SOL    HW122802   0.389   3.820   7.523  0.8960 -0.4317 -0.5809
 3781SOL    HW222803   0.488   3.709   7.489  1.1387  0.6997 -0.4898
 3782SOL     OW22804   3.801   2.694   3.678  0.2505  0.0899 -0.3112
 3782SOL    HW122805   3.827   2.778   3.639 -0.8126  0.4818 -0.1907
 3782SOL    HW222806   3.843   2.705   3.763 -1.5114  0.7154  0.4710
 3783SOL     OW22807   1.857   3.163  14.588  0.2416 -0.1490  0.0264
 3783SOL    HW122808   1.792   3.192  14.524  0.8803  2.0083  0.3661
 3783SOL    HW222809   1.912   3.107  14.533 -0.5067  0.8863 -1.7745
 3784SOL     OW22810   3.436   2.857   2.875 -0.3628  0.1066 -0.1660
 3784SOL    HW122811   3.366   2.921   2.870  0.5742  0.9936 -1.7537
 3784SOL    HW222812   3.420   2.807   2.795 -0.6942  0.6672 -0.4449
 3785SOL     OW22813   0.052   1.024   6.113  0.1689 -0.1398 -0.3693
 3785SOL    HW122814   0.127   1.045   6.168  0.4101 -1.2826 -0.2470
 3785SOL    HW222815   0.069   0.932   6.089  0.6435 -0.2811  0.5007
 3786SOL     OW22816   1.060   4.527   5.212  0.0841  0.2203 -0.1108
 3786SOL    HW122817   0.976   4.552   5.249  0.0724 -1.0941  0.7273
 3786SOL    HW222818   1.076   4.607   5.162  0.0234  0.0509 -0.4006
 3787SOL     OW22819   4.024   1.509   4.161 -0.6836 -0.0916  0.0423
 3787SOL    HW122820   3.981   1.591   4.136 -0.2132 -0.3802 -1.7265
 3787SOL    HW222821   3.980   1.447   4.102 -2.7675  1.6620 -0.2510
 3788SOL     OW22822   2.075   4.075   2.593  0.1063 -0.2484 -0.5267
 3788SOL    HW122823   2.146   4.140   2.597 -0.7366  0.6382 -0.0189
 3788SOL    HW222824   1.996   4.113   2.555 -0.2636 -0.3532  0.1580
 3789SOL     OW22825   0.732   1.454   6.196  0.1202  0.5206  0.5662
 3789SOL    HW122826   0.719   1.496   6.111 -1.5249  0.1160  0.6192
 3789SOL    HW222827   0.727   1.361   6.174 -0.6399  0.4091  1.2088
 3790SOL     OW22828   3.820   0.033  14.942  0.9311  0.3334 -1.3176
 3790SOL    HW122829   3.823   4.681  15.001  1.0822  1.6970  0.4401
 3790SOL    HW222830   3.851   0.111  14.989 -0.4786  0.4518 -0.5618
 3791SOL     OW22831   4.048   3.180   2.216  0.5316  0.0097  0.4951
 3791SOL    HW122832   3.956   3.160   2.203  0.5023  0.3355  0.1751
 3791SOL    HW222833   4.082   3.091   2.219  1.1389  0.3135  2.3767
 3792SOL     OW22834   4.461   3.836   3.291  0.7128  0.5874 -0.1261
 3792SOL    HW122835   4.439   3.895   3.219  1.7692  0.3616 -0.6256
 3792SOL    HW222836   4.388   3.774   3.291 -0.2884  1.7474  1.2166
 3793SOL     OW22837   1.044   3.720   8.172  0.7305 -0.0527 -0.0607
 3793SOL    HW122838   1.022   3.638   8.217 -1.4030  0.1877 -0.6459
 3793SOL    HW222839   0.963   3.769   8.181 -0.3052 -1.8318  0.3546
 3794SOL     OW22840   2.597   4.338   2.434 -0.0045 -0.5393 -0.4007
 3794SOL    HW122841   2.522   4.293   2.394 -1.1430  0.5301  0.5123
 3794SOL    HW222842   2.612   4.287   2.514  0.9963  1.7784  0.8618
 3795SOL     OW22843   3.468   4.101   5.215 -0.2180 -0.1776  0.4357
 3795SOL    HW122844   3.493   4.146   5.135  0.5683 -0.0246  0.7676
 3795SOL    HW222845   3.488   4.012   5.184 -0.2544  0.3884 -1.2046
 3796SOL     OW22846   1.350   3.498  11.826 -0.4080 -0.4658 -0.0727
 3796SOL    HW122847   1.344   3.591  11.847 -2.2782 -0.5610 -0.1760
 3796SOL    HW222848   1.347   3.450  11.909  0.6913 -0.5568 -0.0821
 3797SOL     OW22849   1.407   2.312   7.966  0.6191  0.4968  0.3140
 3797SOL    HW122850   1.450   2.293   8.050  0.8437 -2.2243 -0.4259
 3797SOL    HW222851   1.363   2.397   7.976 -1.2501 -0.3983 -0.2832
 3798SOL     OW22852   0.732   2.414  10.416 -0.3942 -0.1008  0.1547
 3798SOL    HW122853   0.695   2.411  10.504 -1.3830  1.0715 -0.2196
 3798SOL    HW222854   0.678   2.352  10.368  1.6620 -2.1805  0.5131
 3799SOL     OW22855   4.706   0.636  15.059  0.4717  0.3603 -0.1339
 3799SOL    HW122856   0.042   0.709  15.041  1.3581 -0.4730 -0.6092
 3799SOL    HW222857   4.659   0.631  14.976 -2.4671  0.7822  1.5286
 3800SOL     OW22858   4.154   1.389   6.190 -0.0915 -0.0458 -0.1958
 3800SOL    HW122859   4.200   1.458   6.238 -1.4132  0.9348 -0.3261
 3800SOL    HW222860   4.193   1.408   6.105  0.7090 -1.3767 -0.1206
 3801SOL     OW22861   0.287   0.734   5.121  0.3212 -0.0983 -0.1774
 3801SOL    HW122862   0.258   0.642   5.118  0.6960 -0.2297  0.1896
 3801SOL    HW222863   0.383   0.728   5.120  0.2223 -1.0458 -2.5171
 3802SOL     OW22864   2.347   0.898   7.141 -0.7252 -0.0793 -0.2457
 3802SOL    HW122865   2.409   0.828   7.160 -1.5110 -0.3747  1.2320
 3802SOL    HW222866   2.312   0.871   7.057  0.5852  0.4253 -0.9574
 3803SOL     OW22867   2.837   3.642  11.622  0.2642  0.2879 -0.2057
 3803SOL    HW122868   2.917   3.603  11.586 -2.5129 -3.5177 -2.2498
 3803SOL    HW222869   2.821   3.717  11.564 -1.5654 -0.8256 -1.1310
 3804SOL     OW22870   4.205   4.192   7.107 -0.2722  0.4094  0.2475
 3804SOL    HW122871   4.118   4.180   7.144 -1.8123 -2.9632 -4.4743
 3804SOL    HW222872   4.184   4.146   7.026  0.9578 -2.6747  1.6562
 3805SOL     OW22873   1.679   2.695   3.189  0.2886 -0.5641 -0.6078
 3805SOL    HW122874   1.683   2.615   3.137  0.3339  0.0339 -1.5267
 3805SOL    HW222875   1.754   2.687   3.248 -0.4353 -0.5312  0.3208
 3806SOL     OW22876   3.594   0.303   7.055 -0.0867 -0.3850 -0.3005
 3806SOL    HW122877   3.690   0.309   7.049 -0.0787  0.4779  0.6803
 3806SOL    HW222878   3.586   0.222   7.106 -3.5589 -1.0955 -1.9828
 3807SOL     OW22879   2.643   2.231   5.123 -0.3412  0.2567  0.1605
 3807SOL    HW122880   2.707   2.301   5.137  0.1475  0.0047 -0.8293
 3807SOL    HW222881   2.564   2.284   5.136 -1.9757 -2.0790 -0.1596
 3808SOL     OW22882   3.506   0.994   7.434 -0.6819  0.1122 -1.0169
 3808SOL    HW122883   3.514   1.062   7.367  0.7425  0.2138 -0.7610
 3808SOL    HW222884   3.555   0.923   7.392  0.0271  1.0459 -1.7809
 3809SOL     OW22885   0.983   2.570   7.293  0.6970  0.0174 -0.2383
 3809SOL    HW122886   0.912   2.536   7.238  0.0883  4.1570 -2.0170
 3809SOL    HW222887   1.063   2.554   7.243  1.2689 -1.1641  1.0820
 3810SOL     OW22888   3.067   4.084   1.073 -0.4773  0.1599  0.2686
 3810SOL    HW122889   3.160   4.104   1.062 -0.2073 -0.4352  1.4935
 3810SOL    HW222890   3.077   4.079   1.168 -0.3956 -0.6781  0.2158
 3811SOL     OW22891   3.268   2.335   6.032 -0.1821  0.1680  0.5392
 3811SOL    HW122892   3.184   2.313   6.074 -0.7735  1.4110  0.0141
 3811SOL    HW222893   3.331   2.293   6.091 -0.8197 -0.3241  0.8730
 3812SOL     OW22894   2.673   0.057  11.285 -0.3411 -0.2541  0.3672
 3812SOL    HW122895   2.603   0.117  11.260  0.2203 -0.5122 -1.7797
 3812SOL    HW222896   2.737   0.121  11.316 -0.1063 -0.0324 -0.5839
 3813SOL     OW22897   1.465   1.969   2.249 -0.0924  0.7233 -0.3902
 3813SOL    HW122898   1.465   1.885   2.295 -1.3445  1.7005  1.3997
 3813SOL    HW222899   1.557   1.992   2.261 -0.0918  0.4303  0.1298
 3814SOL     OW22900   4.244   2.508   2.846 -0.2455  0.1468  0.1699
 3814SOL    HW122901   4.198   2.511   2.930 -0.0069  1.8913  0.2347
 3814SOL    HW222902   4.193   2.558   2.783  0.1099  1.4095  0.8792
 3815SOL     OW22903   3.507   1.535  16.949  0.2642 -0.6986  0.1087
 3815SOL    HW122904   3.574   1.554  16.884 -0.9289  0.4973 -0.7816
 3815SOL    HW222905   3.512   1.440  16.956 -1.3075 -0.6519  2.0259
 3816SOL     OW22906   1.493   0.727   0.256 -0.1146 -0.0463  0.1358
 3816SOL    HW122907   1.448   0.808   0.232 -0.6122 -0.3149  0.1569
 3816SOL    HW222908   1.439   0.663   0.211 -1.6640  0.1956  1.6437
 3817SOL     OW22909   0.673   2.362  13.190  0.3356  0.2172 -0.1730
 3817SOL    HW122910   0.587   2.382  13.225 -0.0031 -1.2136 -0.1946
 3817SOL    HW222911   0.695   2.439  13.137 -1.3304  0.5489 -0.3904
 3818SOL     OW22912   4.332   0.767   3.252  0.2763  0.2340  0.3748
 3818SOL    HW122913   4.376   0.819   3.320 -0.3058  1.8235 -0.4561
 3818SOL    HW222914   4.369   0.679   3.261 -2.3389 -0.9187 -0.2896
 3819SOL     OW22915   2.496   4.059  13.583  0.0397  0.5804  0.4334
 3819SOL    HW122916   2.424   4.039  13.644  2.1183 -1.9347  2.0611
 3819SOL    HW222917   2.565   4.067  13.649 -1.5032  0.2725  2.0921
 3820SOL     OW22918   0.124   0.296   3.113  0.0411  0.2947  0.1912
 3820SOL    HW122919   0.076   0.221   3.148  0.0459  0.2506  0.1037
 3820SOL    HW222920   0.179   0.257   3.045 -0.9743  3.4993 -2.4375
 3821SOL     OW22921   3.224   4.425  16.256 -0.3027 -0.0835 -0.4816
 3821SOL    HW122922   3.263   4.338  16.261  1.1250  0.4496 -2.0140
 3821SOL    HW222923   3.303   4.472  16.228 -1.1407  1.3660 -0.4041
 3822SOL     OW22924   2.985   1.292   3.298 -0.3539 -0.4963  0.3600
 3822SOL    HW122925   2.949   1.218   3.250 -0.7977 -1.0324  1.5193
 3822SOL    HW222926   2.918   1.355   3.270  1.9727  1.4165 -0.8801
 3823SOL     OW22927   3.886   3.320   2.797 -0.3311  0.4332  0.0521
 3823SOL    HW122928   3.893   3.380   2.722  0.5297  0.2851  0.0090
 3823SOL    HW222929   3.953   3.254   2.777  0.0175  0.5883  0.7246
 3824SOL     OW22930   4.534   1.546   1.434 -0.0790  0.1375  0.6098
 3824SOL    HW122931   4.556   1.478   1.497  1.6759  1.6130  1.6123
 3824SOL    HW222932   4.606   1.606   1.453  0.1438  0.4492 -1.2071
 3825SOL     OW22933   3.297   0.617  14.981  0.2757 -0.4636 -0.2458
 3825SOL    HW122934   3.266   0.530  14.958  1.8336 -0.9389 -0.5676
 3825SOL    HW222935   3.220   0.667  14.954 -0.1488 -0.1949  1.4887
 3826SOL     OW22936   3.482   3.679   6.904 -0.3765 -0.4769  0.5111
 3826SOL    HW122937   3.548   3.672   6.973  1.2086 -0.6504 -1.0144
 3826SOL    HW222938   3.401   3.691   6.953 -0.7011  3.2193 -0.8783
 3827SOL     OW22939   0.918   1.197   4.734  0.1686  0.3217  0.0366
 3827SOL    HW122940   0.885   1.242   4.656  0.1349 -1.6469 -1.0907
 3827SOL    HW222941   0.990   1.255   4.758 -1.0893  0.9159  2.4044
 3828SOL     OW22942   1.657   0.182   5.349  0.2453 -0.6558 -0.0182
 3828SOL    HW122943   1.629   0.267   5.316  0.6205 -0.3945  0.3457
 3828SOL    HW222944   1.739   0.214   5.385 -1.0422 -0.5680  2.7960
 3829SOL     OW22945   2.652   2.183   1.861 -0.1562  0.2260 -0.4720
 3829SOL    HW122946   2.731   2.151   1.817 -0.2822 -0.3357 -0.2881
 3829SOL    HW222947   2.577   2.167   1.804 -1.9862  1.9091  1.4680
 3830SOL     OW22948   1.233   0.162  13.539 -0.0374 -0.3516 -0.1509
 3830SOL    HW122949   1.272   0.250  13.547 -1.4850  0.1907  0.9882
 3830SOL    HW222950   1.295   0.109  13.489 -2.5688 -1.7926 -1.6987
 3831SOL     OW22951   4.023   1.161   6.289 -0.9564 -0.2162  0.0204
 3831SOL    HW122952   4.083   1.105   6.240 -0.9041  0.8514 -1.1633
 3831SOL    HW222953   4.056   1.247   6.263 -1.1466  0.1524  0.9884
 3832SOL     OW22954   0.950   4.516   6.617  0.2434  0.4192  0.4377
 3832SOL    HW122955   1.029   4.484   6.660  0.5224 -0.0595 -0.4298
 3832SOL    HW222956   0.913   4.437   6.578  2.1892 -0.8519  1.2178
 3833SOL     OW22957   2.502   3.402   0.298  0.0643  0.4999  0.2997
 3833SOL    HW122958   2.422   3.454   0.297  0.4538  1.1094  1.7306
 3833SOL    HW222959   2.551   3.457   0.236  0.2428  0.6116  0.5394
 3834SOL     OW22960   3.812   3.484   6.112 -0.1383  0.1402  1.2601
 3834SOL    HW122961   3.805   3.438   6.196  1.9573  0.7489  1.7710
 3834SOL    HW222962   3.750   3.432   6.061  2.8601 -0.6216 -1.6754
 3835SOL     OW22963   2.657   3.706   5.655  0.0097 -0.4871 -0.3535
 3835SOL    HW122964   2.633   3.776   5.595  0.3518  1.3650  1.6748
 3835SOL    HW222965   2.590   3.639   5.642  0.9936 -1.1836 -1.9311
 3836SOL     OW22966   2.469   0.400   6.005 -0.3631  0.3380  0.1838
 3836SOL    HW122967   2.539   0.453   6.043 -0.1989  0.3284 -0.1045
 3836SOL    HW222968   2.426   0.463   5.946 -0.5247  0.6011  0.5870
 3837SOL     OW22969   0.688   2.373   5.594 -0.9351 -0.3699 -0.7861
 3837SOL    HW122970   0.702   2.462   5.561 -0.4743 -0.6890 -1.4521
 3837SOL    HW222971   0.693   2.384   5.689 -0.7607 -4.7287 -0.2934
 3838SOL     OW22972   0.024   4.486   4.535  1.1420 -0.5069 -0.5758
 3838SOL    HW122973   0.078   4.500   4.457  1.6988  0.3233 -0.0442
 3838SOL    HW222974   0.014   4.392   4.552 -2.1224 -0.0632 -0.0779
 3839SOL     OW22975   3.175   3.277   4.554  0.8366 -0.3151  0.3401
 3839SOL    HW122976   3.173   3.369   4.580  0.1609 -0.4016  0.5856
 3839SOL    HW222977   3.200   3.229   4.634 -0.3129  0.1192  0.9548
 3840SOL     OW22978   4.528   3.998   8.655 -0.3128  0.4591  0.2847
 3840SOL    HW122979   4.509   4.088   8.631  1.7927  1.1717  1.3239
 3840SOL    HW222980   4.620   3.999   8.684  0.0290 -0.4760 -0.7667
 3841SOL     OW22981   2.535   0.481   6.765  0.0498 -0.1144  0.2988
 3841SOL    HW122982   2.601   0.413   6.778  0.2453 -0.0776 -0.5092
 3841SOL    HW222983   2.580   0.534   6.699  0.9406  0.2764  1.2253
 3842SOL     OW22984   0.245   1.311   1.154 -0.2368 -0.1760  0.1052
 3842SOL    HW122985   0.229   1.355   1.237 -1.6612 -1.1510  0.3585
 3842SOL    HW222986   0.156   1.326   1.120  0.3048  1.2091 -0.7033
 3843SOL     OW22987   0.040   3.673  16.078  0.5097  0.4711  0.3176
 3843SOL    HW122988   0.122   3.633  16.108 -1.3649 -4.0921 -0.6635
 3843SOL    HW222989   0.006   3.616  16.009  1.3238 -1.0568  1.1765
 3844SOL     OW22990   3.011   1.634   1.757  0.5287  0.4281  0.6045
 3844SOL    HW122991   3.058   1.560   1.797 -0.6411  0.4169  1.9438
 3844SOL    HW222992   3.062   1.709   1.788 -0.2254  1.7185 -1.2818
 3845SOL     OW22993   2.689   4.671  12.149 -0.3689  0.2925  0.1192
 3845SOL    HW122994   2.703   4.582  12.117  0.2714  0.0750  0.9994
 3845SOL    HW222995   2.673   4.644  12.240  0.8875  1.1149  0.5882
 3846SOL     OW22996   4.560   3.910  16.261 -0.5201 -0.7642  0.4311
 3846SOL    HW122997   4.570   3.816  16.272 -0.0314 -0.8697 -0.9872
 3846SOL    HW222998   4.486   3.910  16.200 -0.1945 -2.3756  0.0374
 3847SOL     OW22999   1.303   4.255   8.883  0.0536  0.0731 -0.3377
 3847SOL    HW123000   1.280   4.306   8.961  2.8716 -0.3104  0.7586
 3847SOL    HW223001   1.290   4.165   8.911 -0.7906 -0.1471 -1.4410
 3848SOL     OW23002   0.199   0.242   5.496  0.0416  0.6291 -0.3132
 3848SOL    HW123003   0.291   0.217   5.491  0.0300  0.8743 -1.8194
 3848SOL    HW223004   0.165   0.209   5.413  1.9863 -0.3779 -0.7082
 3849SOL     OW23005   3.369   0.949   8.020  0.9803  0.0672  0.8592
 3849SOL    HW123006   3.375   0.967   7.926  2.0010 -2.3367  0.4646
 3849SOL    HW223007   3.276   0.961   8.039  0.8648 -1.2051  1.1241
 3850SOL     OW23008   1.890   3.800   9.809  0.5757  0.0333 -0.0660
 3850SOL    HW123009   1.948   3.724   9.811 -4.5301 -3.8104  0.9338
 3850SOL    HW223010   1.847   3.779   9.892  2.9329 -1.5936  0.7336
 3851SOL     OW23011   3.097   3.997  13.299 -0.1352  0.2472 -0.0022
 3851SOL    HW123012   3.034   4.052  13.345  0.3288 -2.5351  3.9773
 3851SOL    HW223013   3.179   4.045  13.313  0.7582 -0.8450 -1.4678
 3852SOL     OW23014   2.000   0.926   4.513  0.0774  0.4956 -0.2747
 3852SOL    HW123015   1.986   0.843   4.467 -1.7733  1.8573 -2.1733
 3852SOL    HW223016   2.069   0.898   4.573 -0.3941  1.0003  0.5122
 3853SOL     OW23017   3.417   3.617   4.803 -0.4718  0.0382  0.0791
 3853SOL    HW123018   3.409   3.614   4.708 -2.8692  1.3497  0.2426
 3853SOL    HW223019   3.388   3.706   4.823 -0.0187 -0.2347  1.9883
 3854SOL     OW23020   1.876   3.874  12.977 -0.5246 -0.0316  0.1281
 3854SOL    HW123021   1.825   3.829  12.909 -0.5950  2.5538 -1.5192
 3854SOL    HW223022   1.840   3.831  13.055 -0.8033 -1.2632 -0.6699
 3855SOL     OW23023   1.013   3.850   3.369  0.1039 -0.3059  0.0712
 3855SOL    HW123024   1.096   3.893   3.350 -0.2130 -0.1757 -1.0203
 3855SOL    HW223025   1.037   3.761   3.342  2.6542  1.0427 -2.0144
 3856SOL     OW23026   1.309   0.117  13.872 -0.2914  0.1821 -0.2446
 3856SOL    HW123027   1.401   0.106  13.896 -0.7406 -0.7454  1.0423
 3856SOL    HW223028   1.262   0.043  13.911  0.1524 -0.1326 -0.3080
 3857SOL     OW23029   2.515   0.501   4.763 -0.1919  0.3211 -0.4566
 3857SOL    HW123030   2.463   0.546   4.697 -1.8950 -1.7978 -0.5517
 3857SOL    HW223031   2.595   0.476   4.717 -0.6221 -2.8520  0.5018
 3858SOL     OW23032   0.512   0.526   3.245 -0.4256  0.3216 -0.1423
 3858SOL    HW123033   0.589   0.568   3.207  1.6396 -1.6397  1.8140
 3858SOL    HW223034   0.448   0.544   3.176 -0.3967 -2.3528 -0.8470
 3859SOL     OW23035   2.271   4.546   8.909  0.3499  0.1377  0.0113
 3859SOL    HW123036   2.312   4.591   8.983  3.2634 -1.8901 -0.3654
 3859SOL    HW223037   2.345   4.548   8.849 -0.2582  0.8399 -0.7140
 3860SOL     OW23038   0.450   3.357   3.079  0.3401 -0.0825  0.1496
 3860SOL    HW123039   0.481   3.446   3.060  0.3634 -0.3840 -1.2385
 3860SOL    HW223040   0.392   3.376   3.152  0.4273  0.3166  0.1170
 3861SOL     OW23041   1.855   1.509   4.345 -0.0988  0.7243 -0.6291
 3861SOL    HW123042   1.839   1.522   4.439 -0.0598 -0.4726 -0.4594
 3861SOL    HW223043   1.943   1.478   4.367  0.6336  2.0451 -1.7042
 3862SOL     OW23044   1.046   4.136   1.633  0.3909 -0.0707  0.3348
 3862SOL    HW123045   0.951   4.138   1.617  0.2316 -1.5226  1.0617
 3862SOL    HW223046   1.038   4.056   1.686  0.6386 -1.6757 -2.0517
 3863SOL     OW23047   2.212   2.615  13.673 -0.2359 -0.4789  0.1639
 3863SOL    HW123048   2.256   2.681  13.727 -0.9956  0.6319 -0.5590
 3863SOL    HW223049   2.131   2.596  13.720 -0.5449 -2.3483 -1.1574
 3864SOL     OW23050   1.806   2.422   5.434  0.2517  0.4211 -0.4437
 3864SOL    HW123051   1.842   2.456   5.517 -1.3058  0.8762  0.0393
 3864SOL    HW223052   1.870   2.360   5.400 -2.2550 -2.1143 -0.5267
 3865SOL     OW23053   3.342   4.274   2.973 -0.1735 -0.2987 -0.2531
 3865SOL    HW123054   3.344   4.215   2.897 -0.4568  0.4068 -0.8074
 3865SOL    HW223055   3.298   4.353   2.942  1.5845  1.7127  2.3605
 3866SOL     OW23056   1.784   3.268   9.676  0.7942  0.3190 -0.5042
 3866SOL    HW123057   1.739   3.192   9.641  1.3929 -0.2388 -0.0658
 3866SOL    HW223058   1.751   3.272   9.766 -2.5536  1.5715 -1.8039
 3867SOL     OW23059   0.016   0.688   7.013 -0.3850  0.9112  0.0340
 3867SOL    HW123060   4.661   0.694   6.959 -1.9242 -1.7867  1.9531
 3867SOL    HW223061   0.004   0.763   7.072  1.1698  0.2204  1.2362
 3868SOL     OW23062   2.636   4.375   7.730 -0.5562 -0.1244 -0.3465
 3868SOL    HW123063   2.645   4.468   7.709 -0.3400 -0.2173 -0.6668
 3868SOL    HW223064   2.663   4.390   7.821 -1.1245  1.1981 -0.3986
 3869SOL     OW23065   2.028   0.615   2.108 -0.4749  0.0794  0.2979
 3869SOL    HW123066   1.968   0.660   2.048  0.6192 -0.3403 -1.1165
 3869SOL    HW223067   2.080   0.692   2.132 -1.4327  0.3397  1.5458
 3870SOL     OW23068   2.854   2.651   9.675 -0.7245 -0.0471 -0.5746
 3870SOL    HW123069   2.880   2.711   9.745  1.8354  1.3299 -2.7621
 3870SOL    HW223070   2.829   2.577   9.732 -1.1008  1.8095  1.6891
 3871SOL     OW23071   4.468   2.105   7.871 -0.0605 -0.3833  0.2327
 3871SOL    HW123072   4.440   2.104   7.962 -0.3367 -0.1681  0.1499
 3871SOL    HW223073   4.409   2.034   7.845 -0.8707 -0.0213  1.0790
 3872SOL     OW23074   0.326   0.407   3.776  0.3156 -0.2680 -0.4623
 3872SOL    HW123075   0.396   0.398   3.711  0.0176 -0.6329 -0.7323
 3872SOL    HW223076   0.241   0.404   3.732 -0.6972 -1.4052  1.5649
 3873SOL     OW23077   3.027   2.690   2.635  0.0687  0.1060 -0.3142
 3873SOL    HW123078   2.932   2.689   2.630  0.1142 -1.0166 -1.1027
 3873SOL    HW223079   3.052   2.608   2.591 -0.4242 -0.2949  0.1434
 3874SOL     OW23080   2.087   3.996   4.674  0.5008  0.5118  0.2416
 3874SOL    HW123081   2.034   3.958   4.604 -0.5669  1.7759  0.3603
 3874SOL    HW223082   2.170   3.997   4.627 -1.1072  2.2666 -2.5544
 3875SOL     OW23083   3.358   1.570  13.976  0.4526 -0.5806  0.2515
 3875SOL    HW123084   3.289   1.634  13.959  0.2334 -2.2716 -5.2016
 3875SOL    HW223085   3.312   1.487  13.989 -0.9769  0.4000  1.5260
 3876SOL     OW23086   2.386   1.189   8.074  0.1222 -0.1384  0.2911
 3876SOL    HW123087   2.408   1.139   7.995 -2.7594  0.2837 -0.8075
 3876SOL    HW223088   2.300   1.149   8.087  0.0984 -0.8707 -2.0808
 3877SOL     OW23089   2.486   2.888  14.999 -0.2540  0.0205  0.0106
 3877SOL    HW123090   2.472   2.851  14.912  1.9692 -1.0685  0.1073
 3877SOL    HW223091   2.571   2.930  14.985 -0.1889  0.1343  0.7477
 3878SOL     OW23092   0.135   3.237  16.564 -0.3156  0.2745  0.1706
 3878SOL    HW123093   0.068   3.266  16.501  0.4135 -2.1268 -1.7300
 3878SOL    HW223094   0.091   3.253  16.648  0.0845 -0.4627  0.5117
 3879SOL     OW23095   4.618   3.283   8.750  0.4371 -0.4638 -0.2009
 3879SOL    HW123096   4.690   3.345   8.763  0.7983 -0.7813 -0.6632
 3879SOL    HW223097   4.600   3.295   8.656  2.9996 -1.1888 -0.7835
 3880SOL     OW23098   3.272   4.421   0.857  0.2095  1.0033 -0.1953
 3880SOL    HW123099   3.351   4.445   0.809  0.6974  1.2688  0.7329
 3880SOL    HW223100   3.248   4.347   0.802 -0.0124  0.4835  0.6024
 3881SOL     OW23101   3.286   2.141  10.588  0.6813  0.0906  0.2708
 3881SOL    HW123102   3.364   2.186  10.555  0.4173 -0.4253 -1.0772
 3881SOL    HW223103   3.238   2.214  10.627  1.0193  0.0609  0.7422
 3882SOL     OW23104   0.911   3.901   6.815 -0.4975 -0.2158  0.0945
 3882SOL    HW123105   0.918   3.950   6.897  1.5942  1.4625 -1.0964
 3882SOL    HW223106   0.977   3.933   6.754 -1.6995  1.6802 -0.2131
 3883SOL     OW23107   1.521   4.388  14.712 -0.3541 -0.1388  0.4899
 3883SOL    HW123108   1.577   4.425  14.644 -3.0035 -0.0950 -1.6394
 3883SOL    HW223109   1.504   4.462  14.770 -0.8888  0.0823  0.0448
 3884SOL     OW23110   4.115   3.895   8.271 -0.7227 -0.4447  0.3886
 3884SOL    HW123111   4.135   3.803   8.288  0.4055 -0.3437 -0.4218
 3884SOL    HW223112   4.051   3.914   8.340 -0.0940  0.8760  0.6023
 3885SOL     OW23113   3.443   1.928   1.175  0.1150 -0.2016  0.3801
 3885SOL    HW123114   3.394   1.882   1.106  0.7823  0.7383 -0.7314
 3885SOL    HW223115   3.518   1.869   1.187  0.6629  0.8544  2.1488
 3886SOL     OW23116   0.989   2.720   7.810 -0.5539 -0.2760  0.2309
 3886SOL    HW123117   0.944   2.689   7.731 -0.7313  1.0644 -0.2003
 3886SOL    HW223118   1.061   2.773   7.777 -2.1729  0.7244 -1.6789
 3887SOL     OW23119   2.085   3.076   6.515 -0.1418  0.0661  0.0298
 3887SOL    HW123120   2.075   2.990   6.474  1.0484  0.1842 -0.4996
 3887SOL    HW223121   2.125   3.065   6.601 -1.2582  0.3230  0.5850
 3888SOL     OW23122   0.064   0.362   3.613  0.0655 -0.3515  0.3995
 3888SOL    HW123123   0.055   0.303   3.538 -5.1523 -1.6237  2.0298
 3888SOL    HW223124   4.722   0.421   3.575  0.1843  0.2183  1.0769
 3889SOL     OW23125   0.692   3.003  12.647  0.4793 -0.2338 -0.2822
 3889SOL    HW123126   0.625   2.953  12.694  1.8643 -1.8909 -0.0910
 3889SOL    HW223127   0.723   3.062  12.716 -2.0851  1.7548 -0.8285
 3890SOL     OW23128   4.098   4.609  10.480  0.7277 -0.2469  0.7365
 3890SOL    HW123129   4.103   4.691  10.530 -0.4676  1.0349 -1.2469
 3890SOL    HW223130   4.100   4.542  10.548 -1.4895  0.4679  1.5037
 3891SOL     OW23131   0.785   4.015   3.264  0.7618  0.0520 -0.1091
 3891SOL    HW123132   0.845   3.956   3.310 -0.0794 -0.6747  0.0505
 3891SOL    HW223133   0.820   4.101   3.288  1.2859  0.3411 -1.9317
 3892SOL     OW23134   2.819   3.706  12.639 -0.4536  0.0127 -0.0291
 3892SOL    HW123135   2.800   3.679  12.549 -1.2669  1.4274 -0.2779
 3892SOL    HW223136   2.781   3.793  12.637 -0.9474 -0.1917  0.4673
 3893SOL     OW23137   1.282   3.832   2.210 -0.2721  0.0307  0.0674
 3893SOL    HW123138   1.204   3.810   2.261 -0.6686 -0.0090 -0.5609
 3893SOL    HW223139   1.318   3.897   2.271  0.7550 -1.2240  0.8176
 3894SOL     OW23140   4.031   4.234   5.021  0.1154 -0.6193 -0.0831
 3894SOL    HW123141   3.967   4.164   5.032 -0.7864 -0.0080 -1.4273
 3894SOL    HW223142   4.060   4.263   5.108 -0.5019  0.7611 -0.3390
 3895SOL     OW23143   1.966   4.606   0.299  0.4348  0.3114  0.1068
 3895SOL    HW123144   2.012   4.640   0.376 -1.5558 -0.8739  1.8400
 3895SOL    HW223145   1.988   4.672   0.233 -1.2956 -1.3583 -2.1467
 3896SOL     OW23146   3.489   4.589   7.584 -0.3405  0.8246 -0.0073
 3896SOL    HW123147   3.499   4.671   7.634  3.6984  0.7356 -0.6569
 3896SOL    HW223148   3.434   4.535   7.640 -0.0124  1.6868  1.1613
 3897SOL     OW23149   2.194   3.654   1.589 -0.4144  0.2091 -0.2495
 3897SOL    HW123150   2.226   3.664   1.500  2.9925  0.3683  0.9987
 3897SOL    HW223151   2.261   3.595   1.623 -0.0189  1.1344  0.5774
 3898SOL     OW23152   2.911   4.136  12.022 -0.2443 -0.2248 -0.0791
 3898SOL    HW123153   2.914   4.040  12.017 -2.2272 -0.2781 -0.3097
 3898SOL    HW223154   2.855   4.158  11.948  0.9872  0.4168 -0.8052
 3899SOL     OW23155   0.521   2.614  11.964  0.1316 -0.2762 -0.0309
 3899SOL    HW123156   0.485   2.618  11.875 -0.9004 -1.7605  0.3130
 3899SOL    HW223157   0.615   2.620  11.950  0.0831  0.3049 -0.1116
 3900SOL     OW23158   1.204   3.184   3.280 -0.7066 -0.0823  0.6883
 3900SOL    HW123159   1.286   3.137   3.296 -1.3418 -1.4999 -0.1910
 3900SOL    HW223160   1.217   3.208   3.188  0.9252  0.7284  1.1401
 3901SOL     OW23161   2.021   1.184  17.243  0.0035 -0.2542  0.2151
 3901SOL    HW123162   2.044   1.220  17.328 -3.9631  0.4964  0.9405
 3901SOL    HW223163   1.972   1.255  17.203 -1.8576 -1.2885  0.6701
 3902SOL     OW23164   3.859   2.515  10.994  0.1858  0.3976  0.0123
 3902SOL    HW123165   3.883   2.603  11.023 -1.9502  1.1868 -0.6171
 3902SOL    HW223166   3.937   2.463  11.011 -0.3368 -0.7453 -1.1066
 3903SOL     OW23167   2.743   2.665   2.704  0.2836  0.2288  0.3176
 3903SOL    HW123168   2.772   2.674   2.794 -0.3062  1.0007  0.4371
 3903SOL    HW223169   2.672   2.602   2.718  1.3104 -0.9446  0.2145
 3904SOL     OW23170   0.590   3.557   4.514 -0.5828  0.3039 -0.1048
 3904SOL    HW123171   0.640   3.609   4.577 -1.7083 -0.2605  1.2753
 3904SOL    HW223172   0.513   3.537   4.567 -0.7583 -0.4570 -0.6463
 3905SOL     OW23173   4.031   0.008   4.392 -0.4096 -0.3320 -0.1684
 3905SOL    HW123174   3.989   4.708   4.309  0.7564  0.7949 -1.0862
 3905SOL    HW223175   4.119   4.695   4.380 -0.4311 -0.3863 -0.1602
 3906SOL     OW23176   1.624   2.782   5.087  0.2478  0.1779 -0.2253
 3906SOL    HW123177   1.696   2.729   5.054  0.0115  0.4746 -1.2157
 3906SOL    HW223178   1.618   2.757   5.179 -0.0749  1.3742  0.0817
 3907SOL     OW23179   4.542   3.519  14.530 -0.8470 -0.1407  0.3655
 3907SOL    HW123180   4.582   3.559  14.607 -2.0928  0.2402  0.8254
 3907SOL    HW223181   4.564   3.429  14.554  0.1325  0.3171  1.1444
 3908SOL     OW23182   3.359   4.088   7.759 -0.2730 -0.3668 -0.7836
 3908SOL    HW123183   3.427   4.155   7.756 -0.7183 -0.0041 -2.7403
 3908SOL    HW223184   3.397   4.005   7.787 -1.2054 -0.3971  0.4219
 3909SOL     OW23185   1.148   0.101  14.878 -0.5550 -0.6190  0.0080
 3909SOL    HW123186   1.065   0.073  14.916 -0.9360  1.4002  0.6730
 3909SOL    HW223187   1.169   0.173  14.938  0.3814 -0.4251 -0.5574
 3910SOL     OW23188   2.478   4.329   4.821 -0.1152 -0.3621  0.1788
 3910SOL    HW123189   2.387   4.302   4.814 -0.2842  0.5288 -1.0780
 3910SOL    HW223190   2.471   4.407   4.766  0.7892  0.7986  1.6809
 3911SOL     OW23191   4.459   3.888   1.309 -0.3174 -0.1642  0.9708
 3911SOL    HW123192   4.501   3.866   1.391  4.2182  0.2765 -1.2365
 3911SOL    HW223193   4.492   3.976   1.290 -1.4709  0.0150 -0.2011
 3912SOL     OW23194   1.254   2.840  16.034  0.1634 -0.2432  0.2195
 3912SOL    HW123195   1.312   2.916  16.032 -2.7371  1.9658 -1.2083
 3912SOL    HW223196   1.174   2.880  15.998  0.4267  0.7700  0.7635
 3913SOL     OW23197   0.103   3.624   6.893 -0.2251  0.2613  0.4153
 3913SOL    HW123198   0.039   3.689   6.865 -2.0404 -1.0661  1.5133
 3913SOL    HW223199   0.066   3.549   6.848 -1.9566  1.3017  0.0828
 3914SOL     OW23200   0.804   2.078   9.820  0.6528 -0.1039 -0.0226
 3914SOL    HW123201   0.756   2.005   9.781 -1.2376  1.8060 -1.2844
 3914SOL    HW223202   0.764   2.087   9.907 -2.6551  0.7661 -1.6023
 3915SOL     OW23203   4.335   3.329   4.480  0.3118  0.5529  0.1146
 3915SOL    HW123204   4.276   3.326   4.405 -1.6288  2.8464  1.5375
 3915SOL    HW223205   4.299   3.258   4.534  0.5700  0.0257 -0.4128
 3916SOL     OW23206   3.175   1.388   2.882 -0.2253 -0.1613  0.2408
 3916SOL    HW123207   3.093   1.432   2.861  0.4850  0.9567 -0.2201
 3916SOL    HW223208   3.220   1.458   2.930  0.4402 -2.0530  2.3664
 3917SOL     OW23209   0.861   4.226   9.292  0.4414 -0.2531 -0.0990
 3917SOL    HW123210   0.948   4.243   9.327 -0.4922  0.7893  1.7350
 3917SOL    HW223211   0.879   4.276   9.212 -1.3679  0.5791  0.0073
 3918SOL     OW23212   3.084   3.552  12.726  0.6301 -0.1082 -0.2044
 3918SOL    HW123213   3.078   3.488  12.656 -1.0646  0.2576 -0.4044
 3918SOL    HW223214   2.991   3.575  12.720  0.3888 -0.6487  1.4100
 3919SOL     OW23215   3.394   0.923   6.848  0.0469  0.3778 -0.1766
 3919SOL    HW123216   3.413   0.904   6.756 -2.1717 -1.4474 -0.2723
 3919SOL    HW223217   3.473   0.973   6.867 -0.5956  1.1388  0.4934
 3920SOL     OW23218   0.461   4.485   5.352 -0.2194  0.4817 -0.2929
 3920SOL    HW123219   0.455   4.580   5.340  1.7004  0.6541  0.1199
 3920SOL    HW223220   0.499   4.478   5.440 -0.0547  2.6910 -0.1846
 3921SOL     OW23221   4.142   3.864   8.018 -0.0727 -0.0996  0.0144
 3921SOL    HW123222   4.124   3.872   8.112  2.5873 -0.6079  0.5580
 3921SOL    HW223223   4.210   3.797   8.014  0.1099  0.1811 -1.9228
 3922SOL     OW23224   3.969   1.083  14.037  0.3237  0.2553 -0.0114
 3922SOL    HW123225   4.053   1.124  14.018  0.2681  1.0049  1.3547
 3922SOL    HW223226   3.918   1.111  13.961 -1.5341  2.3048  1.9860
 3923SOL     OW23227   3.946   1.252   5.894 -0.0049  0.0992  0.2837
 3923SOL    HW123228   3.979   1.333   5.854 -0.3632 -0.1795 -0.5850
 3923SOL    HW223229   3.889   1.286   5.962 -0.1900  1.9148 -0.7662
 3924SOL     OW23230   3.410   0.764   7.293  0.6020  0.2103  0.2621
 3924SOL    HW123231   3.407   0.696   7.226 -0.2930  0.6476 -0.1322
 3924SOL    HW223232   3.415   0.709   7.372 -0.3606 -1.5397 -0.9090
 3925SOL     OW23233   2.045   0.384  10.348  0.3163  0.0146 -0.6852
 3925SOL    HW123234   1.960   0.422  10.370  0.8620 -0.5230  2.3134
 3925SOL    HW223235   2.058   0.328  10.424  0.6207  0.6121 -0.3005
 3926SOL     OW23236   1.969   3.733   5.348 -0.2483  0.4061 -0.2511
 3926SOL    HW123237   1.951   3.814   5.396 -1.8089 -0.1573  0.1341
 3926SOL    HW223238   1.979   3.749   5.255 -0.7618 -0.3375 -0.4387
 3927SOL     OW23239   1.974   2.894  15.725  0.0442  0.4739 -0.2142
 3927SOL    HW123240   2.020   2.814  15.703  0.0390 -0.0760  1.7926
 3927SOL    HW223241   2.028   2.964  15.688 -1.3635 -0.0040 -3.1787
 3928SOL     OW23242   3.864   3.585   4.497 -0.1280 -0.4521  0.2402
 3928SOL    HW123243   3.909   3.559   4.416 -1.4697  0.0269 -0.6621
 3928SOL    HW223244   3.808   3.660   4.476  1.8157  0.6818 -0.8651
 3929SOL     OW23245   3.626   2.058   4.254 -0.0804 -0.3444 -0.4150
 3929SOL    HW123246   3.607   1.976   4.300 -2.4151 -0.0970 -0.9314
 3929SOL    HW223247   3.542   2.061   4.208  0.2467 -1.4604 -1.0958
 3930SOL     OW23248   4.006   4.503  16.625 -0.1138  0.3336  0.3489
 3930SOL    HW123249   4.084   4.453  16.601 -1.2563 -2.3589  2.2104
 3930SOL    HW223250   3.937   4.439  16.608  0.2574 -0.2544  1.0694
 3931SOL     OW23251   0.618   2.969   6.849 -0.1414 -0.2472  0.0802
 3931SOL    HW123252   0.589   2.879   6.838 -1.1946  0.2769 -1.3975
 3931SOL    HW223253   0.541   2.988   6.904 -2.5798 -0.2920 -3.3247
 3932SOL     OW23254   3.672   3.311   4.446  0.5442  0.2772 -0.3794
 3932SOL    HW123255   3.709   3.353   4.524 -0.1056  3.2071 -1.6574
 3932SOL    HW223256   3.614   3.246   4.485 -0.1029  1.9956  1.5322
 3933SOL     OW23257   3.357   4.443   2.164 -0.2906  0.7881  0.6723
 3933SOL    HW123258   3.266   4.464   2.184  0.3666  2.0985  2.2985
 3933SOL    HW223259   3.378   4.519   2.110 -4.2847  1.2465 -0.2229
 3934SOL     OW23260   1.939   1.270  11.647 -0.0797 -0.1092 -0.0112
 3934SOL    HW123261   1.952   1.237  11.736 -1.5452 -0.5151  0.0604
 3934SOL    HW223262   2.016   1.326  11.641  0.6197 -1.2143 -1.3895
 3935SOL     OW23263   1.711   2.438  12.249  0.1798 -0.0295 -0.3775
 3935SOL    HW123264   1.623   2.407  12.227  1.0297 -0.0675 -3.7304
 3935SOL    HW223265   1.750   2.386  12.319  0.4508  1.1700  0.3648
 3936SOL     OW23266   0.174   1.973   2.272  0.2083  0.5103  0.0035
 3936SOL    HW123267   0.244   1.962   2.207 -1.4325 -2.8214 -1.2123
 3936SOL    HW223268   0.168   2.068   2.273  0.3285  0.5088  1.2350
 3937SOL     OW23269   4.160   0.038   0.179 -0.4230  0.2350 -0.4067
 3937SOL    HW123270   4.078   0.006   0.140 -1.4549 -0.3119  2.1776
 3937SOL    HW223271   4.158   0.132   0.164 -0.9757  0.5432  1.6235
 3938SOL     OW23272   2.356   0.188   3.393  0.4883  0.8115 -0.1418
 3938SOL    HW123273   2.442   0.160   3.363  0.3202 -0.4512  0.5797
 3938SOL    HW223274   2.334   0.262   3.337 -3.0317  1.1314  1.6778
 3939SOL     OW23275   1.537   1.694   8.698 -0.1637  0.0070 -0.2733
 3939SOL    HW123276   1.502   1.724   8.615  2.2984  0.6613 -1.0693
 3939SOL    HW223277   1.463   1.697   8.760  0.8948  0.0941  1.0002
 3940SOL     OW23278   4.056   0.700   4.648  0.1719  0.0358 -0.3402
 3940SOL    HW123279   3.985   0.636   4.648 -0.0759  0.3094  0.6198
 3940SOL    HW223280   4.133   0.648   4.623  0.2218 -0.8816  1.7183
 3941SOL     OW23281   2.371   2.736  14.202 -0.7154  0.3986 -0.5477
 3941SOL    HW123282   2.347   2.798  14.271 -2.2532  1.0850 -1.6995
 3941SOL    HW223283   2.463   2.757  14.188 -0.7411 -0.3507 -1.8749
 3942SOL     OW23284   3.696   2.639   5.649 -0.5156 -0.2475 -0.1290
 3942SOL    HW123285   3.693   2.666   5.558  1.3515 -3.6023 -1.2087
 3942SOL    HW223286   3.657   2.720   5.682  1.4510  0.3813  0.6966
 3943SOL     OW23287   2.154   2.693  17.100 -0.1242  0.2093  0.6653
 3943SOL    HW123288   2.182   2.653  17.018  1.1274 -2.5306  2.4181
 3943SOL    HW223289   2.106   2.762  17.054  1.3494  1.2239  0.6626
 3944SOL     OW23290   2.772   4.695   2.774 -0.1162  0.0927  0.0234
 3944SOL    HW123291   2.744   4.679   2.684 -2.1648 -1.1817  0.8994
 3944SOL    HW223292   2.820   4.613   2.783  0.5296  0.7906  2.9068
 3945SOL     OW23293   0.113   2.880  10.855 -0.1972 -0.1192  0.3674
 3945SOL    HW123294   0.073   2.804  10.812  3.5988 -2.5217  1.1335
 3945SOL    HW223295   0.142   2.840  10.937 -0.1337 -0.0975  0.3548
 3946SOL     OW23296   4.473   3.478   8.544 -0.5685 -0.0309 -0.6939
 3946SOL    HW123297   4.546   3.520   8.497  0.8380 -0.1422  1.4120
 3946SOL    HW223298   4.425   3.434   8.473 -1.0427  0.6830 -0.8129
 3947SOL     OW23299   3.738   0.835   6.805  0.2428 -0.6092 -0.1728
 3947SOL    HW123300   3.735   0.762   6.744  0.1566 -0.2749 -0.5697
 3947SOL    HW223301   3.669   0.896   6.779 -0.8233 -1.3591  0.9525
 3948SOL     OW23302   0.392   2.086   3.322 -0.0048 -0.6678 -0.8059
 3948SOL    HW123303   0.366   2.070   3.231  1.1752  3.1069 -1.7816
 3948SOL    HW223304   0.397   2.181   3.324  1.2990 -0.7481 -0.5083
 3949SOL     OW23305   2.280   1.850   3.691  0.8125 -0.0864 -0.2278
 3949SOL    HW123306   2.217   1.789   3.728  0.4227  1.7765  2.1643
 3949SOL    HW223307   2.327   1.788   3.636 -1.0264 -1.6715 -0.0194
 3950SOL     OW23308   4.449   2.458   3.794 -0.2336 -0.2083 -0.6513
 3950SOL    HW123309   4.495   2.516   3.733 -1.0955 -1.1099 -2.1754
 3950SOL    HW223310   4.370   2.457   3.741 -0.0537 -0.1212 -0.9205
 3951SOL     OW23311   1.732   2.220   7.429 -0.4670  0.2233 -0.1995
 3951SOL    HW123312   1.661   2.278   7.400  0.2922  0.0274 -2.5025
 3951SOL    HW223313   1.692   2.149   7.478 -1.0675 -0.9324 -2.3458
 3952SOL     OW23314   3.027   3.723   7.951  0.3875  0.3860 -0.1459
 3952SOL    HW123315   3.047   3.805   7.905  1.6497 -0.0782 -0.4329
 3952SOL    HW223316   2.977   3.689   7.876  0.8343  1.4940 -0.9538
 3953SOL     OW23317   2.621   2.361   3.265  0.2046  0.0024 -0.9107
 3953SOL    HW123318   2.610   2.271   3.298 -1.4346  1.2250  1.8613
 3953SOL    HW223319   2.661   2.402   3.342  1.8048 -2.3019 -0.4947
 3954SOL     OW23320   3.456   3.094   7.758 -0.9480  0.4206  0.0541
 3954SOL    HW123321   3.383   3.061   7.811 -0.7818  1.1065  0.6958
 3954SOL    HW223322   3.407   3.154   7.703 -0.4395  0.8498  0.0752
 3955SOL     OW23323   4.388   2.873   2.763 -0.8961 -0.3701  0.3422
 3955SOL    HW123324   4.453   2.805   2.746 -1.2288 -0.6285  0.1323
 3955SOL    HW223325   4.357   2.848   2.850 -0.1438 -1.2004  0.3722
 3956SOL     OW23326   1.566   4.409   4.559  0.3152 -0.8100 -0.0671
 3956SOL    HW123327   1.589   4.487   4.609  0.0160 -1.4320  1.0228
 3956SOL    HW223328   1.614   4.418   4.476 -1.2139  0.4401 -0.8281
 3957SOL     OW23329   1.589   3.946   7.864  0.2260  0.0613  0.0434
 3957SOL    HW123330   1.649   3.992   7.923 -0.0489 -2.6885  2.5036
 3957SOL    HW223331   1.631   3.964   7.781 -0.9477  1.2432 -0.2895
 3958SOL     OW23332   3.546   3.509   6.697  0.0475  0.6623  0.6717
 3958SOL    HW123333   3.592   3.579   6.651  1.0893 -0.3366  0.2010
 3958SOL    HW223334   3.488   3.552   6.760  1.9321  0.6740  2.4133
 3959SOL     OW23335   4.300   2.729   1.653 -0.5706 -0.0960 -0.6563
 3959SOL    HW123336   4.377   2.783   1.673 -0.1547  0.3386 -3.4250
 3959SOL    HW223337   4.231   2.788   1.683 -0.0966  0.2170 -0.1821
 3960SOL     OW23338   2.647   3.317   6.751 -0.0754  0.2383 -0.1864
 3960SOL    HW123339   2.581   3.348   6.814  2.2556  2.2230  1.3131
 3960SOL    HW223340   2.677   3.404   6.724  0.2297  0.1752 -0.0523
 3961SOL     OW23341   2.782   3.316   9.267  0.2861  0.0906  0.0587
 3961SOL    HW123342   2.753   3.304   9.357  2.6102  0.5380  0.8688
 3961SOL    HW223343   2.731   3.393   9.243 -0.6053 -0.8647 -1.1179
 3962SOL     OW23344   0.920   2.931   3.932  0.4398  0.1134  0.1690
 3962SOL    HW123345   0.834   2.962   3.904  0.8486  1.6643  0.6744
 3962SOL    HW223346   0.973   3.009   3.918  1.4087 -0.5128  0.3240
 3963SOL     OW23347   0.783   4.646   4.649 -0.0792 -0.2473  0.0777
 3963SOL    HW123348   0.700   4.692   4.648 -0.3761 -0.7352  2.2931
 3963SOL    HW223349   0.810   4.695   4.727 -0.1320  0.6475 -0.4800
 3964SOL     OW23350   4.552   3.874   7.582 -0.3045  0.3813 -0.7984
 3964SOL    HW123351   4.557   3.969   7.593  1.4912  0.3165 -1.0495
 3964SOL    HW223352   4.511   3.866   7.495 -2.5629 -1.5206  0.4232
 3965SOL     OW23353   0.800   3.028   2.080 -0.0999 -0.6926 -0.3277
 3965SOL    HW123354   0.739   3.061   2.146 -0.9415 -2.2725 -0.3377
 3965SOL    HW223355   0.872   3.027   2.143  1.3855 -0.5340 -2.0426
 3966SOL     OW23356   2.642   0.149   3.320  0.9397  0.2575  0.2005
 3966SOL    HW123357   2.725   0.106   3.341  1.4238  0.5930 -1.0089
 3966SOL    HW223358   2.651   0.185   3.232  0.3151 -0.3566 -0.1208
 3967SOL     OW23359   0.977   3.376   1.597  0.1135  0.0210 -0.2363
 3967SOL    HW123360   0.985   3.426   1.515 -0.9877  1.1900  0.3745
 3967SOL    HW223361   0.990   3.286   1.567 -1.1426 -0.1715 -0.1793
 3968SOL     OW23362   4.420   0.654   6.352 -0.3585 -0.3577 -0.7948
 3968SOL    HW123363   4.515   0.665   6.361 -0.5211 -0.9278  1.4677
 3968SOL    HW223364   4.415   0.633   6.259 -1.1046 -1.4656 -0.4981
 3969SOL     OW23365   0.146   4.301   3.012  0.0026  0.2889 -0.3109
 3969SOL    HW123366   0.096   4.285   2.932 -1.6633 -2.8616  1.3622
 3969SOL    HW223367   0.149   4.397   3.009 -0.7668  0.3271  0.1969
 3970SOL     OW23368   4.200   3.352   3.440 -0.2494 -0.2754  0.6653
 3970SOL    HW123369   4.115   3.330   3.479  0.3142 -0.7780  1.6018
 3970SOL    HW223370   4.163   3.352   3.351  0.4001 -1.2337  0.4001
 3971SOL     OW23371   0.411   3.683   2.269  0.2436  0.0051  0.2781
 3971SOL    HW123372   0.416   3.777   2.250 -0.1604  0.2158  1.1915
 3971SOL    HW223373   0.325   3.653   2.240  0.1502 -1.6993  2.3009
 3972SOL     OW23374   2.589   2.872   7.383  0.5745  0.0236  0.4226
 3972SOL    HW123375   2.500   2.849   7.355  1.1844 -1.3476 -0.3821
 3972SOL    HW223376   2.619   2.787   7.415 -0.5273 -0.8276 -0.8282
 3973SOL     OW23377   2.166   0.068   5.714 -0.5748 -0.0470 -0.0383
 3973SOL    HW123378   2.108   0.095   5.643 -0.6620  1.0613  0.4566
 3973SOL    HW223379   2.168   4.697   5.702  1.1281 -0.1218  0.8889
 3974SOL     OW23380   4.235   1.186   9.278  0.2381  0.4832  0.5337
 3974SOL    HW123381   4.266   1.099   9.305  0.6339  0.5859  0.3990
 3974SOL    HW223382   4.292   1.241   9.331  0.7583 -0.6035  1.1113
 3975SOL     OW23383   3.107   4.454  12.571  0.4060 -0.1271 -0.0304
 3975SOL    HW123384   3.176   4.520  12.567  0.1582 -0.1783 -5.1690
 3975SOL    HW223385   3.151   4.378  12.609 -2.1777  0.2222  3.7345
 3976SOL     OW23386   4.039   1.061  14.300 -0.4272  0.0515 -0.0715
 3976SOL    HW123387   4.124   1.054  14.256 -0.1846 -1.2284  0.6270
 3976SOL    HW223388   3.988   1.071  14.220  2.6310 -0.0512 -2.0496
 3977SOL     OW23389   0.411   1.679  14.598  0.4369  0.5119  0.0177
 3977SOL    HW123390   0.437   1.721  14.516  0.9882  2.1555  1.0294
 3977SOL    HW223391   0.354   1.748  14.631  1.2277  1.9042 -1.5067
 3978SOL     OW23392   2.230   2.410   1.911  0.3196  0.4514 -0.5155
 3978SOL    HW123393   2.227   2.362   1.994 -1.1448 -2.0841 -2.0428
 3978SOL    HW223394   2.276   2.488   1.942 -0.2972  0.5267  0.2098
 3979SOL     OW23395   4.568   3.381  15.416  0.3204  0.3415 -0.2788
 3979SOL    HW123396   4.493   3.322  15.409 -0.1206  1.1026 -1.8714
 3979SOL    HW223397   4.621   3.342  15.347 -1.8343 -0.3304 -1.5502
 3980SOL     OW23398   1.392   0.759  11.692 -0.4451  0.1806  0.4618
 3980SOL    HW123399   1.396   0.718  11.606 -0.8430  0.3992  0.3402
 3980SOL    HW223400   1.474   0.736  11.735 -0.4054 -1.4332 -0.4665
 3981SOL     OW23401   2.902   1.226   4.845  0.8670 -0.3589  0.1216
 3981SOL    HW123402   2.869   1.306   4.886 -1.0840 -0.9486 -0.3406
 3981SOL    HW223403   2.838   1.163   4.876 -0.4103 -0.2345 -2.2741
 3982SOL     OW23404   0.684   3.785  12.013  0.0952 -0.1188 -0.1557
 3982SOL    HW123405   0.720   3.832  11.938 -1.4373 -0.1735 -0.9193
 3982SOL    HW223406   0.595   3.763  11.986  0.6510 -1.6622 -0.7516
 3983SOL     OW23407   3.812   0.431   3.685  0.2833 -0.2899 -0.2564
 3983SOL    HW123408   3.850   0.419   3.772 -1.6396 -3.5267  0.1449
 3983SOL    HW223409   3.837   0.522   3.666  1.3431 -0.5519 -0.1104
 3984SOL     OW23410   1.958   2.536   6.758 -0.7004 -0.5057  0.4373
 3984SOL    HW123411   2.043   2.558   6.796  0.0596  1.5158 -2.3811
 3984SOL    HW223412   1.923   2.495   6.837  2.2139  0.7451  2.3789
 3985SOL     OW23413   2.001   2.179   1.136 -0.2461 -0.4899  0.1365
 3985SOL    HW123414   2.012   2.261   1.087 -1.0964 -0.8853 -0.7211
 3985SOL    HW223415   1.942   2.127   1.081 -1.0178 -2.9455  3.3271
 3986SOL     OW23416   2.189   3.108   6.073 -0.1551  0.3877 -0.2155
 3986SOL    HW123417   2.178   3.184   6.016 -1.4498  0.1675 -0.2687
 3986SOL    HW223418   2.221   3.149   6.154 -0.0503  2.2719 -1.2171
 3987SOL     OW23419   0.172   0.968   5.094 -0.1202  0.0185  0.1500
 3987SOL    HW123420   0.161   0.972   4.999 -1.5737 -0.1449  0.3193
 3987SOL    HW223421   0.235   0.896   5.105 -0.0105  0.4150  2.2402
 3988SOL     OW23422   4.352   3.624  13.917 -0.2218 -0.0387  0.4455
 3988SOL    HW123423   4.442   3.591  13.922  0.8529  2.4586 -2.9793
 3988SOL    HW223424   4.362   3.684  13.844  1.5083 -0.7567  0.0915
 3989SOL     OW23425   1.663   2.009  12.693  0.1510  0.4829  0.0605
 3989SOL    HW123426   1.747   2.055  12.688  0.2978  0.2844  0.6639
 3989SOL    HW223427   1.607   2.078  12.728 -2.3345 -2.0238  0.9440
 3990SOL     OW23428   2.117   2.628  16.111 -0.3528  0.3691 -0.1012
 3990SOL    HW123429   2.137   2.719  16.087  0.6057  0.4933  1.1978
 3990SOL    HW223430   2.175   2.587  16.047 -0.9342 -3.7549  2.0899
 3991SOL     OW23431   0.314   2.939   9.245  0.4014  0.1029  0.0315
 3991SOL    HW123432   0.302   3.033   9.233 -3.9236 -0.3447  0.8519
 3991SOL    HW223433   0.386   2.942   9.307 -0.6098  2.0483  1.0834
 3992SOL     OW23434   4.544   2.275   1.426 -0.0966 -0.1644  0.6907
 3992SOL    HW123435   4.571   2.348   1.481  2.8904 -1.2078  0.6604
 3992SOL    HW223436   4.626   2.244   1.387 -0.7361 -1.5872  0.4728
 3993SOL     OW23437   1.434   4.201   5.319  0.2143  0.4837  0.1099
 3993SOL    HW123438   1.390   4.275   5.276 -2.8331 -1.8068 -0.7490
 3993SOL    HW223439   1.376   4.176   5.391 -0.4318  1.4696 -0.0616
 3994SOL     OW23440   4.254   4.410   6.929 -0.0477  0.4619 -0.3291
 3994SOL    HW123441   4.261   4.343   6.996 -1.0463  0.4752 -0.2164
 3994SOL    HW223442   4.216   4.481   6.981 -0.7054 -0.3058  0.2395
 3995SOL     OW23443   4.130   0.758   9.152 -0.1268  0.2953  0.0075
 3995SOL    HW123444   4.207   0.706   9.176 -0.2060 -0.3201 -1.0732
 3995SOL    HW223445   4.079   0.680   9.129  2.1702 -1.2131 -0.0335
 3996SOL     OW23446   4.304   1.123   2.706 -0.0965  0.5875 -0.0455
 3996SOL    HW123447   4.304   1.186   2.633 -2.6365 -0.0677 -0.6103
 3996SOL    HW223448   4.237   1.161   2.763  0.0046 -1.0530  1.1533
 3997SOL     OW23449   3.729   3.149  11.704  0.3368 -0.1034  0.3652
 3997SOL    HW123450   3.771   3.066  11.682 -0.3042 -0.1906 -0.5594
 3997SOL    HW223451   3.651   3.143  11.648 -1.0218  0.1580  2.2301
 3998SOL     OW23452   2.032   0.928   3.727 -0.1197  0.0953 -0.1445
 3998SOL    HW123453   1.979   1.003   3.755  0.6149  0.3557  0.5390
 3998SOL    HW223454   2.069   0.957   3.644 -1.1543  0.3161 -0.5343
 3999SOL     OW23455   3.026   0.524   1.408 -0.3132 -0.2216 -0.2432
 3999SOL    HW123456   3.063   0.612   1.417  0.8858 -0.6760 -0.7362
 3999SOL    HW223457   2.999   0.516   1.500  1.3619 -0.2667  0.2405
 4000SOL     OW23458   2.739   1.679   5.491 -0.2628 -0.0860  0.0892
 4000SOL    HW123459   2.788   1.636   5.560 -1.6827  1.9313  2.3392
 4000SOL    HW223460   2.798   1.685   5.416 -1.9396  0.9723 -1.1581
 4001SOL     OW23461   2.135   3.413   6.180 -0.2851 -0.1480  0.3238
 4001SOL    HW123462   2.066   3.349   6.199 -0.8736  0.2067 -0.6383
 4001SOL    HW223463   2.156   3.398   6.088 -1.3218 -0.3282  0.1145
 4002SOL     OW23464   3.407   4.210   5.464  0.5130  0.4683  0.1526
 4002SOL    HW123465   3.434   4.189   5.375 -0.1286  0.7228 -0.0989
 4002SOL    HW223466   3.487   4.190   5.512  0.3077 -1.3396 -0.2301
 4003SOL     OW23467   3.798   0.290   4.280 -0.3384 -0.0975 -0.2134
 4003SOL    HW123468   3.735   0.222   4.304  0.5044 -0.8227 -0.0733
 4003SOL    HW223469   3.859   0.291   4.354  0.8947 -3.5659 -1.1807
 4004SOL     OW23470   4.032   3.289   8.380  0.1353 -0.1815 -0.0433
 4004SOL    HW123471   4.085   3.367   8.358  1.7124 -0.7682  1.7055
 4004SOL    HW223472   4.000   3.300   8.469  0.6875 -0.5493  0.1994
 4005SOL     OW23473   2.284   4.573   2.968  0.2221  0.0438 -0.4173
 4005SOL    HW123474   2.227   4.542   3.038 -0.2305 -3.2460 -2.2249
 4005SOL    HW223475   2.321   4.653   3.006 -0.4383  1.1303 -2.0592
 4006SOL     OW23476   3.722   1.734  17.454 -0.4564 -0.1980 -0.0524
 4006SOL    HW123477   3.696   1.721  17.545  0.5534 -1.6481  0.0196
 4006SOL    HW223478   3.646   1.790  17.438 -0.3169 -0.1682 -0.6072
 4007SOL     OW23479   0.093   0.763   9.121 -0.6536  0.0972 -0.4080
 4007SOL    HW123480   0.029   0.695   9.140 -0.0829 -0.0009  1.1124
 4007SOL    HW223481   0.051   0.842   9.152 -0.0195  0.0488  0.5940
 4008SOL     OW23482   3.474   3.554  15.235 -0.1954  0.1016  0.6371
 4008SOL    HW123483   3.484   3.534  15.328  0.7277 -2.2302  0.0608
 4008SOL    HW223484   3.538   3.623  15.216  0.5931 -1.0100 -0.8137
 4009SOL     OW23485   3.861   4.019  17.512  0.4165  0.1688  0.1481
 4009SOL    HW123486   3.888   4.095  17.563  1.2662 -0.6191  0.8728
 4009SOL    HW223487   3.774   4.047  17.484 -0.3046 -0.5241  1.6495
 4010SOL     OW23488   3.404   3.282   2.987 -0.1134  0.2677  0.0248
 4010SOL    HW123489   3.449   3.265   2.905 -1.7486  0.3811 -0.8952
 4010SOL    HW223490   3.438   3.211   3.042 -0.6724 -0.2398 -0.2904
 4011SOL     OW23491   1.523   1.019  14.860 -0.2066  0.1741 -0.1353
 4011SOL    HW123492   1.612   1.024  14.894 -0.6456  1.5517  0.8298
 4011SOL    HW223493   1.543   0.975  14.777 -0.6157 -0.2219 -0.0194
 4012SOL     OW23494   2.580   2.805  13.932  0.4124  0.2271 -0.4420
 4012SOL    HW123495   2.588   2.900  13.929  1.1562  0.1968  0.4825
 4012SOL    HW223496   2.624   2.795  14.016 -2.6040  0.9218  1.2077
 4013SOL     OW23497   4.010   0.924   9.427  0.0528 -0.5154  0.5448
 4013SOL    HW123498   3.920   0.894   9.436 -0.5407  0.3572 -2.2782
 4013SOL    HW223499   4.035   0.910   9.335 -2.7778  0.4318 -0.3694
 4014SOL     OW23500   1.332   0.576   1.827  0.0154  0.2167 -0.4768
 4014SOL    HW123501   1.372   0.500   1.868 -1.1631  0.4357  1.0603
 4014SOL    HW223502   1.253   0.564   1.879  0.6106 -2.6541 -0.1975
 4015SOL     OW23503   1.398   1.711   7.839  0.3802  0.0410  0.1333
 4015SOL    HW123504   1.486   1.729   7.871  1.5130  0.2361 -3.0756
 4015SOL    HW223505   1.344   1.755   7.905  0.3522  0.8804 -0.4435
 4016SOL     OW23506   0.341   3.706  13.001  0.0308 -0.0293  0.5013
 4016SOL    HW123507   0.403   3.667  13.062 -2.8417 -1.4926  2.5079
 4016SOL    HW223508   0.290   3.625  12.992 -0.9670  0.6732 -0.1298
 4017SOL     OW23509   3.979   0.987   0.663 -0.8255 -0.1878 -0.0792
 4017SOL    HW123510   3.909   1.014   0.722  0.3922  0.9748  0.8200
 4017SOL    HW223511   4.005   0.900   0.694  2.6162  0.8730  0.0648
 4018SOL     OW23512   1.377   0.606  14.455  0.4752 -0.3947 -0.4310
 4018SOL    HW123513   1.302   0.663  14.469 -0.0850 -1.5433  1.2216
 4018SOL    HW223514   1.399   0.554  14.532 -1.2216  0.1304  0.3984
 4019SOL     OW23515   0.745   0.237   3.561 -0.2282  0.7898  0.9908
 4019SOL    HW123516   0.726   0.329   3.582 -2.4253  1.0397 -2.1347
 4019SOL    HW223517   0.729   0.203   3.648 -0.3247 -2.1147 -0.1498
 4020SOL     OW23518   2.982   1.770   8.575  0.3212 -0.1370 -0.3476
 4020SOL    HW123519   3.048   1.720   8.527 -2.3870 -1.9392 -2.1763
 4020SOL    HW223520   2.914   1.779   8.509 -1.2126 -2.4025  0.9134
 4021SOL     OW23521   2.849   2.805   4.338 -0.1106 -0.4647 -0.3875
 4021SOL    HW123522   2.907   2.729   4.343 -1.1175 -1.2532 -0.6421
 4021SOL    HW223523   2.923   2.864   4.350 -1.6075  1.3095  0.1629
 4022SOL     OW23524   0.266   4.396  14.098  0.2331 -0.4850 -0.3018
 4022SOL    HW123525   0.320   4.415  14.175 -1.4651  1.6708  0.3538
 4022SOL    HW223526   0.189   4.450  14.115  1.5222  2.0001 -2.3770
 4023SOL     OW23527   2.694   4.532  12.393  0.3818 -0.0098  0.3669
 4023SOL    HW123528   2.659   4.518  12.481  0.1546 -2.1341 -0.0764
 4023SOL    HW223529   2.781   4.494  12.389 -0.5151 -2.2082  1.4794
 4024SOL     OW23530   0.409   4.361  10.304 -0.6082 -0.1492 -0.4071
 4024SOL    HW123531   0.390   4.353  10.211  1.9501  0.5775 -1.0014
 4024SOL    HW223532   0.505   4.353  10.309 -0.5705  0.2981 -0.4621
 4025SOL     OW23533   2.926   0.640   1.645 -0.3475 -0.2954  0.3092
 4025SOL    HW123534   3.007   0.690   1.640  0.0408 -0.9731 -0.2134
 4025SOL    HW223535   2.923   0.622   1.739 -0.1393  0.2138  0.4110
 4026SOL     OW23536   1.353   1.578   4.085  0.2910 -0.0866 -0.0867
 4026SOL    HW123537   1.444   1.575   4.112  0.4598  1.4793 -0.4922
 4026SOL    HW223538   1.364   1.613   3.996  1.3607 -0.8571 -0.2544
 4027SOL     OW23539   0.458   2.417  13.368  0.4783  0.6281  0.7492
 4027SOL    HW123540   0.385   2.419  13.306  1.7613  0.1239 -0.7788
 4027SOL    HW223541   0.412   2.378  13.442  0.6167 -1.1243 -0.0797
 4028SOL     OW23542   4.316   3.023   1.835  0.0981 -0.3883 -0.8123
 4028SOL    HW123543   4.377   2.949   1.837  1.2070  0.5054 -1.6130
 4028SOL    HW223544   4.365   3.090   1.883 -0.5511 -1.6782  1.6732
 4029SOL     OW23545   2.615   3.450   8.271  0.6569  0.3329 -0.2745
 4029SOL    HW123546   2.591   3.539   8.244 -0.7297  0.6840  2.0949
 4029SOL    HW223547   2.530   3.423   8.304  2.0639 -3.4266  0.2024
 4030SOL     OW23548   0.441   0.908   7.991  0.0605  0.2869  0.3162
 4030SOL    HW123549   0.381   0.834   7.987 -0.0402  0.4144 -0.7878
 4030SOL    HW223550   0.389   0.982   7.958 -1.7913 -0.6691  1.1307
 4031SOL     OW23551   1.554   2.851  11.833  0.1961  0.1869 -0.7168
 4031SOL    HW123552   1.643   2.879  11.856 -0.1358  1.2624 -0.7833
 4031SOL    HW223553   1.553   2.876  11.741 -2.7423 -0.3109 -0.7962
 4032SOL     OW23554   1.875   3.345   4.691 -0.1284 -0.4621 -0.6616
 4032SOL    HW123555   1.846   3.254   4.693  0.6570 -0.7525 -2.9547
 4032SOL    HW223556   1.841   3.382   4.609  1.2324  0.3251 -0.8618
 4033SOL     OW23557   0.115   3.302   2.605 -0.2066  0.4753 -0.3470
 4033SOL    HW123558   0.184   3.350   2.558 -0.2051  2.1624  1.3629
 4033SOL    HW223559   0.164   3.282   2.684 -0.5703 -0.7090 -0.4288
 4034SOL     OW23560   3.573   1.865   2.541  0.5053  0.0660  0.3565
 4034SOL    HW123561   3.486   1.825   2.550  0.3065  0.6253  0.9441
 4034SOL    HW223562   3.614   1.841   2.458 -0.4201  0.5929 -0.2577
 4035SOL     OW23563   0.620   3.227   7.071  0.2979 -0.6946  0.2745
 4035SOL    HW123564   0.627   3.171   7.149  2.4974 -2.2906 -1.0762
 4035SOL    HW223565   0.637   3.308   7.119  0.7498 -0.5133 -0.1910
 4036SOL     OW23566   1.216   0.943  10.324  0.2798  0.1682 -0.5676
 4036SOL    HW123567   1.273   1.012  10.290  2.0039 -1.9853 -1.9996
 4036SOL    HW223568   1.239   0.876  10.259 -0.5149 -2.4624  1.8558
 4037SOL     OW23569   0.400   0.070  11.833 -0.2067 -0.5035  0.1027
 4037SOL    HW123570   0.449   4.713  11.851  1.5061  0.5914  0.3045
 4037SOL    HW223571   0.376   0.053  11.742 -2.4921 -0.6957  0.7269
 4038SOL     OW23572   1.304   4.083   3.319 -0.4519 -0.7275  0.4276
 4038SOL    HW123573   1.262   4.059   3.402  0.5918  0.3775  1.2696
 4038SOL    HW223574   1.238   4.041   3.264 -1.3700  1.6285 -0.2760
 4039SOL     OW23575   2.651   3.437  12.196 -0.1050  0.8766  0.0878
 4039SOL    HW123576   2.595   3.510  12.223 -0.2204  0.2118  1.6395
 4039SOL    HW223577   2.650   3.438  12.100 -0.1134  0.7857  0.0865
 4040SOL     OW23578   4.615   1.884   0.039 -0.3192 -0.2961  0.1308
 4040SOL    HW123579   4.687   1.871  17.673 -0.2080  0.2675  0.1493
 4040SOL    HW223580   4.549   1.920  17.675  0.0038  0.6560  0.3512
 4041SOL     OW23581   2.139   1.799   1.835 -0.6080 -0.0368  0.0104
 4041SOL    HW123582   2.147   1.721   1.889 -0.2331 -0.5283 -0.7686
 4041SOL    HW223583   2.079   1.776   1.765  0.3802 -0.9367 -0.5339
 4042SOL     OW23584   2.445   3.040   0.969 -0.2001  0.2570 -0.2105
 4042SOL    HW123585   2.538   3.017   0.973 -0.2749 -0.3468 -2.1501
 4042SOL    HW223586   2.442   3.112   1.033  0.5521 -0.8603  1.0854
 4043SOL     OW23587   3.361   1.771   4.461  0.0605 -0.3871  0.0174
 4043SOL    HW123588   3.421   1.840   4.433  0.1417 -0.5234 -0.1406
 4043SOL    HW223589   3.325   1.733   4.382 -0.1934 -0.1406  0.0148
 4044SOL     OW23590   1.496   3.652   4.998 -0.1243  0.0811  0.7053
 4044SOL    HW123591   1.523   3.585   5.061 -1.9683 -1.0618  0.2804
 4044SOL    HW223592   1.577   3.679   4.954  0.2176 -2.1936 -0.0388
 4045SOL     OW23593   1.071   2.878  16.811 -0.3470  0.1068 -0.3477
 4045SOL    HW123594   1.049   2.856  16.902  2.3244 -0.3263  0.1797
 4045SOL    HW223595   1.166   2.876  16.809 -0.3474 -1.3725  0.8597
 4046SOL     OW23596   3.784   3.009   5.715  0.1721 -0.1438  0.1557
 4046SOL    HW123597   3.821   3.023   5.628  1.5683 -0.1736  0.7307
 4046SOL    HW223598   3.709   2.953   5.696 -0.0971  1.1972 -2.7969
 4047SOL     OW23599   4.131   2.743   7.807 -0.8960 -0.2730  0.1422
 4047SOL    HW123600   4.088   2.688   7.741 -0.7413  0.1441 -0.3131
 4047SOL    HW223601   4.224   2.725   7.789 -1.4990 -2.4964 -0.8419
 4048SOL     OW23602   2.774   2.694  10.595 -0.3351 -0.0798 -0.4925
 4048SOL    HW123603   2.790   2.600  10.601  4.1414  0.7512  0.9470
 4048SOL    HW223604   2.784   2.726  10.685  0.0765  0.9903 -0.9202
 4049SOL     OW23605   0.256   1.533   3.968 -0.3692  0.5658 -0.2545
 4049SOL    HW123606   0.227   1.447   3.997 -1.9134  0.1537 -3.0825
 4049SOL    HW223607   0.235   1.597   4.037 -1.1162 -0.4042  0.4170
 4050SOL     OW23608   1.112   0.277   5.833 -0.2526  0.2874 -0.4794
 4050SOL    HW123609   1.124   0.186   5.805 -1.2307 -0.5015  1.6191
 4050SOL    HW223610   1.141   0.280   5.924 -1.7739 -0.9566  0.0362
 4051SOL     OW23611   4.323   4.409  12.650 -0.5976  0.0865 -0.2436
 4051SOL    HW123612   4.317   4.366  12.565 -1.8705  0.2717 -0.2403
 4051SOL    HW223613   4.354   4.332  12.699 -0.5064  0.2810  0.0057
 4052SOL     OW23614   2.530   0.958   2.552  0.3346  0.0208 -0.4601
 4052SOL    HW123615   2.458   0.899   2.530 -2.1509  2.5506  0.9815
 4052SOL    HW223616   2.603   0.896   2.544  0.7618  0.4159  0.4053
 4053SOL     OW23617   1.012   0.122   7.453 -0.4996  0.4517  0.2409
 4053SOL    HW123618   0.978   0.035   7.473  1.7482 -0.8611 -1.5016
 4053SOL    HW223619   1.012   0.165   7.538 -2.5870  1.6225 -0.3649
 4054SOL     OW23620   0.199   1.681   8.054 -0.1633  0.2203 -0.0862
 4054SOL    HW123621   0.144   1.753   8.025 -1.3094  0.1247  1.8257
 4054SOL    HW223622   0.182   1.618   7.984 -0.5508  0.9244 -0.6175
 4055SOL     OW23623   3.160   3.989   1.677  0.4203 -0.1320  0.1566
 4055SOL    HW123624   3.151   3.928   1.604  0.5862  0.6836 -0.5449
 4055SOL    HW223625   3.250   3.978   1.708  0.9821 -3.2068 -2.4665
 4056SOL     OW23626   1.845   4.435  11.610 -0.0881 -0.2445  0.0916
 4056SOL    HW123627   1.937   4.417  11.628  0.3476  0.6920 -1.1454
 4056SOL    HW223628   1.808   4.447  11.697  0.2246  3.5472 -0.3043
 4057SOL     OW23629   0.566   2.933   4.114  0.5455  0.1720  0.0983
 4057SOL    HW123630   0.538   2.994   4.046  1.6011  0.2408 -0.2742
 4057SOL    HW223631   0.486   2.881   4.114  1.0839 -0.6415  0.1993
 4058SOL     OW23632   1.373   3.094   3.609 -0.4209  1.0144 -0.3715
 4058SOL    HW123633   1.340   3.025   3.667  3.0313 -0.5394 -0.2854
 4058SOL    HW223634   1.422   3.053   3.537  0.9294 -0.8729  1.6129
 4059SOL     OW23635   0.041   2.197   7.126  0.5139 -0.1169  0.2385
 4059SOL    HW123636   0.083   2.281   7.109  1.0802 -0.2439  1.0297
 4059SOL    HW223637   0.055   2.179   7.219 -1.6970  0.5456  0.7151
 4060SOL     OW23638   4.423   3.127  14.498 -0.1718 -0.0042  0.2295
 4060SOL    HW123639   4.365   3.119  14.423  1.6296  2.2344 -1.4345
 4060SOL    HW223640   4.372   3.090  14.569  0.5972  2.5692  2.1439
 4061SOL     OW23641   2.867   3.929   5.548  0.0972 -0.3780  0.0849
 4061SOL    HW123642   2.913   3.847   5.567  1.0297  0.7927  2.8999
 4061SOL    HW223643   2.928   3.996   5.580  1.4102 -0.8975 -1.2991
 4062SOL     OW23644   2.120   3.592   2.804  0.1876  1.1427 -0.3437
 4062SOL    HW123645   2.156   3.679   2.792  1.5149 -0.0158 -4.8263
 4062SOL    HW223646   2.194   3.535   2.824 -0.6065  0.5948  1.0492
 4063SOL     OW23647   4.657   3.229  15.219 -0.7496  0.2516 -0.7024
 4063SOL    HW123648   4.602   3.284  15.164 -0.4052  2.3321  1.0605
 4063SOL    HW223649   4.630   3.140  15.194  0.8120 -0.3684 -0.2278
 4064SOL     OW23650   3.875   2.469   7.320  0.2642  0.3504  0.1329
 4064SOL    HW123651   3.936   2.519   7.264 -0.8538  1.8542  0.2604
 4064SOL    HW223652   3.932   2.397   7.345 -0.1277  0.2512  0.7303
 4065SOL     OW23653   1.268   0.213   3.921  0.2202  0.3446 -0.1881
 4065SOL    HW123654   1.355   0.229   3.886  0.0058 -1.5093 -1.5711
 4065SOL    HW223655   1.263   0.122   3.893  0.7815  0.3362 -0.2471
 4066SOL     OW23656   2.976   0.886   8.412  0.2480 -0.6108 -0.5979
 4066SOL    HW123657   3.055   0.866   8.462 -0.3937 -1.5578  0.0397
 4066SOL    HW223658   3.003   0.949   8.345 -0.7726  1.3564  0.8367
 4067SOL     OW23659   1.014   1.667   0.232  0.4862 -0.2908 -0.3268
 4067SOL    HW123660   0.938   1.722   0.249  0.5079 -0.2221 -0.4547
 4067SOL    HW223661   1.053   1.724   0.166 -1.6821  0.8385 -0.6336
 4068SOL     OW23662   1.989   3.274   8.586 -0.1139  0.3764  0.4162
 4068SOL    HW123663   2.021   3.185   8.594 -1.4172 -0.2668 -1.5565
 4068SOL    HW223664   2.010   3.304   8.675 -0.7353  1.3449  0.2386
 4069SOL     OW23665   2.301   0.245  10.293 -0.7381 -0.3738 -0.7558
 4069SOL    HW123666   2.361   0.246  10.367 -0.6104  0.4404 -0.8728
 4069SOL    HW223667   2.287   0.153  10.267  1.2187 -0.5453 -1.2576
 4070SOL     OW23668   4.002   1.247   8.842  0.3265  0.3835  0.2054
 4070SOL    HW123669   3.988   1.338   8.815 -0.6420  0.3222  0.4836
 4070SOL    HW223670   3.924   1.210   8.885 -0.0540 -1.2277 -1.8945
 4071SOL     OW23671   2.070   2.966  14.929  0.5587  0.5228 -0.2069
 4071SOL    HW123672   2.052   3.036  14.867 -0.2888  2.1312  1.8363
 4071SOL    HW223673   1.993   2.943  14.982  1.5716  0.7415  1.3636
 4072SOL     OW23674   4.626   0.999   8.883  0.0553 -0.1538  0.2402
 4072SOL    HW123675   4.697   0.938   8.866 -0.4526 -0.4605 -0.7723
 4072SOL    HW223676   4.556   0.934   8.892  0.4124 -0.9457 -2.9265
 4073SOL     OW23677   0.386   3.038   4.816 -0.1848  0.5041 -0.6506
 4073SOL    HW123678   0.331   3.059   4.891 -0.2104 -1.4568 -0.1170
 4073SOL    HW223679   0.428   2.958   4.847 -2.9001 -1.0864 -1.0121
 4074SOL     OW23680   1.895   3.154  16.200  0.3012 -0.4238 -0.5683
 4074SOL    HW123681   1.873   3.201  16.280 -0.3952  0.0180 -1.0196
 4074SOL    HW223682   1.989   3.147  16.217  0.1137 -1.6867 -0.0480
 4075SOL     OW23683   2.188   1.881   2.620  0.5801  0.5879  0.0017
 4075SOL    HW123684   2.193   1.846   2.709 -1.0511  0.4076  0.0198
 4075SOL    HW223685   2.094   1.887   2.606  0.6212  3.7932  1.1503
 4076SOL     OW23686   0.844   1.037   0.887 -0.3637  0.0841 -0.1876
 4076SOL    HW123687   0.875   0.959   0.932  0.6486  1.2329  1.1151
 4076SOL    HW223688   0.749   1.027   0.879 -0.3062  0.0355 -0.7941
 4077SOL     OW23689   3.751   3.595   4.743 -0.2286 -0.2880  0.0407
 4077SOL    HW123690   3.787   3.581   4.656 -1.8540  0.8474 -0.7949
 4077SOL    HW223691   3.692   3.669   4.731  1.5155  1.0883 -0.0652
 4078SOL     OW23692   1.870   0.035  12.847 -0.1119  0.2105 -0.2515
 4078SOL    HW123693   1.879   4.672  12.887 -0.7281  0.3959  0.2924
 4078SOL    HW223694   1.949   0.081  12.876 -1.2402  1.4693  0.8356
 4079SOL     OW23695   3.155   0.387   7.988  0.7009  0.4256  0.2974
 4079SOL    HW123696   3.149   0.477   8.017 -0.7484  0.2511  0.4997
 4079SOL    HW223697   3.132   0.402   7.896 -0.8732 -1.9568  0.3009
 4080SOL     OW23698   0.252   4.137  13.422 -0.0553  0.0126 -0.0745
 4080SOL    HW123699   0.341   4.163  13.399  0.2712 -0.2397  0.8855
 4080SOL    HW223700   0.200   4.196  13.367 -1.4388  2.4196  3.7892
 4081SOL     OW23701   0.335   3.362   0.986 -0.2276 -0.8072  0.0858
 4081SOL    HW123702   0.321   3.408   0.903  0.1065 -0.2870  0.3138
 4081SOL    HW223703   0.248   3.325   1.002  0.9988 -3.3115  0.9239
 4082SOL     OW23704   3.451   3.147   4.912  0.1489  0.2709  0.3134
 4082SOL    HW123705   3.462   3.242   4.917  0.1889  0.4723 -3.3258
 4082SOL    HW223706   3.416   3.133   5.000 -2.4851  1.0862 -0.5804
 4083SOL     OW23707   2.951   1.511   6.718  0.1180  0.2193  0.5784
 4083SOL    HW123708   2.919   1.587   6.766 -0.6952  0.4437 -0.3137
 4083SOL    HW223709   3.030   1.491   6.768 -0.6103 -1.7260  0.9760
 4084SOL     OW23710   3.063   3.186   6.930 -0.8002  0.4306 -0.2533
 4084SOL    HW123711   3.115   3.162   6.853  0.7493  2.6383  0.1015
 4084SOL    HW223712   2.975   3.166   6.896 -0.5915  0.0737 -0.5926
 4085SOL     OW23713   2.579   2.335  14.735 -0.2150 -0.6078 -0.3189
 4085SOL    HW123714   2.558   2.373  14.821  2.0788 -1.3220  0.5522
 4085SOL    HW223715   2.494   2.318  14.694 -0.8419 -0.2359  0.8193
 4086SOL     OW23716   2.029   3.181  14.787 -0.1180  0.7319 -0.2911
 4086SOL    HW123717   1.975   3.184  14.708  0.9615 -0.5498 -1.0732
 4086SOL    HW223718   1.979   3.239  14.845 -1.8782 -0.0330 -1.0501
 4087SOL     OW23719   1.904   3.502   4.055 -0.1079  0.0757  0.2360
 4087SOL    HW123720   1.924   3.488   3.963 -2.6790  0.5221 -0.3869
 4087SOL    HW223721   1.951   3.585   4.066 -0.6523  0.1696  1.8991
 4088SOL     OW23722   3.501   0.882   4.957 -0.2776  0.5999  0.2758
 4088SOL    HW123723   3.447   0.916   4.886 -2.4690 -0.5248  1.4213
 4088SOL    HW223724   3.464   0.795   4.969  0.7007 -0.0235 -1.2051
 4089SOL     OW23725   2.607   1.694   8.826  0.4538 -0.5496 -0.0014
 4089SOL    HW123726   2.675   1.756   8.851  2.2746 -3.1011  1.3878
 4089SOL    HW223727   2.589   1.664   8.915  1.5565  1.3748  0.8576
 4090SOL     OW23728   3.543   0.860   9.321  0.6035  0.1269 -0.3189
 4090SOL    HW123729   3.499   0.890   9.401  0.7980 -0.3618 -0.0319
 4090SOL    HW223730   3.623   0.832   9.366  1.2527  0.4071 -1.2778
 4091SOL     OW23731   4.010   0.970   1.801  0.1615  0.4518  0.1086
 4091SOL    HW123732   3.917   0.965   1.779  0.0675  1.1198  0.3640
 4091SOL    HW223733   4.055   0.953   1.718 -2.8742  1.9318 -1.8313
 4092SOL     OW23734   3.886   3.325  17.035  0.0167  0.5887 -0.3144
 4092SOL    HW123735   3.854   3.250  16.984 -1.0065  0.7999  0.0055
 4092SOL    HW223736   3.935   3.283  17.106 -2.8352 -3.2621 -0.5938
 4093SOL     OW23737   1.303   3.570   2.823 -0.6961 -0.2969  0.3485
 4093SOL    HW123738   1.331   3.509   2.755 -0.9582 -1.6357  1.4251
 4093SOL    HW223739   1.391   3.606   2.838 -0.3359 -1.1366  0.2927
 4094SOL     OW23740   2.977   3.233   3.729 -0.1992  0.1991  0.3018
 4094SOL    HW123741   2.945   3.311   3.774  1.6577 -0.2199  2.3477
 4094SOL    HW223742   3.066   3.264   3.717  1.0293 -3.0936  0.8784
 4095SOL     OW23743   3.292   2.491  15.063 -0.2062 -0.2611 -0.1979
 4095SOL    HW123744   3.378   2.455  15.041 -0.3205 -1.0099  0.5953
 4095SOL    HW223745   3.240   2.442  14.999 -1.4099 -2.0079  2.1284
 4096SOL     OW23746   0.419   0.358   0.094 -0.6165 -0.1073 -0.1529
 4096SOL    HW123747   0.497   0.306   0.075  0.2971  1.5847 -0.9491
 4096SOL    HW223748   0.377   0.296   0.155 -0.3790 -1.5615 -1.4731
 4097SOL     OW23749   0.078   1.292   4.033  0.2274 -0.6303 -0.0467
 4097SOL    HW123750   0.066   1.199   4.018  2.1836 -0.4243 -2.7721
 4097SOL    HW223751   0.016   1.313   4.103  0.7029  0.4373  0.0600
 4098SOL     OW23752   1.468   3.164   4.655  0.0494  0.0888 -0.3286
 4098SOL    HW123753   1.441   3.073   4.641 -0.2190 -0.0054  0.8231
 4098SOL    HW223754   1.529   3.149   4.727  0.0698 -1.2355 -0.6250
 4099SOL     OW23755   3.472   0.370  15.854 -0.3350  0.4968  0.1920
 4099SOL    HW123756   3.475   0.291  15.800  0.9050  1.3083 -0.9038
 4099SOL    HW223757   3.506   0.443  15.803  0.1317  0.7392  0.8601
 4100SOL     OW23758   2.195   0.336   5.863  0.0175 -0.3465  0.3518
 4100SOL    HW123759   2.147   0.287   5.930 -1.7889  1.9305  0.7450
 4100SOL    HW223760   2.232   0.277   5.798 -2.2142 -0.3024 -0.9222
 4101SOL     OW23761   3.459   0.566   2.922  0.1225 -0.0836 -0.3784
 4101SOL    HW123762   3.545   0.548   2.886 -1.4742 -0.2672 -4.0922
 4101SOL    HW223763   3.449   0.495   2.986 -1.4690  1.1687  0.7745
 4102SOL     OW23764   2.735   3.522   8.506  0.6774 -0.1297 -0.0596
 4102SOL    HW123765   2.690   3.495   8.426 -0.7856  1.1043  0.3399
 4102SOL    HW223766   2.800   3.454   8.523  0.4530 -0.9026 -2.3402
 4103SOL     OW23767   1.270   2.568   6.372  0.5694  0.2261 -0.6051
 4103SOL    HW123768   1.199   2.513   6.403  0.1856  1.1465  0.1586
 4103SOL    HW223769   1.252   2.648   6.422 -2.1814  1.7743 -3.9793
 4104SOL     OW23770   0.185   0.903   4.834  0.0370  0.1915  0.0043
 4104SOL    HW123771   0.240   0.834   4.797  0.1029  1.2429 -1.9267
 4104SOL    HW223772   0.166   0.950   4.752  0.3785 -0.6213 -0.5380
 4105SOL     OW23773   2.918   2.587   6.907  0.3913 -0.6639 -0.4472
 4105SOL    HW123774   2.961   2.655   6.856  1.0859  1.9599  3.5762
 4105SOL    HW223775   2.833   2.630   6.920  1.4204  0.7686  1.5142
 4106SOL     OW23776   2.496   3.196   8.649 -0.1461  0.7257 -0.1155
 4106SOL    HW123777   2.464   3.275   8.608  0.3679  1.1732  0.3458
 4106SOL    HW223778   2.527   3.148   8.572  0.4681 -1.8338  1.7123
 4107SOL     OW23779   0.427   3.737  11.929 -0.0648  0.4562 -0.0826
 4107SOL    HW123780   0.447   3.650  11.895  2.0981  0.9476 -0.0185
 4107SOL    HW223781   0.339   3.720  11.962  0.3669 -2.6513 -0.5349
 4108SOL     OW23782   0.964   3.021  12.927 -0.0104 -0.0685 -0.2809
 4108SOL    HW123783   0.894   2.975  12.973 -1.4666 -0.4793 -2.8963
 4108SOL    HW223784   1.006   2.945  12.885  1.1524  0.4394 -0.0317
 4109SOL     OW23785   3.199   1.061   3.844  0.0417  0.3101 -0.5961
 4109SOL    HW123786   3.240   1.058   3.930 -1.6569  0.8368  0.2239
 4109SOL    HW223787   3.272   1.061   3.781 -0.3972  1.3004 -1.0891
 4110SOL     OW23788   4.171   0.760   4.119  0.2622 -0.0460  0.2468
 4110SOL    HW123789   4.184   0.720   4.033 -1.0891 -0.7520  0.3656
 4110SOL    HW223790   4.162   0.851   4.090  2.0059 -0.3285 -1.1779
 4111SOL     OW23791   1.148   2.150  15.077  0.2712  0.5787 -0.5224
 4111SOL    HW123792   1.224   2.204  15.099  0.3269  0.1336  0.3619
 4111SOL    HW223793   1.185   2.073  15.033 -0.7623 -0.1449 -0.1174
 4112SOL     OW23794   0.838   1.801   1.031 -0.0307 -0.4876  0.1001
 4112SOL    HW123795   0.873   1.715   1.054  0.4366 -0.2099  0.4233
 4112SOL    HW223796   0.823   1.830   1.121 -0.8877 -0.2750 -0.1104
 4113SOL     OW23797   2.843   1.929   2.820  0.0178  0.2263 -0.2999
 4113SOL    HW123798   2.821   1.903   2.731 -0.8836 -1.4900  0.4306
 4113SOL    HW223799   2.800   2.014   2.830  0.6461  0.4651  0.4000
 4114SOL     OW23800   3.606   2.972  10.071  0.4591  0.3289 -0.0707
 4114SOL    HW123801   3.535   3.001  10.013  1.3004  1.0837 -0.7157
 4114SOL    HW223802   3.567   2.901  10.123  0.7820 -1.4576 -2.2437
 4115SOL     OW23803   1.589   2.981   3.887 -0.4301  0.2678 -0.1755
 4115SOL    HW123804   1.621   2.965   3.798 -0.0223  2.0915 -0.3536
 4115SOL    HW223805   1.669   3.021   3.919  0.1139 -0.4425 -0.6227
 4116SOL     OW23806   1.426   3.076  10.258 -0.2784 -0.2228  0.3502
 4116SOL    HW123807   1.386   3.062  10.172 -1.2707  1.8894  0.4785
 4116SOL    HW223808   1.391   3.163  10.277 -1.7129 -0.7433  0.0904
 4117SOL     OW23809   2.715   0.443  10.661  0.5897 -0.3791 -0.3885
 4117SOL    HW123810   2.760   0.379  10.716  2.1397  0.5420 -0.5819
 4117SOL    HW223811   2.624   0.416  10.673 -0.4521  3.8778  1.2748
 4118SOL     OW23812   2.302   0.456   4.189 -0.2124 -0.3649  0.8295
 4118SOL    HW123813   2.228   0.476   4.133  0.3714 -3.2724 -0.9787
 4118SOL    HW223814   2.308   0.537   4.240  1.2532  0.6575 -1.0137
 4119SOL     OW23815   3.417   0.832  16.844 -0.6322  0.3895  0.0460
 4119SOL    HW123816   3.437   0.854  16.753 -0.1828 -0.6041 -0.0890
 4119SOL    HW223817   3.481   0.761  16.846 -0.4431  0.5978  1.4455
 4120SOL     OW23818   3.258   3.083   2.804  0.2988 -0.1228  0.4372
 4120SOL    HW123819   3.167   3.092   2.778  0.3042  0.2712  0.5541
 4120SOL    HW223820   3.311   3.108   2.729 -0.9271 -0.1928 -0.4486
 4121SOL     OW23821   1.555   1.201  16.593 -0.1228  0.2428  0.1206
 4121SOL    HW123822   1.608   1.164  16.523 -0.5570 -0.4332  0.1552
 4121SOL    HW223823   1.514   1.278  16.553 -0.8540 -0.9121 -1.3582
 4122SOL     OW23824   0.894   1.082   2.559 -0.1972  0.0974  0.1133
 4122SOL    HW123825   0.902   0.988   2.543 -0.7235  0.0728 -0.0033
 4122SOL    HW223826   0.799   1.095   2.569 -0.2346 -0.1001  0.0051
 4123SOL     OW23827   2.784   2.797   6.361 -0.3111  0.2369  0.4876
 4123SOL    HW123828   2.722   2.867   6.379 -1.4537 -0.9965  1.3952
 4123SOL    HW223829   2.775   2.744   6.440 -0.0651 -0.3265  0.1439
 4124SOL     OW23830   2.819   0.686   8.313  0.2888  0.1911  0.1492
 4124SOL    HW123831   2.891   0.689   8.376  1.0168 -0.0771 -0.6582
 4124SOL    HW223832   2.782   0.775   8.312  0.6398  0.3435  0.9117
 4125SOL     OW23833   2.157   2.921  11.684 -0.3071  0.2818  0.1870
 4125SOL    HW123834   2.117   2.843  11.646  1.2015  0.1068 -1.0680
 4125SOL    HW223835   2.088   2.987  11.680  0.9378  1.6785  1.8833
 4126SOL     OW23836   4.251   1.280   2.470 -0.1348 -0.2702  0.1055
 4126SOL    HW123837   4.269   1.374   2.474 -1.2878 -0.0689  0.6515
 4126SOL    HW223838   4.162   1.267   2.438 -0.7558  0.8802  1.3310
 4127SOL     OW23839   3.923   3.717   6.045 -0.1846  0.0012  0.2371
 4127SOL    HW123840   3.994   3.701   5.982 -0.0697 -0.5102  0.4947
 4127SOL    HW223841   3.885   3.630   6.053 -0.6406  0.2493  0.7498
 4128SOL     OW23842   3.737   3.188  10.202 -0.0023  0.1409  0.2401
 4128SOL    HW123843   3.720   3.112  10.146  0.6623  0.5316 -0.5056
 4128SOL    HW223844   3.664   3.245  10.177  0.5458  0.2616 -1.0925
 4129SOL     OW23845   1.932   0.313  12.629  0.3703  0.2150 -0.6283
 4129SOL    HW123846   1.913   0.277  12.716  3.0872 -1.0800 -0.5533
 4129SOL    HW223847   1.946   0.226  12.591  2.0945  0.9993 -1.7975
 4130SOL     OW23848   4.256   3.900   2.182 -0.3337 -0.2282  0.6615
 4130SOL    HW123849   4.207   3.882   2.262  1.4566 -3.2991  1.0938
 4130SOL    HW223850   4.342   3.859   2.195 -0.6678 -1.2636 -0.3779
 4131SOL     OW23851   4.243   1.433  10.704  0.3415  0.4551  0.1561
 4131SOL    HW123852   4.174   1.388  10.655  0.7983 -0.2070  0.1351
 4131SOL    HW223853   4.250   1.366  10.771 -2.9600  1.9094  1.9667
 4132SOL     OW23854   2.363   1.659   5.750  0.5263  0.8160 -0.3600
 4132SOL    HW123855   2.423   1.601   5.703 -2.3447 -0.9436 -1.8677
 4132SOL    HW223856   2.384   1.742   5.707  2.2413  0.3524 -0.4076
 4133SOL     OW23857   3.264   3.239   2.233  1.2008  0.2164  0.0551
 4133SOL    HW123858   3.243   3.276   2.148 -0.4500 -2.3403 -0.6475
 4133SOL    HW223859   3.208   3.294   2.288 -0.1836 -0.4782 -0.6736
 4134SOL     OW23860   1.695   4.032  12.750  0.2394 -0.3239 -0.5027
 4134SOL    HW123861   1.787   4.035  12.776  0.2981  0.2392 -0.7811
 4134SOL    HW223862   1.679   3.938  12.738  3.3118 -0.9331  0.2387
 4135SOL     OW23863   1.554   2.089   5.526  0.0551  0.8173  0.0025
 4135SOL    HW123864   1.499   2.012   5.537  3.1664 -1.3857  0.0028
 4135SOL    HW223865   1.579   2.071   5.435  1.1769 -0.8314  0.6453
 4136SOL     OW23866   1.267   3.777   1.300  0.1827 -0.2973 -0.0942
 4136SOL    HW123867   1.212   3.855   1.290  2.3793  1.4501  1.3322
 4136SOL    HW223868   1.351   3.803   1.262  1.3936 -2.1442  1.3372
 4137SOL     OW23869   3.708   0.441  12.660 -0.7725  0.5262 -0.1153
 4137SOL    HW123870   3.757   0.366  12.627 -0.6124  0.5532  0.0571
 4137SOL    HW223871   3.769   0.511  12.636  1.9200 -0.7738  2.9237
 4138SOL     OW23872   4.585   2.658  17.340  0.4151  0.5710  0.2964
 4138SOL    HW123873   4.530   2.640  17.417 -0.1806  0.3913 -0.1659
 4138SOL    HW223874   4.644   2.584  17.331 -0.2503  0.2143 -1.1113
 4139SOL     OW23875   3.984   0.156   5.660 -0.1643 -0.5353 -0.2771
 4139SOL    HW123876   3.979   0.191   5.571 -1.8693 -1.4818 -0.5529
 4139SOL    HW223877   4.059   0.205   5.695 -2.4946  1.6077  1.6382
 4140SOL     OW23878   4.639   2.763   5.901  0.0910  0.1422 -0.3894
 4140SOL    HW123879   4.586   2.842   5.910 -1.2613 -1.0781  2.0723
 4140SOL    HW223880   4.711   2.780   5.963  0.0776  2.0396 -0.8879
 4141SOL     OW23881   3.127   0.727   3.043 -0.1095  0.0013  0.1022
 4141SOL    HW123882   3.211   0.738   2.998  0.3226 -3.8238 -0.0367
 4141SOL    HW223883   3.091   0.815   3.048  1.0330  0.3200  2.7534
 4142SOL     OW23884   4.171   2.118  13.753 -0.3289 -0.3253  0.1275
 4142SOL    HW123885   4.128   2.154  13.831  0.0968 -0.9654  0.6570
 4142SOL    HW223886   4.176   2.185  13.686 -1.8686 -2.7251 -2.4073
 4143SOL     OW23887   1.496   2.203   4.923 -0.0727 -0.3889 -0.1413
 4143SOL    HW123888   1.540   2.118   4.912 -1.3874 -1.0878  0.0272
 4143SOL    HW223889   1.411   2.170   4.954 -0.7420  1.1218 -0.3919
 4144SOL     OW23890   3.288   3.455   2.773  0.0078 -0.1093 -0.1203
 4144SOL    HW123891   3.333   3.536   2.798 -0.8630  1.0216 -2.1919
 4144SOL    HW223892   3.329   3.400   2.840 -0.4115  0.4197  0.5665
 4145SOL     OW23893   0.555   1.104   9.804 -0.2749 -0.0031  0.3754
 4145SOL    HW123894   0.463   1.094   9.779 -0.3939  0.1521  0.7587
 4145SOL    HW223895   0.575   1.023   9.851  2.5392  1.1063  1.0451
 4146SOL     OW23896   2.851   2.180   3.579 -0.0554  0.1513 -0.2103
 4146SOL    HW123897   2.863   2.269   3.610 -0.9418  0.5127 -0.9135
 4146SOL    HW223898   2.937   2.140   3.593 -0.8126  0.1001  4.1931
 4147SOL     OW23899   1.817   0.562   1.729 -0.1617 -0.4605 -0.2435
 4147SOL    HW123900   1.806   0.641   1.675 -0.5000 -1.5455 -1.7653
 4147SOL    HW223901   1.748   0.574   1.793  2.2847  1.2212  2.0744
 4148SOL     OW23902   4.547   3.048  13.054 -0.0358  0.0245 -0.3213
 4148SOL    HW123903   4.549   3.100  13.134  0.6577  0.1797 -0.4388
 4148SOL    HW223904   4.494   3.111  13.006  1.4483 -0.3281 -2.4287
 4149SOL     OW23905   0.486   3.582  13.182  0.2749 -0.1683 -0.0549
 4149SOL    HW123906   0.569   3.623  13.207  0.0010  0.2089  0.2351
 4149SOL    HW223907   0.486   3.502  13.234 -0.0268 -1.3266 -1.8301
 4150SOL     OW23908   2.793   3.111   2.550  0.2170  0.4379  0.3032
 4150SOL    HW123909   2.749   3.032   2.583  1.1954 -0.9538 -1.7035
 4150SOL    HW223910   2.763   3.117   2.460  0.8289  2.5549  0.2447
 4151SOL     OW23911   3.208   2.097  16.294  1.0303  0.8225  0.2682
 4151SOL    HW123912   3.196   2.083  16.200 -1.6840  1.2972  0.5609
 4151SOL    HW223913   3.213   2.192  16.296  0.0844  0.9288 -1.7443
 4152SOL     OW23914   4.003   0.246   8.379 -0.8759  0.0298 -0.1255
 4152SOL    HW123915   4.072   0.183   8.361  1.5096  1.8974  2.3604
 4152SOL    HW223916   3.964   0.208   8.458  0.6848 -1.2586  0.0366
 4153SOL     OW23917   0.248   2.134   8.859 -0.9324  0.7025 -0.0490
 4153SOL    HW123918   0.291   2.148   8.943  0.5119 -1.6849 -0.3786
 4153SOL    HW223919   0.261   2.218   8.817  0.8554 -0.2136 -1.3342
 4154SOL     OW23920   1.159   2.771   5.316 -0.7155 -0.6208 -0.4172
 4154SOL    HW123921   1.215   2.698   5.344  1.1625  0.7933 -0.4723
 4154SOL    HW223922   1.147   2.759   5.222  0.8938 -0.3831 -0.6617
 4155SOL     OW23923   0.071   1.984   7.392 -0.1601  0.0382 -0.5269
 4155SOL    HW123924   0.163   1.962   7.396  0.0387  0.6647 -1.6329
 4155SOL    HW223925   0.083   2.078   7.406 -3.5468  0.4729 -0.4169
 4156SOL     OW23926   0.093   2.150   1.334  0.4385  0.0776 -0.1198
 4156SOL    HW123927   0.126   2.213   1.398 -2.6294  0.7118  0.8727
 4156SOL    HW223928   0.177   2.124   1.295 -0.4435 -1.5458 -0.9745
 4157SOL     OW23929   2.149   2.667  15.696 -0.3324  0.1790  0.3989
 4157SOL    HW123930   2.197   2.621  15.626 -1.1627  1.7716 -1.2135
 4157SOL    HW223931   2.200   2.646  15.774  1.6807  0.2757 -0.9068
 4158SOL     OW23932   0.907   1.140  11.165 -0.3540  0.7827  0.0249
 4158SOL    HW123933   0.966   1.065  11.174  2.0646  2.9494  2.0462
 4158SOL    HW223934   0.892   1.112  11.074  2.3769  0.7300 -0.3997
 4159SOL     OW23935   0.846   4.542   4.923  0.3936  0.0287  0.2411
 4159SOL    HW123936   0.844   4.634   4.950  2.1527 -0.1081  0.8371
 4159SOL    HW223937   0.935   4.521   4.951  1.3352  2.6859 -0.7626
 4160SOL     OW23938   0.382   1.692   2.951 -0.2990 -0.7552 -0.2588
 4160SOL    HW123939   0.417   1.611   2.914 -1.4951 -1.9731  1.2464
 4160SOL    HW223940   0.449   1.702   3.018 -1.2673  0.4337  0.5527
 4161SOL     OW23941   0.516   3.231  13.046 -0.1573  0.8346  0.1170
 4161SOL    HW123942   0.458   3.296  13.087 -1.3787  1.0803 -1.9850
 4161SOL    HW223943   0.492   3.249  12.955 -0.0087  0.9429  0.1006
 4162SOL     OW23944   1.885   0.926  10.945 -0.4948 -0.1615 -0.4124
 4162SOL    HW123945   1.974   0.906  10.916 -0.5715 -2.0383  0.6438
 4162SOL    HW223946   1.855   0.847  10.990  0.9827 -0.3826  0.1818
 4163SOL     OW23947   2.142   2.703  14.058 -0.1394 -0.0700  0.2482
 4163SOL    HW123948   2.181   2.715  13.971 -1.0493  2.2023  0.1420
 4163SOL    HW223949   2.222   2.705  14.110  0.2893 -1.3916 -0.3662
 4164SOL     OW23950   3.714   3.196   7.829  0.1032  0.4846  0.0562
 4164SOL    HW123951   3.644   3.133   7.808 -0.8985  2.1492 -1.6131
 4164SOL    HW223952   3.700   3.251   7.752 -0.8335 -2.4685 -1.9155
 4165SOL     OW23953   2.304   0.211   4.673  0.3276 -0.5300 -0.0344
 4165SOL    HW123954   2.220   0.229   4.715  0.3454 -0.9536  0.1886
 4165SOL    HW223955   2.285   0.246   4.586  1.4509 -0.3463 -0.2136
 4166SOL     OW23956   4.231   0.546  16.238  0.1758  0.4418  0.0373
 4166SOL    HW123957   4.254   0.464  16.196  0.6405 -0.2608  1.6375
 4166SOL    HW223958   4.197   0.514  16.322  0.9219 -0.0573  0.1473
 4167SOL     OW23959   3.300   3.249  10.112  0.3146 -0.3581 -0.0144
 4167SOL    HW123960   3.269   3.289  10.031  0.5668  2.8887  1.4872
 4167SOL    HW223961   3.232   3.283  10.170 -1.2097 -1.4061 -1.1949
 4168SOL     OW23962   0.662   3.244   9.078 -0.2830  0.1924  0.1611
 4168SOL    HW123963   0.626   3.155   9.083 -1.1175  0.5742  0.9687
 4168SOL    HW223964   0.580   3.294   9.078 -1.1556 -1.2461  0.6195
 4169SOL     OW23965   3.713   0.301   9.136  0.0685  0.1255 -0.0963
 4169SOL    HW123966   3.757   0.281   9.219 -1.2152  0.2631  0.6175
 4169SOL    HW223967   3.775   0.282   9.066  1.3274  0.8243  0.8235
 4170SOL     OW23968   4.063   2.785   7.483 -0.3615  0.0912  0.2610
 4170SOL    HW123969   4.002   2.771   7.411 -0.3416 -0.4102  0.3386
 4170SOL    HW223970   4.058   2.699   7.526 -0.5505  0.4834  1.0208
 4171SOL     OW23971   2.498   1.660   2.774 -0.0600 -0.3739 -1.0158
 4171SOL    HW123972   2.485   1.709   2.693 -2.7953  0.2327 -0.1923
 4171SOL    HW223973   2.410   1.626   2.790  0.3129 -1.0105 -0.3088
 4172SOL     OW23974   1.502   1.993   4.604 -0.4139  0.2010  0.1109
 4172SOL    HW123975   1.512   1.957   4.516  1.7066  2.0619 -0.4138
 4172SOL    HW223976   1.408   1.997   4.624 -0.5944  1.2751 -0.9824
 4173SOL     OW23977   3.643   2.298  16.451 -0.1887  0.3553  0.0295
 4173SOL    HW123978   3.554   2.270  16.429  0.2565 -1.2259  0.2107
 4173SOL    HW223979   3.689   2.280  16.368 -0.5517 -1.5682  0.2335
 4174SOL     OW23980   4.218   3.104   8.541 -0.3513 -0.3170  0.1018
 4174SOL    HW123981   4.157   3.157   8.490 -0.3751  0.2705  0.7326
 4174SOL    HW223982   4.182   3.016   8.534 -0.6613 -0.2522  0.8864
 4175SOL     OW23983   2.985   3.914  13.035  0.2077  0.0109  0.0540
 4175SOL    HW123984   3.063   3.889  12.985 -0.3228 -0.2809 -0.6348
 4175SOL    HW223985   3.032   3.955  13.108  0.0558  0.3926 -0.0624
 4176SOL     OW23986   0.599   0.165   1.961 -0.0933 -0.1426 -0.1708
 4176SOL    HW123987   0.637   0.199   2.042  0.4996 -1.2841  0.0328
 4176SOL    HW223988   0.508   0.182   1.985 -1.0763 -0.1418 -3.9599
 4177SOL     OW23989   1.632   0.336   4.328 -0.2551  0.0620 -0.0959
 4177SOL    HW123990   1.613   0.283   4.250  1.6013  0.6822 -0.9634
 4177SOL    HW223991   1.616   0.266   4.391 -1.6229  1.8069  1.4940
 4178SOL     OW23992   0.469   2.070  10.825  0.1313  0.3566 -0.2365
 4178SOL    HW123993   0.538   2.019  10.868  1.7916  1.7468 -1.2413
 4178SOL    HW223994   0.443   2.109  10.908 -1.3466  1.4144 -1.1863
 4179SOL     OW23995   2.205   3.948  17.333 -0.0238  0.2883 -0.0441
 4179SOL    HW123996   2.171   4.026  17.289  1.0429 -1.2237 -3.5780
 4179SOL    HW223997   2.297   3.968  17.351 -0.1591  0.4074  0.5111
 4180SOL     OW23998   4.582   2.252   3.931  0.2324  0.8820  0.0846
 4180SOL    HW123999   4.664   2.226   3.890  0.2375 -1.1918  1.3795
 4180SOL    HW224000   4.554   2.333   3.888 -0.2356  0.6307 -0.0898
 4181SOL     OW24001   3.140   0.281   8.680 -0.2512  0.4761 -0.3028
 4181SOL    HW124002   3.200   0.210   8.705  0.0489  0.3931 -1.2545
 4181SOL    HW224003   3.055   0.244   8.702 -0.1346  1.2936  1.5075
 4182SOL     OW24004   3.842   2.857   9.794 -0.0375  0.2914 -0.6970
 4182SOL    HW124005   3.904   2.844   9.722  0.6632 -0.0795 -0.0417
 4182SOL    HW224006   3.776   2.796   9.763  0.0244  0.0156 -0.2958
 4183SOL     OW24007   3.471   3.114   9.084 -0.1714 -0.0768  0.4409
 4183SOL    HW124008   3.408   3.043   9.075 -0.5395  0.4096 -0.8618
 4183SOL    HW224009   3.418   3.192   9.099  2.5077  2.3845 -2.6051
 4184SOL     OW24010   0.739   2.111   0.685 -0.2775 -0.2078  0.7734
 4184SOL    HW124011   0.811   2.165   0.652 -0.9883 -0.0715 -0.5539
 4184SOL    HW224012   0.778   2.090   0.770  0.6671 -0.7045  0.2219
 4185SOL     OW24013   3.487   4.465  11.663  0.0912  0.3232  0.2867
 4185SOL    HW124014   3.548   4.513  11.606 -1.0190  4.1596  2.3170
 4185SOL    HW224015   3.403   4.485  11.621  0.8893  0.1729 -1.3792
 4186SOL     OW24016   0.501   4.700   3.158 -0.8298  0.0216  0.3399
 4186SOL    HW124017   0.440   4.642   3.205  0.2384 -0.3855  1.2118
 4186SOL    HW224018   0.572   4.717   3.220 -0.2341  0.3145 -0.4357
 4187SOL     OW24019   0.501   1.430   5.806 -0.2361 -0.4585  0.0624
 4187SOL    HW124020   0.419   1.406   5.849  0.1299  0.2630  1.1687
 4187SOL    HW224021   0.555   1.352   5.822  0.3826  0.2479  1.4524
 4188SOL     OW24022   1.965   4.514  13.443 -0.0123  0.3852 -0.1975
 4188SOL    HW124023   1.989   4.423  13.458  1.1278  0.8534  0.8333
 4188SOL    HW224024   1.884   4.508  13.394 -1.1558 -0.7210  1.8112
 4189SOL     OW24025   1.776   0.233   5.700 -0.0602  0.0470  0.0782
 4189SOL    HW124026   1.834   0.270   5.767  0.7775 -2.4602  0.7724
 4189SOL    HW224027   1.703   0.293   5.686 -0.3037 -0.2434  0.0895
 4190SOL     OW24028   4.337   0.484  14.411  0.1669  0.3643  0.2429
 4190SOL    HW124029   4.256   0.533  14.425  2.3130  3.6300  1.0289
 4190SOL    HW224030   4.332   0.422  14.484 -1.4714  0.5285  0.2846
 4191SOL     OW24031   1.755   1.209  11.447  0.3941  0.2395 -0.6427
 4191SOL    HW124032   1.807   1.184  11.370  1.8615  0.6991  0.2019
 4191SOL    HW224033   1.823   1.231  11.509  0.6981  1.3993 -1.3783
 4192SOL     OW24034   0.798   4.259  10.378  0.2186 -0.4436  0.2561
 4192SOL    HW124035   0.853   4.238  10.302 -1.0421  1.6814 -1.2517
 4192SOL    HW224036   0.735   4.188  10.369 -0.3281  0.0062  0.5771
 4193SOL     OW24037   1.266   2.035   9.213 -0.0868 -0.3185  0.8403
 4193SOL    HW124038   1.329   2.064   9.279 -1.2857  0.3417  1.6961
 4193SOL    HW224039   1.192   2.001   9.264  0.6361 -0.4570  1.7951
 4194SOL     OW24040   1.948   3.788   1.511  0.2748  0.3451 -0.5633
 4194SOL    HW124041   1.999   3.710   1.534 -1.5774 -0.1436  1.9059
 4194SOL    HW224042   1.950   3.785   1.416  2.3614  3.2885 -0.6181
 4195SOL     OW24043   3.434   1.478   9.119  0.1929  0.1134  0.0464
 4195SOL    HW124044   3.394   1.540   9.179 -3.8514  0.4268 -2.9996
 4195SOL    HW224045   3.510   1.528   9.090  1.1864  0.3533  3.0351
 4196SOL     OW24046   0.024   3.228  11.422  0.2342 -0.1422  0.3230
 4196SOL    HW124047   4.697   3.260  11.497  0.3558 -1.7495  1.1033
 4196SOL    HW224048   0.063   3.154  11.469 -0.3545  0.1195  1.2132
 4197SOL     OW24049   2.699   3.375   1.959  0.0347  0.6443 -0.2312
 4197SOL    HW124050   2.749   3.314   1.905 -0.3918  0.3201 -0.2661
 4197SOL    HW224051   2.612   3.341   1.938  0.2907  0.3173 -0.7360
 4198SOL     OW24052   2.283   3.495   7.479 -0.0724 -0.4194  0.2142
 4198SOL    HW124053   2.288   3.433   7.407  1.3921 -1.3926  1.1490
 4198SOL    HW224054   2.274   3.574   7.426 -1.8221 -2.2784 -2.2142
 4199SOL     OW24055   3.633   2.892   6.770 -0.3836 -0.0263 -0.5949
 4199SOL    HW124056   3.663   2.929   6.853  0.9769  2.9564 -2.4359
 4199SOL    HW224057   3.654   2.799   6.777  1.4320  0.5275  1.5126
 4200SOL     OW24058   4.672   2.421   8.206  0.0748  0.1601  0.0166
 4200SOL    HW124059   4.597   2.395   8.152  0.4489  1.7522 -1.2981
 4200SOL    HW224060   4.632   2.427   8.292  1.2934  1.2566  0.5186
 4201SOL     OW24061   3.295   0.482   3.999  0.4770  0.4791 -0.6300
 4201SOL    HW124062   3.216   0.430   4.014  0.6115  0.1465 -1.0824
 4201SOL    HW224063   3.326   0.510   4.085 -0.9494  0.7297 -0.1833
 4202SOL     OW24064   3.498   2.615   1.951 -0.0769 -0.2969  0.1986
 4202SOL    HW124065   3.430   2.568   1.904  1.0686 -0.2899 -1.4816
 4202SOL    HW224066   3.488   2.706   1.924 -0.6432  0.1975  2.1089
 4203SOL     OW24067   3.426   1.603   7.006  0.2144  0.7784  0.0116
 4203SOL    HW124068   3.503   1.574   6.956 -0.2723 -0.5674  0.0236
 4203SOL    HW224069   3.421   1.690   6.966  2.3800  1.6439  1.6179
 4204SOL     OW24070   0.490   1.185   6.191  0.2855  0.0525  0.5497
 4204SOL    HW124071   0.525   1.129   6.122 -1.5844 -2.1605  1.3933
 4204SOL    HW224072   0.513   1.131   6.266 -4.5132 -2.2562  0.3589
 4205SOL     OW24073   2.266   0.175   7.838 -0.5226 -0.1799  0.9773
 4205SOL    HW124074   2.295   0.196   7.749 -1.9537  0.9203  0.7525
 4205SOL    HW224075   2.269   0.080   7.832 -0.7926 -0.0171 -1.8692
 4206SOL     OW24076   0.668   1.530   6.806 -0.8465  0.4118  0.4478
 4206SOL    HW124077   0.593   1.518   6.865  0.3598 -2.3106  1.4214
 4206SOL    HW224078   0.624   1.583   6.740 -0.9853  0.4633  0.5790
 4207SOL     OW24079   1.120   1.717   7.108 -0.4504 -0.4514  0.3584
 4207SOL    HW124080   1.056   1.651   7.135  0.4930 -1.3877  0.2969
 4207SOL    HW224081   1.123   1.754   7.196  0.8568 -1.1030  0.5797
 4208SOL     OW24082   4.305   1.466   9.019 -0.2464  0.1732 -0.1061
 4208SOL    HW124083   4.249   1.389   9.009  1.7797 -1.3721  0.4417
 4208SOL    HW224084   4.390   1.427   8.996 -0.5690  0.8600 -2.4626
 4209SOL     OW24085   2.804   1.560  12.600 -0.6806  0.3404  0.2546
 4209SOL    HW124086   2.790   1.493  12.667  3.3256 -1.7201 -0.9695
 4209SOL    HW224087   2.763   1.515  12.527  1.8795 -0.3038 -0.7683
 4210SOL     OW24088   0.175   4.361   8.447 -0.1279 -0.5880 -0.2645
 4210SOL    HW124089   0.177   4.329   8.537 -0.1858 -0.7802 -0.3317
 4210SOL    HW224090   0.234   4.436   8.447 -0.2603 -0.4849  1.0336
 4211SOL     OW24091   1.587   4.217   3.515  0.5232  0.5270  0.6777
 4211SOL    HW124092   1.528   4.211   3.590  0.1870 -1.6484  0.2416
 4211SOL    HW224093   1.617   4.128   3.498  1.7303  1.1242 -0.3566
 4212SOL     OW24094   2.853   3.288   8.578 -0.3169 -0.2513  0.1936
 4212SOL    HW124095   2.881   3.219   8.638 -0.4613  0.4704  1.0842
 4212SOL    HW224096   2.854   3.241   8.494 -0.7836 -1.3402  0.7932
 4213SOL     OW24097   2.786   0.661   1.949 -0.2383  0.3622  0.4210
 4213SOL    HW124098   2.778   0.574   1.910 -1.4751 -0.0328  1.5323
 4213SOL    HW224099   2.713   0.705   1.906  0.4824  0.5278 -0.6097
 4214SOL     OW24100   4.402   0.510   3.281  0.4390 -0.1996 -0.5829
 4214SOL    HW124101   4.427   0.430   3.328 -2.2368 -1.0906 -0.6806
 4214SOL    HW224102   4.443   0.489   3.197 -2.6332  0.2043 -2.1882
 4215SOL     OW24103   3.386   0.155   6.567 -0.1186  0.2421  0.0580
 4215SOL    HW124104   3.387   0.135   6.661  0.7106 -0.6370 -0.1362
 4215SOL    HW224105   3.454   0.096   6.534  0.3387  0.7454  0.1031
 4216SOL     OW24106   1.905   0.466   9.889 -0.2827  0.1975  0.7439
 4216SOL    HW124107   1.950   0.426   9.815  0.3810  1.4099  0.5025
 4216SOL    HW224108   1.887   0.553   9.855  2.8362  0.1191 -1.1345
 4217SOL     OW24109   3.430   4.579   1.689 -0.9753  0.1093  0.0205
 4217SOL    HW124110   3.426   4.674   1.686 -0.9963  0.0868 -0.6278
 4217SOL    HW224111   3.397   4.542   1.607  2.2957 -0.9220 -0.8312
 4218SOL     OW24112   1.427   1.445   2.423 -0.6267  0.1880 -0.4346
 4218SOL    HW124113   1.343   1.402   2.410 -1.5295  2.1350 -0.9574
 4218SOL    HW224114   1.482   1.375   2.385 -0.2339  1.0188 -1.4069
 4219SOL     OW24115   0.722   2.506   7.120 -0.3683  0.2779  0.3654
 4219SOL    HW124116   0.742   2.449   7.046  1.3916  2.3606 -0.7899
 4219SOL    HW224117   0.663   2.572   7.084 -1.4226 -1.9260 -1.9833
 4220SOL     OW24118   1.259   2.576   9.014 -0.0454  0.1877  0.6817
 4220SOL    HW124119   1.164   2.563   9.014 -0.1420  0.8823 -0.3413
 4220SOL    HW224120   1.293   2.598   9.101 -0.1953  3.2909 -0.0489
 4221SOL     OW24121   3.072   1.682  13.043 -0.0031  0.2669 -0.2423
 4221SOL    HW124122   3.094   1.602  12.995 -0.2455  0.2322 -0.2966
 4221SOL    HW224123   3.160   1.712  13.066  0.0493  0.8606 -1.2132
 4222SOL     OW24124   1.353   0.701  17.565 -0.0129 -0.2513  0.5980
 4222SOL    HW124125   1.292   0.720  17.493 -0.6089 -1.3568  0.8166
 4222SOL    HW224126   1.315   0.750  17.638  0.3439 -1.4157  1.5650
 4223SOL     OW24127   2.341   2.711  10.683 -0.2669  0.4319  0.2501
 4223SOL    HW124128   2.334   2.660  10.764 -0.3443 -0.4922 -0.3516
 4223SOL    HW224129   2.304   2.646  10.624  0.9398  0.1249 -0.1637
 4224SOL     OW24130   3.994   4.366   5.677 -0.2577  0.0817  0.5064
 4224SOL    HW124131   4.036   4.325   5.602 -0.1034  1.6471 -0.2583
 4224SOL    HW224132   4.014   4.460   5.669 -0.6873  0.1159 -0.1134
 4225SOL     OW24133   0.519   4.675   3.998 -0.1454  0.0614 -1.1017
 4225SOL    HW124134   0.586   4.657   4.064 -0.3390  0.3553 -0.8216
 4225SOL    HW224135   0.461   0.004   4.054  2.2214  0.4778  0.9662
 4226SOL     OW24136   4.314   0.726   1.672 -0.4122 -0.1248  0.4072
 4226SOL    HW124137   4.404   0.745   1.698  0.0630 -1.6725 -0.0796
 4226SOL    HW224138   4.324   0.644   1.622  0.6056  0.8907 -1.0575
 4227SOL     OW24139   1.241   2.137   5.628 -0.5428 -0.0067  0.4126
 4227SOL    HW124140   1.163   2.122   5.681 -0.1908 -0.6372  0.7529
 4227SOL    HW224141   1.303   2.157   5.698 -0.0928  0.1711 -0.0291
 4228SOL     OW24142   4.496   3.742   4.406 -0.2594  0.2206 -0.1205
 4228SOL    HW124143   4.411   3.697   4.407 -0.3124  0.3011 -1.3149
 4228SOL    HW224144   4.519   3.734   4.499 -1.4005 -1.4323  0.0316
 4229SOL     OW24145   3.921   1.351   3.976 -0.4618  0.7519 -0.0690
 4229SOL    HW124146   3.870   1.294   4.034 -0.4649  0.8455  0.0212
 4229SOL    HW224147   3.847   1.392   3.932 -1.2708  0.3504  0.9202
 4230SOL     OW24148   2.357   1.110   5.196  0.2264 -0.0479 -0.6987
 4230SOL    HW124149   2.265   1.135   5.207 -0.1671 -2.2025  0.9713
 4230SOL    HW224150   2.404   1.191   5.213  0.1864 -0.3795  1.0471
 4231SOL     OW24151   2.990   0.688   2.664  0.7328 -0.0409 -0.3398
 4231SOL    HW124152   3.039   0.699   2.583  0.7472  1.3794 -0.1421
 4231SOL    HW224153   3.061   0.659   2.721  1.5204 -0.6890 -1.6568
 4232SOL     OW24154   4.366   3.373   7.387 -0.1161  0.2005 -0.7786
 4232SOL    HW124155   4.281   3.334   7.405 -0.4364  0.8804 -0.8327
 4232SOL    HW224156   4.375   3.358   7.292  0.3181  4.6168 -1.4252
 4233SOL     OW24157   0.113   0.792   3.886  0.0475 -0.1612  0.7621
 4233SOL    HW124158   0.189   0.803   3.942 -0.1525  2.2779  0.5585
 4233SOL    HW224159   0.154   0.763   3.805  3.1027  0.2957  2.1420
 4234SOL     OW24160   1.816   0.977  11.971 -0.1790  0.5743 -0.3872
 4234SOL    HW124161   1.797   1.043  12.037  1.1347 -0.1552  0.7022
 4234SOL    HW224162   1.734   0.975  11.922 -1.3451  2.5611  1.5269
 4235SOL     OW24163   0.478   4.587   0.722  0.0360  0.1528  0.6082
 4235SOL    HW124164   0.551   4.603   0.782 -0.0052  0.3377  0.6081
 4235SOL    HW224165   0.403   4.596   0.781  0.1878  3.0854  0.3645
 4236SOL     OW24166   1.507   2.875   9.274  0.5173  0.2574  0.1831
 4236SOL    HW124167   1.471   2.932   9.342  2.0469  0.8290  0.5026
 4236SOL    HW224168   1.600   2.895   9.272  0.9250 -1.4891  1.4820
 4237SOL     OW24169   3.460   1.509   7.267 -0.1038 -0.2858  0.0769
 4237SOL    HW124170   3.469   1.541   7.177  0.5900 -0.9209 -0.0813
 4237SOL    HW224171   3.388   1.566   7.292  1.7574  1.6796  0.9810
 4238SOL     OW24172   2.944   2.175   4.727 -0.3278  0.0511  0.1247
 4238SOL    HW124173   2.900   2.126   4.796  0.5900  0.4837  1.0206
 4238SOL    HW224174   2.886   2.248   4.705 -0.2983  0.5361  1.6948
 4239SOL     OW24175   1.754   3.605   6.691 -0.1526  0.0762 -0.4039
 4239SOL    HW124176   1.716   3.611   6.603 -4.3467 -1.5394  1.2881
 4239SOL    HW224177   1.826   3.667   6.681  1.2099 -0.8946  3.5155
 4240SOL     OW24178   2.298   2.955  13.573  0.1975 -0.0803  0.8706
 4240SOL    HW124179   2.212   2.956  13.615 -1.1165 -0.4544 -1.8484
 4240SOL    HW224180   2.350   3.015  13.626  0.4953  1.0686 -0.7392
 4241SOL     OW24181   4.396   3.124   5.217 -0.1483  0.2407 -0.8421
 4241SOL    HW124182   4.456   3.092   5.151  0.8565  1.7387 -0.6483
 4241SOL    HW224183   4.384   3.044   5.268 -0.9419  0.5459 -0.5461
 4242SOL     OW24184   0.745   1.200   6.082 -0.3612 -0.2942  0.1174
 4242SOL    HW124185   0.716   1.120   6.124 -0.4618 -0.9065 -1.1098
 4242SOL    HW224186   0.836   1.207   6.108 -0.1428  1.3564 -1.0416
 4243SOL     OW24187   3.051   4.630  15.335 -0.1351 -0.4651  0.3089
 4243SOL    HW124188   2.972   4.682  15.318 -1.4570 -2.8519 -0.7644
 4243SOL    HW224189   3.013   4.553  15.377  0.8694  0.0899  2.2090
 4244SOL     OW24190   3.553   2.549  10.375 -0.7970  0.1003 -0.3319
 4244SOL    HW124191   3.537   2.467  10.328 -1.0121  0.4802 -0.9218
 4244SOL    HW224192   3.647   2.555  10.364 -0.9698  6.1281  1.2977
 4245SOL     OW24193   3.159   4.363   8.366 -0.1399  0.0618  0.1928
 4245SOL    HW124194   3.158   4.407   8.281 -1.9509 -0.9494 -0.3143
 4245SOL    HW224195   3.189   4.274   8.346  2.3928  1.1255 -0.6935
 4246SOL     OW24196   1.565   2.066   1.996  0.0479 -0.2054 -0.6579
 4246SOL    HW124197   1.487   2.087   1.944  0.4716  1.7331 -0.5319
 4246SOL    HW224198   1.522   2.024   2.070 -0.6772  0.4468 -0.6951
 4247SOL     OW24199   1.940   3.374   2.830  0.4233 -0.2411  0.0093
 4247SOL    HW124200   1.867   3.412   2.878  1.0955  3.0263 -1.5760
 4247SOL    HW224201   2.007   3.442   2.829 -1.3189  1.4807 -0.0793
 4248SOL     OW24202   3.875   1.106   2.593  0.1501  0.6601  0.2761
 4248SOL    HW124203   3.920   1.185   2.563 -1.3811  0.4524 -2.5337
 4248SOL    HW224204   3.787   1.137   2.612  0.4158  0.3813  2.0059
 4249SOL     OW24205   0.180   0.504   7.563 -0.2472 -0.1757 -0.1592
 4249SOL    HW124206   0.224   0.484   7.645 -0.8430 -1.0620 -0.0580
 4249SOL    HW224207   0.254   0.496   7.502  0.0193  2.1526 -0.1682
 4250SOL     OW24208   2.199   1.889  10.888  0.1882 -0.1649  0.3153
 4250SOL    HW124209   2.212   1.958  10.953 -1.2318  1.4652 -1.1495
 4250SOL    HW224210   2.217   1.819  10.951 -0.4406 -0.5552  0.0624
 4251SOL     OW24211   3.332   4.007   4.185  0.1173 -0.2750  0.4432
 4251SOL    HW124212   3.357   4.095   4.214 -0.2481 -1.2311  3.6705
 4251SOL    HW224213   3.343   4.026   4.092  2.3428  1.9420  1.1710
 4252SOL     OW24214   0.525   0.925  11.796  0.6033  0.3658 -0.1272
 4252SOL    HW124215   0.603   0.897  11.843  0.3139 -0.2676 -0.0323
 4252SOL    HW224216   0.464   0.881  11.855 -0.2438  1.3862 -0.2430
 4253SOL     OW24217   2.758   3.947  15.795 -0.2575 -0.1097  0.3490
 4253SOL    HW124218   2.759   4.037  15.827  1.5854 -0.4910  1.3413
 4253SOL    HW224219   2.848   3.942  15.763 -0.0958 -2.5623  1.1525
 4254SOL     OW24220   3.476   2.260  12.486 -0.2071 -0.4597 -0.0763
 4254SOL    HW124221   3.521   2.259  12.570  1.2028  1.7206 -0.8016
 4254SOL    HW224222   3.387   2.289  12.508  0.7820  1.5296  1.3230
 4255SOL     OW24223   1.013   0.120   6.447  0.4985 -0.2745 -0.6417
 4255SOL    HW124224   0.986   0.038   6.406  0.4565  0.9373 -3.0581
 4255SOL    HW224225   0.966   0.178   6.386 -0.3174  0.1071  0.3497
 4256SOL     OW24226   1.335   4.568   5.020  0.2135 -0.9081  0.7037
 4256SOL    HW124227   1.272   4.635   4.994 -0.3946 -1.6966  0.1430
 4256SOL    HW224228   1.409   4.605   4.971 -0.5179  1.9013  1.7225
 4257SOL     OW24229   3.685   4.579   2.767  0.6489 -0.1714 -0.3279
 4257SOL    HW124230   3.673   4.488   2.794 -1.7505  0.1413 -0.4197
 4257SOL    HW224231   3.647   4.564   2.680  0.3632  1.2311 -0.4490
 4258SOL     OW24232   2.114   3.709   4.142 -0.5856  0.4776 -0.4387
 4258SOL    HW124233   2.123   3.793   4.185  0.6821  1.2652 -2.2753
 4258SOL    HW224234   2.164   3.651   4.199  0.0066  0.2177 -1.2150
 4259SOL     OW24235   3.390   1.516   8.221 -0.0158  0.2148  0.2498
 4259SOL    HW124236   3.458   1.459   8.184 -1.0263 -1.2792  0.6792
 4259SOL    HW224237   3.337   1.518   8.141 -0.2527  2.0856  0.4645
 4260SOL     OW24238   0.437   1.645   6.015 -0.1066 -0.1958 -0.4283
 4260SOL    HW124239   0.493   1.568   6.003 -0.4967 -0.7787  1.5811
 4260SOL    HW224240   0.438   1.677   5.924  1.6837 -0.0189 -0.3381
 4261SOL     OW24241   2.504   0.286   6.441  0.1002 -0.2874 -0.3653
 4261SOL    HW124242   2.561   0.314   6.369  1.1854  0.4380  0.7622
 4261SOL    HW224243   2.552   0.219   6.490 -1.2201 -2.4440 -2.0269
 4262SOL     OW24244   3.368   0.512   5.672  0.1646  0.6192 -0.0189
 4262SOL    HW124245   3.405   0.596   5.699 -0.2846  1.2610 -1.3944
 4262SOL    HW224246   3.318   0.541   5.596 -1.1576 -1.3030  0.1250
 4263SOL     OW24247   0.636   3.469   2.437  0.1053 -0.5061  0.4001
 4263SOL    HW124248   0.546   3.464   2.406  0.8464 -0.7568 -1.6632
 4263SOL    HW224249   0.689   3.456   2.358 -1.1459 -0.4018 -0.4469
 4264SOL     OW24250   0.402   0.111  16.959  0.2858  0.4877 -0.3945
 4264SOL    HW124251   0.333   0.094  16.894  0.7425 -1.8003 -0.2846
 4264SOL    HW224252   0.390   0.201  16.989  2.1904  0.1509  1.3012
 4265SOL     OW24253   3.823   4.497   0.713  0.1415  0.3333  0.3467
 4265SOL    HW124254   3.902   4.443   0.703 -1.0020 -1.4738  1.0443
 4265SOL    HW224255   3.802   4.508   0.620  0.0511 -1.3926  0.1601
 4266SOL     OW24256   1.129   0.009   5.756 -0.5278 -0.4685 -0.7117
 4266SOL    HW124257   1.193   4.664   5.775  0.6663  0.8840  0.1000
 4266SOL    HW224258   1.045   4.687   5.761  0.4697 -2.2206  0.4353
 4267SOL     OW24259   1.200   4.294   3.463  0.4149 -0.1326 -0.4593
 4267SOL    HW124260   1.201   4.229   3.533  0.4924 -2.4580 -2.5876
 4267SOL    HW224261   1.281   4.269   3.419  1.4057  0.0071  1.2988
 4268SOL     OW24262   0.431   1.977   6.202  0.2557 -0.0972 -0.1421
 4268SOL    HW124263   0.455   1.894   6.160 -3.7660 -0.6800 -1.2640
 4268SOL    HW224264   0.442   1.949   6.293  0.0541 -0.3349 -0.1903
 4269SOL     OW24265   0.745   4.165   1.884 -0.3770 -0.5061  0.0403
 4269SOL    HW124266   0.688   4.197   1.814 -0.3739 -0.0411  0.2436
 4269SOL    HW224267   0.735   4.238   1.946 -2.1110  0.8235 -1.8136
 4270SOL     OW24268   1.047   0.755  15.438  0.2296 -0.1977  0.1387
 4270SOL    HW124269   0.960   0.789  15.457  0.7575  0.8970  0.5440
 4270SOL    HW224270   1.090   0.815  15.377 -1.7048  3.2149  2.1996
 4271SOL     OW24271   3.401   2.267   6.526 -0.2644  0.2936 -0.1545
 4271SOL    HW124272   3.370   2.188   6.482 -0.4839 -1.0334  2.3837
 4271SOL    HW224273   3.460   2.299   6.457  0.3801  2.0130  1.2019
 4272SOL     OW24274   0.092   3.960  16.039  0.4470  0.3011 -0.2703
 4272SOL    HW124275   0.103   3.866  16.053 -1.7209  0.0268 -0.5160
 4272SOL    HW224276   0.113   3.987  16.128 -1.4054 -2.8451  1.1044
 4273SOL     OW24277   0.877   4.474   7.995  0.4161 -0.6287 -0.1129
 4273SOL    HW124278   0.901   4.382   7.987  1.2707 -0.4324  0.2087
 4273SOL    HW224279   0.783   4.478   8.010  0.4106  0.8966 -0.5711
 4274SOL     OW24280   1.185   1.313  13.392 -0.1682  0.1119  0.6356
 4274SOL    HW124281   1.174   1.408  13.390  1.2726  0.3292  3.0872
 4274SOL    HW224282   1.261   1.311  13.451 -1.0399 -1.5847  1.6907
 4275SOL     OW24283   2.122   4.107   5.699 -0.2058  0.3542  0.1662
 4275SOL    HW124284   2.153   4.151   5.619 -0.9363  2.0420  0.8012
 4275SOL    HW224285   2.058   4.169   5.735 -0.1118 -0.3406  1.5180
 4276SOL     OW24286   2.944   0.822   7.799 -0.0194 -0.1376 -0.2907
 4276SOL    HW124287   2.963   0.884   7.870 -0.1313  1.1724 -1.4211
 4276SOL    HW224288   3.003   0.847   7.728  1.6074 -1.5978  0.5433
 4277SOL     OW24289   0.533   2.088  17.688 -0.4572 -0.0956 -0.3683
 4277SOL    HW124290   0.547   2.065   0.084 -0.7015  1.3389  0.0322
 4277SOL    HW224291   0.466   2.024  17.665  0.7770 -1.3388 -0.5010
 4278SOL     OW24292   0.228   0.152   8.926 -0.0759 -0.1126  0.4709
 4278SOL    HW124293   0.250   0.065   8.958  0.9225  0.7973  2.2644
 4278SOL    HW224294   0.141   0.158   8.966 -0.0243 -1.9213  0.8302
 4279SOL     OW24295   1.489   1.776   6.534 -0.0282  0.4541 -0.3328
 4279SOL    HW124296   1.541   1.745   6.460  0.0139 -0.2425 -0.0067
 4279SOL    HW224297   1.528   1.862   6.553  0.6335  0.0038  0.3302
 4280SOL     OW24298   0.746   1.591   5.964 -0.5416  0.2198  0.2919
 4280SOL    HW124299   0.809   1.547   5.908  0.2549  1.5239  0.1519
 4280SOL    HW224300   0.701   1.652   5.906  0.2709 -0.9358 -1.5463
 4281SOL     OW24301   3.321   3.309  17.380 -0.0082 -0.0239  0.3179
 4281SOL    HW124302   3.412   3.289  17.402  0.1331 -1.3406 -1.4124
 4281SOL    HW224303   3.283   3.263  17.454 -1.4000 -0.8810 -0.9265
 4282SOL     OW24304   2.631   2.104  14.915  0.2048 -0.0989  0.9538
 4282SOL    HW124305   2.605   2.057  14.837  0.9659  2.3312 -0.7611
 4282SOL    HW224306   2.627   2.192  14.878  0.2654 -0.4329  0.1691
 4283SOL     OW24307   1.721   1.580   2.588 -0.2545 -0.3059 -0.0838
 4283SOL    HW124308   1.810   1.611   2.603 -0.5220 -0.8841  2.7170
 4283SOL    HW224309   1.685   1.578   2.676 -0.1098 -1.7298 -0.0534
 4284SOL     OW24310   3.588   3.352  17.502  0.1125 -0.9063  0.6656
 4284SOL    HW124311   3.539   3.386  17.577  0.3448  1.4837 -0.2589
 4284SOL    HW224312   3.629   3.434  17.476  2.0074 -1.9236  0.4221
 4285SOL     OW24313   3.134   2.036   5.166 -0.4143  0.4564  0.0893
 4285SOL    HW124314   3.179   2.094   5.226 -1.8994  0.6855  0.9789
 4285SOL    HW224315   3.086   2.093   5.105 -2.4191 -0.5640  0.7092
 4286SOL     OW24316   3.846   0.436   6.230  0.1899 -0.3260 -0.4144
 4286SOL    HW124317   3.866   0.481   6.148 -0.0081 -0.7219 -0.6768
 4286SOL    HW224318   3.847   0.343   6.208  0.9639 -0.3318 -0.3448
 4287SOL     OW24319   3.944   2.517   4.872  0.7985 -0.0900 -0.4816
 4287SOL    HW124320   3.989   2.479   4.947  0.3136  1.0328  0.3631
 4287SOL    HW224321   3.854   2.508   4.905  1.1982  0.6045  0.7865
 4288SOL     OW24322   2.557   4.284  15.371 -0.1925 -0.2303  0.0288
 4288SOL    HW124323   2.474   4.268  15.416 -0.7797  0.8533 -0.6652
 4288SOL    HW224324   2.609   4.299  15.451 -1.3074  2.2452  0.2960
 4289SOL     OW24325   2.465   3.197   5.746  0.4096 -0.5562  0.5410
 4289SOL    HW124326   2.548   3.244   5.755  0.3079 -0.1147 -0.8453
 4289SOL    HW224327   2.436   3.232   5.662  0.5660 -2.1183 -0.1656
 4290SOL     OW24328   4.122   2.644   2.631  0.3211  0.6704 -0.1870
 4290SOL    HW124329   4.100   2.593   2.553 -1.8488  1.3935 -0.0453
 4290SOL    HW224330   4.036   2.668   2.665  0.3419 -0.3495  0.5782
 4291SOL     OW24331   1.504   4.016   0.460 -0.3718 -0.1180  0.1247
 4291SOL    HW124332   1.512   3.926   0.431  0.0259 -0.3655  0.9922
 4291SOL    HW224333   1.524   4.012   0.554 -0.8362 -1.7575  0.1577
 4292SOL     OW24334   1.406   4.045   5.076 -0.2318  0.0752 -0.1056
 4292SOL    HW124335   1.430   4.099   5.152 -0.5039 -1.1891  0.8634
 4292SOL    HW224336   1.448   3.964   5.106  0.9771  0.5440 -0.5071
 4293SOL     OW24337   2.549   2.828   7.775 -0.1430  0.1737 -0.0024
 4293SOL    HW124338   2.499   2.766   7.722 -0.5742 -0.9810  1.7291
 4293SOL    HW224339   2.486   2.899   7.773  1.1690  1.3028 -1.0819
 4294SOL     OW24340   3.004   2.684   1.027 -0.5828 -0.3158  0.4304
 4294SOL    HW124341   3.050   2.642   1.100 -1.6157 -0.5222  0.9688
 4294SOL    HW224342   2.959   2.755   1.074 -0.3279 -0.0791  0.3159
 4295SOL     OW24343   3.836   2.390   3.627  0.4166 -0.5673  0.4868
 4295SOL    HW124344   3.798   2.475   3.607  0.2738 -1.0139 -1.1393
 4295SOL    HW224345   3.926   2.411   3.652  0.1283 -0.1230  1.1398
 4296SOL     OW24346   3.552   4.667   2.343  0.1228 -0.4491 -0.3452
 4296SOL    HW124347   3.534   4.592   2.286 -0.6929  0.5145 -1.3740
 4296SOL    HW224348   3.588   0.012   2.287 -0.1887 -0.6465 -0.7932
 4297SOL     OW24349   4.529   2.591   6.312  0.3117 -0.0893  0.2906
 4297SOL    HW124350   4.450   2.633   6.278  0.2606  1.0999  1.9111
 4297SOL    HW224351   4.512   2.503   6.278 -1.7721  0.3024  0.3458
 4298SOL     OW24352   0.950   1.553  15.535 -0.2952  0.2769 -0.2130
 4298SOL    HW124353   1.010   1.481  15.514 -0.0478  0.5632 -0.4814
 4298SOL    HW224354   0.875   1.506  15.499 -1.1274  2.1736 -0.9295
 4299SOL     OW24355   2.642   3.222   7.088 -0.6057 -0.2160 -0.0828
 4299SOL    HW124356   2.602   3.146   7.047  0.9048  0.5575 -3.0002
 4299SOL    HW224357   2.565   3.275   7.107  1.2454  1.6264  2.3327
 4300SOL     OW24358   2.954   3.572  17.003 -0.0345  0.2973  0.3746
 4300SOL    HW124359   2.871   3.530  17.023  0.3782  0.4631  2.4201
 4300SOL    HW224360   2.952   3.545  16.911  0.4238  0.3566  0.3475
 4301SOL     OW24361   3.107   2.940   8.824  0.0089 -0.2183  0.5493
 4301SOL    HW124362   3.201   2.954   8.815 -0.0669  1.1049  1.8793
 4301SOL    HW224363   3.069   3.026   8.806  0.9690  0.3027  0.9904
 4302SOL     OW24364   4.019   2.874   0.603  0.2089 -0.0514 -0.3041
 4302SOL    HW124365   4.086   2.806   0.616 -0.8235 -1.0901 -0.4473
 4302SOL    HW224366   3.948   2.817   0.631 -1.6108  2.9331  1.0811
 4303SOL     OW24367   2.548   2.668   4.098 -0.6573  0.1139 -0.2687
 4303SOL    HW124368   2.467   2.636   4.059 -1.8956 -0.0383  2.4289
 4303SOL    HW224369   2.599   2.664   4.017 -0.7416  1.7132 -0.4006
 4304SOL     OW24370   4.055   0.151   7.396  0.7333 -0.4416 -0.3891
 4304SOL    HW124371   4.034   0.087   7.464 -1.2536  1.9344  1.2200
 4304SOL    HW224372   4.127   0.200   7.434  0.5796 -0.6308  0.1442
 4305SOL     OW24373   0.495   3.292   4.678 -0.6530  0.3877 -0.0717
 4305SOL    HW124374   0.443   3.228   4.725  0.6740 -0.8091 -0.2247
 4305SOL    HW224375   0.446   3.373   4.669 -0.0723  0.4563 -2.6926
 4306SOL     OW24376   1.043   1.104   5.044  0.3428  0.6244 -0.0514
 4306SOL    HW124377   0.979   1.144   5.102 -0.7748 -0.7582 -0.3045
 4306SOL    HW224378   0.999   1.102   4.958  0.5496  0.5719 -0.1558
 4307SOL     OW24379   0.063   1.412   3.371 -0.3709 -0.0164  0.6678
 4307SOL    HW124380   0.151   1.399   3.407 -0.9519 -1.5541  1.5360
 4307SOL    HW224381   0.031   1.323   3.353  1.4004 -0.0491 -2.3512
 4308SOL     OW24382   1.696   3.074   5.916  0.4888  0.0790  0.2700
 4308SOL    HW124383   1.640   3.032   5.981  0.7553  0.6064  0.8436
 4308SOL    HW224384   1.639   3.064   5.840 -0.2435 -0.1017  0.8422
 4309SOL     OW24385   4.139   0.133   6.940  0.5000 -0.3187  0.5463
 4309SOL    HW124386   4.064   0.174   6.983 -1.6736 -1.3597 -2.2820
 4309SOL    HW224387   4.207   0.188   6.979 -1.6485  1.5758  1.6860
 4310SOL     OW24388   1.547   4.714   8.156  0.0646  0.6561 -0.2427
 4310SOL    HW124389   1.595   0.072   8.141 -1.8785  1.2675 -3.0739
 4310SOL    HW224390   1.482   0.026   8.217 -0.1815 -1.1362  0.5258
 4311SOL     OW24391   3.551   3.131   9.382  0.3065 -0.6353 -0.1442
 4311SOL    HW124392   3.460   3.158   9.367  1.3676  2.3964 -1.0409
 4311SOL    HW224393   3.576   3.175   9.301  0.0259 -0.6346 -0.2319
 4312SOL     OW24394   2.628   0.330   8.528 -0.7224 -0.1598 -0.2630
 4312SOL    HW124395   2.717   0.364   8.520 -0.7112 -0.2757 -0.6016
 4312SOL    HW224396   2.608   0.326   8.622  1.5830 -0.0914  0.2135
 4313SOL     OW24397   1.796   4.323   7.193  0.0659  0.3755 -0.1676
 4313SOL    HW124398   1.844   4.406   7.188  2.4102 -1.0324 -1.0583
 4313SOL    HW224399   1.771   4.323   7.101 -0.4066  0.9406 -0.0412
 4314SOL     OW24400   2.566   0.590   2.900  0.4827 -0.0779  0.5108
 4314SOL    HW124401   2.646   0.580   2.952 -0.1463 -3.3598  0.8075
 4314SOL    HW224402   2.550   0.684   2.906 -0.2697 -0.2560  1.3776
 4315SOL     OW24403   1.991   1.502  10.447 -0.2465 -0.2151 -0.0362
 4315SOL    HW124404   1.981   1.413  10.482 -0.4177 -0.1930 -0.0308
 4315SOL    HW224405   1.951   1.485  10.361  1.0476 -1.9764 -0.3012
 4316SOL     OW24406   3.022   3.188   7.557 -0.1933  0.2216 -0.2737
 4316SOL    HW124407   2.972   3.252   7.507  0.9931 -0.7791 -2.7448
 4316SOL    HW224408   2.975   3.110   7.527  1.7199 -0.5961 -1.1909
 4317SOL     OW24409   2.278   4.194   3.409 -0.4781  0.2629  0.9896
 4317SOL    HW124410   2.218   4.229   3.475  0.0855  0.6885  1.2691
 4317SOL    HW224411   2.318   4.127   3.464  1.8902 -1.0884 -2.4135
 4318SOL     OW24412   2.732   2.967  12.331  0.0774 -0.5624  0.0433
 4318SOL    HW124413   2.745   3.052  12.288  0.0659  0.1359  1.4414
 4318SOL    HW224414   2.722   2.907  12.257  0.6784  0.7425 -1.0932
 4319SOL     OW24415   1.313   0.245   4.443 -0.0828  0.1718 -0.1435
 4319SOL    HW124416   1.251   0.249   4.370  0.3512 -0.1046 -0.5263
 4319SOL    HW224417   1.356   0.165   4.413 -1.6775 -0.1868 -1.5107
 4320SOL     OW24418   3.232   0.586   8.475 -0.0948 -0.0502 -0.9755
 4320SOL    HW124419   3.182   0.658   8.513 -1.3521 -1.2232 -0.4071
 4320SOL    HW224420   3.311   0.626   8.439 -0.0505 -0.1269 -0.9646
 4321SOL     OW24421   3.276   4.278   3.943  0.4276  0.1722  0.0839
 4321SOL    HW124422   3.215   4.314   3.879  1.6094  1.4594 -0.2910
 4321SOL    HW224423   3.269   4.184   3.925  0.5534  0.3222 -0.7308
 4322SOL     OW24424   3.795   2.831   4.000  0.1887 -0.1505  0.3016
 4322SOL    HW124425   3.732   2.759   4.010  1.2680 -0.9462  1.3360
 4322SOL    HW224426   3.801   2.861   4.091 -2.1996 -2.1385  1.1164
 4323SOL     OW24427   0.754   4.616   4.222 -0.1311 -0.1788 -0.5344
 4323SOL    HW124428   0.721   4.585   4.306  0.3429 -1.5852 -0.8824
 4323SOL    HW224429   0.815   4.548   4.196  1.1656  1.0473 -0.7092
 4324SOL     OW24430   0.796   2.875   6.114  0.0690 -0.3819  0.1697
 4324SOL    HW124431   0.883   2.896   6.078  0.3642 -1.0053  0.5171
 4324SOL    HW224432   0.816   2.874   6.208  2.5835 -1.4472 -0.3666
 4325SOL     OW24433   0.447   1.489   2.303 -0.1118  0.2548 -0.1654
 4325SOL    HW124434   0.537   1.464   2.323 -0.3123  0.3277  0.8797
 4325SOL    HW224435   0.404   1.404   2.292 -0.2616  0.4419 -1.0194
 4326SOL     OW24436   3.913   1.859   6.356 -0.0091  0.9082 -0.1288
 4326SOL    HW124437   3.935   1.781   6.305  0.8824  0.3990  1.0551
 4326SOL    HW224438   3.832   1.835   6.400  1.1198 -0.9871  0.9092
 4327SOL     OW24439   1.175   3.258   1.728  0.4059  0.1215 -0.5046
 4327SOL    HW124440   1.151   3.345   1.760 -1.6586 -0.5462 -0.2270
 4327SOL    HW224441   1.114   3.201   1.776  1.3752  0.3163  0.9692
 4328SOL     OW24442   0.416   4.273  11.007 -0.1842  0.0528 -0.2167
 4328SOL    HW124443   0.351   4.288  11.075 -2.7952 -1.6441 -2.3347
 4328SOL    HW224444   0.475   4.209  11.048 -0.4002  0.1695  0.2726
 4329SOL     OW24445   4.299   1.772   6.014 -0.4899 -0.3612  0.0268
 4329SOL    HW124446   4.334   1.799   5.929  1.4875 -0.2447  0.8823
 4329SOL    HW224447   4.271   1.863   6.026  1.9862  0.4020  0.0097
 4330SOL     OW24448   1.942   1.900   8.398 -0.1525 -0.2797 -0.5858
 4330SOL    HW124449   1.948   1.834   8.467  0.3307 -0.0972 -0.4507
 4330SOL    HW224450   2.029   1.941   8.393  0.7493 -2.2948 -1.3396
 4331SOL     OW24451   2.323   4.254  17.445  0.0194  0.1960  0.5009
 4331SOL    HW124452   2.376   4.175  17.430  0.6078  0.6954 -0.0434
 4331SOL    HW224453   2.345   4.317  17.377 -0.0157  1.4318  1.6358
 4332SOL     OW24454   3.214   2.316  15.440  0.1635 -0.6376 -0.2766
 4332SOL    HW124455   3.264   2.389  15.477 -0.7510  0.0294 -0.3736
 4332SOL    HW224456   3.160   2.293  15.515 -0.1818  2.7303  0.5040
 4333SOL     OW24457   1.556   2.541   8.398 -0.4419 -0.2137  0.1994
 4333SOL    HW124458   1.650   2.549   8.413 -1.1151  3.0298  2.7350
 4333SOL    HW224459   1.525   2.573   8.483  0.4542  0.5245  0.2493
 4334SOL     OW24460   3.919   0.295   2.070 -0.1047 -0.3781  0.5947
 4334SOL    HW124461   3.866   0.372   2.092 -1.4184 -0.9976 -0.3628
 4334SOL    HW224462   3.921   0.310   1.975 -0.3172 -0.5764  0.5584
 4335SOL     OW24463   3.514   1.655  12.799  0.6068  0.1409 -0.0376
 4335SOL    HW124464   3.585   1.639  12.861 -0.5509 -1.1643  0.9562
 4335SOL    HW224465   3.434   1.645  12.852  0.3237  0.6958 -0.3566
 4336SOL     OW24466   2.817   0.207   8.170 -0.3991  0.2777  0.6095
 4336SOL    HW124467   2.774   0.122   8.182 -2.1201  0.8271 -1.7639
 4336SOL    HW224468   2.751   0.258   8.122 -2.8604 -2.9094  0.5988
 4337SOL     OW24469   4.708   3.529   5.820  0.2772  0.3459  0.2973
 4337SOL    HW124470   4.650   3.453   5.825 -1.0333  1.2604 -1.0929
 4337SOL    HW224471   4.714   3.557   5.729 -1.6918 -0.9800 -0.2434
 4338SOL     OW24472   3.929   0.110   3.130 -0.0928  0.4337  0.4902
 4338SOL    HW124473   3.900   0.025   3.098  0.1331  1.3953 -2.2879
 4338SOL    HW224474   4.021   0.092   3.152 -0.0691  0.6000  0.5269
 4339SOL     OW24475   1.338   1.938   9.544 -0.3787  0.5650 -0.4157
 4339SOL    HW124476   1.357   1.869   9.482 -1.7941 -1.2402  1.1674
 4339SOL    HW224477   1.350   1.890   9.626 -0.3150  2.4536  0.7009
 4340SOL     OW24478   1.139   1.160   8.896  0.7509 -0.3332 -0.5794
 4340SOL    HW124479   1.181   1.076   8.876  1.2572  0.1194 -1.4042
 4340SOL    HW224480   1.136   1.169   8.991  3.8054  2.9297 -0.8232
 4341SOL     OW24481   4.096   0.165  16.679  0.9975 -0.1311  0.7791
 4341SOL    HW124482   4.145   0.084  16.663  0.4689 -0.3487  0.2697
 4341SOL    HW224483   4.132   0.184  16.766  0.2291  1.4577  0.7469
 4342SOL     OW24484   4.322   1.970   2.185  0.3719 -0.0243  0.1328
 4342SOL    HW124485   4.406   1.973   2.140  0.2549 -2.0094 -0.2020
 4342SOL    HW224486   4.310   2.061   2.211  0.0876 -0.7349  2.5626
 4343SOL     OW24487   4.194   1.055   3.348  0.2041 -1.1263 -0.0481
 4343SOL    HW124488   4.174   1.086   3.436  2.7519  1.9305 -0.5495
 4343SOL    HW224489   4.211   0.966   3.378 -2.0945 -1.9533 -1.2554
 4344SOL     OW24490   2.477   3.694   7.933  0.4138  0.1674 -0.4766
 4344SOL    HW124491   2.415   3.643   7.881 -0.6815  0.6481  0.3770
 4344SOL    HW224492   2.522   3.754   7.874 -0.8052  1.6298  0.0960
 4345SOL     OW24493   3.005   3.948  11.080 -0.1260  0.7216 -0.5894
 4345SOL    HW124494   3.038   3.860  11.098 -4.0624 -0.5538  0.3416
 4345SOL    HW224495   3.088   3.986  11.052  0.9782 -1.4705 -0.2968
 4346SOL     OW24496   1.037   3.835   0.663  0.3771  0.2232  0.1397
 4346SOL    HW124497   1.102   3.874   0.604  0.5358  1.5066  1.1628
 4346SOL    HW224498   1.104   3.799   0.721 -0.0467  0.0816  0.5365
 4347SOL     OW24499   4.161   1.973   8.996 -0.5199 -0.1262  0.5931
 4347SOL    HW124500   4.186   1.881   8.990 -0.6130 -0.1380  0.3836
 4347SOL    HW224501   4.075   1.962   9.037  0.3076 -0.3793  2.2597
 4348SOL     OW24502   2.810   0.496   6.470  0.4417  0.1390 -0.2408
 4348SOL    HW124503   2.858   0.438   6.529 -0.9961  1.7089  2.4603
 4348SOL    HW224504   2.826   0.582   6.510  2.6835  0.0163 -0.8672
 4349SOL     OW24505   2.962   0.549   5.523 -0.3613  0.0496 -0.0122
 4349SOL    HW124506   2.917   0.565   5.606  0.0832  2.2088 -0.1714
 4349SOL    HW224507   2.890   0.523   5.466  0.0974  1.2934 -1.1799
 4350SOL     OW24508   4.625   0.131  16.047  0.4664  0.0999  0.3048
 4350SOL    HW124509   4.639   0.192  16.119  0.8050  0.8875 -0.4313
 4350SOL    HW224510   4.625   0.188  15.970 -2.2261  0.4591  0.5759
 4351SOL     OW24511   0.871   3.761   2.770  0.0590 -0.3678 -0.8074
 4351SOL    HW124512   0.891   3.846   2.808  0.3982 -1.1343  0.7026
 4351SOL    HW224513   0.776   3.765   2.768  0.0682 -0.0795 -0.6732
 4352SOL     OW24514   4.595   4.482   5.351 -0.6498  0.2182 -0.4272
 4352SOL    HW124515   4.585   4.443   5.437 -1.8620  1.2817 -0.0875
 4352SOL    HW224516   4.613   4.573   5.376 -2.1813 -0.0243  1.5421
 4353SOL     OW24517   3.268   0.572   1.144  0.0828 -0.0284  0.3926
 4353SOL    HW124518   3.221   0.655   1.140 -0.0999 -0.1308  0.4202
 4353SOL    HW224519   3.237   0.533   1.226  0.1418 -0.0177  0.4205
 4354SOL     OW24520   4.668   3.699  17.174 -0.0578 -0.3325  0.1562
 4354SOL    HW124521   4.639   3.703  17.083  2.5509 -0.6775 -0.6837
 4354SOL    HW224522   0.034   3.732  17.175 -0.4402  0.8009 -2.8558
 4355SOL     OW24523   1.106   0.375   2.887  0.2886  0.4808  0.5270
 4355SOL    HW124524   1.026   0.371   2.939 -0.8841  0.2171 -1.2770
 4355SOL    HW224525   1.175   0.357   2.950  0.2222  1.2856  0.8290
 4356SOL     OW24526   3.229   2.522   8.560 -0.3985  0.0038  0.0718
 4356SOL    HW124527   3.295   2.562   8.504 -0.0490 -0.2111  0.3350
 4356SOL    HW224528   3.275   2.526   8.644  0.6467 -0.2013 -0.5023
 4357SOL     OW24529   3.767   1.322   6.100 -0.5365  0.1774  0.0272
 4357SOL    HW124530   3.691   1.268   6.078 -0.8801  0.8699 -0.4703
 4357SOL    HW224531   3.743   1.408   6.066  0.4887  0.8358  0.9716
 4358SOL     OW24532   1.993   0.307   8.613  0.2573 -0.2756 -0.2145
 4358SOL    HW124533   2.014   0.215   8.599  0.0538 -0.2198 -0.8790
 4358SOL    HW224534   1.990   0.302   8.709  0.5955 -0.7229 -0.2271
 4359SOL     OW24535   4.676   4.707   8.394 -0.3661  0.7380  0.2702
 4359SOL    HW124536   4.703   0.027   8.474  1.3671 -0.2086  0.1997
 4359SOL    HW224537   4.609   4.645   8.424 -1.3871  1.3938 -0.6644
 4360SOL     OW24538   0.220   2.172  13.764 -0.5511 -0.3943  0.0894
 4360SOL    HW124539   0.184   2.112  13.699  0.4438 -0.4951 -0.3636
 4360SOL    HW224540   0.131   2.191  13.795 -0.4071  0.5772 -0.1083
 4361SOL     OW24541   1.666   1.961   4.858  0.5024  0.3505 -0.4357
 4361SOL    HW124542   1.684   1.983   4.767 -3.7289  0.0050 -1.3866
 4361SOL    HW224543   1.751   1.958   4.901  0.3098 -0.0335 -0.0767
 4362SOL     OW24544   1.795   0.658   7.835 -0.0661  0.4330  0.1251
 4362SOL    HW124545   1.859   0.614   7.779 -1.3276  0.2638 -1.1927
 4362SOL    HW224546   1.727   0.674   7.769  1.5920  2.7261 -1.0373
 4363SOL     OW24547   2.344   2.522   3.473 -0.4506 -0.8228 -0.1903
 4363SOL    HW124548   2.418   2.539   3.531 -0.3544 -0.5840 -0.3834
 4363SOL    HW224549   2.279   2.496   3.539 -1.3830  2.0324  0.0638
 4364SOL     OW24550   1.962   3.229   8.901  0.4173  0.3927 -0.1150
 4364SOL    HW124551   2.051   3.225   8.934 -0.2375 -4.0144  1.0799
 4364SOL    HW224552   1.957   3.324   8.890 -2.1123 -0.0130 -2.6511
 4365SOL     OW24553   3.635   0.248   7.430  0.6280  0.0932  0.2367
 4365SOL    HW124554   3.639   0.213   7.341 -2.6655 -3.4172  1.4085
 4365SOL    HW224555   3.657   0.176   7.490 -0.8064 -2.3378 -2.1774
 4366SOL     OW24556   4.505   0.452   9.756  0.5621 -0.2231  0.5215
 4366SOL    HW124557   4.460   0.413   9.831  0.2217  0.6972  0.8046
 4366SOL    HW224558   4.528   0.534   9.800  1.0354  1.7428 -3.4045
 4367SOL     OW24559   1.736   0.232  16.956 -0.7233  0.1850 -0.5443
 4367SOL    HW124560   1.670   0.266  16.896 -0.1310  1.2028 -0.6120
 4367SOL    HW224561   1.721   0.138  16.946  0.2580  0.2148 -2.2923
 4368SOL     OW24562   1.121   1.885  16.472 -0.6778 -0.0458  0.5203
 4368SOL    HW124563   1.199   1.856  16.423 -1.4734 -2.8232  0.8769
 4368SOL    HW224564   1.060   1.813  16.460 -0.0442 -1.0188  3.1415
 4369SOL     OW24565   3.233   2.241   4.459  0.0563  0.7724  0.1811
 4369SOL    HW124566   3.159   2.242   4.398 -0.0027 -1.4377  0.2220
 4369SOL    HW224567   3.301   2.302   4.431 -1.7833  1.9410 -1.6927
 4370SOL     OW24568   3.000   3.878  15.406 -0.0181  0.2621  0.5543
 4370SOL    HW124569   2.949   3.812  15.359  1.3806 -2.1633  2.4252
 4370SOL    HW224570   3.091   3.849  15.403 -0.6477 -1.7143  0.7657
 4371SOL     OW24571   2.776   2.839   9.101 -0.2241  0.1328 -0.5140
 4371SOL    HW124572   2.864   2.804   9.111  0.1407  0.6179 -2.0007
 4371SOL    HW224573   2.796   2.933   9.100  0.7668 -0.0704  0.7977
 4372SOL     OW24574   1.343   1.135   7.325  0.0693 -0.2947  0.0424
 4372SOL    HW124575   1.418   1.185   7.360  1.3327 -2.0726 -0.1339
 4372SOL    HW224576   1.284   1.153   7.398 -0.1389 -0.3004 -0.1245
 4373SOL     OW24577   0.864   0.017   7.886 -0.2371 -0.3438  0.1529
 4373SOL    HW124578   0.863   4.687   7.807  2.9559 -0.6105  0.2984
 4373SOL    HW224579   0.908   4.680   7.946  0.9762 -0.0207 -0.4261
 4374SOL     OW24580   3.558   3.020  11.534  0.5293  0.4174  0.4696
 4374SOL    HW124581   3.472   3.050  11.505  1.1197 -0.5575 -2.3101
 4374SOL    HW224582   3.552   2.929  11.565  0.6000  0.7324  1.4054
 4375SOL     OW24583   1.580   1.328   8.679 -0.5770  0.1131  0.2949
 4375SOL    HW124584   1.646   1.397   8.671 -1.7513  1.2409  0.3166
 4375SOL    HW224585   1.508   1.376   8.720  1.0990  1.9577  1.1291
 4376SOL     OW24586   3.351   3.534   5.378  0.2904 -0.3336  0.2152
 4376SOL    HW124587   3.279   3.568   5.324  0.9208  2.3357  1.0880
 4376SOL    HW224588   3.300   3.479   5.437 -1.7304  0.4557 -0.7954
 4377SOL     OW24589   2.417   1.298   3.664  0.0194 -0.3055  0.0029
 4377SOL    HW124590   2.509   1.272   3.650  0.0380 -1.2763  1.9727
 4377SOL    HW224591   2.419   1.382   3.710 -0.3929  0.2520 -0.9968
 4378SOL     OW24592   0.271   2.824  12.936 -0.1263  0.1029  0.1853
 4378SOL    HW124593   0.243   2.913  12.957  3.0682  1.3972 -1.0633
 4378SOL    HW224594   0.220   2.801  12.859 -1.7416 -0.6231  1.4607
 4379SOL     OW24595   3.930   2.806  13.697  0.0747  0.0010  0.1934
 4379SOL    HW124596   4.011   2.763  13.673  0.9538  1.9029 -0.2218
 4379SOL    HW224597   3.939   2.888  13.649  0.1902 -0.3049 -0.3002
 4380SOL     OW24598   1.963   3.806  11.477 -0.8510  0.1734  0.3818
 4380SOL    HW124599   1.983   3.900  11.474 -0.5886  0.0475 -1.5463
 4380SOL    HW224600   2.017   3.768  11.408 -1.3422 -0.7315  0.4963
 4381SOL     OW24601   1.183   3.084  13.999  0.3992  0.0877 -0.1949
 4381SOL    HW124602   1.231   3.143  14.056  0.8293 -2.0411  1.6441
 4381SOL    HW224603   1.105   3.139  13.987  0.7933  0.5297 -0.7154
 4382SOL     OW24604   1.578   1.649   6.315  0.3551 -0.2033  0.0290
 4382SOL    HW124605   1.591   1.564   6.274 -1.4780 -0.4372 -0.0844
 4382SOL    HW224606   1.660   1.692   6.290  0.0746  0.2186 -0.1767
 4383SOL     OW24607   1.627   3.961  10.917  0.4238  0.0541 -1.0782
 4383SOL    HW124608   1.672   3.992  10.839 -0.4576 -0.8257 -1.9313
 4383SOL    HW224609   1.644   3.868  10.901 -1.0542 -0.5873  0.9238
 4384SOL     OW24610   0.861   3.747   7.832 -0.2148 -0.0940 -0.4728
 4384SOL    HW124611   0.823   3.686   7.768 -0.5583  1.3047 -1.5893
 4384SOL    HW224612   0.782   3.772   7.881  0.6061 -0.7840  1.2066
 4385SOL     OW24613   3.939   1.449  14.084  0.2760  0.4686  0.6230
 4385SOL    HW124614   3.914   1.443  14.176  0.8455 -1.1562  0.6768
 4385SOL    HW224615   3.881   1.389  14.038  0.8973  0.9319 -0.7764
 4386SOL     OW24616   1.980   2.402   5.661  0.2142 -0.1559 -0.4223
 4386SOL    HW124617   1.912   2.413   5.728  0.2955  1.9021 -0.6809
 4386SOL    HW224618   2.044   2.457   5.705  1.4604 -0.7190 -1.5468
 4387SOL     OW24619   3.876   3.800   0.903 -0.0172  0.5710  0.4906
 4387SOL    HW124620   3.788   3.785   0.867  0.6494 -0.5509 -0.6672
 4387SOL    HW224621   3.903   3.873   0.846  0.5776  0.3865  0.5423
 4388SOL     OW24622   3.080   1.845   6.532 -0.3303 -0.3636  0.5901
 4388SOL    HW124623   2.991   1.816   6.549 -0.0129 -1.1449  0.9443
 4388SOL    HW224624   3.124   1.764   6.505 -2.2388 -1.2811  0.2741
 4389SOL     OW24625   1.734   4.687   3.537 -0.4524 -0.4614 -0.6231
 4389SOL    HW124626   1.659   4.713   3.590  1.0297 -0.1206  1.3193
 4389SOL    HW224627   1.695   4.674   3.451  0.8079 -1.7187 -1.0071
 4390SOL     OW24628   0.179   0.323   8.010 -0.0968 -0.2582 -0.5238
 4390SOL    HW124629   0.121   0.257   7.973 -0.5113  1.4695 -2.9173
 4390SOL    HW224630   0.106   0.366   8.054 -0.2987 -1.3438  0.2130
 4391SOL     OW24631   3.405   1.971   0.609 -0.3986  0.4819  0.0887
 4391SOL    HW124632   3.318   1.930   0.609  1.0162 -2.5083  0.4624
 4391SOL    HW224633   3.393   2.022   0.529 -0.5640  2.2886  1.2846
 4392SOL     OW24634   0.495   3.449  11.866 -0.2940  0.3068 -0.0909
 4392SOL    HW124635   0.454   3.416  11.786  1.3227 -1.1105 -0.3225
 4392SOL    HW224636   0.583   3.453  11.829 -0.3141  0.7344 -0.1007
 4393SOL     OW24637   0.530   1.348   7.270  0.4863 -0.0776  0.2081
 4393SOL    HW124638   0.556   1.415   7.332  0.1381  0.9131 -0.7239
 4393SOL    HW224639   0.586   1.277   7.302 -0.3553 -0.8365  0.0326
 4394SOL     OW24640   1.769   2.569   7.956 -0.0164 -0.6191 -0.8567
 4394SOL    HW124641   1.780   2.482   7.919  1.1912 -1.0026  0.3956
 4394SOL    HW224642   1.858   2.603   7.960  0.6746 -2.5582  0.3299
 4395SOL     OW24643   2.294   2.118   5.121 -0.4267 -0.0933  0.1238
 4395SOL    HW124644   2.359   2.102   5.189  0.5804 -1.3909 -1.1634
 4395SOL    HW224645   2.340   2.087   5.044 -3.1249 -1.3858 -0.9712
 4396SOL     OW24646   2.607   4.107   6.255 -0.4026  0.4141  0.5863
 4396SOL    HW124647   2.522   4.088   6.296  0.1447 -1.1127  1.0158
 4396SOL    HW224648   2.647   4.158   6.325  0.0061  0.4203  0.3510
 4397SOL     OW24649   1.069   2.107   9.972 -0.0983  0.4859  0.5142
 4397SOL    HW124650   1.036   2.058  10.048 -1.7307 -0.4695 -0.8126
 4397SOL    HW224651   0.994   2.105   9.913  0.1552 -0.1266  0.2180
 4398SOL     OW24652   3.510   2.247   8.464 -0.6153 -0.9120 -0.6848
 4398SOL    HW124653   3.589   2.193   8.460  1.3864  2.0265 -0.9300
 4398SOL    HW224654   3.500   2.278   8.374  0.7600  1.3061 -0.0770
 4399SOL     OW24655   2.986   4.540  16.213 -0.0185 -0.0273 -0.2502
 4399SOL    HW124656   3.070   4.519  16.255  0.5503  1.4602 -0.6554
 4399SOL    HW224657   3.000   4.498  16.128 -0.5771  0.8055 -0.7418
 4400SOL     OW24658   1.084   0.957  11.070 -0.6604 -0.1649 -0.0846
 4400SOL    HW124659   1.078   0.865  11.044  0.5691  0.3543 -2.2140
 4400SOL    HW224660   1.099   1.002  10.987 -0.9523  1.9061  0.9739
 4401SOL     OW24661   2.276   1.581   7.802 -0.0992  0.1684 -0.4170
 4401SOL    HW124662   2.245   1.661   7.845  0.3672  0.6557 -0.9938
 4401SOL    HW224663   2.232   1.586   7.717 -2.2217  2.2271  0.7950
 4402SOL     OW24664   4.400   2.446   5.425 -0.1805 -0.4730  0.4154
 4402SOL    HW124665   4.385   2.517   5.488 -2.5261 -1.0077  0.4671
 4402SOL    HW224666   4.495   2.436   5.422 -0.0681  1.1689 -1.1171
 4403SOL     OW24667   4.710   0.200   6.307  0.1759 -0.0003 -0.6488
 4403SOL    HW124668   4.693   0.134   6.373  3.2846  0.9359  1.0852
 4403SOL    HW224669   0.078   0.213   6.284  0.4349 -0.5445  0.1185
 4404SOL     OW24670   1.102   3.834   6.284  0.7478 -0.5273  0.2870
 4404SOL    HW124671   1.175   3.772   6.278  2.0842  0.9809  0.9699
 4404SOL    HW224672   1.029   3.777   6.307 -0.1707  2.0392  3.7081
 4405SOL     OW24673   3.503   3.120   8.143  0.1621  0.0514  0.1586
 4405SOL    HW124674   3.437   3.187   8.158 -0.8650 -0.9742  0.2562
 4405SOL    HW224675   3.567   3.161   8.084 -0.0255 -0.8312 -0.6691
 4406SOL     OW24676   3.517   1.443   7.513 -0.0746 -0.1194  0.5003
 4406SOL    HW124677   3.493   1.457   7.422 -0.2904  0.9632  0.7130
 4406SOL    HW224678   3.559   1.529   7.525 -0.7743  0.1513  1.0197
 4407SOL     OW24679   2.555   2.756   8.515  0.2870 -0.4415  0.0471
 4407SOL    HW124680   2.484   2.754   8.451  1.1020  3.1240 -0.9896
 4407SOL    HW224681   2.628   2.800   8.472 -0.1682 -0.4726 -0.7491
 4408SOL     OW24682   1.655   4.227  14.884 -0.4240  0.0193 -0.3491
 4408SOL    HW124683   1.720   4.240  14.814  1.5702  2.6381  1.9420
 4408SOL    HW224684   1.574   4.272  14.862 -0.1685  0.5187 -0.2964
 4409SOL     OW24685   4.424   2.562  13.309  0.2364 -0.4593 -0.7128
 4409SOL    HW124686   4.355   2.498  13.288 -0.5256 -0.2941  1.3172
 4409SOL    HW224687   4.377   2.645  13.320 -0.8798 -1.1590 -0.1633
 4410SOL     OW24688   3.002   3.711   5.651 -0.3533 -0.3117  0.8148
 4410SOL    HW124689   2.979   3.681   5.739 -0.4673  0.3083  0.9969
 4410SOL    HW224690   2.972   3.628   5.614  0.4129 -0.1239 -0.2098
 4411SOL     OW24691   3.062   2.826   9.070  0.9048  0.3383  0.5125
 4411SOL    HW124692   3.142   2.840   9.121  0.0321  2.5545  1.2568
 4411SOL    HW224693   3.085   2.854   8.982 -0.6139 -0.9954 -0.3327
 4412SOL     OW24694   3.493   3.948  15.618 -0.1085  0.0496  0.1331
 4412SOL    HW124695   3.437   3.964  15.541 -1.8338  0.4083  1.4735
 4412SOL    HW224696   3.569   3.919  15.567 -0.1050 -2.1005  1.3397
 4413SOL     OW24697   3.549   4.251   2.539 -0.2335  0.4381 -0.2046
 4413SOL    HW124698   3.633   4.261   2.495  0.4592  2.4863  1.5929
 4413SOL    HW224699   3.557   4.332   2.590 -0.2629 -0.5338  1.3399
 4414SOL     OW24700   3.550   4.196   4.978  0.4067 -0.6752  0.1273
 4414SOL    HW124701   3.605   4.189   4.899 -2.5521 -2.0430 -1.8043
 4414SOL    HW224702   3.507   4.280   4.967 -0.7696 -1.4576 -1.1829
 4415SOL     OW24703   1.172   0.742   2.451 -0.0556 -0.1706 -0.1370
 4415SOL    HW124704   1.095   0.779   2.493 -0.9266 -0.9182 -1.0729
 4415SOL    HW224705   1.219   0.676   2.502 -1.2145 -0.5343  0.4524
 4416SOL     OW24706   2.138   0.550   2.476  0.5658  0.4132 -0.0959
 4416SOL    HW124707   2.228   0.523   2.497  0.1766  0.0781  1.1701
 4416SOL    HW224708   2.097   0.526   2.559  1.5147 -0.9070  0.0044
 4417SOL     OW24709   3.772   0.611   8.691 -0.4448 -0.1433 -0.2960
 4417SOL    HW124710   3.804   0.689   8.646 -2.6322 -0.6470 -2.7624
 4417SOL    HW224711   3.814   0.539   8.644 -0.8379 -0.5934  0.0465
 4418SOL     OW24712   2.343   3.153  17.610  0.4273 -0.2165 -0.5891
 4418SOL    HW124713   2.403   3.081  17.587  0.2340 -0.5606 -0.0240
 4418SOL    HW224714   2.262   3.106  17.632  0.0357  1.2599  1.1306
 4419SOL     OW24715   1.557   2.621   7.744 -0.7455  0.0600 -0.3173
 4419SOL    HW124716   1.617   2.633   7.818 -0.3323 -0.8327 -0.5068
 4419SOL    HW224717   1.500   2.695   7.766  0.8654  1.0708  0.4425
 4420SOL     OW24718   3.969   2.453   1.839 -0.1860 -0.2074  0.3621
 4420SOL    HW124719   3.919   2.454   1.758  0.2637 -1.2585  0.0697
 4420SOL    HW224720   4.012   2.368   1.834  1.1041  0.5402 -1.0874
 4421SOL     OW24721   0.458   2.856   2.655 -0.0562  0.5562  0.4438
 4421SOL    HW124722   0.513   2.819   2.724  0.9379  1.0411 -0.0974
 4421SOL    HW224723   0.390   2.902   2.704  0.7939  1.5755  0.6597
 4422SOL     OW24724   2.470   2.595   4.890 -0.3938 -0.1208  1.0764
 4422SOL    HW124725   2.499   2.535   4.822  3.7879  4.1856 -0.8926
 4422SOL    HW224726   2.549   2.636   4.924 -1.6234  2.0299  1.3684
 4423SOL     OW24727   1.790   4.224  16.888 -0.4465  0.6585  0.2744
 4423SOL    HW124728   1.783   4.220  16.984  2.0722 -1.9184  0.3712
 4423SOL    HW224729   1.731   4.160  16.848  0.1257  0.4174 -0.1800
 4424SOL     OW24730   3.369   1.317  12.219  0.0501 -0.0006  0.1368
 4424SOL    HW124731   3.442   1.378  12.207 -1.3523  1.3677 -1.4849
 4424SOL    HW224732   3.368   1.307  12.314 -1.8685  1.1115  0.2363
 4425SOL     OW24733   4.513   3.188   7.957  0.4352 -0.1959 -0.6926
 4425SOL    HW124734   4.432   3.224   7.995 -0.3286  1.4323 -3.8879
 4425SOL    HW224735   4.474   3.116   7.909 -0.9154  0.8800 -1.2189
 4426SOL     OW24736   1.405   4.428   6.917  0.4357  0.2617 -0.1874
 4426SOL    HW124737   1.397   4.367   6.844  1.9312 -1.5942  1.1950
 4426SOL    HW224738   1.327   4.482   6.906  0.0068 -0.9621 -3.2327
 4427SOL     OW24739   1.039   0.924   6.857 -0.0313  0.0895  0.1959
 4427SOL    HW124740   0.984   0.941   6.780 -0.2293 -0.5720  0.1882
 4427SOL    HW224741   1.074   1.011   6.873  1.5969 -0.5158  0.0216
 4428SOL     OW24742   3.610   1.301  14.076  0.3364 -0.0692  0.2668
 4428SOL    HW124743   3.604   1.306  14.171 -1.7190 -0.0823  0.1359
 4428SOL    HW224744   3.551   1.228  14.058  1.6257 -0.7596 -1.1942
 4429SOL     OW24745   2.161   4.307   6.168 -0.1673  0.2562 -0.4124
 4429SOL    HW124746   2.122   4.335   6.085 -0.0769 -2.6923 -1.4679
 4429SOL    HW224747   2.213   4.381   6.198  0.4359 -1.1309  1.9201
 4430SOL     OW24748   0.088   4.647   4.929  0.7637 -0.5731 -1.3689
 4430SOL    HW124749   0.011   4.660   4.985  1.1514  0.5264 -1.0960
 4430SOL    HW224750   0.041   4.661   4.847 -1.5878  0.5128  0.1753
 4431SOL     OW24751   2.897   2.324  12.870 -0.2698  0.4482 -0.0831
 4431SOL    HW124752   2.941   2.313  12.954  1.4269  1.7999 -0.7822
 4431SOL    HW224753   2.967   2.352  12.811  1.8908  1.2758  2.8170
 4432SOL     OW24754   0.582   2.120   2.726 -0.6607 -0.2679 -0.5872
 4432SOL    HW124755   0.518   2.170   2.675 -0.8683 -0.0941 -0.1599
 4432SOL    HW224756   0.538   2.036   2.737 -0.8283 -0.3604 -1.9791
 4433SOL     OW24757   0.283   4.295   8.196 -0.0548  0.2173 -0.0664
 4433SOL    HW124758   0.251   4.326   8.281  1.8782 -2.0153  1.4887
 4433SOL    HW224759   0.212   4.242   8.160  0.5505  0.9601 -2.3089
 4434SOL     OW24760   0.418   3.634   8.347 -0.0732  0.4269  0.3974
 4434SOL    HW124761   0.481   3.577   8.304 -2.6165 -1.7775 -0.3685
 4434SOL    HW224762   0.353   3.571   8.377  0.1488  0.7225  1.5438
 4435SOL     OW24763   0.291   1.069   5.804  0.0078 -0.2356  0.3623
 4435SOL    HW124764   0.247   1.146   5.841 -0.7612 -0.6136  0.2309
 4435SOL    HW224765   0.297   1.103   5.715  1.1561  0.6434  0.7723
 4436SOL     OW24766   2.604   1.077   5.485  0.5489 -0.5486 -0.2013
 4436SOL    HW124767   2.624   1.142   5.552  0.8346 -0.7344 -0.1056
 4436SOL    HW224768   2.650   0.997   5.511 -1.1334 -0.8396  1.8484
 4437SOL     OW24769   0.820   2.583   0.450 -0.2894 -0.1849 -0.4390
 4437SOL    HW124770   0.736   2.540   0.433  0.7003 -2.2433 -0.1025
 4437SOL    HW224771   0.838   2.595   0.357 -0.3601  0.0646 -0.4198
 4438SOL     OW24772   2.283   4.136   0.514 -0.0215  0.1416 -0.2031
 4438SOL    HW124773   2.300   4.230   0.518  0.1216  0.1107 -0.0770
 4438SOL    HW224774   2.255   4.113   0.603  2.7592  2.2219  1.2448
 4439SOL     OW24775   2.456   2.899  17.521  0.5604  0.3042 -0.3611
 4439SOL    HW124776   2.530   2.870  17.573  0.5303 -0.0350 -0.5052
 4439SOL    HW224777   2.447   2.830  17.455  0.0270  0.2454 -0.2283
 4440SOL     OW24778   2.495   4.369  16.149  0.1762  0.1620  0.1124
 4440SOL    HW124779   2.465   4.434  16.212  1.2915  0.2767  0.5185
 4440SOL    HW224780   2.446   4.405  16.076 -0.5944 -0.6660  0.2111
 4441SOL     OW24781   3.409   0.635   2.253 -0.2028 -0.2646  0.3904
 4441SOL    HW124782   3.481   0.690   2.221 -0.2247  0.0269  0.8386
 4441SOL    HW224783   3.391   0.586   2.173 -1.5885  0.5204  0.2297
 4442SOL     OW24784   4.037   2.112   5.050  0.2262 -0.0648 -0.0272
 4442SOL    HW124785   4.032   2.129   5.144 -0.5725 -1.3421  0.1569
 4442SOL    HW224786   4.123   2.147   5.028  0.9494 -1.5688  0.4537
 4443SOL     OW24787   0.709   4.674   1.338 -0.1700  0.5585  0.1663
 4443SOL    HW124788   0.631   4.662   1.391 -0.6885 -0.0442 -0.7445
 4443SOL    HW224789   0.690   0.029   1.287 -1.3206  0.6470  0.7461
 4444SOL     OW24790   1.500   2.497   5.783 -0.0120 -0.2720  0.2767
 4444SOL    HW124791   1.537   2.577   5.746  0.3254 -1.3373 -1.7044
 4444SOL    HW224792   1.413   2.511   5.745  0.5122  3.3406  0.3934
 4445SOL     OW24793   4.391   2.643   7.731 -0.0336  0.0413 -0.5134
 4445SOL    HW124794   4.452   2.578   7.695  1.0491  0.9480 -0.3209
 4445SOL    HW224795   4.375   2.698   7.655  1.1305  2.6043  1.1004
 4446SOL     OW24796   3.943   1.803   2.093 -0.0199 -0.6940 -0.5940
 4446SOL    HW124797   3.867   1.751   2.068 -1.3643  1.7160 -1.5828
 4446SOL    HW224798   3.997   1.787   2.016  0.4405 -1.8781 -0.0183
 4447SOL     OW24799   1.413   1.200   3.662  0.4161  0.2324  0.5027
 4447SOL    HW124800   1.475   1.146   3.613  1.1073  1.8215 -0.3778
 4447SOL    HW224801   1.380   1.134   3.723 -1.4095  0.7627  0.0927
 4448SOL     OW24802   2.691   4.048  15.161  0.4427  0.0543 -0.1897
 4448SOL    HW124803   2.745   3.990  15.214  0.4105  0.9063  0.7768
 4448SOL    HW224804   2.603   4.031  15.194  0.7554 -1.0538  0.0788
 4449SOL     OW24805   4.154   2.997   7.815 -0.6464  0.1257 -0.0883
 4449SOL    HW124806   4.177   2.904   7.813  0.7956  0.4365  2.0402
 4449SOL    HW224807   4.244   3.023   7.798 -1.3143  1.3699 -1.6764
 4450SOL     OW24808   0.764   2.422   3.857 -0.2992 -0.5019  0.1453
 4450SOL    HW124809   0.772   2.397   3.949  1.7213  0.1346  0.1475
 4450SOL    HW224810   0.859   2.436   3.852 -0.4335  1.0038  1.6583
 4451SOL     OW24811   4.362   0.059  11.219 -0.5543 -0.1479  0.3886
 4451SOL    HW124812   4.424   0.034  11.151 -1.8884 -1.9033 -0.1926
 4451SOL    HW224813   4.289   0.089  11.164  0.1758  1.0517  0.0901
 4452SOL     OW24814   2.599   0.963   3.552  0.4007  0.2485  0.2003
 4452SOL    HW124815   2.628   1.054   3.550 -0.9609  0.7152  1.5024
 4452SOL    HW224816   2.686   0.923   3.546  1.2988  2.0673  1.2100
 4453SOL     OW24817   2.981   3.997  11.360 -0.6558 -0.3118  0.5434
 4453SOL    HW124818   2.995   3.953  11.276  0.1617  0.9055  0.0495
 4453SOL    HW224819   3.071   4.015  11.389 -0.9852  2.2110 -0.0200
 4454SOL     OW24820   2.549   2.318   3.003 -0.4835  0.7570  0.2628
 4454SOL    HW124821   2.543   2.406   2.966 -0.7822 -0.6874 -3.1767
 4454SOL    HW224822   2.567   2.339   3.094  1.4750  1.2151 -0.2371
 4455SOL     OW24823   2.549   4.546   4.673  0.0812 -0.1947  0.5428
 4455SOL    HW124824   2.559   4.504   4.587 -0.3715  0.7821  0.0029
 4455SOL    HW224825   2.635   4.584   4.687 -1.3786  3.2780  0.0975
 4456SOL     OW24826   1.613   0.097   2.057  0.1578  0.0804  0.0154
 4456SOL    HW124827   1.696   0.094   2.010 -0.4122  0.3787 -1.0128
 4456SOL    HW224828   1.555   0.116   1.983 -0.5003 -0.5334  0.3704
 4457SOL     OW24829   1.072   4.272  10.256 -0.2032 -0.1948  0.0812
 4457SOL    HW124830   1.135   4.342  10.276 -1.6382  0.9122  0.7783
 4457SOL    HW224831   1.029   4.309  10.179 -0.2292  0.9304  0.6339
 4458SOL     OW24832   0.263   0.962   8.914 -0.1964 -0.1580  0.2907
 4458SOL    HW124833   0.203   0.904   8.962  0.2041 -0.2052  0.7369
 4458SOL    HW224834   0.349   0.959   8.956  0.5812 -1.9359 -1.4152
 4459SOL     OW24835   4.133   1.714   5.675 -0.0657 -0.1998  0.0305
 4459SOL    HW124836   4.157   1.697   5.584 -0.5901  4.5492 -1.0063
 4459SOL    HW224837   4.217   1.743   5.709 -0.0223 -0.6367  0.2923
 4460SOL     OW24838   1.623   3.504   9.162 -0.3313 -0.5197 -0.1321
 4460SOL    HW124839   1.707   3.459   9.151  0.0315 -0.4041  2.2857
 4460SOL    HW224840   1.651   3.586   9.201 -0.4968 -0.0585 -0.9642
 4461SOL     OW24841   3.186   2.893   3.982 -0.1370 -0.4213  0.4452
 4461SOL    HW124842   3.190   2.812   3.931 -2.0773 -0.0650 -0.2862
 4461SOL    HW224843   3.191   2.955   3.909  1.6089 -1.8544 -0.6464
 4462SOL     OW24844   0.209   1.268   6.878  0.2553 -0.1932 -0.0415
 4462SOL    HW124845   0.238   1.265   6.787 -0.0108  1.6008 -0.1934
 4462SOL    HW224846   0.115   1.285   6.874  0.0084 -1.7053 -0.3844
 4463SOL     OW24847   2.228   2.418  10.628 -0.2846  0.5220 -0.4312
 4463SOL    HW124848   2.148   2.464  10.654 -1.6214 -1.7603 -0.5291
 4463SOL    HW224849   2.216   2.341  10.683 -0.6366  0.1421 -1.0394
 4464SOL     OW24850   4.351   2.397   7.170 -0.2283 -0.3640  0.1118
 4464SOL    HW124851   4.365   2.327   7.107 -0.0851  0.0289 -0.2926
 4464SOL    HW224852   4.332   2.464   7.104 -1.6090 -2.3896 -1.5411
 4465SOL     OW24853   1.169   2.904   2.187  0.4253  0.0841  0.3240
 4465SOL    HW124854   1.131   2.958   2.117 -0.3603 -1.0977 -0.1588
 4465SOL    HW224855   1.093   2.869   2.233  1.4052 -0.3641  1.5834
 4466SOL     OW24856   4.607   0.080  10.622 -0.2697  0.2871 -0.5954
 4466SOL    HW124857   4.641   0.042  10.703 -2.1088 -2.1777 -0.9759
 4466SOL    HW224858   4.671   0.148  10.602 -0.2683  0.1316 -1.1071
 4467SOL     OW24859   1.308   4.139  11.026 -0.3863  1.4852 -0.1507
 4467SOL    HW124860   1.310   4.201  10.953 -1.2141  1.6714 -0.0227
 4467SOL    HW224861   1.240   4.077  10.999  0.1463  1.0520 -0.5026
 4468SOL     OW24862   3.713   3.721   1.668 -0.5723 -0.1357  0.7034
 4468SOL    HW124863   3.624   3.691   1.686 -0.9908  0.5794 -0.1876
 4468SOL    HW224864   3.750   3.729   1.756 -1.3477  1.4405  0.8794
 4469SOL     OW24865   1.111   1.442  16.029 -0.0713 -0.2218 -0.0683
 4469SOL    HW124866   1.053   1.367  16.014 -0.3988  0.1286 -0.5719
 4469SOL    HW224867   1.181   1.418  15.969 -0.0462 -0.9229  0.2469
 4470SOL     OW24868   1.470   0.705  10.388 -0.2353 -0.4390  0.1906
 4470SOL    HW124869   1.432   0.749  10.312 -0.3208 -0.5964  0.1424
 4470SOL    HW224870   1.483   0.616  10.356  0.1244  0.1704 -1.3627
 4471SOL     OW24871   3.539   4.526   8.452 -0.4821  0.1591 -0.1951
 4471SOL    HW124872   3.513   4.443   8.412 -0.5491 -0.3731  0.9363
 4471SOL    HW224873   3.538   4.582   8.374  1.3577 -0.0256 -0.3572
 4472SOL     OW24874   4.600   1.419  17.682 -0.0112  0.1833  0.0656
 4472SOL    HW124875   4.677   1.476  17.676  0.1411 -0.1153 -0.7390
 4472SOL    HW224876   4.531   1.460  17.630 -0.4165 -0.2120  0.2925
 4473SOL     OW24877   1.392   0.705  16.038 -0.5540  0.2256  0.0148
 4473SOL    HW124878   1.480   0.742  16.049  0.9193 -4.3765  3.6301
 4473SOL    HW224879   1.413   0.613  16.051 -3.6210 -0.5388 -0.4473
 4474SOL     OW24880   3.133   0.312   9.761  0.0144 -0.3352  0.6220
 4474SOL    HW124881   3.178   0.391   9.730 -1.7179  0.5314  0.2916
 4474SOL    HW224882   3.042   0.334   9.744 -0.0069 -0.4444  0.5916
 4475SOL     OW24883   2.957   1.523   2.790 -0.4285 -0.1432 -0.3380
 4475SOL    HW124884   2.913   1.502   2.707 -0.5925 -0.8758 -0.0713
 4475SOL    HW224885   2.874   1.535   2.834  0.7263  1.1011  1.5019
 4476SOL     OW24886   2.130   2.858   3.664  0.2121  0.0575  0.3909
 4476SOL    HW124887   2.055   2.909   3.696  0.5658  0.2731  0.8630
 4476SOL    HW224888   2.160   2.841   3.753 -0.0393 -1.5552  0.1876
 4477SOL     OW24889   1.297   1.479   7.283  0.4639 -0.2958 -0.5393
 4477SOL    HW124890   1.375   1.478   7.338 -1.0122  2.9329  1.5737
 4477SOL    HW224891   1.320   1.552   7.226  1.6539 -0.3190 -0.0957
 4478SOL     OW24892   0.866   2.199   3.428 -0.0545 -0.1443  0.2457
 4478SOL    HW124893   0.955   2.214   3.395 -0.8425  0.2200 -1.7073
 4478SOL    HW224894   0.813   2.255   3.372  1.3642  1.5011  0.5430
 4479SOL     OW24895   4.269   3.433   8.294  0.6416 -0.3739 -0.1382
 4479SOL    HW124896   4.287   3.352   8.246 -1.4031 -0.4617 -0.7792
 4479SOL    HW224897   4.301   3.490   8.224  1.2693 -0.7740 -0.1726
 4480SOL     OW24898   2.539   3.986  12.953  0.3718 -0.3963 -0.5817
 4480SOL    HW124899   2.624   4.032  12.955  0.0534  0.1372  0.6358
 4480SOL    HW224900   2.570   3.898  12.933 -1.0044 -0.8491 -0.6958
 4481SOL     OW24901   2.058   4.568   4.120  0.2215 -0.7332 -1.1843
 4481SOL    HW124902   2.090   4.658   4.119 -0.5031 -0.4827 -1.3030
 4481SOL    HW224903   2.011   4.572   4.037  0.2626 -1.5071 -1.2427
 4482SOL     OW24904   3.234   4.677   4.840 -0.2498 -0.1344  0.3732
 4482SOL    HW124905   3.276   4.654   4.758 -0.7448  0.3875 -0.0284
 4482SOL    HW224906   3.300   0.012   4.878  0.1856  0.9428 -2.0140
 4483SOL     OW24907   1.940   2.626  10.922  0.3332  0.5423 -0.5614
 4483SOL    HW124908   1.859   2.592  10.884  0.2819  1.4315 -1.2439
 4483SOL    HW224909   1.996   2.632  10.845  0.0570  0.4422 -0.7720
 4484SOL     OW24910   2.070   2.443   6.521  0.0773 -0.1369  0.2032
 4484SOL    HW124911   2.026   2.488   6.593 -2.2493 -1.1803 -0.5359
 4484SOL    HW224912   2.014   2.466   6.446  2.7678 -1.3872 -2.1721
 4485SOL     OW24913   4.354   1.349   7.227 -0.3928 -0.0784  0.1789
 4485SOL    HW124914   4.337   1.261   7.194 -1.9437  1.1954 -2.4166
 4485SOL    HW224915   4.394   1.386   7.148  1.4458  2.3910  2.2524
 4486SOL     OW24916   1.626   0.625   5.101  0.2980  0.0974 -0.6412
 4486SOL    HW124917   1.618   0.714   5.135 -1.5404 -0.1999 -0.2598
 4486SOL    HW224918   1.685   0.635   5.027 -1.2427 -1.6998 -2.1298
 4487SOL     OW24919   0.112   3.147   5.229  0.5041  1.4280 -0.3660
 4487SOL    HW124920   0.187   3.133   5.287 -1.4800 -0.1420  1.8587
 4487SOL    HW224921   0.065   3.226   5.256  0.3030  0.8703  0.9493
 4488SOL     OW24922   0.021   0.706   4.975  0.2875 -0.4259 -0.0605
 4488SOL    HW124923   0.048   0.620   5.008 -1.8811 -1.1084 -0.0300
 4488SOL    HW224924   0.098   0.752   4.941  1.0037 -0.1145  2.0101
 4489SOL     OW24925   1.499   2.125   5.983  0.5404  0.4983  0.1078
 4489SOL    HW124926   1.562   2.144   5.914 -0.1966 -0.7601 -0.9208
 4489SOL    HW224927   1.467   2.213   6.003 -0.2868  0.3646 -0.6249
 4490SOL     OW24928   4.004   4.198   7.661 -0.0022  0.1568  0.3667
 4490SOL    HW124929   3.993   4.131   7.593  1.2031  0.8425 -0.5008
 4490SOL    HW224930   3.986   4.151   7.743  1.7317 -2.3140 -0.6769
 4491SOL     OW24931   1.593   2.143   3.804  0.3930  0.2536 -0.4023
 4491SOL    HW124932   1.596   2.189   3.888  2.6984  0.4464 -0.6047
 4491SOL    HW224933   1.615   2.220   3.751 -0.0911  0.3207 -0.5049
 4492SOL     OW24934   3.993   2.617  13.262  0.0318 -0.0712  0.1880
 4492SOL    HW124935   4.076   2.622  13.216  0.5251  1.0421  1.2219
 4492SOL    HW224936   3.936   2.596  13.188  0.0674 -2.5772  0.8601
 4493SOL     OW24937   4.173   3.421  14.722 -0.3066 -0.6193 -0.3947
 4493SOL    HW124938   4.208   3.432  14.634 -0.2532  2.3532 -0.0116
 4493SOL    HW224939   4.237   3.468  14.774 -2.1288 -0.1292  1.4209
 4494SOL     OW24940   0.866   0.840  16.011  0.1861  0.6450 -0.1569
 4494SOL    HW124941   0.779   0.855  16.048 -0.1548  0.2270 -0.7790
 4494SOL    HW224942   0.872   0.912  15.948 -3.2940 -0.0100 -1.2122
 4495SOL     OW24943   1.663   4.185   5.470  0.2140  0.2315 -0.1633
 4495SOL    HW124944   1.665   4.262   5.527 -2.0267  1.3656 -1.6176
 4495SOL    HW224945   1.579   4.182   5.424 -1.5330 -1.3273  3.1374
 4496SOL     OW24946   4.549   0.137   2.189  0.0690  0.7016  0.5540
 4496SOL    HW124947   4.645   0.140   2.185  0.1257  0.3451  1.6482
 4496SOL    HW224948   4.529   0.221   2.148 -0.3168 -0.3962 -1.5392
 4497SOL     OW24949   0.008   1.093   4.393  0.1081 -0.1959  0.2236
 4497SOL    HW124950   0.068   1.152   4.348  0.9705 -0.8567  0.5055
 4497SOL    HW224951   0.063   1.016   4.409  0.6845  0.0008 -0.8240
 4498SOL     OW24952   3.049   1.029  16.633 -0.3688  0.4255 -0.2323
 4498SOL    HW124953   3.136   1.056  16.665 -0.9628  1.3475  0.5968
 4498SOL    HW224954   3.003   1.002  16.712 -0.3606  0.4790 -0.2093
 4499SOL     OW24955   2.009   1.420   8.412 -0.3303  0.0018  0.3661
 4499SOL    HW124956   2.090   1.457   8.446 -0.9116  1.8643 -0.2797
 4499SOL    HW224957   1.981   1.389   8.498  2.4780 -1.5495  0.6963
 4500SOL     OW24958   3.160   0.141  11.643  0.1736  0.5303 -0.4265
 4500SOL    HW124959   3.079   0.172  11.683  0.6808 -0.2601  1.2204
 4500SOL    HW224960   3.143   0.160  11.551 -0.4295  0.2134 -0.3786
 4501SOL     OW24961   2.174   0.841   2.172  0.0028  0.0868 -0.3697
 4501SOL    HW124962   2.164   0.841   2.077  0.7894 -3.9368 -0.4419
 4501SOL    HW224963   2.266   0.816   2.176 -0.7522 -2.9256 -1.8182
 4502SOL     OW24964   4.230   0.229   4.861  0.1495  0.0985 -0.1365
 4502SOL    HW124965   4.187   0.242   4.776 -2.3996  1.2369  1.3441
 4502SOL    HW224966   4.318   0.232   4.823 -0.0536  2.4117 -0.3960
 4503SOL     OW24967   1.544   4.591   5.213  0.5986 -0.0046  0.4192
 4503SOL    HW124968   1.478   4.592   5.143  1.2641 -2.1393 -0.2571
 4503SOL    HW224969   1.591   4.513   5.184  0.4770  0.9537 -2.3804
 4504SOL     OW24970   2.659   0.037   6.442  0.1989  0.0526 -0.0867
 4504SOL    HW124971   2.691   0.026   6.532  0.9414  1.8508 -0.1367
 4504SOL    HW224972   2.732   0.070   6.390  0.3851 -0.2463 -0.0149
 4505SOL     OW24973   1.982   2.556  12.967  0.3090  0.6150 -1.0618
 4505SOL    HW124974   2.041   2.623  12.933  1.1673  0.8222  0.8483
 4505SOL    HW224975   1.917   2.545  12.897  0.9476 -0.3501 -1.5033
 4506SOL     OW24976   3.042   3.544  10.948 -0.1982  0.4436  0.1382
 4506SOL    HW124977   3.075   3.586  11.028 -1.1798  1.9753 -0.2613
 4506SOL    HW224978   2.983   3.613  10.918 -1.9024 -1.3669 -0.6388
 4507SOL     OW24979   3.397   1.556   2.175 -0.1489 -0.2378 -0.2710
 4507SOL    HW124980   3.385   1.607   2.095 -0.9638 -0.3794 -0.2404
 4507SOL    HW224981   3.485   1.519   2.163  0.5045  1.8192 -1.7539
 4508SOL     OW24982   0.390   1.479   8.399  0.6337 -0.2549  0.0234
 4508SOL    HW124983   0.412   1.390   8.374  1.7443  0.3303 -1.0713
 4508SOL    HW224984   0.300   1.469   8.431 -0.1114  1.1837 -1.5854
 4509SOL     OW24985   0.501   0.889   4.318 -0.0468 -0.0170 -0.5959
 4509SOL    HW124986   0.585   0.902   4.362 -1.3095 -0.9411  2.0556
 4509SOL    HW224987   0.528   0.809   4.274  1.8933  0.0494  0.4800
 4510SOL     OW24988   3.676   3.433   1.532 -0.2169 -0.4306  0.4783
 4510SOL    HW124989   3.586   3.467   1.528  0.3421  1.0070  0.2092
 4510SOL    HW224990   3.696   3.462   1.621 -0.5634  0.3052  0.3207
 4511SOL     OW24991   1.128   2.896  12.612  0.0125  0.1188 -0.8829
 4511SOL    HW124992   1.158   2.973  12.660  1.9998  0.0996 -2.1046
 4511SOL    HW224993   1.179   2.830  12.658  1.4476  0.6460 -1.7112
 4512SOL     OW24994   2.378   2.777  17.250  0.3798 -0.4210  0.0813
 4512SOL    HW124995   2.304   2.717  17.246 -0.2601  0.5101 -2.1662
 4512SOL    HW224996   2.357   2.830  17.173  1.2640 -0.1544  0.0142
 4513SOL     OW24997   0.714   0.895   5.073  0.0467 -0.2775 -0.3015
 4513SOL    HW124998   0.710   0.913   4.980 -0.9340 -1.2046 -0.4404
 4513SOL    HW224999   0.704   0.984   5.105 -1.2918 -0.1319 -1.1369
 4514SOL     OW25000   2.402   4.161   2.252  0.8509  0.3469 -0.5291
 4514SOL    HW125001   2.395   4.214   2.173  0.1797  0.1865 -0.5748
 4514SOL    HW225002   2.473   4.101   2.229  1.3773 -0.5377  3.2863
 4515SOL     OW25003   4.364   2.422  10.259  0.2510 -0.4150  0.5990
 4515SOL    HW125004   4.292   2.484  10.271  1.6168  0.9400  1.7305
 4515SOL    HW225005   4.324   2.358  10.199 -0.9299 -0.1616  1.0994
 4516SOL     OW25006   2.298   3.154   5.235 -0.2388  0.1775 -0.0163
 4516SOL    HW125007   2.281   3.066   5.203  2.9215  0.3127 -2.1135
 4516SOL    HW225008   2.392   3.156   5.217  0.0893 -0.1239  1.7415
 4517SOL     OW25009   3.945   4.663   8.954  0.2007 -0.6817  0.3433
 4517SOL    HW125010   3.970   4.639   8.865 -1.3359  1.0465 -0.5632
 4517SOL    HW225011   3.892   4.588   8.983 -1.3216 -0.1128 -0.9539
 4518SOL     OW25012   4.552   0.591   8.944 -0.4933 -0.4992  1.0340
 4518SOL    HW125013   4.620   0.535   8.906 -0.9818 -1.1182  1.0680
 4518SOL    HW225014   4.522   0.644   8.870 -1.3431 -0.4193  1.4256
 4519SOL     OW25015   1.124   0.535   8.575  0.0784 -0.4771  0.5229
 4519SOL    HW125016   1.153   0.499   8.491  0.7699  1.4879 -0.0888
 4519SOL    HW225017   1.204   0.579   8.605  0.5773  0.3109 -1.9603
 4520SOL     OW25018   1.726   4.544   1.177  0.2091  0.0623 -0.0572
 4520SOL    HW125019   1.649   4.517   1.228 -0.1289  1.2575  0.0761
 4520SOL    HW225020   1.771   4.460   1.173  1.7515  0.7643  2.2551
 4521SOL     OW25021   3.683   4.610   9.722 -0.1673 -0.3202  0.4522
 4521SOL    HW125022   3.597   4.614   9.762 -0.2105  0.0071  0.3316
 4521SOL    HW225023   3.740   4.635   9.795 -0.8871  1.6008  0.3513
 4522SOL     OW25024   0.449   1.303   3.739  0.2948 -0.1517  0.0086
 4522SOL    HW125025   0.494   1.379   3.776 -1.8863  1.9483 -1.6553
 4522SOL    HW225026   0.436   1.327   3.647 -2.0664 -0.5115  0.2377
 4523SOL     OW25027   2.251   1.077   8.728  0.3341  0.2232 -0.0060
 4523SOL    HW125028   2.171   1.049   8.771  0.2932 -0.8404 -0.7818
 4523SOL    HW225029   2.222   1.072   8.637  0.9373  0.5721 -0.2212
 4524SOL     OW25030   4.369   1.460   9.305  0.0531  0.8177 -0.1080
 4524SOL    HW125031   4.431   1.485   9.236  0.4299  0.2281  0.0200
 4524SOL    HW225032   4.303   1.419   9.249 -0.8460  1.1388  0.7038
 4525SOL     OW25033   3.980   4.042   7.883 -0.2240 -0.0335 -0.0239
 4525SOL    HW125034   3.899   4.004   7.916  0.0836  0.7379  1.6051
 4525SOL    HW225035   4.045   4.008   7.945  1.4403 -0.5651 -2.0576
 4526SOL     OW25036   2.050   3.546  10.571 -0.6464  0.2098  0.4101
 4526SOL    HW125037   2.000   3.500  10.503  1.3241 -0.2230 -0.7483
 4526SOL    HW225038   2.069   3.625  10.520  0.5784 -1.6801 -2.0563
 4527SOL     OW25039   1.373   0.211   7.773  0.1790  0.2170 -0.6124
 4527SOL    HW125040   1.354   0.136   7.829 -2.5124 -0.6441 -2.6876
 4527SOL    HW225041   1.367   0.166   7.689 -1.1322 -1.6914  0.5079
 4528SOL     OW25042   2.282   1.367   7.076 -0.5933 -0.0366  0.4479
 4528SOL    HW125043   2.290   1.461   7.057  1.6091 -0.1627  0.6969
 4528SOL    HW225044   2.358   1.345   7.130  0.1164 -0.7427 -0.8209
 4529SOL     OW25045   3.931   2.185   4.806  0.2130  0.0680  0.0406
 4529SOL    HW125046   3.943   2.143   4.891 -0.3114  0.7603  0.4552
 4529SOL    HW225047   3.845   2.227   4.818  1.4847  2.3541  1.1261
 4530SOL     OW25048   1.701   4.375  17.175  1.4557  0.1423  0.4739
 4530SOL    HW125049   1.746   4.451  17.137  0.1948  1.2548  1.2086
 4530SOL    HW225050   1.627   4.373  17.115  1.8880 -4.6513  0.0859
 4531SOL     OW25051   1.313   3.586   7.283  0.3963  0.0659  0.1861
 4531SOL    HW125052   1.373   3.609   7.354 -0.9123 -0.4003  1.4675
 4531SOL    HW225053   1.263   3.668   7.272  1.6346  0.6638 -0.9559
 4532SOL     OW25054   1.491   0.059   4.919 -0.3929 -0.2026 -0.1710
 4532SOL    HW125055   1.519   0.109   4.996 -0.5394 -0.5207  0.0915
 4532SOL    HW225056   1.426   0.118   4.881  0.4622  0.8910  0.0670
 4533SOL     OW25057   2.803   4.014  11.638 -0.3971  0.8042  0.2042
 4533SOL    HW125058   2.730   3.955  11.622 -0.8273  1.2727  0.4435
 4533SOL    HW225059   2.863   3.984  11.569 -1.0747 -0.2516  0.0767
 4534SOL     OW25060   2.422   4.205   5.173  0.1693 -0.2950 -0.0060
 4534SOL    HW125061   2.365   4.187   5.248 -2.1449 -1.4221 -2.0408
 4534SOL    HW225062   2.382   4.284   5.138 -0.0174 -1.5235 -2.5938
 4535SOL     OW25063   2.653   2.482  14.384 -0.0986  0.1022 -0.5022
 4535SOL    HW125064   2.619   2.502  14.297 -0.7340  0.1021 -0.2582
 4535SOL    HW225065   2.708   2.409  14.355 -0.8551 -0.6993  0.0550
 4536SOL     OW25066   2.771   4.706   0.709 -0.1216  0.4404 -0.3680
 4536SOL    HW125067   2.678   0.004   0.717  0.0025  0.8402 -0.0099
 4536SOL    HW225068   2.767   4.610   0.707  2.0642  0.3685 -1.0775
 4537SOL     OW25069   2.303   2.434   6.401 -1.0321 -0.6336  0.4849
 4537SOL    HW125070   2.219   2.453   6.442 -2.1014  1.3699 -2.6659
 4537SOL    HW225071   2.273   2.399   6.317  0.0463  2.2789 -1.0958
 4538SOL     OW25072   1.505   0.674  15.046  0.1907  0.2976 -0.4604
 4538SOL    HW125073   1.500   0.764  15.079 -0.2194  0.4230 -0.8646
 4538SOL    HW225074   1.411   0.660  15.057  0.2234  0.4733  0.0096
 4539SOL     OW25075   2.027   2.005   7.991 -0.0272 -0.4735 -0.4144
 4539SOL    HW125076   2.046   1.919   8.028  1.6087  0.0777  0.0320
 4539SOL    HW225077   2.091   2.062   8.033 -0.3415  0.4649 -1.2135
 4540SOL     OW25078   3.266   3.666   6.392  0.7449 -0.4497 -0.3353
 4540SOL    HW125079   3.258   3.654   6.487  0.6828  1.6252 -0.0696
 4540SOL    HW225080   3.193   3.612   6.361 -0.9910  1.1037  1.0226
 4541SOL     OW25081   3.388   3.894  14.148  0.4526 -0.5914  0.3006
 4541SOL    HW125082   3.405   3.881  14.055 -0.7714  0.3290 -0.0389
 4541SOL    HW225083   3.434   3.816  14.181 -0.9714 -1.1033  1.0561
 4542SOL     OW25084   0.470   0.241   5.533 -0.0914 -0.1958  0.2536
 4542SOL    HW125085   0.454   0.197   5.617 -1.0517 -2.4415 -1.1243
 4542SOL    HW225086   0.503   0.326   5.565  1.2607 -0.8681  0.6634
 4543SOL     OW25087   2.874   3.659   5.255 -0.2202  0.3603 -0.0227
 4543SOL    HW125088   2.820   3.639   5.179 -1.3233  1.3756  0.4845
 4543SOL    HW225089   2.828   3.736   5.290 -0.0739 -0.0106  1.0041
 4544SOL     OW25090   2.243   0.304   6.402 -0.2403 -0.0374 -0.4558
 4544SOL    HW125091   2.204   0.281   6.486  0.6615 -2.1394 -0.5979
 4544SOL    HW225092   2.336   0.300   6.425 -0.4097 -1.6159 -0.0305
 4545SOL     OW25093   1.679   3.629   8.548  0.5601  0.0645  0.0212
 4545SOL    HW125094   1.659   3.614   8.641 -1.2199 -0.7192 -0.4914
 4545SOL    HW225095   1.693   3.724   8.539  2.1593 -0.1790 -0.0883
 4546SOL     OW25096   4.366   0.646   5.213 -0.2483 -0.2120 -0.1704
 4546SOL    HW125097   4.398   0.728   5.252  0.2255  0.0732 -1.1616
 4546SOL    HW225098   4.274   0.664   5.196 -0.3238  0.6054  1.0477
 4547SOL     OW25099   2.610   0.913  10.914 -0.1236 -0.2026 -0.0398
 4547SOL    HW125100   2.571   0.953  10.836 -0.3767 -0.0460  0.1706
 4547SOL    HW225101   2.673   0.856  10.869  0.5406  1.1122 -0.7591
 4548SOL     OW25102   1.830   0.391   7.350 -0.4470 -0.2835 -0.2289
 4548SOL    HW125103   1.766   0.396   7.421 -1.6535 -0.7622 -1.2811
 4548SOL    HW225104   1.825   0.472   7.300 -0.4957 -1.6753 -2.4963
 4549SOL     OW25105   0.681   0.456   8.409  0.0248  0.5252 -0.2647
 4549SOL    HW125106   0.754   0.518   8.408  0.5277 -0.0552  0.2821
 4549SOL    HW225107   0.607   0.516   8.394  0.6819  0.8997 -1.9861
 4550SOL     OW25108   0.384   4.583   1.278 -0.6089 -0.0380  0.2497
 4550SOL    HW125109   0.411   4.626   1.359  0.0249 -0.4542  0.2552
 4550SOL    HW225110   0.461   4.553   1.230  0.9188  1.6370  1.6421
 4551SOL     OW25111   3.304   3.223   9.395  0.4541 -0.4237  0.4218
 4551SOL    HW125112   3.276   3.176   9.473 -0.3793 -1.5738 -0.5741
 4551SOL    HW225113   3.230   3.216   9.335  1.3180  1.2145 -0.8446
 4552SOL     OW25114   1.181   2.796   9.432 -0.4914 -1.0004  0.9431
 4552SOL    HW125115   1.229   2.797   9.515  0.9198  1.2510  0.1133
 4552SOL    HW225116   1.139   2.882   9.441 -0.9929 -1.2564  1.0288
 4553SOL     OW25117   0.963   2.647   3.900  0.0369  0.2516  0.2365
 4553SOL    HW125118   0.988   2.737   3.882 -0.1027  0.5148  1.3844
 4553SOL    HW225119   0.876   2.648   3.939 -0.4957 -1.7305 -0.8934
 4554SOL     OW25120   0.503   2.248  16.633 -0.1745 -0.5296  0.2242
 4554SOL    HW125121   0.492   2.212  16.721 -0.2642 -0.3807  0.2755
 4554SOL    HW225122   0.512   2.163  16.590  2.0110 -0.4024  0.4063
 4555SOL     OW25123   2.850   3.889  12.325 -0.0909  0.4806 -0.0075
 4555SOL    HW125124   2.777   3.828  12.332 -0.6226  1.0312 -0.8549
 4555SOL    HW225125   2.903   3.838  12.263 -0.6809  0.5152 -0.5360
 4556SOL     OW25126   1.332   4.389   1.115  0.2537 -0.7870 -0.3293
 4556SOL    HW125127   1.377   4.452   1.171  0.7303  0.1881 -1.8048
 4556SOL    HW225128   1.344   4.305   1.159  2.4261  0.9395  2.3704
 4557SOL     OW25129   2.097   1.020  16.629  0.1666  0.1851  0.3997
 4557SOL    HW125130   2.135   1.066  16.704  1.3053 -1.0243  0.5746
 4557SOL    HW225131   2.147   1.071  16.564  0.7847  0.2756  0.9397
 4558SOL     OW25132   0.970   3.976   5.325 -0.3971  0.1803 -0.3964
 4558SOL    HW125133   0.978   4.059   5.372  3.9910 -0.8943  0.6861
 4558SOL    HW225134   0.975   4.003   5.233 -0.6082  0.9452 -0.1907
 4559SOL     OW25135   3.475   4.011   1.035  0.1431 -0.1759  0.1312
 4559SOL    HW125136   3.453   3.918   1.029  3.7460 -0.9755 -1.0373
 4559SOL    HW225137   3.561   4.000   1.077  0.5802 -1.3130 -1.0430
 4560SOL     OW25138   4.128   1.183   2.181  0.3027 -0.0717 -0.3639
 4560SOL    HW125139   4.199   1.185   2.116  1.5886 -0.3554  1.0248
 4560SOL    HW225140   4.100   1.274   2.173 -0.8346 -0.0766  3.7555
 4561SOL     OW25141   4.644   4.559  14.818 -0.1782 -0.1028  0.1392
 4561SOL    HW125142   4.619   4.651  14.824  1.0011  0.4074 -2.4103
 4561SOL    HW225143   0.016   4.567  14.811 -0.1092 -1.3195 -0.3537
 4562SOL     OW25144   0.312   1.815   4.403  0.2722 -0.5210 -0.3240
 4562SOL    HW125145   0.353   1.880   4.460 -1.4278 -0.3817  0.7282
 4562SOL    HW225146   0.291   1.869   4.327  2.0427  0.4740 -0.1072
 4563SOL     OW25147   1.100   3.343   2.267  0.2556  0.3895  0.0620
 4563SOL    HW125148   1.128   3.253   2.285  0.2562  0.5465  0.8527
 4563SOL    HW225149   1.151   3.395   2.329  1.1726  1.4071 -1.5472
 4564SOL     OW25150   2.616   0.717   8.728 -0.3359  0.2737 -0.5460
 4564SOL    HW125151   2.700   0.757   8.708  0.3151 -1.2790 -0.8771
 4564SOL    HW225152   2.582   0.693   8.641  0.0235 -1.9085 -0.0899
 4565SOL     OW25153   3.360   0.595  14.405 -0.9399 -0.2491  0.3108
 4565SOL    HW125154   3.402   0.510  14.416  2.2798  1.5244  1.5979
 4565SOL    HW225155   3.311   0.582  14.324 -0.6751 -1.1664  0.3031
 4566SOL     OW25156   4.400   3.333   3.610 -0.4197 -0.2424 -0.1287
 4566SOL    HW125157   4.472   3.342   3.549 -0.8538 -1.2305 -0.7881
 4566SOL    HW225158   4.326   3.316   3.551  1.0794 -1.1801 -1.7252
 4567SOL     OW25159   0.389   4.313   2.451  0.1603  0.5752  0.4946
 4567SOL    HW125160   0.322   4.305   2.519 -0.1234 -2.9614 -0.2345
 4567SOL    HW225161   0.468   4.343   2.496  1.5494  1.8550 -2.7355
 4568SOL     OW25162   2.343   4.278   8.136 -0.0072  0.1987 -0.4081
 4568SOL    HW125163   2.381   4.284   8.223 -1.0777 -0.2117  0.0888
 4568SOL    HW225164   2.290   4.198   8.140  1.5084 -0.7098  1.2645
 4569SOL     OW25165   3.508   4.151  15.122 -0.1010  0.2129 -0.4392
 4569SOL    HW125166   3.577   4.172  15.059 -0.9556  1.4017 -0.9917
 4569SOL    HW225167   3.561   4.124  15.197  0.2162  0.2110 -0.6634
 4570SOL     OW25168   1.986   0.767   2.377 -0.4353  0.0631 -0.5440
 4570SOL    HW125169   2.030   0.803   2.300  0.3843 -1.2858 -0.7019
 4570SOL    HW225170   2.042   0.700   2.416  0.1634  2.4238  2.6542
 4571SOL     OW25171   2.320   0.378   4.924  0.0710  0.3686 -0.0734
 4571SOL    HW125172   2.356   0.411   4.842  1.7281  0.8073  0.8342
 4571SOL    HW225173   2.233   0.342   4.908  0.3159  1.0937 -2.9808
 4572SOL     OW25174   0.696   2.477   8.215 -0.1631 -0.4866 -1.2516
 4572SOL    HW125175   0.749   2.411   8.171  0.7116  0.4077 -1.5545
 4572SOL    HW225176   0.610   2.478   8.172  0.5170  0.4106 -2.6024
 4573SOL     OW25177   2.691   1.234   4.569 -0.2034  0.4280  0.5247
 4573SOL    HW125178   2.719   1.144   4.586  0.2036  0.1442 -1.6024
 4573SOL    HW225179   2.773   1.283   4.582 -0.0130 -0.0351  1.0531
 4574SOL     OW25180   1.029   0.763   1.637 -0.2410 -0.6425 -0.2998
 4574SOL    HW125181   0.962   0.798   1.578 -0.1596  2.0383  1.2184
 4574SOL    HW225182   1.025   0.823   1.711 -0.6554  0.2874 -1.0666
 4575SOL     OW25183   3.835   4.497   3.223  0.1957  0.1958  0.1281
 4575SOL    HW125184   3.839   4.542   3.138  2.1926 -1.7047 -0.7847
 4575SOL    HW225185   3.874   4.414   3.196 -1.7222 -1.1394  1.5257
 4576SOL     OW25186   3.451   1.707   0.482 -0.5527  0.0171  0.4704
 4576SOL    HW125187   3.406   1.737   0.402 -0.7538  0.2965  0.6886
 4576SOL    HW225188   3.422   1.761   0.555 -1.6072 -1.6356  1.2800
 4577SOL     OW25189   0.599   2.356   0.026  0.0694  0.0948 -0.2719
 4577SOL    HW125190   0.614   2.377  17.630  0.9284  0.9699  0.0567
 4577SOL    HW225191   0.589   2.261   0.027 -0.0127  0.1152  3.1010
 4578SOL     OW25192   4.683   1.833   8.777  0.0127 -0.7035 -0.1569
 4578SOL    HW125193   4.672   1.916   8.823  0.3221 -1.2638  0.9232
 4578SOL    HW225194   4.593   1.803   8.790  0.4698 -1.7096  0.7004
 4579SOL     OW25195   0.390   2.991   5.794 -0.2527  0.2810 -0.4107
 4579SOL    HW125196   0.353   2.909   5.761  0.2855 -0.1763  0.1211
 4579SOL    HW225197   0.332   3.022   5.864  2.1354  1.1276  1.1944
 4580SOL     OW25198   0.756   3.687   6.764 -0.3051  0.0939 -0.4608
 4580SOL    HW125199   0.746   3.683   6.669 -0.2364  2.8884 -0.5986
 4580SOL    HW225200   0.826   3.753   6.765 -1.1691  1.0080  1.4884
 4581SOL     OW25201   3.231   3.691   1.808 -0.0744  0.0580  0.5262
 4581SOL    HW125202   3.237   3.652   1.721 -0.0576  3.7170 -1.1033
 4581SOL    HW225203   3.299   3.757   1.794 -0.8510  1.0036  1.1905
 4582SOL     OW25204   2.747   2.654  15.283 -0.0922  0.0337 -0.4634
 4582SOL    HW125205   2.813   2.723  15.272 -2.4671  2.6032  1.3229
 4582SOL    HW225206   2.667   2.699  15.309 -0.7350 -0.4132 -1.6749
 4583SOL     OW25207   2.154   1.758   2.863  0.2358 -0.6995 -0.7098
 4583SOL    HW125208   2.140   1.702   2.940 -2.4802  0.3447 -0.4669
 4583SOL    HW225209   2.100   1.833   2.886  0.1383 -0.9826 -0.0109
 4584SOL     OW25210   3.583   2.432   6.028 -0.1338 -0.4514  0.2652
 4584SOL    HW125211   3.511   2.371   6.042 -0.0504 -1.0483 -1.9798
 4584SOL    HW225212   3.564   2.509   6.081  1.4033  0.8055 -0.9935
 4585SOL     OW25213   0.081   2.468   3.274  0.3833  0.0091  0.4763
 4585SOL    HW125214   0.046   2.379   3.284 -1.0725  0.4990 -0.2858
 4585SOL    HW225215   0.030   2.512   3.343 -0.7705 -1.1282  0.3522
 4586SOL     OW25216   4.064   0.288   6.674  0.5469 -0.0717  0.5286
 4586SOL    HW125217   4.011   0.361   6.707 -0.5423 -0.2110 -0.9070
 4586SOL    HW225218   4.078   0.318   6.584 -1.4551  0.7962  0.5032
 4587SOL     OW25219   0.491   1.451  16.105 -0.1947  0.6472 -0.0822
 4587SOL    HW125220   0.504   1.531  16.157 -1.0897 -0.8119  2.3570
 4587SOL    HW225221   0.505   1.487  16.017  1.8848  1.7116  0.6942
 4588SOL     OW25222   2.799   4.477   9.015 -0.7725 -0.1835  0.1307
 4588SOL    HW125223   2.763   4.389   9.001 -1.9640 -0.2370  3.5578
 4588SOL    HW225224   2.839   4.493   8.929  0.3847  0.5456  0.8121
 4589SOL     OW25225   1.606   1.263  11.876  0.9253 -0.2173 -0.2840
 4589SOL    HW125226   1.558   1.322  11.819 -0.5750 -0.4256  0.7561
 4589SOL    HW225227   1.550   1.255  11.954 -0.6640 -0.0352 -1.4057
 4590SOL     OW25228   0.297   3.254   6.075  0.6685  0.0885  0.1222
 4590SOL    HW125229   0.353   3.212   6.140  0.5004 -1.2614 -0.5950
 4590SOL    HW225230   0.218   3.261   6.129  0.9149  0.7074  0.4078
 4591SOL     OW25231   1.114   2.702   3.266  0.6339  0.8676 -0.0477
 4591SOL    HW125232   1.192   2.717   3.214 -0.7302  0.5881 -2.1680
 4591SOL    HW225233   1.065   2.765   3.214  1.4037 -0.7633 -2.7236
 4592SOL     OW25234   1.063   4.518  10.786 -0.2570  0.2288 -0.3637
 4592SOL    HW125235   0.996   4.517  10.855  0.4312 -1.6919  0.2982
 4592SOL    HW225236   1.023   4.454  10.727 -1.5979  0.4127  0.3695
 4593SOL     OW25237   2.599   0.852   0.258  0.9193 -0.0263  0.1464
 4593SOL    HW125238   2.633   0.767   0.230 -0.5447  0.1846 -2.2251
 4593SOL    HW225239   2.512   0.821   0.285  1.5129 -0.8538  1.0949
 4594SOL     OW25240   4.579   2.546  12.821 -0.0754 -0.2536 -0.3952
 4594SOL    HW125241   4.565   2.554  12.916 -0.5258 -2.8781 -0.2523
 4594SOL    HW225242   4.497   2.539  12.773 -0.3772 -1.3972  0.2933
 4595SOL     OW25243   3.389   2.991  16.757  0.5123 -0.2246 -0.2427
 4595SOL    HW125244   3.397   2.944  16.840  1.9493 -0.0019 -0.2499
 4595SOL    HW225245   3.359   3.073  16.798  1.1390  0.5121 -1.2444
 4596SOL     OW25246   2.157   4.539   1.602  0.0276  1.1055  0.1990
 4596SOL    HW125247   2.247   4.535   1.636  0.7241  3.2464 -1.4033
 4596SOL    HW225248   2.149   4.634   1.613  0.6792  1.3309 -1.2954
 4597SOL     OW25249   1.626   1.668   0.203 -0.0666  0.3633 -0.7529
 4597SOL    HW125250   1.692   1.661   0.271  0.2890 -2.9715 -1.4471
 4597SOL    HW225251   1.681   1.690   0.128 -1.0812 -1.2844 -1.9816
 4598SOL     OW25252   3.547   4.334   7.208 -0.1870  0.3111  0.2145
 4598SOL    HW125253   3.498   4.331   7.290 -1.3411  0.2249 -0.4651
 4598SOL    HW225254   3.518   4.261   7.153  1.4753  1.2683 -1.9272
 4599SOL     OW25255   1.525   2.845   6.588 -0.0301 -0.6190 -0.4514
 4599SOL    HW125256   1.585   2.881   6.522  0.8674 -1.7274 -0.2477
 4599SOL    HW225257   1.580   2.792   6.645  1.4732  0.8794 -0.4935
 4600SOL     OW25258   0.550   2.113   0.273  0.3341  0.4545 -0.5852
 4600SOL    HW125259   0.488   2.114   0.346  0.1581 -2.4012 -0.7004
 4600SOL    HW225260   0.603   2.185   0.307  0.2770 -0.0839  0.6587
 4601SOL     OW25261   1.778   4.638   5.981  0.1222  0.4288  0.4749
 4601SOL    HW125262   1.761   4.694   5.905 -0.6226 -0.5657 -0.0937
 4601SOL    HW225263   1.823   4.702   6.036  1.4536  1.4257 -1.7601
 4602SOL     OW25264   0.961   3.359   6.388  0.2335  0.3588  0.1140
 4602SOL    HW125265   1.056   3.351   6.393  0.2675  0.8893  0.3199
 4602SOL    HW225266   0.941   3.266   6.380  0.7156  0.2628  0.0127
 4603SOL     OW25267   2.008   1.862   9.825  0.8659 -0.4485 -0.1337
 4603SOL    HW125268   2.076   1.835   9.887  0.0851 -0.9834  0.4814
 4603SOL    HW225269   1.971   1.944   9.857 -0.4819 -1.4208  0.8319
 4604SOL     OW25270   1.030   1.417   8.349 -0.6124 -0.1560 -0.1041
 4604SOL    HW125271   0.987   1.388   8.268  0.6217 -1.4840 -0.2836
 4604SOL    HW225272   1.067   1.503   8.330 -1.4710 -0.0791 -1.4619
 4605SOL     OW25273   3.941   2.561   4.244  0.6927  0.3047 -0.2691
 4605SOL    HW125274   3.915   2.561   4.336  1.9849  0.0048  0.0857
 4605SOL    HW225275   4.036   2.566   4.252  0.8835 -2.7214 -0.5178
 4606SOL     OW25276   0.184   4.159   7.304  0.2754 -0.2510 -0.7030
 4606SOL    HW125277   0.154   4.205   7.225 -0.7415 -1.9149 -1.2825
 4606SOL    HW225278   0.240   4.224   7.345 -0.2859  0.0436 -0.4020
 4607SOL     OW25279   3.724   2.687   2.076  0.3804  0.1144  0.6121
 4607SOL    HW125280   3.759   2.602   2.050 -1.6171 -0.5254  0.0548
 4607SOL    HW225281   3.636   2.678   2.040  1.4612 -0.2584 -1.9352
 4608SOL     OW25282   0.211   3.286  15.224 -0.1752 -0.7371 -0.5173
 4608SOL    HW125283   0.134   3.292  15.167  0.1477  0.8844 -0.7876
 4608SOL    HW225284   0.174   3.234  15.296  1.9125  0.0611  1.1437
 4609SOL     OW25285   3.121   0.129   7.090  0.0856 -0.3198 -0.4213
 4609SOL    HW125286   3.065   0.058   7.121  1.4500 -1.9462 -1.6913
 4609SOL    HW225287   3.099   0.195   7.155  0.0932  0.7650 -1.5159
 4610SOL     OW25288   3.795   4.307   6.596 -0.1241 -0.3544 -1.2727
 4610SOL    HW125289   3.705   4.298   6.628  0.6321  0.2718  0.9817
 4610SOL    HW225290   3.804   4.402   6.592 -1.6971 -0.2014 -1.0201
 4611SOL     OW25291   4.386   3.930  16.061 -0.5297  0.0253 -0.4855
 4611SOL    HW125292   4.325   3.944  15.989  0.4086  2.1843 -0.8631
 4611SOL    HW225293   4.463   3.978  16.029  0.4450 -2.1891 -1.4992
 4612SOL     OW25294   1.698   3.471   7.496  0.0258  0.3133 -0.7959
 4612SOL    HW125295   1.679   3.543   7.556  1.6105 -0.3411  0.4656
 4612SOL    HW225296   1.788   3.496   7.477 -0.1321  1.5509  0.1010
 4613SOL     OW25297   4.665   2.171   8.365 -0.1512 -0.3103 -0.0126
 4613SOL    HW125298   4.634   2.255   8.332 -0.0973 -0.0959  0.4827
 4613SOL    HW225299   4.597   2.161   8.432  0.8234 -3.2557  0.5250
 4614SOL     OW25300   0.065   0.980  12.267  0.1600 -0.1225  0.4597
 4614SOL    HW125301   4.711   0.924  12.277  0.7169 -0.6410  1.8520
 4614SOL    HW225302   0.040   1.054  12.213 -0.9338 -1.2688 -0.6137
 4615SOL     OW25303   0.230   4.586   4.193  0.0857  0.0928  0.1878
 4615SOL    HW125304   0.190   4.558   4.111 -0.2604  0.2775  0.2971
 4615SOL    HW225305   0.291   4.518   4.223 -0.4323 -0.2491  0.4573
 4616SOL     OW25306   4.338   0.065   2.856  0.5131 -0.5727  0.3952
 4616SOL    HW125307   4.250   0.101   2.845  0.5584 -0.2526  1.1174
 4616SOL    HW225308   4.389   0.143   2.879  1.4974 -0.6720 -1.4210
 4617SOL     OW25309   3.002   0.252  13.523  0.3461 -0.9796 -0.0087
 4617SOL    HW125310   3.009   0.335  13.572 -0.1200 -1.7313  1.3314
 4617SOL    HW225311   3.069   0.202  13.568  0.9451  0.0319  0.2288
 4618SOL     OW25312   2.786   3.966   4.304  0.2812 -0.5532  0.2297
 4618SOL    HW125313   2.875   3.936   4.323  1.0797  0.8266 -1.2736
 4618SOL    HW225314   2.747   3.953   4.390 -0.6906  1.7223  0.1276
 4619SOL     OW25315   3.760   2.719  13.382 -0.9658 -0.2000 -0.6010
 4619SOL    HW125316   3.836   2.666  13.355  1.6409  4.2958 -2.1395
 4619SOL    HW225317   3.782   2.798  13.333 -1.0747  0.9965  1.3043
 4620SOL     OW25318   3.664   2.857  13.596  0.5531 -0.5072 -0.1790
 4620SOL    HW125319   3.666   2.818  13.508 -2.7350 -0.1833 -0.4087
 4620SOL    HW225320   3.757   2.863  13.617  1.0262 -2.0160 -1.7792
 4621SOL     OW25321   3.116   0.977   3.376 -0.3519  0.5560  0.0330
 4621SOL    HW125322   3.146   0.895   3.416 -0.8651  1.3484  2.0427
 4621SOL    HW225323   3.176   0.984   3.301  1.1898 -2.2888  1.0278
 4622SOL     OW25324   0.248   2.843   8.967 -0.7159  0.4045  0.4528
 4622SOL    HW125325   0.284   2.754   8.966  0.6182  0.9461  0.8213
 4622SOL    HW225326   0.237   2.860   9.061 -0.1859 -1.8762  0.9349
 4623SOL     OW25327   4.261   4.663  16.639 -0.0325  0.1960 -0.0677
 4623SOL    HW125328   4.242   4.571  16.651 -2.1592  0.5162 -1.0994
 4623SOL    HW225329   4.234   4.674  16.548 -2.5493  2.4503  0.9434
 4624SOL     OW25330   2.246   0.748   3.134 -0.1412  0.6246 -0.0047
 4624SOL    HW125331   2.232   0.769   3.226  0.5303 -2.9835  0.8968
 4624SOL    HW225332   2.179   0.681   3.120 -0.1362  0.6972 -0.3762
 4625SOL     OW25333   2.216   1.345   5.539 -0.1808  0.0693 -0.0091
 4625SOL    HW125334   2.156   1.337   5.465 -0.4459 -0.6404  0.2828
 4625SOL    HW225335   2.241   1.254   5.555 -2.5871 -0.1836  2.3197
 4626SOL     OW25336   3.429   2.107   8.897 -0.8308 -0.3571  0.1783
 4626SOL    HW125337   3.384   2.115   8.813 -1.3428 -2.0846  0.2944
 4626SOL    HW225338   3.486   2.031   8.888 -2.1317 -1.5352  2.0482
 4627SOL     OW25339   4.155   4.156   5.565  0.0290  0.5522 -0.6886
 4627SOL    HW125340   4.078   4.117   5.606  1.1185  1.0508  1.8197
 4627SOL    HW225341   4.159   4.110   5.481  1.6100 -1.1864  0.3340
 4628SOL     OW25342   2.365   3.948  13.825  0.7157  0.0935 -0.0868
 4628SOL    HW125343   2.327   3.874  13.778  1.1886 -2.2066  3.1247
 4628SOL    HW225344   2.321   3.928  13.908  0.8302 -0.5187 -0.1714
 4629SOL     OW25345   2.759   0.847   2.801  0.1526 -0.1786  0.1561
 4629SOL    HW125346   2.780   0.849   2.707  1.7239 -0.0085  0.5108
 4629SOL    HW225347   2.835   0.803   2.839 -0.7244 -1.8574 -0.0725
 4630SOL     OW25348   3.459   4.672   6.052 -0.6428 -0.5968  0.3046
 4630SOL    HW125349   3.366   4.681   6.073 -0.4428 -2.0076  1.7464
 4630SOL    HW225350   3.458   4.588   6.006  4.1531  0.5099 -1.8635
 4631SOL     OW25351   1.555   2.557   4.745  0.1971  0.4735  0.2102
 4631SOL    HW125352   1.546   2.502   4.667  3.7115  1.6801 -0.9905
 4631SOL    HW225353   1.470   2.544   4.788  0.9544 -0.8723  1.3068
 4632SOL     OW25354   1.237   3.309   6.101 -0.3042 -0.1727  0.4185
 4632SOL    HW125355   1.294   3.297   6.025  1.7112  0.1951  1.8789
 4632SOL    HW225356   1.193   3.391   6.082  1.3526  0.7179  0.4449
 4633SOL     OW25357   4.631   3.606   3.265 -0.1744  0.0559  0.0375
 4633SOL    HW125358   4.590   3.693   3.272 -0.7168 -0.1178 -1.0218
 4633SOL    HW225359   4.713   3.624   3.311 -2.2133 -0.3787  3.8588
 4634SOL     OW25360   3.785   2.894   2.619 -0.1376 -0.1782  0.1373
 4634SOL    HW125361   3.832   2.840   2.683 -1.1776  0.3367  1.3401
 4634SOL    HW225362   3.850   2.956   2.586 -0.7067  0.3976  0.0992
 4635SOL     OW25363   2.430   0.028  11.932 -0.2082  0.1935 -0.2748
 4635SOL    HW125364   2.442   0.016  12.026 -1.6472 -1.2802 -0.2868
 4635SOL    HW225365   2.461   4.666  11.900 -1.9321 -1.2640  1.9415
 4636SOL     OW25366   3.166   1.391   2.209 -0.2147  0.0280  0.2991
 4636SOL    HW125367   3.192   1.299   2.216 -3.6413 -1.2398 -3.5574
 4636SOL    HW225368   3.245   1.441   2.228 -1.0182  0.3186  2.8368
 4637SOL     OW25369   3.176   2.392   8.030  0.2451 -0.3031  0.1764
 4637SOL    HW125370   3.219   2.413   8.112 -1.7634  1.1247  0.8733
 4637SOL    HW225371   3.181   2.297   8.026  1.7640 -0.2192  0.0921
 4638SOL     OW25372   0.584   3.928   5.336 -0.4381  0.3065  0.1793
 4638SOL    HW125373   0.627   4.012   5.323 -1.6278  0.8496 -0.2739
 4638SOL    HW225374   0.550   3.917   5.247  1.1111  2.8485 -0.7225
 4639SOL     OW25375   1.268   2.289  12.229 -0.0703 -0.3590  0.3329
 4639SOL    HW125376   1.282   2.198  12.257 -1.2142 -0.3346  0.9853
 4639SOL    HW225377   1.200   2.314  12.292 -0.8552  1.2135 -1.1461
 4640SOL     OW25378   0.369   1.148  11.664  0.1897 -0.4495 -0.6970
 4640SOL    HW125379   0.285   1.135  11.709  1.1452  0.3359  1.2840
 4640SOL    HW225380   0.428   1.091  11.713  3.3835  2.2871 -1.3803
 4641SOL     OW25381   1.559   2.621   8.133  0.2435  0.0710 -0.5037
 4641SOL    HW125382   1.553   2.592   8.224  1.8307  0.7032 -0.1894
 4641SOL    HW225383   1.649   2.604   8.104  0.5405  0.4673  0.1721
 4642SOL     OW25384   4.012   1.278  10.622  0.2786  0.5750  0.1321
 4642SOL    HW125385   3.967   1.315  10.698  1.6877  0.6672  0.9143
 4642SOL    HW225386   4.024   1.185  10.641  1.0182  0.6342 -0.0528
 4643SOL     OW25387   3.742   0.088  17.203 -0.0110  0.4357  0.1191
 4643SOL    HW125388   3.803   0.093  17.130  1.1544 -0.9869  0.9693
 4643SOL    HW225389   3.663   0.118  17.159 -0.3136 -0.8349 -0.2073
 4644SOL     OW25390   2.577   2.010   8.102  0.2490  0.5674  0.4903
 4644SOL    HW125391   2.671   2.001   8.120  0.2407 -1.9981 -0.8144
 4644SOL    HW225392   2.549   2.021   8.193 -1.2847 -1.8596  0.3007
 4645SOL     OW25393   2.656   1.174   8.211  0.0553 -0.0897 -0.0359
 4645SOL    HW125394   2.678   1.256   8.255 -0.9472 -0.3158  0.8845
 4645SOL    HW225395   2.562   1.189   8.197 -0.0670 -0.0260  0.8676
 4646SOL     OW25396   4.356   4.562  14.324  0.1322  0.5689 -0.8632
 4646SOL    HW125397   4.443   4.586  14.353 -0.5587  0.4121  1.3129
 4646SOL    HW225398   4.300   4.627  14.367 -0.1037  0.7024 -1.3683
 4647SOL     OW25399   4.501   0.197   8.692  0.1143  0.0772 -0.1645
 4647SOL    HW125400   4.447   0.195   8.771  1.5676 -3.7458  0.7385
 4647SOL    HW225401   4.563   0.131   8.723 -0.8833 -2.3548 -3.4104
 4648SOL     OW25402   2.997   4.552   1.911 -0.2639  0.1630  0.3673
 4648SOL    HW125403   3.079   4.533   1.866 -0.7599  0.6983 -0.7565
 4648SOL    HW225404   3.012   4.532   2.004  2.9490 -0.8346 -0.3682
 4649SOL     OW25405   0.036   1.548   2.346  0.0555 -0.3704 -0.0715
 4649SOL    HW125406   0.054   1.472   2.291  1.5984  0.7213 -1.1074
 4649SOL    HW225407   0.079   1.621   2.300  0.7504 -0.1208  0.9745
 4650SOL     OW25408   2.474   1.677   5.445 -0.1170  0.0019  0.2086
 4650SOL    HW125409   2.569   1.689   5.454  0.1615 -1.5184 -0.6360
 4650SOL    HW225410   2.466   1.594   5.491 -0.6197  0.0187  0.1497
 4651SOL     OW25411   2.402   2.481   4.361 -0.2593 -0.5311  0.6977
 4651SOL    HW125412   2.458   2.408   4.333  0.4391  1.2635 -2.5898
 4651SOL    HW225413   2.377   2.526   4.281  3.1918 -0.2110 -0.1950
 4652SOL     OW25414   0.553   1.945   6.437 -0.2343  0.7316  0.5865
 4652SOL    HW125415   0.565   2.016   6.499  1.2881 -1.1274  2.4415
 4652SOL    HW225416   0.560   1.868   6.494  1.2811 -0.4965 -1.2579
 4653SOL     OW25417   3.730   3.649   8.065 -0.1952 -0.2476  0.0641
 4653SOL    HW125418   3.751   3.633   8.156  3.1263  2.5457 -0.2101
 4653SOL    HW225419   3.638   3.624   8.066 -0.1353 -0.4795 -0.1134
 4654SOL     OW25420   1.865   2.911  15.997  0.2765  0.3571 -0.2908
 4654SOL    HW125421   1.846   2.919  15.904 -0.2752  2.4139  0.0022
 4654SOL    HW225422   1.960   2.919  15.995  0.2480  0.6748 -0.4986
 4655SOL     OW25423   2.237   4.229  14.057 -0.4086 -0.2458 -0.2745
 4655SOL    HW125424   2.269   4.190  14.139 -1.6835 -0.1286  0.2757
 4655SOL    HW225425   2.149   4.261  14.078 -0.5016 -0.0446 -0.9600
 4656SOL     OW25426   3.915   0.612  12.587 -0.3952 -0.4992  0.1041
 4656SOL    HW125427   3.910   0.707  12.573 -2.5256 -0.9794 -2.2767
 4656SOL    HW225428   4.005   0.594  12.561 -1.0608 -2.6524 -0.6831
 4657SOL     OW25429   1.868   3.870  15.550 -0.2763 -0.4220  0.1784
 4657SOL    HW125430   1.882   3.957  15.513 -1.8288 -0.5108 -0.5977
 4657SOL    HW225431   1.838   3.828  15.469 -1.8641 -0.5367  0.8172
 4658SOL     OW25432   2.106   0.663   6.028 -0.1559  0.1550  0.4641
 4658SOL    HW125433   2.123   0.631   6.117 -0.5596  0.8234  0.7837
 4658SOL    HW225434   2.197   0.669   6.000 -0.0225 -1.8053  0.5171
 4659SOL     OW25435   4.016   0.931   5.665  0.0074 -0.5260  0.0180
 4659SOL    HW125436   3.974   0.920   5.750 -1.6603  0.7720 -0.6447
 4659SOL    HW225437   4.001   0.851   5.615  1.1013  0.2873 -1.6387
 4660SOL     OW25438   3.719   3.740  16.251 -0.1942  0.3734 -0.7644
 4660SOL    HW125439   3.775   3.751  16.174 -0.7619  1.2427 -1.0512
 4660SOL    HW225440   3.673   3.824  16.250 -0.0678  0.4659  0.4652
 4661SOL     OW25441   0.403   2.807  16.602  0.3255 -0.2881  0.3321
 4661SOL    HW125442   0.423   2.714  16.590  1.7628  0.0656 -0.0502
 4661SOL    HW225443   0.361   2.820  16.517  1.7268  1.8229 -0.0459
 4662SOL     OW25444   1.794   2.834   8.529  0.0908 -0.4247  0.2295
 4662SOL    HW125445   1.832   2.767   8.586 -0.6711 -0.1307  1.0963
 4662SOL    HW225446   1.700   2.816   8.530  0.8414 -4.3163  0.2711
 4663SOL     OW25447   3.054   0.422   2.420 -0.1745 -0.3592 -0.0573
 4663SOL    HW125448   3.089   0.510   2.404 -0.5695 -0.5559 -2.0299
 4663SOL    HW225449   3.118   0.396   2.486 -0.9268 -1.0284  0.4067
 4664SOL     OW25450   3.759   4.308  11.899  0.5573  0.4094 -0.0409
 4664SOL    HW125451   3.725   4.396  11.916 -0.8885 -0.0538 -0.4712
 4664SOL    HW225452   3.800   4.319  11.813  0.7617  0.0998  0.0193
 4665SOL     OW25453   2.481   0.058  15.180  0.5818  0.3574 -0.1066
 4665SOL    HW125454   2.453   0.002  15.252  0.2729  0.4786 -0.1338
 4665SOL    HW225455   2.517   0.128  15.234 -0.2033  0.2732  0.5219
 4666SOL     OW25456   2.033   3.627   4.472  0.5595 -0.1459 -0.1366
 4666SOL    HW125457   2.089   3.562   4.430 -1.4132 -1.8064 -0.2198
 4666SOL    HW225458   1.995   3.570   4.539  0.2552  0.7929  0.4803
 4667SOL     OW25459   2.362   2.907   8.021  0.1287  0.3627 -0.5916
 4667SOL    HW125460   2.300   2.980   8.015 -0.7276 -0.1625  1.7191
 4667SOL    HW225461   2.432   2.947   7.971  0.2425  2.9670  1.6245
 4668SOL     OW25462   1.824   3.079   4.723  0.3603  0.2626  0.2298
 4668SOL    HW125463   1.853   3.082   4.632  0.3552 -0.3544  0.2109
 4668SOL    HW225464   1.858   2.995   4.755 -0.8986 -0.5752 -0.6332
 4669SOL     OW25465   2.206   3.434  11.810 -0.3821  0.1213  0.1863
 4669SOL    HW125466   2.124   3.447  11.763 -1.8879  0.5972  2.9432
 4669SOL    HW225467   2.261   3.513  11.810  1.5826 -1.2415  1.0415
 4670SOL     OW25468   1.904   0.560  15.025  0.1931 -0.2194 -0.0318
 4670SOL    HW125469   1.863   0.642  14.998  0.8337 -0.2589 -1.1439
 4670SOL    HW225470   1.837   0.528  15.085  0.8818 -0.9742  0.3384
 4671SOL     OW25471   0.158   2.513   4.824  0.1722  0.0227 -0.0841
 4671SOL    HW125472   0.207   2.485   4.746 -0.2224 -1.0945  0.0566
 4671SOL    HW225473   0.085   2.568   4.796  2.1630  1.8645 -1.5810
 4672SOL     OW25474   1.689   2.831   2.947 -0.0305 -0.6729  0.1106
 4672SOL    HW125475   1.593   2.832   2.948 -0.0019 -0.1571  2.3063
 4672SOL    HW225476   1.717   2.766   3.011  0.5742  0.3213  0.8597
 4673SOL     OW25477   1.117   1.226   5.891 -0.8107 -0.3378  0.0316
 4673SOL    HW125478   1.039   1.238   5.838 -0.8792 -1.9817 -0.2511
 4673SOL    HW225479   1.178   1.167   5.845  1.0791  2.7311 -1.4413
 4674SOL     OW25480   1.573   0.903  10.540 -0.6362 -0.1635  0.1218
 4674SOL    HW125481   1.524   0.835  10.494 -0.3908 -0.7492  0.7225
 4674SOL    HW225482   1.507   0.955  10.585 -0.2479  0.6601 -0.2547
 4675SOL     OW25483   0.232   2.594   6.267  0.1437 -0.1963  0.4186
 4675SOL    HW125484   0.237   2.629   6.356  1.1130  0.6004  0.0366
 4675SOL    HW225485   0.195   2.506   6.278 -1.4739  0.6447  1.6914
 4676SOL     OW25486   2.805   2.506   2.089 -0.5274 -0.1529 -0.6430
 4676SOL    HW125487   2.787   2.422   2.047 -0.0969  0.2283 -1.5889
 4676SOL    HW225488   2.900   2.515   2.085 -0.5337  0.8475  1.2328
 4677SOL     OW25489   3.491   1.905  17.437 -0.2190 -0.9610 -0.8443
 4677SOL    HW125490   3.507   1.924  17.530  0.3924 -2.1384 -0.7105
 4677SOL    HW225491   3.491   1.988  17.390 -2.0660 -1.6856 -2.1472
 4678SOL     OW25492   3.511   0.105   6.796 -0.0507 -0.4051  0.1141
 4678SOL    HW125493   3.463   0.060   6.865 -0.6863  0.4407  0.2219
 4678SOL    HW225494   3.585   0.045   6.790  1.9116  2.1371 -1.0953
 4679SOL     OW25495   4.692   4.535   2.293 -0.4150  0.1091 -0.4107
 4679SOL    HW125496   4.627   4.600   2.266 -0.0577  0.5620 -0.1824
 4679SOL    HW225497   0.021   4.587   2.353  1.9732 -0.5267 -1.9088
 4680SOL     OW25498   4.094   1.567  15.179 -0.8280  0.1379  0.1844
 4680SOL    HW125499   4.171   1.573  15.237  0.9485 -2.0988 -1.9373
 4680SOL    HW225500   4.118   1.637  15.118 -1.0756  0.1156  0.0632
 4681SOL     OW25501   3.198   0.148   2.279  0.4427  0.2707 -0.2538
 4681SOL    HW125502   3.223   0.217   2.217 -2.9212  1.3088 -0.4534
 4681SOL    HW225503   3.121   0.112   2.235  0.9936 -0.5705 -0.5411
 4682SOL     OW25504   0.959   2.537   6.000  0.1548 -0.2040 -0.1253
 4682SOL    HW125505   0.918   2.457   6.032  0.6231 -1.0925 -1.7336
 4682SOL    HW225506   1.049   2.507   6.015 -0.5236 -0.6738  2.9366
 4683SOL     OW25507   1.015   3.421   9.329 -0.0114 -0.7177  0.1312
 4683SOL    HW125508   1.041   3.353   9.392  1.5518  0.6094  0.9079
 4683SOL    HW225509   1.085   3.483   9.345  0.4710 -0.8961 -1.3162
 4684SOL     OW25510   3.051   2.606  11.974  0.5707  0.5607  0.8102
 4684SOL    HW125511   3.117   2.674  11.965  1.9470 -0.9739 -0.5828
 4684SOL    HW225512   2.997   2.636  11.900  0.4687 -0.4594  0.4714
 4685SOL     OW25513   0.784   3.836   4.948  0.2663  0.0888 -0.2503
 4685SOL    HW125514   0.697   3.873   4.964 -0.3802 -1.8441  0.7941
 4685SOL    HW225515   0.787   3.752   4.994  1.7907  0.3653  0.1521
 4686SOL     OW25516   2.307   0.846  11.840 -0.0977 -0.0956  0.1621
 4686SOL    HW125517   2.331   0.918  11.899 -0.1053  1.3587 -1.6219
 4686SOL    HW225518   2.231   0.820  11.893  0.7762  3.1703  3.0658
 4687SOL     OW25519   0.188   1.868   5.091 -0.0594 -0.7531 -0.4722
 4687SOL    HW125520   0.212   1.789   5.043 -0.1952 -1.6681  0.9602
 4687SOL    HW225521   0.101   1.849   5.125 -1.2304  3.7581 -0.9333
 4688SOL     OW25522   3.122   2.903   1.752  0.3590  0.9476 -0.3214
 4688SOL    HW125523   3.028   2.900   1.736  0.6705 -1.4941 -1.6101
 4688SOL    HW225524   3.138   2.994   1.777  2.9649 -0.0204  1.6298
 4689SOL     OW25525   4.670   1.841   8.473  0.6525  0.6134  0.0532
 4689SOL    HW125526   4.611   1.894   8.419  1.0183  0.4346 -0.5203
 4689SOL    HW225527   4.643   1.876   8.557  1.9645 -3.6271  2.1996
 4690SOL     OW25528   0.144   4.214   6.844  0.2079  0.1349 -0.1610
 4690SOL    HW125529   0.143   4.190   6.751 -1.1611  0.6999 -0.2951
 4690SOL    HW225530   0.113   4.305   6.834 -2.3682 -0.8459 -1.1731
 4691SOL     OW25531   1.528   0.961  12.744  0.0207  0.2153 -0.2914
 4691SOL    HW125532   1.523   0.983  12.651  1.0264 -0.2313 -0.4496
 4691SOL    HW225533   1.537   0.866  12.737  1.4924  0.1533  2.4398
 4692SOL     OW25534   1.232   4.081   9.839  0.2488  0.0543 -0.2734
 4692SOL    HW125535   1.286   4.094   9.917  1.1975 -0.2931 -0.8683
 4692SOL    HW225536   1.151   4.105   9.883  0.4131 -0.3803  0.2651
 4693SOL     OW25537   1.282   3.896   8.207  0.2684 -0.6185  0.4189
 4693SOL    HW125538   1.216   3.831   8.227 -0.2521  0.4280  2.0799
 4693SOL    HW225539   1.342   3.848   8.150  1.2434  2.3569 -1.1190
 4694SOL     OW25540   4.495   3.793   7.271  0.0077  0.6195  0.1228
 4694SOL    HW125541   4.528   3.881   7.253 -0.0101  0.5368 -0.3223
 4694SOL    HW225542   4.553   3.743   7.214 -0.4999  2.6250 -2.1616
 4695SOL     OW25543   2.216   0.491   5.562  0.5836 -0.0676 -0.2944
 4695SOL    HW125544   2.279   0.560   5.541  0.1746  0.3882 -0.0192
 4695SOL    HW225545   2.253   0.413   5.521  1.3661  0.2351 -0.1814
 4696SOL     OW25546   2.841   3.540   2.130 -0.2891  0.0886 -0.3682
 4696SOL    HW125547   2.782   3.483   2.081  0.2304 -1.6257  1.0366
 4696SOL    HW225548   2.882   3.592   2.060  1.5632 -1.6483 -0.5814
 4697SOL     OW25549   3.248   0.798   0.473 -0.4524  0.3908 -0.1364
 4697SOL    HW125550   3.169   0.755   0.439 -0.2749  0.6039 -0.8199
 4697SOL    HW225551   3.218   0.889   0.473 -1.4605  0.0582  0.4414
 4698SOL     OW25552   0.479   4.490   8.435 -0.1400  0.1662  0.3296
 4698SOL    HW125553   0.528   4.474   8.516  0.0599 -0.8059  0.0185
 4698SOL    HW225554   0.439   4.575   8.454  0.8232  0.4898  0.9077
 4699SOL     OW25555   3.858   4.686   5.270  0.5950  0.0071 -0.1506
 4699SOL    HW125556   3.826   0.018   5.341 -0.7013  1.0695 -1.5699
 4699SOL    HW225557   3.837   4.597   5.300  2.3670 -0.0473  0.9373
 4700SOL     OW25558   0.175   3.420  15.875  0.4925  0.1552 -0.4426
 4700SOL    HW125559   0.085   3.453  15.879  0.9267  1.1997  0.9215
 4700SOL    HW225560   0.189   3.400  15.783  1.1175 -1.1299 -0.0806
 4701SOL     OW25561   4.644   1.937   2.442 -0.2353 -0.5074  0.4903
 4701SOL    HW125562   4.630   2.007   2.379  0.3448  0.7483  1.7655
 4701SOL    HW225563   0.015   1.930   2.430 -0.1612 -0.0568  0.8565
 4702SOL     OW25564   1.790   3.194   0.920  0.0031  0.6199 -0.0517
 4702SOL    HW125565   1.816   3.237   0.838  1.2661 -0.9126 -0.4423
 4702SOL    HW225566   1.871   3.176   0.968 -0.5520 -0.2585  0.5496
 4703SOL     OW25567   3.647   2.201  13.131 -0.5169  0.1467 -0.1325
 4703SOL    HW125568   3.565   2.208  13.083 -1.8331 -2.2011  1.7936
 4703SOL    HW225569   3.623   2.166  13.217 -0.6359  0.2492 -0.1245
 4704SOL     OW25570   0.964   2.769   0.880  1.0445  0.0481 -0.1324
 4704SOL    HW125571   0.936   2.788   0.790  1.2177 -1.2399 -0.4632
 4704SOL    HW225572   0.883   2.755   0.929  0.9507  0.1054 -0.2694
 4705SOL     OW25573   4.687   0.813   2.101  0.0237 -0.5658  0.0874
 4705SOL    HW125574   4.699   0.761   2.021  0.4205  1.4144 -1.1536
 4705SOL    HW225575   4.629   0.752   2.147  1.0098 -0.6586  1.1848
 4706SOL     OW25576   0.549   0.991   3.032  0.4593 -0.1495  0.6436
 4706SOL    HW125577   0.508   0.952   3.109 -0.8929 -0.3228 -0.1686
 4706SOL    HW225578   0.547   1.084   3.054  0.6739  0.3126 -1.2547
 4707SOL     OW25579   3.721   3.707   6.587  0.1958 -0.1269  0.2667
 4707SOL    HW125580   3.735   3.718   6.493  1.3403  1.2672  0.5900
 4707SOL    HW225581   3.658   3.774   6.613  1.8822  1.1953  0.9829
 4708SOL     OW25582   2.557   2.158  14.413 -0.4808  0.2375 -0.7221
 4708SOL    HW125583   2.635   2.114  14.381  0.2806  2.1248 -1.4737
 4708SOL    HW225584   2.581   2.165  14.506  1.2308 -0.4710 -1.1130
 4709SOL     OW25585   1.298   4.472   8.268 -1.0829 -0.2695 -0.3297
 4709SOL    HW125586   1.235   4.530   8.225 -1.1590 -0.3915 -0.3800
 4709SOL    HW225587   1.244   4.404   8.306  1.1562 -1.0797  1.4025
 4710SOL     OW25588   3.144   0.355   8.390  0.1860  0.3421  0.1223
 4710SOL    HW125589   3.178   0.438   8.424  2.4099 -1.4288  2.2622
 4710SOL    HW225590   3.159   0.302   8.469  1.3127  0.5645  0.0669
 4711SOL     OW25591   2.833   4.513   6.415 -0.1631  0.1084 -0.7579
 4711SOL    HW125592   2.849   4.476   6.328 -1.7937  1.7517 -1.7364
 4711SOL    HW225593   2.786   4.593   6.393 -1.3177 -0.7509 -1.4124
 4712SOL     OW25594   2.559   3.379   6.063  0.7780 -0.1591 -0.1100
 4712SOL    HW125595   2.617   3.348   5.994 -0.7184  1.5944 -2.1612
 4712SOL    HW225596   2.495   3.432   6.014 -2.5671  0.7555  5.3077
 4713SOL     OW25597   0.148   1.978   9.901 -0.0223  0.1246 -0.1520
 4713SOL    HW125598   0.145   1.886   9.930  1.0182 -0.1263 -0.8204
 4713SOL    HW225599   0.216   1.959   9.836  0.3642  0.9241  0.0248
 4714SOL     OW25600   0.579   1.035   4.606  0.8478  0.3035 -0.0767
 4714SOL    HW125601   0.512   0.972   4.631  0.5918  0.6539  0.1164
 4714SOL    HW225602   0.628   0.988   4.538  0.3394 -0.2689 -0.0531
 4715SOL     OW25603   1.653   0.310   7.560 -1.0732  0.4443 -0.6341
 4715SOL    HW125604   1.659   0.362   7.640 -1.5297  0.9371 -0.9260
 4715SOL    HW225605   1.563   0.325   7.532 -1.6461 -0.6237  0.6441
 4716SOL     OW25606   4.307   0.945  10.269  0.4439 -0.0854 -0.6321
 4716SOL    HW125607   4.311   0.943  10.173 -0.9834 -2.9738 -0.5997
 4716SOL    HW225608   4.385   0.899  10.300  1.6505  1.5698 -1.1665
 4717SOL     OW25609   0.870   0.645   6.964  0.0927  0.3824  0.0705
 4717SOL    HW125610   0.834   0.562   6.996 -1.5619  0.3859 -1.7453
 4717SOL    HW225611   0.866   0.692   7.047 -0.3182  2.3109 -1.0449
 4718SOL     OW25612   4.015   2.392   5.110 -0.6360 -0.5587  0.3948
 4718SOL    HW125613   4.098   2.356   5.078 -0.1484  0.8104  0.0775
 4718SOL    HW225614   3.989   2.331   5.178  0.7009  0.1731  1.5644
 4719SOL     OW25615   0.080   4.222   9.627  0.1053 -0.1999  0.2613
 4719SOL    HW125616   0.053   4.176   9.548 -1.9728 -1.2221  1.5681
 4719SOL    HW225617   0.066   4.146   9.684  0.3832 -0.6461 -0.2735
 4720SOL     OW25618   4.687   1.608   3.869 -0.4452  0.1610 -0.3323
 4720SOL    HW125619   0.027   1.570   3.930 -0.3179 -1.4931 -1.4831
 4720SOL    HW225620   4.670   1.547   3.797  1.9241 -0.3048 -0.5088
 4721SOL     OW25621   4.005   4.120   2.320  0.2028 -1.0973 -0.1951
 4721SOL    HW125622   4.010   4.024   2.329  0.1784 -1.1655 -0.8514
 4721SOL    HW225623   4.059   4.155   2.391  0.3632  0.4958 -1.1085
 4722SOL     OW25624   1.164   0.306  15.095 -0.3771  0.2516 -0.3370
 4722SOL    HW125625   1.205   0.255  15.165 -0.0888 -0.0313 -0.7139
 4722SOL    HW225626   1.078   0.329  15.132 -0.4610  1.8490 -1.5562
 4723SOL     OW25627   3.095   0.796   4.210  0.2305 -0.1920  0.4588
 4723SOL    HW125628   3.042   0.871   4.185 -1.4193 -1.1004  1.2580
 4723SOL    HW225629   3.070   0.777   4.300  2.2089  0.1606  1.0906
 4724SOL     OW25630   0.700   0.970   8.047 -0.2078 -0.2090 -0.2440
 4724SOL    HW125631   0.687   1.044   8.107  0.9362 -2.0577  2.3250
 4724SOL    HW225632   0.606   0.962   8.031 -0.3829  0.4710  0.4239
 4725SOL     OW25633   2.947   4.466   2.793 -0.1885 -0.2171  0.4959
 4725SOL    HW125634   3.041   4.452   2.809 -0.4993 -1.5420  1.1448
 4725SOL    HW225635   2.940   4.395   2.730  2.5500 -1.6634  1.8214
 4726SOL     OW25636   2.549   3.703  11.182 -0.5450 -0.0364  0.3220
 4726SOL    HW125637   2.604   3.779  11.162  0.3903  0.0222  3.0833
 4726SOL    HW225638   2.588   3.635  11.127 -0.6362  1.5636 -1.7307
 4727SOL     OW25639   3.375   2.186  15.249 -0.2317 -0.3900 -0.1171
 4727SOL    HW125640   3.315   2.249  15.289  2.1062  3.2124 -2.2326
 4727SOL    HW225641   3.429   2.252  15.205 -2.4080  0.8099 -1.0067
 4728SOL     OW25642   0.187   2.496   1.956  0.3272 -0.1192  0.1232
 4728SOL    HW125643   0.254   2.545   2.004  1.1433  0.4231 -1.5857
 4728SOL    HW225644   0.232   2.457   1.881 -0.2530 -1.9360  0.7111
 4729SOL     OW25645   3.033   4.113   6.846  0.7130 -0.2545  0.2794
 4729SOL    HW125646   3.009   4.111   6.753  0.4771  2.0066  0.2998
 4729SOL    HW225647   3.124   4.141   6.843  0.3482  0.7216 -1.5678
 4730SOL     OW25648   1.556   4.530  15.666 -0.5309  0.2128  0.1507
 4730SOL    HW125649   1.493   4.536  15.594  0.0057  0.5372 -0.2920
 4730SOL    HW225650   1.534   4.439  15.689  0.1402 -0.0073 -0.0718
 4731SOL     OW25651   2.608   1.350  16.020  0.5209 -0.2764 -0.2330
 4731SOL    HW125652   2.668   1.378  16.088 -1.4236  0.3875  1.1879
 4731SOL    HW225653   2.619   1.415  15.950  1.0070 -1.2236 -1.0451
 4732SOL     OW25654   0.277   1.842   7.012  0.0572  0.1371  0.1917
 4732SOL    HW125655   0.267   1.767   7.071 -0.5661 -0.1254 -0.2469
 4732SOL    HW225656   0.195   1.833   6.964 -0.0241  0.8978  0.1849
 4733SOL     OW25657   1.155   3.410   9.854  0.5194 -0.1357 -0.6952
 4733SOL    HW125658   1.123   3.350   9.922  0.7933 -0.4223 -0.8197
 4733SOL    HW225659   1.248   3.399   9.875 -0.3935  0.0154  3.4554
 4734SOL     OW25660   2.172   1.765  11.692 -0.1408  0.4970  0.3137
 4734SOL    HW125661   2.195   1.853  11.725 -1.0885  1.2175 -0.9479
 4734SOL    HW225662   2.227   1.747  11.616 -2.3853  1.0505 -1.4487
 4735SOL     OW25663   0.245   0.062   4.643  0.0516 -0.2046  0.3233
 4735SOL    HW125664   0.234   0.146   4.687 -1.8444 -0.7377  0.8932
 4735SOL    HW225665   0.180   0.082   4.575  0.7330 -1.3694 -0.6820
 4736SOL     OW25666   3.533   2.601   3.679  0.8805  0.1064 -0.6572
 4736SOL    HW125667   3.621   2.595   3.717  0.9867  0.8816 -0.7804
 4736SOL    HW225668   3.489   2.528   3.723  1.8580 -0.5185 -0.7154
 4737SOL     OW25669   2.802   3.194  12.211  0.3850  0.2817 -0.5686
 4737SOL    HW125670   2.735   3.260  12.199 -0.9991 -0.9423  0.4437
 4737SOL    HW225671   2.871   3.240  12.259 -0.6998  0.2318  1.0262
 4738SOL     OW25672   3.611   3.155   3.910  0.2227 -0.2406 -0.5599
 4738SOL    HW125673   3.574   3.084   3.857  1.9906 -1.7176  0.2051
 4738SOL    HW225674   3.571   3.132   3.994  2.9360 -1.3025  0.4261
 4739SOL     OW25675   3.127   4.377   7.060 -0.1913  0.0184  0.5989
 4739SOL    HW125676   3.068   4.449   7.083  1.1095  0.9326  1.0317
 4739SOL    HW225677   3.199   4.392   7.121 -1.6262  2.9934  1.5710
 4740SOL     OW25678   1.716   3.092   3.325  0.0704 -0.1517  0.2512
 4740SOL    HW125679   1.755   3.178   3.336  1.0520 -0.2515 -2.4421
 4740SOL    HW225680   1.791   3.057   3.277  1.5443 -0.0237  2.4779
 4741SOL     OW25681   0.207   3.471   8.477  0.2940 -0.2644 -0.4299
 4741SOL    HW125682   0.200   3.378   8.454 -2.7841 -0.1182 -0.0856
 4741SOL    HW225683   0.199   3.468   8.572  0.7399  0.0572 -0.3830
 4742SOL     OW25684   1.614   4.144   5.785 -0.6206 -0.8108 -0.1054
 4742SOL    HW125685   1.520   4.155   5.772 -0.4484  0.9101  0.0771
 4742SOL    HW225686   1.635   4.091   5.708  1.4207  0.4655 -0.4334
 4743SOL     OW25687   2.654   2.590   9.073  0.4150 -0.5314  0.1462
 4743SOL    HW125688   2.743   2.590   9.038  0.4116 -0.0741  0.1418
 4743SOL    HW225689   2.657   2.682   9.099 -0.8451 -0.0003 -1.5944
 4744SOL     OW25690   4.591   0.510   4.524 -0.7264 -0.3647  0.3235
 4744SOL    HW125691   4.610   0.458   4.445 -1.4513 -2.7703  1.7412
 4744SOL    HW225692   4.644   0.587   4.504 -2.8628  1.0209 -0.0126
 4745SOL     OW25693   4.501   3.537   4.853  0.4424 -0.2687  0.3058
 4745SOL    HW125694   4.439   3.599   4.892 -0.1777 -1.2348  0.8427
 4745SOL    HW225695   4.566   3.525   4.922  1.4601  1.2514 -0.3803
 4746SOL     OW25696   3.974   1.538   8.836  0.0331  0.2662  0.4909
 4746SOL    HW125697   4.017   1.623   8.835  0.5574 -0.0291 -2.4730
 4746SOL    HW225698   3.978   1.525   8.931 -2.1328  0.7430  0.6499
 4747SOL     OW25699   3.093   0.471   6.848 -0.1525 -0.0637  0.4415
 4747SOL    HW125700   3.187   0.470   6.866  0.0617  0.2218 -0.6494
 4747SOL    HW225701   3.069   0.378   6.844  0.4760 -0.2180  0.1591
 4748SOL     OW25702   3.672   3.372   3.368  0.3591 -0.2933 -0.0725
 4748SOL    HW125703   3.761   3.388   3.335  1.0708  0.9690  2.4339
 4748SOL    HW225704   3.636   3.362   3.280  2.6737  2.4340 -1.3261
 4749SOL     OW25705   3.136   1.337   9.275 -0.0673  0.9010  0.0971
 4749SOL    HW125706   3.146   1.355   9.181  0.9195  0.7535  0.1771
 4749SOL    HW225707   3.084   1.409   9.309 -0.0099  1.3296 -0.7243
 4750SOL     OW25708   3.961   4.356   4.682 -0.1130  0.0002  0.0345
 4750SOL    HW125709   3.983   4.268   4.712 -0.0972 -0.8059 -2.3421
 4750SOL    HW225710   3.987   4.346   4.590  2.3977  0.4729  0.6985
 4751SOL     OW25711   4.604   1.853   6.336 -0.2667 -0.0779 -0.2652
 4751SOL    HW125712   4.689   1.840   6.294 -0.3686  1.4087 -0.9632
 4751SOL    HW225713   4.639   1.899   6.412  2.7686  1.9972 -2.9105
 4752SOL     OW25714   0.829   3.871   2.108  0.3118  0.1965 -0.3553
 4752SOL    HW125715   0.749   3.920   2.127  0.3465 -0.1743  0.8009
 4752SOL    HW225716   0.798   3.781   2.115  1.4689 -0.0005  2.2955
 4753SOL     OW25717   4.111   4.383  10.658 -0.0567  0.2391  0.2949
 4753SOL    HW125718   4.140   4.322  10.726 -2.6110 -0.5907  0.6216
 4753SOL    HW225719   4.047   4.330  10.612 -2.9513  4.4935 -0.6052
 4754SOL     OW25720   0.333   1.900   5.394 -0.6858  0.3426 -0.1500
 4754SOL    HW125721   0.402   1.962   5.370 -0.8653  1.0241  1.0719
 4754SOL    HW225722   0.271   1.928   5.327 -1.3665  0.4784  0.5341
 4755SOL     OW25723   1.378   1.365  15.134 -0.0635  0.6172  0.1611
 4755SOL    HW125724   1.336   1.350  15.049 -0.9034  1.0654  0.4912
 4755SOL    HW225725   1.437   1.290  15.135  0.0911  0.7277 -0.5176
 4756SOL     OW25726   1.312   3.593   9.376 -0.3944 -1.2995  0.0082
 4756SOL    HW125727   1.335   3.684   9.360 -1.0373 -0.7731  2.0349
 4756SOL    HW225728   1.354   3.582   9.462  1.1407 -1.3717 -0.7594
 4757SOL     OW25729   0.784   1.170   3.224 -0.4833  0.2307  0.3115
 4757SOL    HW125730   0.792   1.087   3.270 -2.6765 -0.0455  0.1495
 4757SOL    HW225731   0.854   1.163   3.159 -3.6856  0.5521 -3.1667
 4758SOL     OW25732   4.452   3.630   2.442  0.4846 -0.4276  0.4025
 4758SOL    HW125733   4.411   3.632   2.528 -0.3193 -0.0377  0.0062
 4758SOL    HW225734   4.421   3.549   2.401 -0.3355 -0.0181  0.2322
 4759SOL     OW25735   2.750   4.491  11.809 -0.4722  0.1552 -0.2441
 4759SOL    HW125736   2.820   4.502  11.874 -1.5311  2.1610  0.5531
 4759SOL    HW225737   2.771   4.547  11.734 -2.8128  1.0229 -0.2556
 4760SOL     OW25738   4.720   1.213   1.767  0.4141 -0.3215 -0.9432
 4760SOL    HW125739   0.040   1.286   1.812  3.1346 -1.5901 -1.5460
 4760SOL    HW225740   0.061   1.206   1.696  0.5941  2.0360 -1.0182
 4761SOL     OW25741   2.322   4.239  10.714  0.2361  0.0086  0.0134
 4761SOL    HW125742   2.362   4.177  10.775 -0.6005 -1.2992 -0.7536
 4761SOL    HW225743   2.331   4.196  10.629 -0.5949 -0.9172  0.3917
 4762SOL     OW25744   3.970   2.923   3.287  1.0081 -0.9930  0.5227
 4762SOL    HW125745   3.992   2.948   3.198  0.7947 -0.7938  0.5244
 4762SOL    HW225746   3.886   2.969   3.293  0.9754 -1.0016  0.1135
 4763SOL     OW25747   1.557   2.876   1.175 -0.7074 -0.2527  0.0152
 4763SOL    HW125748   1.620   2.944   1.200 -0.2747 -0.7758  0.3440
 4763SOL    HW225749   1.472   2.920   1.178 -1.0021 -0.6982 -1.7679
 4764SOL     OW25750   3.685   2.927   6.099  0.2224  0.3829 -0.0732
 4764SOL    HW125751   3.724   2.948   6.184 -2.2035 -2.0329  1.6729
 4764SOL    HW225752   3.629   3.003   6.080 -0.3379 -0.4635 -1.7706
 4765SOL     OW25753   0.666   1.617   8.538 -0.6765 -0.4138  0.2763
 4765SOL    HW125754   0.620   1.564   8.473 -1.8554  1.8092 -0.7311
 4765SOL    HW225755   0.620   1.699   8.515 -1.4599 -0.8273  0.3493
 4766SOL     OW25756   0.121   2.152   6.796  0.4161 -0.0262  0.6599
 4766SOL    HW125757   0.162   2.211   6.859 -1.5192  0.5673  1.3569
 4766SOL    HW225758   0.203   2.122   6.757 -0.7790 -1.7428 -0.5264
 4767SOL     OW25759   0.127   4.169  15.871 -0.5878 -0.2772  0.2089
 4767SOL    HW125760   0.160   4.237  15.930  0.0497 -0.3479 -0.0675
 4767SOL    HW225761   0.117   4.088  15.921  1.2981 -1.1296 -0.7790
 4768SOL     OW25762   2.080   1.576   9.042  0.6735  0.3771  0.6551
 4768SOL    HW125763   1.991   1.596   9.014  0.0351 -1.4254  1.3664
 4768SOL    HW225764   2.074   1.512   9.113 -0.1935  0.2800  0.4880
 4769SOL     OW25765   0.613   1.369  12.662 -0.0277  0.4813  0.5729
 4769SOL    HW125766   0.586   1.393  12.573 -1.2068 -1.2080  0.4681
 4769SOL    HW225767   0.620   1.454  12.705  0.0386  0.7659  0.0037
 4770SOL     OW25768   1.523   0.650   4.298 -0.4757  0.2151  1.0067
 4770SOL    HW125769   1.581   0.690   4.362 -0.7650  2.1634  0.0532
 4770SOL    HW225770   1.502   0.564   4.333  1.4456 -1.1720 -1.2413
 4771SOL     OW25771   1.907   0.580   3.297  0.7704 -0.0953  0.0350
 4771SOL    HW125772   1.884   0.603   3.206  0.6366 -0.4133 -0.0120
 4771SOL    HW225773   1.916   0.671   3.324 -1.1913 -0.0015  0.3823
 4772SOL     OW25774   3.099   4.011   1.349 -0.0934 -0.0258  0.5786
 4772SOL    HW125775   3.163   3.941   1.359  0.9647  1.0178  1.0771
 4772SOL    HW225776   3.021   3.956   1.362 -0.4469  0.9359  2.4337
 4773SOL     OW25777   1.746   4.634   6.878 -0.6151 -0.5741 -0.6942
 4773SOL    HW125778   1.685   4.694   6.919 -1.7816 -1.6204 -0.9108
 4773SOL    HW225779   1.790   4.704   6.829  0.5623 -0.3741  0.6457
 4774SOL     OW25780   2.400   1.099   3.227 -0.3509  0.1069  0.0680
 4774SOL    HW125781   2.457   1.137   3.294  0.5569 -1.4018  0.1620
 4774SOL    HW225782   2.472   1.076   3.169 -1.1210 -3.7436  0.5826
 4775SOL     OW25783   3.131   1.493   1.935  0.0128 -0.2232  0.2282
 4775SOL    HW125784   3.140   1.410   1.981 -1.4193 -1.5450 -1.9089
 4775SOL    HW225785   3.145   1.550   2.011  2.7764 -0.0488 -0.4249
 4776SOL     OW25786   0.088   3.276  10.917  0.1679  0.2662 -0.0616
 4776SOL    HW125787   0.046   3.286  11.002 -1.0944 -0.5804 -0.5785
 4776SOL    HW225788   0.125   3.361  10.893  0.7685  0.7092  2.3954
 4777SOL     OW25789   0.110   3.649   2.237  0.1243 -0.4550 -0.4994
 4777SOL    HW125790   0.088   3.723   2.180 -2.5160 -1.5067 -0.8210
 4777SOL    HW225791   0.133   3.581   2.173 -0.2913 -2.4054  1.4150
 4778SOL     OW25792   2.792   0.318   5.955 -0.2802 -0.6274  0.2894
 4778SOL    HW125793   2.727   0.333   5.887 -0.6645  1.7277  1.1657
 4778SOL    HW225794   2.862   0.372   5.920 -0.4651 -0.4324  0.2238
 4779SOL     OW25795   0.002   3.948  16.815  1.1337 -0.6044 -0.2260
 4779SOL    HW125796   4.650   3.890  16.811  1.6315 -1.2357 -0.5634
 4779SOL    HW225797   0.056   3.928  16.738 -1.1682  1.8271 -2.4456
 4780SOL     OW25798   1.996   4.072  11.395 -0.3783 -0.4835  0.2119
 4780SOL    HW125799   2.072   4.117  11.359 -0.0892  0.8915  2.5244
 4780SOL    HW225800   1.934   4.079  11.323 -0.4391  1.6246  0.4696
 4781SOL     OW25801   1.047   3.955  13.404  0.1770 -0.1256  0.4441
 4781SOL    HW125802   1.061   3.919  13.492 -2.0224 -0.2709  0.7436
 4781SOL    HW225803   1.104   3.901  13.349 -0.5825  1.4700 -1.8639
 4782SOL     OW25804   2.400   3.587  11.608 -0.5124  0.3319  0.1618
 4782SOL    HW125805   2.484   3.542  11.620 -0.9876 -0.1338  1.8457
 4782SOL    HW225806   2.412   3.659  11.670  1.7460 -1.1056  1.4191
 4783SOL     OW25807   3.130   2.966   2.560  0.7250 -0.2610  0.3741
 4783SOL    HW125808   3.042   2.987   2.593  0.6098 -1.5752  0.8942
 4783SOL    HW225809   3.144   2.876   2.589  2.0393  0.1399  0.9878
 4784SOL     OW25810   3.271   0.340   5.316  0.3981 -0.6259 -0.1689
 4784SOL    HW125811   3.234   0.344   5.228 -1.0661 -2.7563  0.3420
 4784SOL    HW225812   3.315   0.255   5.311  0.3100 -0.5491 -2.3709
 4785SOL     OW25813   0.317   2.835   3.328  0.5684 -0.7143 -0.3544
 4785SOL    HW125814   0.352   2.811   3.414  0.7987 -0.1157 -0.2798
 4785SOL    HW225815   0.306   2.749   3.287 -0.4173 -0.7532 -0.0249
 4786SOL     OW25816   3.560   0.902   9.054 -0.0771  0.4314  0.7112
 4786SOL    HW125817   3.476   0.877   9.014  0.1939 -0.6353  0.8077
 4786SOL    HW225818   3.539   0.927   9.144 -1.0212  1.9720  0.0626
 4787SOL     OW25819   1.887   1.329   6.116  0.0523 -0.2725 -0.0715
 4787SOL    HW125820   1.928   1.243   6.107  1.1543  0.3367 -0.8612
 4787SOL    HW225821   1.932   1.352   6.198 -3.4116  0.7306  1.5358
 4788SOL     OW25822   0.953   1.900  15.174 -0.1942 -1.1418  0.4352
 4788SOL    HW125823   0.893   1.826  15.165 -1.3672  0.1060 -1.9596
 4788SOL    HW225824   0.977   1.918  15.083 -0.9642 -1.4988  0.1635
 4789SOL     OW25825   3.767   0.137   5.843 -0.4360 -0.3654 -0.1630
 4789SOL    HW125826   3.696   0.136   5.779 -1.5266 -2.5658  1.0753
 4789SOL    HW225827   3.844   0.150   5.788 -1.9030  2.6485 -1.4865
 4790SOL     OW25828   4.288   1.569   2.556 -0.3699 -0.1551 -0.2857
 4790SOL    HW125829   4.312   1.571   2.649 -0.1546 -0.0841 -0.3441
 4790SOL    HW225830   4.355   1.626   2.518  1.3061  0.2850  3.3614
 4791SOL     OW25831   1.615   3.866   1.402 -0.3891 -0.0480 -0.1756
 4791SOL    HW125832   1.627   3.793   1.462  0.1083 -0.5545 -0.8814
 4791SOL    HW225833   1.699   3.908   1.420 -1.3852  2.0551 -0.4513
 4792SOL     OW25834   2.917   3.098  16.897  0.1500  0.3268 -0.2874
 4792SOL    HW125835   2.861   3.041  16.843  0.3611 -2.6348  2.5957
 4792SOL    HW225836   2.930   3.178  16.846  0.9527  0.8162  0.6749
 4793SOL     OW25837   4.655   2.018   3.342  0.0792 -0.5274  0.3014
 4793SOL    HW125838   4.703   1.952   3.391  0.6146 -1.8939 -2.0514
 4793SOL    HW225839   4.565   2.004   3.371  0.3186  1.5465  2.0180
 4794SOL     OW25840   3.259   1.850   6.738  0.0828 -0.2801  0.1955
 4794SOL    HW125841   3.179   1.844   6.685  1.2233  2.0418 -1.7729
 4794SOL    HW225842   3.231   1.798   6.814  1.6089  1.8348  2.2315
 4795SOL     OW25843   4.319   2.824   7.559  0.2952 -0.1731  0.0200
 4795SOL    HW125844   4.349   2.878   7.486 -2.2059 -0.0097 -0.9004
 4795SOL    HW225845   4.227   2.850   7.567  0.2738  0.0691 -1.0214
 4796SOL     OW25846   2.377   2.068   2.070  0.0667 -0.6809  0.3819
 4796SOL    HW125847   2.293   2.081   2.025  0.0104  0.8534  0.9229
 4796SOL    HW225848   2.395   1.979   2.039 -0.0113  0.2017 -2.2170
 4797SOL     OW25849   2.322   2.453   7.335  0.3292  0.2641  0.6951
 4797SOL    HW125850   2.246   2.508   7.317  1.0144  0.7157 -0.8238
 4797SOL    HW225851   2.299   2.416   7.420 -0.9581  2.7201  1.3877
 4798SOL     OW25852   4.295   0.291   7.073  0.3558  0.1539 -0.1786
 4798SOL    HW125853   4.371   0.329   7.117  0.7845 -0.0073 -0.7734
 4798SOL    HW225854   4.227   0.352   7.102  1.5137 -0.0008  2.8173
 4799SOL     OW25855   0.622   4.494   8.017  0.6749 -0.4076 -0.0096
 4799SOL    HW125856   0.541   4.454   7.985 -1.1087  2.7119  0.5767
 4799SOL    HW225857   0.593   4.585   8.027  0.4361 -0.5114  0.2529
 4800SOL     OW25858   1.756   3.384   4.406  0.2516  0.5724  0.0611
 4800SOL    HW125859   1.825   3.317   4.404 -0.6711 -0.3627 -1.4293
 4800SOL    HW225860   1.683   3.338   4.364  2.3052 -0.5886 -2.2561
 4801SOL     OW25861   2.524   2.385  15.000  0.2947 -0.0446 -0.4104
 4801SOL    HW125862   2.608   2.427  15.022  0.4392 -0.0582 -0.9206
 4801SOL    HW225863   2.468   2.461  15.018 -1.0387 -1.2019  0.2707
 4802SOL     OW25864   0.344   3.296   7.696  0.8232 -0.1049  0.0181
 4802SOL    HW125865   0.318   3.387   7.684  0.6376 -0.0976  0.4725
 4802SOL    HW225866   0.307   3.269   7.781 -1.0527  0.0516 -0.7512
 4803SOL     OW25867   1.400   3.916  11.303 -0.3496 -0.4614  0.1730
 4803SOL    HW125868   1.385   3.890  11.212 -1.2576  2.1055 -0.4156
 4803SOL    HW225869   1.313   3.922  11.344 -0.7956  0.5535 -0.9345
 4804SOL     OW25870   2.701   4.456  15.968 -0.5735  0.3895  0.1682
 4804SOL    HW125871   2.643   4.430  16.040 -0.9315  0.5302 -0.0682
 4804SOL    HW225872   2.638   4.474  15.899 -1.3971 -1.4222  0.4387
 4805SOL     OW25873   4.540   4.148   5.438  0.8333  0.2935 -0.0604
 4805SOL    HW125874   4.519   4.095   5.516 -1.7923  0.7179 -0.4981
 4805SOL    HW225875   4.526   4.235   5.474  1.9517  0.7228 -0.6726
 4806SOL     OW25876   0.632   1.534   5.531  0.2475 -0.2285 -0.4948
 4806SOL    HW125877   0.569   1.520   5.460  0.8974 -4.6204 -0.1955
 4806SOL    HW225878   0.580   1.501   5.604 -0.2101  0.4152 -0.5390
 4807SOL     OW25879   4.368   1.916   7.602  0.3954  0.5409  0.9304
 4807SOL    HW125880   4.433   1.974   7.643 -1.9300  2.5623  1.7812
 4807SOL    HW225881   4.414   1.896   7.521  1.3802  0.8603  1.4046
 4808SOL     OW25882   0.111   2.321   7.378  0.4604  0.3030  0.3655
 4808SOL    HW125883   0.100   2.413   7.353  2.4712  0.1761 -0.9717
 4808SOL    HW225884   0.158   2.330   7.461  1.4265 -1.2564 -0.0087
 4809SOL     OW25885   4.096   3.467   2.626  0.0136  0.1923 -0.0024
 4809SOL    HW125886   4.021   3.525   2.636 -0.0772  0.1995 -0.7184
 4809SOL    HW225887   4.095   3.471   2.531 -1.4347 -1.1813 -0.0518
 4810SOL     OW25888   2.469   0.108  11.656  0.2083 -0.1486  0.2384
 4810SOL    HW125889   2.466   0.016  11.631  0.0322  0.2869 -1.3819
 4810SOL    HW225890   2.543   0.107  11.715 -0.0928  1.4567  0.6459
 4811SOL     OW25891   4.097   0.348   6.395  0.2447 -0.2195  0.3352
 4811SOL    HW125892   4.033   0.416   6.373 -0.2149 -1.4762 -2.1695
 4811SOL    HW225893   4.153   0.365   6.319  0.5583  0.8773  0.8068
 4812SOL     OW25894   1.543   4.251   6.108  0.0796 -0.3179  0.0299
 4812SOL    HW125895   1.543   4.325   6.047 -3.1323 -1.3769 -1.2693
 4812SOL    HW225896   1.464   4.269   6.161 -0.3538 -0.4236 -0.5816
 4813SOL     OW25897   2.383   2.028   7.537 -0.2744  0.0584 -0.7825
 4813SOL    HW125898   2.365   2.030   7.443 -0.2321 -0.1979 -0.7954
 4813SOL    HW225899   2.384   2.118   7.569 -1.2913 -0.2443  0.0950
 4814SOL     OW25900   3.871   1.207   6.670  0.1757  0.0688 -0.1894
 4814SOL    HW125901   3.931   1.250   6.609 -2.0886  1.3756 -1.4988
 4814SOL    HW225902   3.907   1.121   6.690  0.9733 -0.1075 -2.4620
 4815SOL     OW25903   1.546   1.809   1.900 -0.0220  0.0819  0.2373
 4815SOL    HW125904   1.556   1.900   1.930 -0.4917  1.1652 -2.8895
 4815SOL    HW225905   1.628   1.772   1.933  1.1060  1.1629 -1.3665
 4816SOL     OW25906   1.920   4.611   1.363 -0.3862  0.5265 -0.1707
 4816SOL    HW125907   1.847   4.563   1.323 -0.3298  0.9912 -0.8207
 4816SOL    HW225908   1.942   4.676   1.297 -0.3083 -0.2171 -0.8839
 4817SOL     OW25909   2.376   1.652  10.373 -0.3227 -0.3775 -0.1853
 4817SOL    HW125910   2.371   1.575  10.430 -1.7124  0.0689  0.3156
 4817SOL    HW225911   2.468   1.660  10.349 -0.7035  1.7319 -0.9462
 4818SOL     OW25912   2.656   2.793   1.573  0.1409 -0.2284  0.4307
 4818SOL    HW125913   2.715   2.774   1.501 -0.0437  1.2313 -0.0934
 4818SOL    HW225914   2.587   2.729   1.556  1.0144 -1.1726  0.4639
 4819SOL     OW25915   3.557   1.065   4.610 -0.3185  0.5577 -0.1967
 4819SOL    HW125916   3.636   1.012   4.619 -0.0103  0.9973 -0.3433
 4819SOL    HW225917   3.499   1.016   4.667  1.1369  0.3886  1.1291
 4820SOL     OW25918   2.061   1.651   6.231  0.7533  0.4277 -0.2926
 4820SOL    HW125919   2.155   1.653   6.247  0.5744 -0.2566  0.8541
 4820SOL    HW225920   2.048   1.558   6.214  2.4203 -0.1830  1.7226
 4821SOL     OW25921   3.454   1.809   7.688 -0.0059 -0.1729  0.3280
 4821SOL    HW125922   3.472   1.733   7.633  2.5749 -1.1890  2.5667
 4821SOL    HW225923   3.450   1.765   7.773 -0.1946 -1.8770 -0.5652
 4822SOL     OW25924   1.975   4.076  12.810 -0.4271 -0.8670 -0.0655
 4822SOL    HW125925   2.057   4.072  12.761 -0.9294  0.8897 -1.0304
 4822SOL    HW225926   1.979   3.995  12.862  3.1414 -1.4661 -1.2815
 4823SOL     OW25927   1.555   4.302   3.242 -0.4953  0.3880  0.1071
 4823SOL    HW125928   1.537   4.282   3.334 -0.2132  0.4297  0.1711
 4823SOL    HW225929   1.632   4.245   3.236 -0.9426 -0.0870 -1.0238
 4824SOL     OW25930   1.351   2.861   5.047 -0.2136 -0.6090  0.4297
 4824SOL    HW125931   1.317   2.776   5.020  0.4291 -0.4557 -0.8390
 4824SOL    HW225932   1.417   2.830   5.108  1.1727 -0.2085 -0.8534
 4825SOL     OW25933   2.901   4.124  15.497  0.5388  0.3112 -0.2924
 4825SOL    HW125934   2.820   4.072  15.491 -0.4064  1.8454 -0.8343
 4825SOL    HW225935   2.955   4.063  15.446 -1.5146 -1.8157  0.0262
 4826SOL     OW25936   1.517   0.737  14.152  0.2467 -0.3515  0.2050
 4826SOL    HW125937   1.479   0.803  14.094  1.3659  0.9394  0.9448
 4826SOL    HW225938   1.608   0.748  14.126  0.7443  0.3741  2.2675
 4827SOL     OW25939   0.031   2.327   2.627  0.3740 -0.4057 -0.0745
 4827SOL    HW125940   0.089   2.391   2.669  0.9608 -0.8740 -0.1718
 4827SOL    HW225941   0.006   2.265   2.696 -1.0290  0.3288  0.0747
 4828SOL     OW25942   0.058   4.534  15.121  0.4041 -0.4163 -0.1259
 4828SOL    HW125943   0.113   4.456  15.120  0.4791 -0.3826  1.1912
 4828SOL    HW225944   0.003   4.522  15.043  0.9357  0.7231 -0.6918
 4829SOL     OW25945   1.653   1.005   0.979  0.2013  0.2696 -0.4779
 4829SOL    HW125946   1.642   0.971   0.890 -0.6205  1.6696 -0.9194
 4829SOL    HW225947   1.578   0.976   1.030  0.5692  0.5939  0.2430
 4830SOL     OW25948   1.315   3.564  13.785  0.3874 -0.5468  1.1648
 4830SOL    HW125949   1.295   3.501  13.854  0.9721 -0.6846  1.2040
 4830SOL    HW225950   1.311   3.648  13.830 -0.9039  0.4284 -0.7612
 4831SOL     OW25951   0.231   0.851   6.298 -0.4616  0.0215  0.1405
 4831SOL    HW125952   0.270   0.806   6.373 -0.2832  0.0873  0.0868
 4831SOL    HW225953   0.283   0.931   6.306  0.3563 -0.5028  0.0751
 4832SOL     OW25954   4.395   0.759   3.685 -1.0566 -0.0432  0.3614
 4832SOL    HW125955   4.428   0.766   3.596 -0.3415 -0.4237  0.5868
 4832SOL    HW225956   4.303   0.776   3.668 -0.5554  1.2113 -1.0292
 4833SOL     OW25957   0.889   0.336   3.121 -0.7170  0.3866 -0.2960
 4833SOL    HW125958   0.930   0.332   3.207 -2.3500 -2.8456  0.3534
 4833SOL    HW225959   0.834   0.413   3.135  0.7352  0.8671  2.6313
 4834SOL     OW25960   1.454   2.826   4.507 -0.2977 -0.4167 -0.2770
 4834SOL    HW125961   1.469   2.733   4.488  0.7325 -0.2888 -0.1095
 4834SOL    HW225962   1.477   2.868   4.424 -4.1082 -2.9087 -2.5902
 4835SOL     OW25963   0.078   0.187   3.403  0.8154 -0.8256 -0.1520
 4835SOL    HW125964   0.172   0.203   3.405  0.9741 -2.0600  2.1023
 4835SOL    HW225965   0.071   0.123   3.332 -0.4367 -0.5092 -0.3089
 4836SOL     OW25966   0.913   0.341  12.368  0.4189 -0.0688  0.0937
 4836SOL    HW125967   0.976   0.355  12.439  1.1185  0.6429 -0.6621
 4836SOL    HW225968   0.938   0.396  12.294 -2.6619 -0.0215 -0.9164
 4837SOL     OW25969   1.997   0.185   7.693  0.0399 -0.1952  0.0001
 4837SOL    HW125970   1.914   0.224   7.720 -0.2416  0.7047 -2.1410
 4837SOL    HW225971   2.056   0.180   7.768  1.0078  4.0350 -0.5057
 4838SOL     OW25972   4.463   4.710  16.796  0.2252  0.0759 -0.1263
 4838SOL    HW125973   4.425   0.067  16.832 -0.3231 -0.0773 -0.3515
 4838SOL    HW225974   4.387   4.671  16.752  1.2650 -0.6578 -1.2796
 4839SOL     OW25975   0.216   3.420   6.456  0.0350  0.0254  0.2580
 4839SOL    HW125976   0.263   3.337   6.449 -0.0789  0.3657 -4.3123
 4839SOL    HW225977   0.132   3.377   6.472 -0.5698  0.6380 -1.2825
 4840SOL     OW25978   1.475   2.594   9.529  0.4368  0.3878 -0.0024
 4840SOL    HW125979   1.462   2.668   9.587 -0.8579 -0.0591  0.2792
 4840SOL    HW225980   1.558   2.554   9.554 -0.5637 -1.0609  1.0214
 4841SOL     OW25981   1.840   3.522  16.986 -0.6603 -0.1907  0.1605
 4841SOL    HW125982   1.840   3.426  16.987 -2.0089 -0.1774  1.0211
 4841SOL    HW225983   1.931   3.523  17.015 -0.6053  1.6026 -0.0643
 4842SOL     OW25984   4.664   2.112  13.785  0.2890  0.3383 -0.0807
 4842SOL    HW125985   4.661   2.016  13.777 -1.8477  0.4060 -0.0206
 4842SOL    HW225986   4.610   2.127  13.862 -0.9275  0.4756 -0.9679
 4843SOL     OW25987   0.108   0.302  15.581  0.1703  0.0209 -0.0080
 4843SOL    HW125988   0.111   0.388  15.622 -3.1920 -0.2060  0.7113
 4843SOL    HW225989   0.166   0.312  15.506  0.1903  1.1940  0.1595
 4844SOL     OW25990   2.886   0.634   2.973 -0.6627  0.1605  0.1493
 4844SOL    HW125991   2.972   0.676   2.966 -0.0335 -1.3144 -1.0090
 4844SOL    HW225992   2.907   0.553   2.926  0.4759  0.9355 -0.6901
 4845SOL     OW25993   0.897   1.767   0.704  0.0226 -0.6490  0.4227
 4845SOL    HW125994   0.918   1.844   0.757  0.5810 -0.0819 -0.6415
 4845SOL    HW225995   0.821   1.802   0.658  1.3099 -2.3162 -2.9264
 4846SOL     OW25996   0.955   0.147   5.356 -0.2223  0.0389 -0.6653
 4846SOL    HW125997   0.891   0.077   5.342 -1.0696  0.5363  0.7755
 4846SOL    HW225998   1.026   0.100   5.401  0.4237  0.7779 -0.9178
 4847SOL     OW25999   3.009   2.957  11.989 -0.1851  0.2945  0.3429
 4847SOL    HW126000   2.938   2.921  12.043 -1.6818 -1.2829 -2.7048
 4847SOL    HW226001   3.059   3.009  12.052  1.4853  0.2639 -0.9531
 4848SOL     OW26002   2.735   4.338  16.464 -0.2223 -0.2277  0.0722
 4848SOL    HW126003   2.754   4.263  16.408 -0.0043  0.7948 -1.2260
 4848SOL    HW226004   2.640   4.325  16.473  0.2841 -2.9836  1.5908
 4849SOL     OW26005   3.357   2.688   9.808 -0.1762  0.2148 -0.3540
 4849SOL    HW126006   3.294   2.671   9.878  1.1941 -2.8288  0.1259
 4849SOL    HW226007   3.433   2.710   9.862 -0.0619  0.0622 -0.4521
 4850SOL     OW26008   0.847   1.164  15.183  0.0034  0.0947 -0.2276
 4850SOL    HW126009   0.845   1.217  15.103 -1.3608  0.0805 -0.1957
 4850SOL    HW226010   0.761   1.125  15.169 -0.0028 -0.3547  1.0183
 4851SOL     OW26011   2.520   2.374   7.822  0.9110  0.3988 -0.3472
 4851SOL    HW126012   2.559   2.289   7.843 -1.2564 -0.8837 -1.5135
 4851SOL    HW226013   2.545   2.421   7.901  1.1641 -1.0531  0.4396
 4852SOL     OW26014   1.504   0.445  10.226 -0.5198  0.2169  0.5465
 4852SOL    HW126015   1.415   0.432  10.261 -1.5947  2.1203 -1.5138
 4852SOL    HW226016   1.495   0.442  10.131  0.3470  1.7582  0.4198
 4853SOL     OW26017   1.836   1.181   0.726 -0.1785  0.2394 -0.3333
 4853SOL    HW126018   1.873   1.171   0.638 -2.8814 -1.3102 -1.2604
 4853SOL    HW226019   1.895   1.244   0.768  0.5003 -1.2005  0.8442
 4854SOL     OW26020   3.960   4.616  14.089 -0.0575 -0.1592  0.3062
 4854SOL    HW126021   3.994   4.633  14.177  1.3605  0.3129 -0.3418
 4854SOL    HW226022   3.948   4.706  14.059 -0.6892 -0.7868 -1.2842
 4855SOL     OW26023   0.993   2.811   7.057 -0.1983 -0.1347 -0.6987
 4855SOL    HW126024   0.992   2.726   7.015  0.0108 -0.0907 -0.7882
 4855SOL    HW226025   0.958   2.864   6.985  0.2796 -1.6202 -2.0007
 4856SOL     OW26026   2.959   2.275   9.683 -0.5173  0.3030  0.1869
 4856SOL    HW126027   2.915   2.191   9.696  2.3714 -1.5567 -2.1355
 4856SOL    HW226028   2.914   2.323   9.753 -2.9434  1.4433 -2.1738
 4857SOL     OW26029   3.599   0.818   2.114  0.0116  0.0583 -0.5643
 4857SOL    HW126030   3.692   0.837   2.098  0.6110 -1.0994  1.3853
 4857SOL    HW226031   3.577   0.900   2.157  0.2575 -0.3291  0.3126
 4858SOL     OW26032   0.824   0.493   6.696  0.2650  0.1742 -0.7413
 4858SOL    HW126033   0.851   0.401   6.697  1.6169  0.5938  1.4836
 4858SOL    HW226034   0.840   0.512   6.789  0.0519  0.1977 -0.7084
 4859SOL     OW26035   1.253   1.760  13.013  0.2730  0.2446  0.0501
 4859SOL    HW126036   1.320   1.696  13.036  0.5941  0.5248 -0.1044
 4859SOL    HW226037   1.292   1.792  12.932  0.9266 -1.2830 -0.2322
 4860SOL     OW26038   1.784   1.415   4.792 -0.7850 -0.0418  0.0838
 4860SOL    HW126039   1.860   1.361   4.812 -1.7607 -1.1691  0.7631
 4860SOL    HW226040   1.752   1.371   4.713 -1.2240  0.8043 -0.2025
 4861SOL     OW26041   3.885   0.112  16.946  0.0478 -0.1672 -0.4352
 4861SOL    HW126042   3.964   0.164  16.940  0.4301 -0.4107  2.7301
 4861SOL    HW226043   3.900   0.029  16.899  0.9644  0.3228 -1.0074
 4862SOL     OW26044   2.391   2.386  10.409 -0.6341 -0.2574  1.3985
 4862SOL    HW126045   2.343   2.437  10.474 -1.0703 -0.5867  1.3383
 4862SOL    HW226046   2.421   2.309  10.456 -0.3446 -0.9845  0.0361
 4863SOL     OW26047   2.419   0.530   3.341  0.2940  0.6541  0.4525
 4863SOL    HW126048   2.375   0.484   3.270 -0.5784  0.8070  0.8912
 4863SOL    HW226049   2.450   0.611   3.300  0.8534  0.6314  0.8209
 4864SOL     OW26050   2.128   3.079   2.582 -0.1083 -0.5899  0.0926
 4864SOL    HW126051   2.164   3.124   2.658  0.6959  0.4830 -0.9226
 4864SOL    HW226052   2.090   3.155   2.538 -1.5559 -1.9885 -1.0759
 4865SOL     OW26053   4.421   3.245   9.122 -0.2127 -0.7545  0.3131
 4865SOL    HW126054   4.356   3.204   9.179 -1.0897  0.2367  0.0176
 4865SOL    HW226055   4.439   3.174   9.060 -0.0853 -0.6109  0.1862
 4866SOL     OW26056   3.232   1.967   2.702 -0.0437 -0.4200 -0.5390
 4866SOL    HW126057   3.226   1.875   2.727 -1.3872  0.1498  1.2286
 4866SOL    HW226058   3.327   1.973   2.696 -0.0345  0.6907  0.6962
 4867SOL     OW26059   1.672   0.194   4.595  0.0881  0.4316  0.2293
 4867SOL    HW126060   1.679   0.099   4.591 -0.0585  0.4650 -1.1022
 4867SOL    HW226061   1.760   0.214   4.564  0.2139  3.4828  2.6158
 4868SOL     OW26062   3.710   3.958   8.291  0.2894 -0.0350  0.9403
 4868SOL    HW126063   3.614   3.956   8.284  0.2107 -1.5934  2.5238
 4868SOL    HW226064   3.728   3.955   8.197 -1.6855 -1.2839  0.5966
 4869SOL     OW26065   2.299   2.215   2.303  0.5243  0.1548 -0.2074
 4869SOL    HW126066   2.360   2.172   2.243 -2.6842 -0.5299 -2.9425
 4869SOL    HW226067   2.331   2.177   2.385  1.4273 -1.2550 -1.2090
 4870SOL     OW26068   0.753   0.915   4.393  0.1829  0.3002  0.0035
 4870SOL    HW126069   0.808   0.860   4.449 -0.2266 -2.1618 -2.0493
 4870SOL    HW226070   0.812   0.953   4.328 -0.1714  1.5056  0.3906
 4871SOL     OW26071   3.080   1.747   3.223 -0.4121 -0.6700 -0.1293
 4871SOL    HW126072   2.998   1.777   3.184 -1.1306  0.7659  2.4956
 4871SOL    HW226073   3.059   1.696   3.301  0.9726  3.0460  2.6734
 4872SOL     OW26074   3.378   4.052  17.355  0.4518 -0.1929  0.5190
 4872SOL    HW126075   3.291   4.077  17.385 -0.0622 -1.2833 -0.0551
 4872SOL    HW226076   3.396   3.977  17.412  0.9117 -1.0792 -0.7743
 4873SOL     OW26077   1.135   2.946   6.728 -0.7659 -0.0417 -0.4538
 4873SOL    HW126078   1.125   3.035   6.696  1.4423  0.5991  0.6665
 4873SOL    HW226079   1.051   2.933   6.773 -0.5319  0.2817  0.0691
 4874SOL     OW26080   1.811   4.326  15.306  0.4309  0.3221 -0.4074
 4874SOL    HW126081   1.779   4.264  15.240  1.9393 -0.1248 -0.7203
 4874SOL    HW226082   1.879   4.375  15.259 -0.3263  0.4261 -1.3822
 4875SOL     OW26083   2.977   1.912  14.811  0.4685  0.6466  0.5261
 4875SOL    HW126084   2.908   1.911  14.877  0.3381  1.7185  0.4082
 4875SOL    HW226085   2.943   1.909  14.721 -0.1845  0.1518  0.7871
 4876SOL     OW26086   0.538   2.808   8.838  0.4144  0.5886 -0.2906
 4876SOL    HW126087   0.494   2.854   8.766 -0.4881  0.7348  0.3573
 4876SOL    HW226088   0.464   2.752   8.862 -0.8271  2.5906  0.5431
 4877SOL     OW26089   4.007   2.196   2.756  0.3345 -0.0439 -0.0790
 4877SOL    HW126090   4.005   2.246   2.837 -2.0143  2.2146 -1.5343
 4877SOL    HW226091   3.988   2.258   2.685 -2.4959 -0.1195  0.5857
 4878SOL     OW26092   3.944   0.349   1.809 -0.0807  0.3536  0.0286
 4878SOL    HW126093   3.917   0.305   1.729  0.0751  1.5519 -0.6757
 4878SOL    HW226094   3.967   0.434   1.773  0.4860  0.3358  0.3551
 4879SOL     OW26095   2.555   0.922  14.513  0.2803  0.2905 -0.0231
 4879SOL    HW126096   2.518   0.850  14.462 -0.0001  0.5242 -0.1509
 4879SOL    HW226097   2.636   0.890  14.553  0.9317  1.3599 -0.4862
 4880SOL     OW26098   1.380   1.639  13.995 -0.3649 -0.3201 -0.3775
 4880SOL    HW126099   1.330   1.629  14.076  0.2654  1.2441  0.2082
 4880SOL    HW226100   1.381   1.550  13.961 -0.3228  0.3121 -2.0736
 4881SOL     OW26101   0.093   0.609  11.977 -0.3906 -0.7138  0.9180
 4881SOL    HW126102   0.086   0.667  12.052 -0.7716 -1.3143  1.3489
 4881SOL    HW226103   0.188   0.597  11.971 -0.1422  2.1485 -0.7535
 4882SOL     OW26104   4.141   2.116   3.096  0.2934 -0.0834  0.2124
 4882SOL    HW126105   4.138   2.029   3.055 -1.9069 -1.0592  2.4232
 4882SOL    HW226106   4.222   2.150   3.059  1.4714 -1.1923  1.7621
 4883SOL     OW26107   0.333   2.169   3.949  0.4860 -0.3672 -0.5520
 4883SOL    HW126108   0.398   2.222   3.994 -1.5962  0.8633  0.9949
 4883SOL    HW226109   0.271   2.227   3.904 -0.7470  0.0024  1.6646
 4884SOL     OW26110   3.238   3.601  15.123  0.4223  0.0573 -0.0594
 4884SOL    HW126111   3.316   3.586  15.177  1.3286 -1.7642 -1.8609
 4884SOL    HW226112   3.280   3.615  15.039  1.9636  1.2730  0.9146
 4885SOL     OW26113   0.594   3.726   2.739 -0.1512  0.2028  0.5869
 4885SOL    HW126114   0.579   3.804   2.794  0.4498  0.6665  0.0983
 4885SOL    HW226115   0.539   3.741   2.662 -1.3197 -0.0571  1.3591
 4886SOL     OW26116   3.621   0.499   8.343  0.3381 -0.3659  0.8346
 4886SOL    HW126117   3.668   0.432   8.292 -1.4937 -0.8011 -0.2564
 4886SOL    HW226118   3.690   0.566   8.342  0.3438 -0.3989 -0.7332
 4887SOL     OW26119   2.023   3.944  16.989  0.3343 -0.2434 -0.1881
 4887SOL    HW126120   2.032   3.990  16.906  0.2491 -1.7293 -1.0046
 4887SOL    HW226121   2.086   3.875  16.971  3.5106  2.5252  0.2992
 4888SOL     OW26122   3.114   3.841  14.004  0.0247 -0.3624  0.3969
 4888SOL    HW126123   3.084   3.761  14.047  2.6985 -0.7380  1.5687
 4888SOL    HW226124   3.133   3.900  14.077 -0.2578 -0.2366  0.3669
 4889SOL     OW26125   0.401   2.440   4.995  0.2381 -0.7637  0.8151
 4889SOL    HW126126   0.368   2.517   5.041 -1.8167 -1.0824 -0.1454
 4889SOL    HW226127   0.349   2.436   4.915  0.1247  1.8867  0.7377
 4890SOL     OW26128   0.514   3.169  10.122  0.2361 -0.5464 -0.1206
 4890SOL    HW126129   0.497   3.256  10.159 -1.0189 -1.6634  1.9207
 4890SOL    HW226130   0.530   3.196  10.032  0.3603 -2.5495 -0.6969
 4891SOL     OW26131   3.762   1.440   6.382 -0.4262  0.0020 -0.0140
 4891SOL    HW126132   3.781   1.528   6.350 -1.0195 -0.8004 -2.5247
 4891SOL    HW226133   3.747   1.398   6.298 -0.0862 -1.1549  0.5120
 4892SOL     OW26134   3.160   3.489   3.293  0.1717  0.2276  0.0466
 4892SOL    HW126135   3.252   3.490   3.318  0.1643  1.3595  0.0365
 4892SOL    HW226136   3.159   3.474   3.199 -0.3581 -0.3647  0.1503
 4893SOL     OW26137   2.840   3.087  17.176  0.4890  0.5795  0.5696
 4893SOL    HW126138   2.770   3.022  17.181  1.7174 -0.6231  2.0265
 4893SOL    HW226139   2.870   3.085  17.085  0.1719 -0.3845  0.4872
 4894SOL     OW26140   3.723   2.496   9.064 -0.3072 -0.7296  0.3909
 4894SOL    HW126141   3.638   2.535   9.084 -1.0407 -1.7110 -0.7953
 4894SOL    HW226142   3.748   2.486   9.156 -0.2072  0.3124  0.4744
 4895SOL     OW26143   3.654   0.657   7.896  0.0517  0.9842  0.4738
 4895SOL    HW126144   3.629   0.689   7.810 -0.6568  2.7455  1.3353
 4895SOL    HW226145   3.599   0.578   7.896 -0.6086  1.4457 -2.4099
 4896SOL     OW26146   1.885   4.122  15.470 -0.1870 -0.0505 -0.0048
 4896SOL    HW126147   1.930   4.193  15.516 -0.6783 -0.1276  0.5948
 4896SOL    HW226148   1.846   4.167  15.395 -1.6123  0.9956  1.3707
 4897SOL     OW26149   1.227   2.509   9.635 -0.1969 -0.1927  0.1226
 4897SOL    HW126150   1.293   2.459   9.682  0.8753  2.9912  2.0338
 4897SOL    HW226151   1.280   2.566   9.579 -2.3467  1.7257  0.0183
 4898SOL     OW26152   1.121   3.237   4.210 -0.1829  0.7438 -0.4605
 4898SOL    HW126153   1.183   3.178   4.253 -0.2766  0.4662 -0.7044
 4898SOL    HW226154   1.061   3.261   4.280  0.2908 -1.4349  0.6907
 4899SOL     OW26155   1.906   0.194   8.328 -0.9575 -0.3606 -0.2226
 4899SOL    HW126156   1.921   0.122   8.390 -1.7980 -0.6436 -0.3531
 4899SOL    HW226157   1.972   0.257   8.357  0.6775 -1.7183 -0.9715
 4900SOL     OW26158   4.244   0.548  15.379 -0.8791 -0.0286  0.0441
 4900SOL    HW126159   4.286   0.486  15.439  1.9280  3.2800  1.5153
 4900SOL    HW226160   4.314   0.614  15.379 -0.0820 -0.8709 -1.0121
 4901SOL     OW26161   1.502   2.903   6.011  0.5447  0.3934  0.0856
 4901SOL    HW126162   1.474   2.836   5.949  0.9217  0.4502 -0.1507
 4901SOL    HW226163   1.422   2.919   6.060 -0.0642  0.9688 -1.0734
 4902SOL     OW26164   0.822   4.307   3.344 -0.4950  0.1515 -0.7373
 4902SOL    HW126165   0.846   4.318   3.436 -0.3561  0.7539 -0.8423
 4902SOL    HW226166   0.726   4.312   3.340 -0.6002 -0.8294  0.6808
 4903SOL     OW26167   1.806   4.611   8.661  0.0275  0.7092  0.2730
 4903SOL    HW126168   1.715   4.588   8.640  1.1567 -3.5927 -0.0185
 4903SOL    HW226169   1.789   4.646   8.748 -0.7270 -2.9380  1.6040
 4904SOL     OW26170   4.101   0.834  10.429  0.2677  0.3194  0.0646
 4904SOL    HW126171   4.188   0.867  10.406  0.3587  0.3007  0.3900
 4904SOL    HW226172   4.047   0.864  10.356  1.3883 -2.6996 -2.0658
 4905SOL     OW26173   3.920   2.584   6.900 -0.2661 -0.3651 -0.0041
 4905SOL    HW126174   3.904   2.676   6.918  1.2114  0.0833 -0.9832
 4905SOL    HW226175   3.962   2.550   6.980  3.1670  1.8496 -0.8821
 4906SOL     OW26176   0.375   4.099   3.507  0.3368  0.3811  0.0474
 4906SOL    HW126177   0.424   4.148   3.441  2.5907  0.6550  1.9139
 4906SOL    HW226178   0.390   4.150   3.587  0.9182 -2.0391  1.4687
 4907SOL     OW26179   3.571   0.456   8.824  0.6935 -0.6705 -0.3888
 4907SOL    HW126180   3.608   0.521   8.765  0.5541 -2.3803 -2.3677
 4907SOL    HW226181   3.550   0.389   8.759  0.2077 -0.1283 -0.7908
 4908SOL     OW26182   4.588   1.883   5.035 -0.1779  0.0194 -0.1421
 4908SOL    HW126183   4.660   1.832   4.999 -1.5079 -1.8896 -0.0625
 4908SOL    HW226184   4.618   1.868   5.125  1.3069  4.6471  0.1744
 4909SOL     OW26185   4.059   4.722   8.707  0.1880  0.6070  0.2148
 4909SOL    HW126186   3.993   4.691   8.645 -0.8138  4.1286 -0.4964
 4909SOL    HW226187   4.024   0.088   8.719  0.8872  0.8637  0.3410
 4910SOL     OW26188   0.172   1.242   1.534 -0.0139  0.0025  0.0483
 4910SOL    HW126189   0.201   1.332   1.518 -2.5107  0.3109 -2.7241
 4910SOL    HW226190   0.146   1.215   1.447  0.7745 -0.3213 -0.0871
 4911SOL     OW26191   1.738   1.454  16.844  0.5548  0.2995  0.3771
 4911SOL    HW126192   1.793   1.492  16.776  0.5460 -0.4678 -0.0663
 4911SOL    HW226193   1.754   1.518  16.913  0.1148 -0.9737  1.6591
 4912SOL     OW26194   0.338   4.714   8.523  0.2491 -0.3394 -0.5555
 4912SOL    HW126195   0.322   0.019   8.434  0.4033 -1.8223 -1.0575
 4912SOL    HW226196   0.251   4.701   8.562  1.4566  0.9864  2.5472
 4913SOL     OW26197   2.622   1.137   7.279 -0.7385  0.3182 -0.2790
 4913SOL    HW126198   2.708   1.168   7.305  0.4745 -2.3100 -1.1714
 4913SOL    HW226199   2.561   1.201   7.316  0.5610  0.7298  1.1190
 4914SOL     OW26200   1.599   1.997   6.654  0.2551  0.6971 -0.3694
 4914SOL    HW126201   1.580   2.084   6.690  1.4278  1.3045 -1.2328
 4914SOL    HW226202   1.689   1.983   6.685  0.1025 -3.9722 -2.0463
 4915SOL     OW26203   3.471   0.686   2.538  0.6191 -0.0754  0.7661
 4915SOL    HW126204   3.387   0.654   2.571  0.6582 -0.1098  0.8320
 4915SOL    HW226205   3.450   0.660   2.448 -1.5911  1.3399  0.8630
 4916SOL     OW26206   3.132   2.433   6.983  0.1704  0.1994  0.4134
 4916SOL    HW126207   3.054   2.470   6.941  0.0145  0.5571  1.0191
 4916SOL    HW226208   3.193   2.461   6.914 -1.7222  1.8577 -0.6112
 4917SOL     OW26209   4.051   2.720  11.226 -0.1103 -1.0943 -0.2787
 4917SOL    HW126210   4.094   2.761  11.300 -0.5169 -0.4783 -0.3834
 4917SOL    HW226211   4.029   2.637  11.269 -2.8669 -0.7849 -1.0960
 4918SOL     OW26212   4.547   0.716  13.644 -0.1057  0.3837  0.0114
 4918SOL    HW126213   4.539   0.635  13.594  0.0589  0.8921 -0.8325
 4918SOL    HW226214   4.501   0.698  13.726  2.1225  0.3425  1.2290
 4919SOL     OW26215   3.026   2.127   6.493  0.2374  0.2687  0.0239
 4919SOL    HW126216   3.050   2.035   6.482  0.5043  0.6286 -2.3711
 4919SOL    HW226217   2.942   2.117   6.539  0.1442 -2.0547 -0.6619
 4920SOL     OW26218   0.337   0.899   1.414 -0.1930 -0.0245 -0.4722
 4920SOL    HW126219   0.290   0.934   1.338 -0.2184 -0.8855 -0.8473
 4920SOL    HW226220   0.392   0.970   1.447  0.2526 -0.3165 -0.5819
 4921SOL     OW26221   4.015   2.454   7.958  0.6671  0.2810  0.0007
 4921SOL    HW126222   3.951   2.492   7.897  1.2778  0.8476 -0.2913
 4921SOL    HW226223   4.030   2.529   8.017 -1.4015  0.5321  0.2063
 4922SOL     OW26224   2.270   1.526  14.086  0.3254 -0.9081  0.1087
 4922SOL    HW126225   2.286   1.616  14.113  1.4851  0.1449 -4.1443
 4922SOL    HW226226   2.184   1.514  14.128 -0.8195  0.1157 -1.9329
 4923SOL     OW26227   2.012   0.489   3.533  0.2812 -0.8888  0.3623
 4923SOL    HW126228   1.957   0.521   3.461  0.6690 -0.7958  0.1031
 4923SOL    HW226229   2.088   0.548   3.527  1.7189 -2.7254  0.5570
 4924SOL     OW26230   2.105   0.939  17.117 -0.5675 -0.4261  0.3274
 4924SOL    HW126231   2.051   0.872  17.160 -0.1791 -0.9998 -0.0759
 4924SOL    HW226232   2.088   1.014  17.175  1.1217 -0.2579  0.5866
 4925SOL     OW26233   1.434   1.470  11.353 -0.1316  0.3546 -0.3431
 4925SOL    HW126234   1.436   1.549  11.300 -2.7563  0.7369  0.1024
 4925SOL    HW226235   1.341   1.451  11.364 -0.3127  1.5176  0.1350
 4926SOL     OW26236   1.543   2.597   6.339 -0.0248  0.1376  0.6876
 4926SOL    HW126237   1.447   2.593   6.345  0.0430 -1.9494  0.5588
 4926SOL    HW226238   1.569   2.505   6.352  0.2184 -0.2542 -2.5516
 4927SOL     OW26239   4.147   2.081   1.962 -0.4321  0.2823  0.8421
 4927SOL    HW126240   4.089   2.024   2.013  0.1832 -0.4389  0.7532
 4927SOL    HW226241   4.230   2.067   2.009  1.2757 -2.0496 -2.8947
 4928SOL     OW26242   0.265   1.477   8.835  0.1142 -0.0127  0.0533
 4928SOL    HW126243   0.225   1.535   8.770  1.0919 -0.0709 -0.6056
 4928SOL    HW226244   0.358   1.482   8.813  0.0858 -0.0995 -0.0861
 4929SOL     OW26245   0.301   2.445   4.009 -0.1334  0.1116 -0.6512
 4929SOL    HW126246   0.379   2.441   4.064 -2.7040 -2.3922  2.7680
 4929SOL    HW226247   0.240   2.389   4.055 -0.4740 -0.0845 -1.3366
 4930SOL     OW26248   0.365   3.861   0.895  0.0981  0.5070  0.0678
 4930SOL    HW126249   0.393   3.809   0.820  1.4910 -2.0508  2.3743
 4930SOL    HW226250   0.272   3.839   0.890  0.3691 -0.6999  0.3384
 4931SOL     OW26251   3.823   0.459   3.391 -0.4197  0.4596  0.6172
 4931SOL    HW126252   3.917   0.469   3.403  0.4035 -3.4382 -2.7187
 4931SOL    HW226253   3.790   0.403   3.461  3.6304 -1.2939  1.1309
 4932SOL     OW26254   2.860   2.112  15.449 -0.9617  0.6557 -0.7498
 4932SOL    HW126255   2.904   2.161  15.519  0.2262 -0.1612 -0.9157
 4932SOL    HW226256   2.768   2.130  15.471 -1.1407 -0.9572 -0.1971
 4933SOL     OW26257   2.318   0.634  16.924  0.1434 -0.3662  0.1586
 4933SOL    HW126258   2.278   0.604  16.843  4.1252 -0.8999 -1.6076
 4933SOL    HW226259   2.262   0.606  16.996 -0.0424 -0.4628 -0.0231
 4934SOL     OW26260   0.307   1.746   8.291 -0.7406 -0.3182 -0.4939
 4934SOL    HW126261   0.271   1.730   8.204 -1.8294  1.7449 -0.4081
 4934SOL    HW226262   0.301   1.659   8.331  1.3273 -0.3309 -0.2319
 4935SOL     OW26263   1.030   1.330   9.527  0.6951 -0.0215 -0.2508
 4935SOL    HW126264   1.115   1.362   9.496  0.9715  0.0713  0.6071
 4935SOL    HW226265   1.034   1.242   9.489  1.3647 -0.6080  1.1553
 4936SOL     OW26266   1.597   3.463  11.654  0.3286 -0.1995 -0.3684
 4936SOL    HW126267   1.604   3.466  11.559  0.0876 -2.0196 -0.4436
 4936SOL    HW226268   1.506   3.434  11.665  0.5991 -0.3907  1.4138
 4937SOL     OW26269   2.341   1.604   1.562 -0.0595 -0.0547  0.6446
 4937SOL    HW126270   2.379   1.554   1.634  0.8950  1.5957  1.2877
 4937SOL    HW226271   2.269   1.550   1.530  0.4666  0.0446 -0.7202
 4938SOL     OW26272   3.217   4.476   2.825  0.0135  0.2637  0.2606
 4938SOL    HW126273   3.272   4.453   2.751 -1.2077  0.1970 -0.6317
 4938SOL    HW226274   3.251   4.565   2.835 -0.6807  0.6434 -0.7861
 4939SOL     OW26275   2.652   0.298   2.572 -0.4709  0.1710  0.6243
 4939SOL    HW126276   2.706   0.291   2.493  0.6481  0.7379  1.3459
 4939SOL    HW226277   2.614   0.384   2.554 -1.0867  0.0166  1.1890
 4940SOL     OW26278   1.204   2.348   5.035 -0.3216  0.4554  0.3051
 4940SOL    HW126279   1.241   2.320   5.119 -1.6200 -0.2193  0.6509
 4940SOL    HW226280   1.154   2.268   5.022 -0.4691  0.6821 -0.5026
 4941SOL     OW26281   1.128   1.855   7.362 -0.3004  0.5444  0.3220
 4941SOL    HW126282   1.154   1.917   7.430  0.0503  1.9023 -1.0705
 4941SOL    HW226283   1.053   1.903   7.327 -0.3311  1.3126  1.4382
 4942SOL     OW26284   4.084   2.704   8.077  0.0394  0.3911 -0.6086
 4942SOL    HW126285   3.988   2.705   8.077  0.0127 -1.6498 -0.8424
 4942SOL    HW226286   4.111   2.745   7.994 -0.5613 -0.4361 -1.2157
 4943SOL     OW26287   3.203   1.044  13.631  0.0874 -0.1715 -0.4158
 4943SOL    HW126288   3.123   1.095  13.641 -0.9715 -1.6005 -1.6276
 4943SOL    HW226289   3.158   0.960  13.619 -0.5342  0.0486  0.3672
 4944SOL     OW26290   1.768   3.467   7.797  0.6455  0.3343 -0.2140
 4944SOL    HW126291   1.742   3.531   7.731  0.9018 -1.2445 -1.8245
 4944SOL    HW226292   1.772   3.520   7.877 -1.9170  1.9261 -1.1426
 4945SOL     OW26293   2.653   1.770   4.216 -0.4169 -0.0078 -0.1470
 4945SOL    HW126294   2.691   1.783   4.303  0.4675 -1.3202 -0.3307
 4945SOL    HW226295   2.635   1.855   4.175  3.4653 -0.2050 -2.3021
 4946SOL     OW26296   4.267   3.997   6.135  0.0536 -0.1898 -0.5225
 4946SOL    HW126297   4.350   4.013   6.180  0.2752 -2.2800 -0.1899
 4946SOL    HW226298   4.268   3.902   6.125 -1.7918 -0.4755  1.9674
 4947SOL     OW26299   2.247   1.549   2.746  0.4259 -0.2495  0.6452
 4947SOL    HW126300   2.230   1.530   2.653  0.0006  1.5761  0.3467
 4947SOL    HW226301   2.218   1.639   2.759  0.4629  0.1922 -2.1919
 4948SOL     OW26302   3.892   2.135  13.076 -0.7973  0.5220  0.6626
 4948SOL    HW126303   3.872   2.053  13.121  2.3659 -0.5577  0.0677
 4948SOL    HW226304   3.809   2.183  13.086 -1.2407 -0.2436  0.6820
 4949SOL     OW26305   3.810   1.453   0.230 -0.0085 -0.2915 -0.2034
 4949SOL    HW126306   3.761   1.408   0.161 -3.3258  1.8306  0.7903
 4949SOL    HW226307   3.803   1.394   0.305 -0.0465  2.6071  2.0509
 4950SOL     OW26308   0.497   3.130   5.251  0.2879 -0.4195  0.4603
 4950SOL    HW126309   0.474   3.111   5.342  1.4207  2.4385  1.3411
 4950SOL    HW226310   0.550   3.209   5.260 -2.0688  1.4564 -2.1508
 4951SOL     OW26311   1.950   3.107   2.904  0.1707  0.6120  0.1121
 4951SOL    HW126312   2.040   3.082   2.882 -0.4421 -1.5338  0.0388
 4951SOL    HW226313   1.954   3.202   2.899 -1.3308  0.7452  1.6376
 4952SOL     OW26314   3.994   1.756   1.283 -0.3510 -0.3115  0.1004
 4952SOL    HW126315   4.074   1.705   1.271  0.0898  0.0377  1.5548
 4952SOL    HW226316   3.958   1.736   1.369 -0.2951 -0.9237 -0.0215
 4953SOL     OW26317   1.083   0.616   9.532 -0.1334  0.2749  0.0997
 4953SOL    HW126318   1.175   0.595   9.543 -0.3295  1.0585  3.1322
 4953SOL    HW226319   1.050   0.528   9.547  0.0607  0.3919  1.1590
 4954SOL     OW26320   1.615   3.626   1.527 -0.0704  0.9729  0.0058
 4954SOL    HW126321   1.657   3.550   1.487 -0.1118  1.7429 -1.5083
 4954SOL    HW226322   1.627   3.606   1.619  1.4775 -0.8123 -0.5820
 4955SOL     OW26323   3.986   3.759   7.777 -0.0207  0.0751 -0.0549
 4955SOL    HW126324   4.017   3.824   7.840  1.1379  0.9088 -1.5147
 4955SOL    HW226325   4.030   3.797   7.702 -1.3666  1.8296  0.0415
 4956SOL     OW26326   3.934   0.576   2.780  0.2699  0.1527 -0.5084
 4956SOL    HW126327   4.028   0.557   2.786  0.0470 -0.5651  0.5381
 4956SOL    HW226328   3.926   0.623   2.696 -1.0658  1.8743  0.5818
 4957SOL     OW26329   0.210   0.172   4.997 -0.2192 -0.2109  0.0214
 4957SOL    HW126330   0.199   0.092   4.946  1.9335 -1.9341  2.3084
 4957SOL    HW226331   0.224   0.237   4.927  1.5477 -0.4511  0.1396
 4958SOL     OW26332   1.161   4.070   6.954  0.8283 -0.0351  0.6922
 4958SOL    HW126333   1.134   4.111   6.872  1.5457 -2.8435 -0.9647
 4958SOL    HW226334   1.253   4.094   6.955  0.3749  1.6631  0.6115
 4959SOL     OW26335   3.658   1.419   6.629 -0.8258  0.2801 -0.1132
 4959SOL    HW126336   3.687   1.424   6.538  1.1774 -1.9822  0.3870
 4959SOL    HW226337   3.728   1.358   6.655  1.0037  2.5273  0.1972
 4960SOL     OW26338   1.796   4.345   1.448 -0.1361 -0.8887  0.4874
 4960SOL    HW126339   1.744   4.302   1.516 -1.0705  1.1902  1.0760
 4960SOL    HW226340   1.734   4.329   1.376  0.3797  1.0236 -0.3699
 4961SOL     OW26341   2.283   4.244  12.375 -0.2593 -0.4723 -0.3754
 4961SOL    HW126342   2.353   4.307  12.359  0.7028 -2.0348 -2.3596
 4961SOL    HW226343   2.336   4.167  12.396  2.7911  2.2725  2.0530
 4962SOL     OW26344   3.427   1.276   2.733  0.4113  0.0956 -0.2680
 4962SOL    HW126345   3.371   1.324   2.795  2.4083  0.1113  1.5018
 4962SOL    HW226346   3.465   1.212   2.793 -1.3961 -0.1124  0.6780
 4963SOL     OW26347   1.500   3.863   1.170 -0.3878  0.4516 -0.1993
 4963SOL    HW126348   1.546   3.857   1.254 -0.7164 -0.0405 -0.0536
 4963SOL    HW226349   1.571   3.834   1.112 -1.8344  0.1083 -1.7903
 4964SOL     OW26350   3.504   4.174  10.532  0.2940  0.0085  0.3912
 4964SOL    HW126351   3.592   4.153  10.500 -0.1514  2.4037 -2.3657
 4964SOL    HW226352   3.492   4.100  10.593 -1.4729  0.5965  0.7654
 4965SOL     OW26353   0.244   2.516  11.272  0.1984  0.1825 -0.0519
 4965SOL    HW126354   0.199   2.514  11.188  1.2993  0.4494 -0.6551
 4965SOL    HW226355   0.240   2.610  11.288  0.1310  0.0056  0.9940
 4966SOL     OW26356   1.300   1.582   2.901  0.0555  0.0891 -0.0293
 4966SOL    HW126357   1.328   1.585   2.810  0.6508  0.6730  0.1696
 4966SOL    HW226358   1.278   1.489   2.913 -1.8299  0.1839 -2.9039
 4967SOL     OW26359   3.043   2.347   4.030  0.0554 -0.1634 -0.2616
 4967SOL    HW126360   3.009   2.431   3.998 -0.1806 -0.0695  0.2338
 4967SOL    HW226361   3.082   2.306   3.952 -1.1914 -2.4129  0.2912
 4968SOL     OW26362   0.771   1.992   3.582  0.1511  0.9185  0.4846
 4968SOL    HW126363   0.795   2.057   3.515  2.2270  1.2058  1.5007
 4968SOL    HW226364   0.843   1.930   3.582 -0.9267 -0.3445 -2.9738
 4969SOL     OW26365   4.561   3.900  14.180 -0.7394 -0.0365  0.3215
 4969SOL    HW126366   4.618   3.935  14.248 -1.3506  0.1668  0.7293
 4969SOL    HW226367   4.551   3.812  14.217 -2.7419  0.6213  1.3785
 4970SOL     OW26368   4.621   2.139   2.247  0.3448 -0.2304 -0.1607
 4970SOL    HW126369   4.670   2.186   2.179  0.7934 -0.8379 -0.2562
 4970SOL    HW226370   4.539   2.187   2.231  0.3943 -0.3433 -0.7667
 4971SOL     OW26371   4.443   3.647   2.720  0.1974  0.4829 -0.7156
 4971SOL    HW126372   4.433   3.662   2.814 -1.7498  0.7710 -0.9497
 4971SOL    HW226373   4.501   3.571   2.723 -0.5354 -0.0158  1.4097
 4972SOL     OW26374   2.115   1.639  10.659  0.0836  0.4727 -0.2995
 4972SOL    HW126375   2.064   1.585  10.598  0.3460 -1.2396  0.9806
 4972SOL    HW226376   2.195   1.588  10.671 -0.2846 -0.1474 -0.4739
 4973SOL     OW26377   1.131   0.359   1.177 -0.2302  0.6326  0.3134
 4973SOL    HW126378   1.117   0.402   1.261  0.5018 -0.2533  0.8784
 4973SOL    HW226379   1.038   0.340   1.165 -0.7121  0.6218  4.0253
 4974SOL     OW26380   2.588   0.502  10.398 -0.2339 -0.4167 -0.6037
 4974SOL    HW126381   2.620   0.442  10.465 -0.8544 -0.0857 -0.0029
 4974SOL    HW226382   2.658   0.564  10.381 -1.7763  1.1501 -1.2660
 4975SOL     OW26383   0.755   2.332   5.092  0.4722  0.1498 -0.0147
 4975SOL    HW126384   0.675   2.333   5.040 -0.3649 -2.4387  1.2378
 4975SOL    HW226385   0.756   2.391   5.167  1.1991 -1.9174  1.5968
 4976SOL     OW26386   1.694   2.000   7.622  0.5607  0.8167  0.3703
 4976SOL    HW126387   1.736   2.015   7.706  0.1468 -0.0593  0.7270
 4976SOL    HW226388   1.713   1.907   7.618  1.5284  1.0100  0.6072
 4977SOL     OW26389   2.589   4.301  12.063 -0.5279  0.0502  0.3237
 4977SOL    HW126390   2.660   4.358  12.094 -1.0415 -0.3433  2.2109
 4977SOL    HW226391   2.634   4.247  11.998 -3.3997 -1.1523 -0.6654
 4978SOL     OW26392   1.354   0.808   6.683  0.1543  0.0714  0.2962
 4978SOL    HW126393   1.286   0.874   6.675 -0.7754 -1.0589 -1.1021
 4978SOL    HW226394   1.411   0.861   6.739  1.7314  0.8835 -2.0765
 4979SOL     OW26395   4.138   3.819   7.568  0.7913 -0.0537  0.2463
 4979SOL    HW126396   4.165   3.738   7.525  0.1665 -0.6184  0.9044
 4979SOL    HW226397   4.192   3.821   7.647 -0.8905 -0.2843  1.4097
 4980SOL     OW26398   4.627   1.535   4.768  0.0476 -0.0086  0.4059
 4980SOL    HW126399   4.592   1.555   4.681  0.1712  0.9658  0.5851
 4980SOL    HW226400   4.685   1.607   4.789  0.3872  0.0769 -0.7925
 4981SOL     OW26401   3.842   3.529   7.841  0.3655 -0.1283  0.0671
 4981SOL    HW126402   3.890   3.606   7.810 -1.1820  0.2940 -1.3322
 4981SOL    HW226403   3.780   3.572   7.900  1.3970  0.8228  0.4606
 4982SOL     OW26404   0.244   4.347   5.315  0.5364 -0.7615 -0.0984
 4982SOL    HW126405   0.335   4.376   5.328 -0.1052  0.3719  1.9766
 4982SOL    HW226406   0.213   4.386   5.397  2.3455 -1.2144  0.8218
 4983SOL     OW26407   2.151   0.891   9.649 -0.0357  0.3107 -0.2395
 4983SOL    HW126408   2.074   0.933   9.610  0.1868 -1.1958 -2.3351
 4983SOL    HW226409   2.152   0.808   9.601  1.6331  0.6735 -0.8313
 4984SOL     OW26410   3.630   1.682  10.726 -0.5769 -0.0866  0.1246
 4984SOL    HW126411   3.545   1.674  10.685  0.2818  0.9824 -1.8586
 4984SOL    HW226412   3.644   1.588  10.735 -0.6566 -0.1218 -0.1179
 4985SOL     OW26413   0.151   1.198   5.357  0.1707 -0.0445  0.5145
 4985SOL    HW126414   0.106   1.233   5.280 -0.9796 -0.7880  0.8541
 4985SOL    HW226415   0.076   1.158   5.402  0.1370  0.0613  0.5541
 4986SOL     OW26416   4.290   3.114   4.655 -0.2234 -0.1149  0.0428
 4986SOL    HW126417   4.376   3.077   4.674 -0.3280 -0.0668  0.6116
 4986SOL    HW226418   4.276   3.167   4.734 -2.1889  0.5080 -0.7178
 4987SOL     OW26419   4.510   0.125   4.526  0.2891 -0.0903  0.9275
 4987SOL    HW126420   4.529   0.048   4.579  0.1327  0.4404  1.7460
 4987SOL    HW226421   4.572   0.110   4.454  0.5574 -1.2991  1.4202
 4988SOL     OW26422   1.604   2.657   7.426  0.3359 -0.4641  0.3054
 4988SOL    HW126423   1.540   2.673   7.495 -0.8617 -2.0111 -0.4379
 4988SOL    HW226424   1.608   2.745   7.389  0.3764 -0.2653  0.7732
 4989SOL     OW26425   3.840   3.156   3.721 -0.3413  0.7018 -0.4294
 4989SOL    HW126426   3.776   3.099   3.762 -2.7508  3.2219 -0.6935
 4989SOL    HW226427   3.926   3.131   3.756 -2.8584 -2.1504  3.7007
 4990SOL     OW26428   4.452   1.023  13.543  0.1494 -0.1470 -0.1919
 4990SOL    HW126429   4.376   1.009  13.487  0.3821  0.9732 -0.7951
 4990SOL    HW226430   4.479   1.113  13.524 -0.3974 -0.2367 -1.3940
 4991SOL     OW26431   4.135   2.997   5.551 -0.2370 -0.0125 -0.3973
 4991SOL    HW126432   4.191   2.956   5.485  1.0337  0.6740  0.2630
 4991SOL    HW226433   4.056   3.007   5.498 -0.2898  0.4506 -0.2347
 4992SOL     OW26434   2.951   3.960  10.190  0.0946  0.5095  0.3781
 4992SOL    HW126435   2.885   3.898  10.221  0.7606 -0.0618  0.6430
 4992SOL    HW226436   2.978   4.004  10.271 -0.5414  0.4593  0.6179
 4993SOL     OW26437   0.094   4.552   7.627 -0.3345  0.2434 -0.2042
 4993SOL    HW126438   0.160   4.620   7.613 -0.6213  0.4937 -0.3347
 4993SOL    HW226439   0.130   4.479   7.576  1.0753  0.9658 -0.2457
 4994SOL     OW26440   1.534   2.390   6.060  0.2431  0.5784 -0.3754
 4994SOL    HW126441   1.620   2.376   6.021  0.8332  3.9178 -0.3081
 4994SOL    HW226442   1.491   2.451   6.000 -0.4932  0.0976 -0.3443
 4995SOL     OW26443   0.859   1.290   6.498 -0.0280 -0.5811  0.0996
 4995SOL    HW126444   0.765   1.289   6.478 -0.3659 -1.9465  1.8258
 4995SOL    HW226445   0.866   1.385   6.507 -2.8128 -0.6872  3.2062
 4996SOL     OW26446   3.418   1.198  13.525 -0.1325  0.3114 -0.6965
 4996SOL    HW126447   3.355   1.132  13.552 -1.0230  0.1362 -3.1719
 4996SOL    HW226448   3.360   1.269  13.497  2.3540  1.3147 -3.2932
 4997SOL     OW26449   1.606   1.885   3.580  0.0946 -0.0131  0.0344
 4997SOL    HW126450   1.691   1.926   3.593  0.0372  0.0092  0.3594
 4997SOL    HW226451   1.564   1.959   3.535  0.7419 -0.4521 -1.2769
 4998SOL     OW26452   4.237   2.688   3.973  0.1071  0.0906 -0.1948
 4998SOL    HW126453   4.254   2.741   3.895  0.3057  0.0864 -0.1536
 4998SOL    HW226454   4.144   2.667   3.958  0.8365 -1.7138 -2.2061
 4999SOL     OW26455   1.904   2.451   2.816  0.4841  0.0980  0.1495
 4999SOL    HW126456   1.987   2.497   2.808  0.0292  0.4975 -2.2464
 4999SOL    HW226457   1.853   2.487   2.744  1.9695 -0.2076 -1.0444
 5000SOL     OW26458   3.423   1.912   5.055  0.5157  0.2314 -0.1836
 5000SOL    HW126459   3.400   1.952   4.972  0.2529 -0.4103 -0.4234
 5000SOL    HW226460   3.335   1.901   5.091  1.7105 -4.3431  1.4185
 5001SOL     OW26461   2.558   0.935   3.831 -0.1237 -0.1962  0.0121
 5001SOL    HW126462   2.571   0.941   3.736  1.3627  0.5122  0.2622
 5001SOL    HW226463   2.554   1.028   3.851  0.6149 -0.3998  1.0655
 5002SOL     OW26464   3.648   3.816  15.381 -0.3059 -0.1631 -0.0117
 5002SOL    HW126465   3.666   3.863  15.299  1.6161 -1.1101 -0.1370
 5002SOL    HW226466   3.718   3.848  15.438 -0.2212 -1.2572  0.4852
 5003SOL     OW26467   1.863   3.103  10.760  0.5291 -0.1875 -0.3115
 5003SOL    HW126468   1.853   3.090  10.855  0.0096 -0.9677 -0.4729
 5003SOL    HW226469   1.959   3.098  10.768  0.5413 -0.0898 -0.3980
 5004SOL     OW26470   2.645   3.466   4.836  0.2053  0.0730 -0.5609
 5004SOL    HW126471   2.690   3.405   4.895 -0.5170  0.1490  0.0573
 5004SOL    HW226472   2.662   3.550   4.879  0.8358 -1.4368  2.1538
 5005SOL     OW26473   2.236   0.638  14.532 -0.3429  0.6454  0.5014
 5005SOL    HW126474   2.236   0.588  14.613  2.6058  0.9813  0.7215
 5005SOL    HW226475   2.142   0.642  14.514 -0.1639 -0.4924 -0.6861
 5006SOL     OW26476   4.074   4.342  11.169 -0.0130 -0.4562 -0.0705
 5006SOL    HW126477   4.165   4.348  11.140  0.2378  4.7007  1.7549
 5006SOL    HW226478   4.101   4.334  11.260  0.4362 -2.4080 -0.3731
 5007SOL     OW26479   3.610   3.705   2.082  0.2808 -0.1259  0.1616
 5007SOL    HW126480   3.664   3.757   2.024 -0.0828 -0.5239 -0.5401
 5007SOL    HW226481   3.611   3.619   2.039 -1.4536 -0.3416  0.5180
 5008SOL     OW26482   2.712   1.767   5.799  0.2393 -0.2962 -0.0293
 5008SOL    HW126483   2.798   1.791   5.834  0.5113 -1.0283 -0.1812
 5008SOL    HW226484   2.660   1.845   5.816  0.1067 -0.4208  0.1283
 5009SOL     OW26485   0.592   4.627  17.003  0.4340 -0.1178 -0.1765
 5009SOL    HW126486   0.534   4.592  17.071 -0.1908 -0.6924 -0.9946
 5009SOL    HW226487   0.539   4.695  16.961 -1.0275 -0.8578  0.4665
 5010SOL     OW26488   2.818   1.761   6.540 -0.0484 -0.2871  0.3091
 5010SOL    HW126489   2.765   1.789   6.465 -2.2721  1.8597  2.7042
 5010SOL    HW226490   2.782   1.673   6.552 -0.8465 -0.0990 -0.7073
 5011SOL     OW26491   1.442   3.724   5.366  0.0133  0.2762  0.3051
 5011SOL    HW126492   1.368   3.772   5.404 -0.5921 -0.5880  0.2304
 5011SOL    HW226493   1.492   3.721   5.448  0.1824 -0.5587  0.1769
 5012SOL     OW26494   0.990   4.119   0.717  0.3537  0.0600 -0.6485
 5012SOL    HW126495   0.912   4.106   0.664 -0.5141 -0.4242  0.7546
 5012SOL    HW226496   1.012   4.027   0.733 -1.0772 -0.4645 -1.7526
 5013SOL     OW26497   2.136   1.796  14.082  0.6784  0.1375 -0.2463
 5013SOL    HW126498   2.043   1.784  14.064  0.9004  0.1432 -1.4020
 5013SOL    HW226499   2.146   1.759  14.170 -1.3306 -0.2376 -0.1797
 5014SOL     OW26500   0.748   3.367   4.603  0.0277 -0.0334 -0.3130
 5014SOL    HW126501   0.695   3.426   4.549 -0.2912 -0.7935 -0.8279
 5014SOL    HW226502   0.678   3.312   4.638  2.1358 -2.3361  0.2832
 5015SOL     OW26503   1.452   3.899   2.003  0.0855 -0.1721  0.1199
 5015SOL    HW126504   1.414   3.899   2.090 -1.2818  0.6021 -0.4682
 5015SOL    HW226505   1.398   3.966   1.961  2.3441  0.3558 -1.9996
 5016SOL     OW26506   0.230   1.085   4.601 -0.3796 -0.0474 -0.2083
 5016SOL    HW126507   0.163   1.150   4.620  0.1304 -0.3045  2.4751
 5016SOL    HW226508   0.303   1.147   4.594 -0.2507 -0.4828 -2.6021
 5017SOL     OW26509   4.415   3.453   3.183 -0.2698 -0.2952  0.3275
 5017SOL    HW126510   4.507   3.468   3.203  0.0921 -0.3702 -1.3150
 5017SOL    HW226511   4.380   3.497   3.260 -1.0403 -0.0404 -0.1636
 5018SOL     OW26512   2.708   2.563   6.544 -0.1572 -0.0533  0.2634
 5018SOL    HW126513   2.660   2.504   6.486 -1.5228  0.7740  0.5514
 5018SOL    HW226514   2.677   2.530   6.628  0.8000 -3.7014 -0.8336
 5019SOL     OW26515   0.308   4.715  10.592  0.8354  0.1755 -0.1231
 5019SOL    HW126516   0.234   0.046  10.565  0.0534 -0.9844 -0.3249
 5019SOL    HW226517   0.310   0.023  10.682  2.4374 -0.5146  0.0967
 5020SOL     OW26518   3.796   0.507   4.594 -0.4772  0.4419 -0.3187
 5020SOL    HW126519   3.717   0.507   4.541 -0.8722  2.2983  0.2700
 5020SOL    HW226520   3.845   0.448   4.536 -2.4598  0.1881 -1.7447
 5021SOL     OW26521   2.593   2.009   5.848 -0.3463  0.0635  0.3454
 5021SOL    HW126522   2.601   2.083   5.908 -0.4138  0.1150  0.2905
 5021SOL    HW226523   2.678   2.027   5.808  0.0471  2.3276  2.2112
 5022SOL     OW26524   2.955   1.363   6.466  0.0401 -0.1938 -0.1691
 5022SOL    HW126525   2.949   1.409   6.550 -1.4945 -0.7209  0.0115
 5022SOL    HW226526   2.894   1.419   6.419  0.2835 -0.7135 -1.1139
 5023SOL     OW26527   1.371   1.615   2.635  0.6335  0.1534  0.1317
 5023SOL    HW126528   1.370   1.545   2.569 -3.6528  0.0662  0.2947
 5023SOL    HW226529   1.428   1.678   2.593  1.1374  0.8600  1.8626
 5024SOL     OW26530   2.606   3.474   8.753  0.2851 -0.4661 -0.4677
 5024SOL    HW126531   2.562   3.547   8.708  0.1899 -0.6079 -0.6087
 5024SOL    HW226532   2.667   3.447   8.685  0.2258 -1.6779 -0.0412
 5025SOL     OW26533   3.807   1.651   5.334  0.3617  0.2200 -0.0198
 5025SOL    HW126534   3.879   1.593   5.308  1.8469  2.4922 -0.9611
 5025SOL    HW226535   3.743   1.582   5.350  0.0468  0.3554 -0.7056
 5026SOL     OW26536   4.507   0.835  10.380 -0.3016 -0.7232  0.1763
 5026SOL    HW126537   4.536   0.917  10.419 -0.0200 -1.4701  1.5164
 5026SOL    HW226538   4.552   0.768  10.431  1.8104  0.8365  0.3594
 5027SOL     OW26539   0.026   4.002   4.506 -0.5562  0.5152 -0.5628
 5027SOL    HW126540   4.715   4.078   4.552  2.5534  1.0821  0.8566
 5027SOL    HW226541   0.117   4.005   4.537 -0.8574  2.5258  0.1209
 5028SOL     OW26542   1.515   2.735   1.816 -0.0749 -0.2890  0.2450
 5028SOL    HW126543   1.480   2.692   1.894  1.2602  1.2331  1.6453
 5028SOL    HW226544   1.558   2.813   1.848  1.3455 -0.8498 -0.3105
 5029SOL     OW26545   3.402   3.386   1.124 -0.3702  0.2171  0.0737
 5029SOL    HW126546   3.333   3.429   1.173 -0.7650 -1.0178  0.5918
 5029SOL    HW226547   3.469   3.432   1.175 -0.6667 -0.7229  1.3090
 5030SOL     OW26548   4.289   1.675   4.700 -0.3653 -0.3829 -0.1216
 5030SOL    HW126549   4.285   1.759   4.746  0.3424 -0.1433 -0.5040
 5030SOL    HW226550   4.378   1.643   4.716 -1.8330 -2.7784  3.2498
 5031SOL     OW26551   4.360   2.092   8.130  0.0865 -0.2683  0.3993
 5031SOL    HW126552   4.353   1.998   8.149  0.3931 -0.5278 -0.7330
 5031SOL    HW226553   4.352   2.115   8.223 -1.2000  1.0786 -0.0504
 5032SOL     OW26554   0.643   3.604   9.408 -0.0957  0.0532  0.1091
 5032SOL    HW126555   0.699   3.567   9.340 -1.0848  0.6144 -0.9981
 5032SOL    HW226556   0.659   3.694   9.380  1.4801  0.1880  1.4028
 5033SOL     OW26557   2.208   2.563   1.616  0.4275 -0.1946 -1.0359
 5033SOL    HW126558   2.196   2.637   1.676  0.1953 -0.3733 -0.8635
 5033SOL    HW226559   2.133   2.509   1.642 -1.4366  2.6175 -0.4433
 5034SOL     OW26560   4.374   3.751  12.454  0.2573 -0.0978 -0.2125
 5034SOL    HW126561   4.321   3.741  12.375  0.2099 -1.7433  0.0293
 5034SOL    HW226562   4.439   3.815  12.423  1.2105 -0.4037  1.1986
 5035SOL     OW26563   4.504   4.456   7.171  0.0865  0.0540 -0.0871
 5035SOL    HW126564   4.475   4.382   7.225 -0.8405 -0.0914 -0.7869
 5035SOL    HW226565   4.567   4.505   7.224 -1.6488  0.5608  1.4828
 5036SOL     OW26566   2.267   2.825   1.172  0.0942 -0.4567 -1.1348
 5036SOL    HW126567   2.195   2.766   1.149 -1.3894  0.9662 -0.1425
 5036SOL    HW226568   2.227   2.852   1.254 -0.8207  0.8069 -2.0008
 5037SOL     OW26569   3.016   2.833   1.427  0.1713 -0.2237  0.4442
 5037SOL    HW126570   2.969   2.782   1.361  0.3002 -1.5350  1.3521
 5037SOL    HW226571   3.000   2.780   1.505 -0.2602  1.5223  1.5271
 5038SOL     OW26572   2.804   3.684   4.530  0.0301  0.2950  0.3629
 5038SOL    HW126573   2.730   3.744   4.537  0.1698  0.7405 -1.9346
 5038SOL    HW226574   2.781   3.596   4.559 -0.4821  0.2459 -0.1982
 5039SOL     OW26575   2.419   2.404  15.271 -0.1610 -0.0307 -0.0440
 5039SOL    HW126576   2.458   2.340  15.211  1.8346 -0.2813  1.5337
 5039SOL    HW226577   2.419   2.483  15.217  0.0931 -0.7173 -1.0480
 5040SOL     OW26578   4.066   3.616  16.250 -0.2888 -0.5664  0.1003
 5040SOL    HW126579   4.000   3.668  16.205 -0.0406 -0.0295  0.3581
 5040SOL    HW226580   4.150   3.640  16.211 -1.3039  2.8063  0.0331
 5041SOL     OW26581   1.262   2.812  17.204 -0.1514  0.2023 -0.3736
 5041SOL    HW126582   1.326   2.750  17.170 -2.3876 -1.8239 -0.9149
 5041SOL    HW226583   1.210   2.852  17.135 -0.6198  1.0760  0.4866
 5042SOL     OW26584   2.394   4.148  10.465 -0.1079 -0.8816  0.3180
 5042SOL    HW126585   2.462   4.081  10.477 -0.1758 -0.4406  3.1179
 5042SOL    HW226586   2.395   4.150  10.369  1.1639  1.7718  0.3777
 5043SOL     OW26587   4.022   0.230   5.241 -0.1195  0.1784  0.0374
 5043SOL    HW126588   4.001   0.142   5.209  1.4717  0.6289 -2.3050
 5043SOL    HW226589   4.104   0.257   5.198  0.2117 -0.3810  0.3236
 5044SOL     OW26590   1.087   2.540   4.396  0.1462 -0.3023 -0.4917
 5044SOL    HW126591   1.168   2.488   4.395  0.6566  0.4805 -0.0390
 5044SOL    HW226592   1.026   2.478   4.356  0.9558 -0.0509 -2.1005
 5045SOL     OW26593   3.258   2.958   6.453 -0.3640 -0.1732  0.3611
 5045SOL    HW126594   3.250   3.016   6.377  1.8243  1.5482  1.4480
 5045SOL    HW226595   3.205   2.882   6.429 -0.1969 -0.2725  0.3028
 5046SOL     OW26596   4.589   3.421   4.606  0.4167  0.1677  0.2101
 5046SOL    HW126597   4.564   3.467   4.685  2.9868  2.1634 -0.1175
 5046SOL    HW226598   4.504   3.408   4.565  0.8509 -0.8840 -0.3832
 5047SOL     OW26599   3.231   2.645  11.659 -0.0903 -0.1622 -0.9842
 5047SOL    HW126600   3.216   2.710  11.728 -1.1212 -0.8785 -0.5423
 5047SOL    HW226601   3.324   2.664  11.646 -0.7618  2.1121 -2.4791
 5048SOL     OW26602   3.281   3.335   8.689  0.5282 -0.1947  0.2539
 5048SOL    HW126603   3.363   3.339   8.739  0.0299  0.8510  0.9768
 5048SOL    HW226604   3.264   3.426   8.667 -0.3893 -0.5193 -0.3700
 5049SOL     OW26605   2.047   4.517  14.196  0.4775 -0.0605  1.0308
 5049SOL    HW126606   2.014   4.463  14.124  1.9162 -1.1469  1.1821
 5049SOL    HW226607   2.032   4.461  14.273 -0.5086  0.2914  1.0884
 5050SOL     OW26608   2.337   2.574   3.216  0.1359  0.3084  0.8569
 5050SOL    HW126609   2.352   2.667   3.200 -0.0250  0.2106  0.1290
 5050SOL    HW226610   2.356   2.573   3.310  0.2788  1.5538  0.8382
 5051SOL     OW26611   4.256   2.359  13.242 -0.0899  0.1439  0.0291
 5051SOL    HW126612   4.188   2.344  13.177 -0.2409  2.0837 -0.2584
 5051SOL    HW226613   4.242   2.286  13.302 -0.5866  1.0042  0.9699
 5052SOL     OW26614   2.171   0.929  14.689 -0.0294  0.4340  0.0279
 5052SOL    HW126615   2.151   0.841  14.656 -1.2205  1.3978 -1.7938
 5052SOL    HW226616   2.217   0.968  14.614 -2.1189 -0.5867 -1.7848
 5053SOL     OW26617   1.612   0.450   8.815  0.4564  0.0173  0.2374
 5053SOL    HW126618   1.665   0.402   8.751 -0.7647 -1.2929  0.2045
 5053SOL    HW226619   1.657   0.535   8.813 -2.3451  1.5149  1.1973
 5054SOL     OW26620   0.252   3.074   8.214 -0.1109  0.1186 -0.5785
 5054SOL    HW126621   0.177   3.121   8.178 -0.5382 -1.7487 -2.1496
 5054SOL    HW226622   0.275   3.031   8.131 -0.0685  1.5370 -1.2941
 5055SOL     OW26623   0.507   2.364   7.729  0.0445 -0.5936  0.0248
 5055SOL    HW126624   0.579   2.412   7.771  0.6987 -1.1068 -0.5015
 5055SOL    HW226625   0.543   2.338   7.644 -0.2310 -0.5076 -0.1146
 5056SOL     OW26626   3.814   3.875   3.616  0.3454 -0.2075 -0.2378
 5056SOL    HW126627   3.834   3.815   3.688  1.1241 -0.3451 -0.5729
 5056SOL    HW226628   3.879   3.846   3.553 -1.5491  1.4929 -2.9718
 5057SOL     OW26629   1.531   1.118   1.849  0.4277  0.1727 -0.0260
 5057SOL    HW126630   1.588   1.110   1.773 -0.1594  0.3523 -0.4853
 5057SOL    HW226631   1.543   1.036   1.897 -0.3555  0.1808  0.2008
 5058SOL     OW26632   2.973   2.891   8.112  0.3086  0.1463 -0.2928
 5058SOL    HW126633   2.908   2.885   8.182 -0.7002 -1.4349 -1.3517
 5058SOL    HW226634   2.970   2.801   8.078 -0.0966  0.4142 -0.9797
 5059SOL     OW26635   2.012   2.693  11.589 -0.5374  0.0138  0.3404
 5059SOL    HW126636   1.966   2.770  11.555 -1.0555 -0.2173  0.5161
 5059SOL    HW226637   2.076   2.677  11.520 -0.4509 -3.5578  1.2728
 5060SOL     OW26638   1.559   4.083  11.577 -0.6348  0.7370  0.6559
 5060SOL    HW126639   1.636   4.081  11.633 -0.9477 -1.0598  1.0300
 5060SOL    HW226640   1.483   4.089  11.636 -0.1616 -0.9922  1.4424
 5061SOL     OW26641   1.168   2.424  11.376 -0.1006  0.0705 -0.3439
 5061SOL    HW126642   1.196   2.413  11.467 -0.6753  0.4579 -0.1234
 5061SOL    HW226643   1.170   2.339  11.331 -0.9694  0.2735 -0.7569
 5062SOL     OW26644   0.102   0.219   2.205 -0.4742 -0.4108 -0.0244
 5062SOL    HW126645   0.141   0.205   2.291  0.8572 -0.3523 -0.6128
 5062SOL    HW226646   0.089   0.314   2.198 -1.0935 -0.4339  0.8324
 5063SOL     OW26647   4.052   2.358   5.966 -0.4631  0.5332 -0.5723
 5063SOL    HW126648   4.023   2.377   5.877 -2.1338 -1.8242 -0.5241
 5063SOL    HW226649   4.014   2.425   6.023 -0.0903 -0.9062  1.3674
 5064SOL     OW26650   1.280   4.605   3.572 -0.2448 -0.4847  0.1827
 5064SOL    HW126651   1.247   4.608   3.661 -0.7150 -0.9252  0.0233
 5064SOL    HW226652   1.270   4.515   3.540  1.6894 -0.0586 -1.6414
 5065SOL     OW26653   1.034   1.968   9.334 -0.2131  0.1492 -0.0947
 5065SOL    HW126654   0.940   1.976   9.316 -0.1479  1.6585  0.2712
 5065SOL    HW226655   1.047   2.018   9.415  3.4037  0.6983 -1.0312
 5066SOL     OW26656   3.664   2.583   3.988  0.2486  0.4302 -0.2964
 5066SOL    HW126657   3.578   2.553   3.958 -0.3741  0.1287  1.7838
 5066SOL    HW226658   3.707   2.505   4.024  0.9863 -0.3329 -2.8572
 5067SOL     OW26659   2.010   2.435  12.250  0.1768 -0.0449 -0.2854
 5067SOL    HW126660   2.102   2.425  12.228 -0.1939 -0.4598 -1.6700
 5067SOL    HW226661   1.983   2.348  12.282  0.7381 -0.3757 -0.7196
 5068SOL     OW26662   3.452   2.861   2.206 -0.1866 -0.1315  0.8725
 5068SOL    HW126663   3.419   2.798   2.271 -0.2384  0.8773  1.8274
 5068SOL    HW226664   3.376   2.911   2.175  0.9555  0.0718 -1.5431
 5069SOL     OW26665   4.328   2.529   8.817 -0.3294  0.2629 -0.1647
 5069SOL    HW126666   4.344   2.621   8.839 -2.7554  0.5851  0.2545
 5069SOL    HW226667   4.237   2.541   8.788 -1.1889  0.5503  2.6111
 5070SOL     OW26668   4.539   1.293  13.503  0.0888  0.8608 -0.0039
 5070SOL    HW126669   4.594   1.289  13.582  0.8632 -1.0396 -0.6603
 5070SOL    HW226670   4.455   1.323  13.540  0.3069 -0.1202  1.2902
 5071SOL     OW26671   3.516   3.113   5.790  0.1005 -0.0738  0.1458
 5071SOL    HW126672   3.504   3.190   5.735  0.9234 -0.3439 -0.4109
 5071SOL    HW226673   3.578   3.153   5.850  2.2254 -2.1209 -0.6681
 5072SOL     OW26674   2.092   2.157   1.389  0.6022 -0.2529  0.1866
 5072SOL    HW126675   2.048   2.180   1.308  1.6669  0.9349 -0.0488
 5072SOL    HW226676   2.073   2.236   1.439  1.4455 -0.7705  1.3441
 5073SOL     OW26677   1.279   4.119   5.570 -0.1925 -1.2000  0.1189
 5073SOL    HW126678   1.227   4.199   5.560  0.2530 -0.8353  0.6732
 5073SOL    HW226679   1.231   4.056   5.624  1.2486 -2.9131 -0.5952
 5074SOL     OW26680   2.759   1.973  15.118 -0.1821  0.5728 -0.1075
 5074SOL    HW126681   2.706   2.028  15.061  0.1349  0.7220 -0.2553
 5074SOL    HW226682   2.692   1.909  15.143  0.3089  1.0119  2.3038
 5075SOL     OW26683   4.718   4.095   9.923 -0.6132  0.1176 -0.1761
 5075SOL    HW126684   0.032   4.068   9.840 -1.7770  0.5303 -0.8336
 5075SOL    HW226685   0.058   4.164   9.945 -0.6308  0.3151 -0.7451
 5076SOL     OW26686   3.273   3.486  12.916 -0.3131  0.2902  0.2810
 5076SOL    HW126687   3.240   3.529  12.837  1.3765 -0.8339 -1.0532
 5076SOL    HW226688   3.192   3.443  12.943  0.2033 -1.1049 -0.3924
 5077SOL     OW26689   4.471   1.855   3.499 -0.4710  0.2606 -0.0249
 5077SOL    HW126690   4.380   1.862   3.471 -0.9491 -1.6040  1.0283
 5077SOL    HW226691   4.496   1.775   3.453  0.9271  0.2454  0.7680
 5078SOL     OW26692   2.647   0.611   7.457 -0.4473 -0.2782 -0.5585
 5078SOL    HW126693   2.635   0.654   7.542  1.4638 -0.0102 -0.4395
 5078SOL    HW226694   2.621   0.526   7.493 -1.1728  0.4061  0.5280
 5079SOL     OW26695   2.407   4.670   5.462  0.4580  0.6543  0.7223
 5079SOL    HW126696   2.486   4.668   5.409  1.2171  1.4866  1.8352
 5079SOL    HW226697   2.337   4.692   5.399 -0.4433 -0.2582  1.4033
 5080SOL     OW26698   3.080   2.112  12.257  0.2454 -0.3496  0.3252
 5080SOL    HW126699   3.041   2.164  12.187 -3.6677 -1.7646  1.4759
 5080SOL    HW226700   3.011   2.051  12.281 -1.6656  0.3253 -3.4188
 5081SOL     OW26701   2.462   1.731   8.225 -0.1010 -0.6077 -0.0651
 5081SOL    HW126702   2.452   1.812   8.175  2.7721 -0.5081 -0.4411
 5081SOL    HW226703   2.368   1.711   8.234 -0.5688  0.7235 -1.8307
 5082SOL     OW26704   0.614   4.238   4.619 -0.5027 -1.3566  0.4060
 5082SOL    HW126705   0.531   4.279   4.595  0.6136  0.5643 -0.1848
 5082SOL    HW226706   0.662   4.314   4.653  1.0982 -1.7461 -0.9986
 5083SOL     OW26707   2.007   1.087   8.920  0.6920 -0.0869 -0.2460
 5083SOL    HW126708   2.048   1.109   9.004 -1.3220 -4.7407  1.9922
 5083SOL    HW226709   1.915   1.088   8.948  0.9041  2.2411  0.3652
 5084SOL     OW26710   0.327   0.076   6.693 -0.0075  0.1159  0.7177
 5084SOL    HW126711   0.389   0.145   6.715  1.7697 -1.1700 -0.2211
 5084SOL    HW226712   0.270   0.114   6.627  0.9374 -0.7387 -0.5996
 5085SOL     OW26713   1.729   0.706   6.091 -0.0983  0.4532 -0.6022
 5085SOL    HW126714   1.720   0.653   6.170 -0.6745 -0.0978 -1.0363
 5085SOL    HW226715   1.763   0.636   6.036 -3.3874 -1.0626 -0.6951
 5086SOL     OW26716   0.964   1.836   8.046  0.1179  0.1399 -0.1945
 5086SOL    HW126717   0.887   1.830   8.103  1.0132  0.2284  1.0319
 5086SOL    HW226718   0.950   1.919   8.000  1.5975 -0.0096 -0.9343
 5087SOL     OW26719   1.942   3.242   6.322  0.5478  0.5484  0.0359
 5087SOL    HW126720   1.878   3.213   6.388 -1.4940  0.0223 -2.1755
 5087SOL    HW226721   1.890   3.221   6.244 -2.5532 -1.0686  2.5198
 5088SOL     OW26722   1.171   2.980  13.164 -0.1561  0.4629 -0.4468
 5088SOL    HW126723   1.127   2.993  13.080  1.2798  1.9490 -0.9801
 5088SOL    HW226724   1.124   2.911  13.211 -1.0311  0.2047 -1.6965
 5089SOL     OW26725   3.784   2.673   6.652 -0.1456 -0.3092 -0.1126
 5089SOL    HW126726   3.849   2.743   6.652 -1.8949  1.3403 -0.9277
 5089SOL    HW226727   3.824   2.602   6.702  0.6231  0.0255 -0.2517
 5090SOL     OW26728   0.639   1.775   6.185 -0.2981 -1.1031  0.1794
 5090SOL    HW126729   0.604   1.719   6.116 -0.2487 -1.8176  0.7330
 5090SOL    HW226730   0.733   1.776   6.170 -0.2071 -3.7805  0.5156
 5091SOL     OW26731   0.888   1.024   6.601  0.1224  0.1671  0.7419
 5091SOL    HW126732   0.863   1.096   6.544  2.4460  1.3554  1.2390
 5091SOL    HW226733   0.813   0.985   6.648  0.1374  0.7586  1.2591
 5092SOL     OW26734   0.927   1.397   5.041 -0.2897  0.7676 -0.3855
 5092SOL    HW126735   1.010   1.371   5.082 -1.9898 -1.0919  1.8800
 5092SOL    HW226736   0.884   1.445   5.112 -1.1693  0.5787 -0.7973
 5093SOL     OW26737   4.677   0.510   8.018 -0.5687 -0.0270  0.3378
 5093SOL    HW126738   4.618   0.580   7.989 -2.0448 -1.3409  0.1327
 5093SOL    HW226739   4.619   0.480   8.089  3.7660  0.5432  4.1037
 5094SOL     OW26740   0.181   4.187   6.014 -0.2337  0.8175 -0.1178
 5094SOL    HW126741   0.153   4.097   5.999 -0.4576  0.5285  1.9746
 5094SOL    HW226742   0.267   4.200   5.974 -0.4004  2.1016 -0.0601
 5095SOL     OW26743   1.778   4.141   3.219 -0.6913 -0.4361  0.6190
 5095SOL    HW126744   1.821   4.138   3.304 -1.5248  0.4479  1.0835
 5095SOL    HW226745   1.846   4.175   3.161 -1.5150  0.2240  0.0130
 5096SOL     OW26746   3.672   1.674   7.453  0.3425  0.4104  0.4328
 5096SOL    HW126747   3.723   1.619   7.394 -3.4184 -1.0511 -1.4843
 5096SOL    HW226748   3.694   1.763   7.426  1.3029  0.1539  0.3624
 5097SOL     OW26749   1.559   2.685   2.457  0.0601  0.0628  0.0929
 5097SOL    HW126750   1.577   2.591   2.456  2.4571  0.5860 -2.5480
 5097SOL    HW226751   1.495   2.691   2.386 -0.3686 -2.8042  0.2475
 5098SOL     OW26752   2.808   3.871   8.887 -0.1420 -0.0073 -0.2932
 5098SOL    HW126753   2.795   3.823   8.806  1.3655 -0.6446 -0.1694
 5098SOL    HW226754   2.749   3.945   8.876 -0.2805 -0.0475  0.1723
 5099SOL     OW26755   1.845   2.673  12.383 -0.3244 -0.2471  0.1121
 5099SOL    HW126756   1.793   2.733  12.436 -1.3848 -0.7244 -0.3856
 5099SOL    HW226757   1.906   2.637  12.447 -1.3297 -1.6749  0.2639
 5100SOL     OW26758   4.620   0.335  15.846 -0.5975  0.0493  0.1909
 5100SOL    HW126759   4.662   0.354  15.763 -2.2056  0.1015 -0.6073
 5100SOL    HW226760   4.545   0.395  15.845 -1.4430 -1.0124 -0.5008
 5101SOL     OW26761   1.005   4.449   4.249 -0.2171  0.3019 -0.0652
 5101SOL    HW126762   0.996   4.475   4.340 -1.6248 -0.0532 -0.1123
 5101SOL    HW226763   0.984   4.357   4.261 -0.8046  0.5637  0.8727
 5102SOL     OW26764   0.571   4.210   6.372 -0.2299 -0.3017 -0.1240
 5102SOL    HW126765   0.505   4.213   6.302 -1.3200  1.4908  0.9842
 5102SOL    HW226766   0.535   4.263   6.443 -0.3432 -0.6628  0.0872
 5103SOL     OW26767   3.614   3.539   4.995  0.2736 -0.6201  0.1904
 5103SOL    HW126768   3.528   3.558   4.956  0.5016 -0.3048 -0.1543
 5103SOL    HW226769   3.681   3.578   4.939 -1.1162  0.3229 -0.8144
 5104SOL     OW26770   2.176   4.649  12.688 -0.4426 -0.6819 -1.0886
 5104SOL    HW126771   2.191   4.563  12.724 -0.9825  0.1818  1.1754
 5104SOL    HW226772   2.232   4.648  12.610  0.1643  0.2320 -0.6735
 5105SOL     OW26773   3.996   1.981   0.696 -0.1665  0.3830  0.4843
 5105SOL    HW126774   3.903   1.976   0.717  0.2680  0.0204  2.3536
 5105SOL    HW226775   4.004   1.967   0.602 -1.4986 -1.6450  0.6659
 5106SOL     OW26776   3.977   2.262   8.983 -0.3413  0.2884 -0.3516
 5106SOL    HW126777   3.963   2.220   9.068  1.4519 -2.4280 -1.4113
 5106SOL    HW226778   3.885   2.265   8.956 -0.5413 -0.2295  0.2628
 5107SOL     OW26779   2.713   4.472  15.568 -0.3449 -0.3245 -0.5004
 5107SOL    HW126780   2.642   4.481  15.631  1.1405  2.0695  0.8355
 5107SOL    HW226781   2.748   4.561  15.570 -0.5689 -0.2343 -0.7822
 5108SOL     OW26782   1.719   4.136   1.044  0.0358 -0.2018  0.3788
 5108SOL    HW126783   1.781   4.065   1.058 -1.5768 -1.4800  1.0108
 5108SOL    HW226784   1.707   4.150   0.950 -0.8375  0.4807  0.5858
 5109SOL     OW26785   3.324   1.094   3.574  0.4087 -0.6636  0.2866
 5109SOL    HW126786   3.383   1.163   3.603 -1.8958  1.4178 -0.0126
 5109SOL    HW226787   3.330   1.100   3.479  1.6216 -0.5861  0.3644
 5110SOL     OW26788   0.410   1.509  15.138 -0.5250  0.4571  0.3178
 5110SOL    HW126789   0.481   1.523  15.076 -0.2125  1.9479  0.9936
 5110SOL    HW226790   0.468   1.467  15.201  0.6072  0.3539 -0.7892
 5111SOL     OW26791   1.020   1.132   9.154  0.6354  0.1952  0.3149
 5111SOL    HW126792   1.017   1.045   9.116  1.3819 -0.1544  1.0633
 5111SOL    HW226793   0.992   1.107   9.241 -0.3651  2.3386  0.6175
 5112SOL     OW26794   4.018   0.443   4.410 -0.2255  0.0633  0.5699
 5112SOL    HW126795   4.102   0.417   4.373  0.7779  3.4836  0.4948
 5112SOL    HW226796   3.990   0.526   4.371  1.1393  0.9793  1.5473
 5113SOL     OW26797   0.173   0.482   5.130  0.0088  0.3344 -0.4652
 5113SOL    HW126798   0.139   0.512   5.214  0.8812  0.4968 -0.1678
 5113SOL    HW226799   0.126   0.401   5.108 -0.6848  0.3098  1.1225
 5114SOL     OW26800   4.646   3.349   6.476  0.5340  0.0331  0.1014
 5114SOL    HW126801   4.588   3.274   6.493 -0.6881  0.9348 -0.1189
 5114SOL    HW226802   4.646   3.350   6.380  0.0460 -1.8189  0.0836
 5115SOL     OW26803   1.928   0.204  11.754 -0.3559 -0.9100 -0.1553
 5115SOL    HW126804   1.958   0.290  11.726  1.1324 -0.7663  1.9219
 5115SOL    HW226805   2.010   0.167  11.787  0.3896  0.8922 -0.0375
 5116SOL     OW26806   1.596   2.035  14.105 -0.2097  0.4712 -0.5095
 5116SOL    HW126807   1.509   2.074  14.092  0.7864  2.7984 -0.2844
 5116SOL    HW226808   1.611   1.966  14.040 -0.1713  0.5597 -0.5957
 5117SOL     OW26809   4.430   1.105  13.018  0.0567  0.4351  0.1029
 5117SOL    HW126810   4.399   1.174  13.077 -0.0805 -0.2861  0.8626
 5117SOL    HW226811   4.357   1.046  13.034  0.1541 -0.0232 -1.0985
 5118SOL     OW26812   2.308   4.368  13.070  0.5598  0.4039 -0.0813
 5118SOL    HW126813   2.295   4.398  12.981  0.3807 -0.9808 -0.5207
 5118SOL    HW226814   2.243   4.420  13.118  0.1694  0.4113 -0.6292
 5119SOL     OW26815   3.999   3.190   1.565 -0.0207  0.0258 -0.2067
 5119SOL    HW126816   4.005   3.284   1.585 -0.3509 -0.1326  0.6411
 5119SOL    HW226817   3.910   3.189   1.528 -0.6782  1.7274  1.2957
 5120SOL     OW26818   3.900   3.065   1.989  0.4617  0.2229  0.4546
 5120SOL    HW126819   3.972   3.060   1.926 -0.5520  1.4024 -0.7917
 5120SOL    HW226820   3.930   2.989   2.039 -1.0875  0.0455  1.1364
 5121SOL     OW26821   3.818   1.574   8.419 -0.5266 -0.8243  0.1617
 5121SOL    HW126822   3.791   1.654   8.465 -0.6761 -0.0512 -1.2394
 5121SOL    HW226823   3.836   1.610   8.331 -0.7051  0.6282  0.7106
 5122SOL     OW26824   1.937   0.028   4.863  0.1719 -0.0460  0.1452
 5122SOL    HW126825   1.908   0.007   4.951  1.9418 -1.8587  0.2975
 5122SOL    HW226826   1.955   4.665   4.825  1.2340  0.3520 -0.2722
 5123SOL     OW26827   4.673   3.958  16.529  0.5933  0.1560 -0.1171
 5123SOL    HW126828   4.654   3.970  16.436 -1.7805 -1.6141  0.1319
 5123SOL    HW226829   4.640   3.869  16.539  0.8193  0.4410  3.2423
 5124SOL     OW26830   0.025   3.590   1.795 -0.0387  0.0462 -0.2907
 5124SOL    HW126831   0.084   3.569   1.868 -2.0846  1.4846  1.7562
 5124SOL    HW226832   0.023   3.684   1.809  1.9003  0.3541 -2.0773
 5125SOL     OW26833   1.249   0.800   5.391  0.0884 -0.0742  0.5604
 5125SOL    HW126834   1.321   0.862   5.404  0.1564 -0.3320  1.4058
 5125SOL    HW226835   1.194   0.866   5.350  0.1303 -0.6726 -0.4702
 5126SOL     OW26836   4.652   3.316  16.219 -0.4550 -0.1854 -0.0017
 5126SOL    HW126837   4.617   3.389  16.168 -2.1031 -1.4436 -0.7018
 5126SOL    HW226838   4.672   3.249  16.154  0.9770 -1.2103  1.4951
 5127SOL     OW26839   1.984   3.556   0.209 -0.2778 -0.5775  0.3274
 5127SOL    HW126840   1.999   3.650   0.217  2.0040 -1.1694  2.9835
 5127SOL    HW226841   1.998   3.543   0.116 -2.2957 -0.5099  0.0114
 5128SOL     OW26842   3.179   0.363   1.703  0.5125  0.4232  0.2499
 5128SOL    HW126843   3.146   0.286   1.657 -3.1326  0.2697  3.1401
 5128SOL    HW226844   3.270   0.356   1.671  0.4940 -0.4796  0.3961
 5129SOL     OW26845   2.427   4.509   9.165  0.2838  0.5398  0.1019
 5129SOL    HW126846   2.431   4.458   9.246  0.0477  0.4321  0.0457
 5129SOL    HW226847   2.513   4.494   9.125  0.4584  0.8558  0.3637
 5130SOL     OW26848   1.094   2.158  15.955  0.4768 -0.0773  0.1944
 5130SOL    HW126849   1.108   2.080  16.009  0.0462  0.5342  1.1963
 5130SOL    HW226850   1.090   2.121  15.867 -0.4904  2.1448 -0.6995
 5131SOL     OW26851   1.247   0.801   3.959  0.3716 -0.4255 -0.2020
 5131SOL    HW126852   1.270   0.886   3.921 -1.4411  0.2572  0.2113
 5131SOL    HW226853   1.199   0.757   3.888  0.5585  1.0575 -1.2592
 5132SOL     OW26854   1.585   4.107   8.875 -0.4225 -0.1618 -0.0902
 5132SOL    HW126855   1.569   4.013   8.889 -2.0662  0.4389  2.0018
 5132SOL    HW226856   1.495   4.133   8.854 -0.4855  0.0100  0.3890
 5133SOL     OW26857   3.987   3.344  11.528  0.1762 -0.5775 -0.5573
 5133SOL    HW126858   4.047   3.301  11.589 -1.4339  0.2585  1.6099
 5133SOL    HW226859   3.919   3.374  11.588  0.2380 -0.7318 -0.4130
 5134SOL     OW26860   3.855   0.442   1.546 -0.0565 -0.0712  0.2576
 5134SOL    HW126861   3.832   0.410   1.458 -1.5616  0.5036  0.4398
 5134SOL    HW226862   3.769   0.457   1.585 -2.0106 -0.4010 -3.8300
 5135SOL     OW26863   2.395   2.313   1.669 -0.1975  0.2545  0.0614
 5135SOL    HW126864   2.328   2.247   1.649  0.5492 -1.0413  1.8191
 5135SOL    HW226865   2.348   2.382   1.714  1.4369  0.0315  2.0969
 5136SOL     OW26866   1.492   1.640   3.842 -0.2899 -0.6488  0.2096
 5136SOL    HW126867   1.491   1.654   3.747 -0.9289 -2.7722 -0.0980
 5136SOL    HW226868   1.491   1.731   3.871  0.7199 -1.1159  1.7507
 5137SOL     OW26869   0.944   4.456   1.838  0.6297 -0.1568 -0.8253
 5137SOL    HW126870   0.857   4.485   1.811  0.5262  0.6471  0.3714
 5137SOL    HW226871   0.950   4.483   1.929 -1.9185 -2.0431 -0.1297
 5138SOL     OW26872   1.226   0.340   1.680  0.1352  0.5663  0.1269
 5138SOL    HW126873   1.194   0.324   1.769  0.2870  0.0274  0.0850
 5138SOL    HW226874   1.278   0.417   1.707  2.2773 -1.0163  0.5595
 5139SOL     OW26875   2.536   0.486   5.551 -0.1681  0.2361 -0.2110
 5139SOL    HW126876   2.566   0.444   5.632  0.9565  2.1577  0.3817
 5139SOL    HW226877   2.488   0.414   5.510 -0.1891  0.2320 -0.1795
 5140SOL     OW26878   2.730   3.702   3.416 -0.3295  0.4309  0.8169
 5140SOL    HW126879   2.770   3.750   3.489  2.0282 -1.9675  1.0984
 5140SOL    HW226880   2.757   3.766   3.350  2.0060 -1.3456  0.0516
 5141SOL     OW26881   4.609   4.125   3.186  0.0691  0.6129 -0.5637
 5141SOL    HW126882   4.522   4.166   3.193  1.5370  3.8025 -1.0333
 5141SOL    HW226883   4.655   4.187   3.242 -1.3669  1.0683  0.1285
 5142SOL     OW26884   1.748   1.431  14.234  0.1623 -0.2442 -0.0372
 5142SOL    HW126885   1.761   1.524  14.214 -1.9389 -0.4767 -2.5637
 5142SOL    HW226886   1.809   1.430  14.308  0.1579  0.6636 -0.0146
 5143SOL     OW26887   0.790   1.685   3.704  0.0559  0.1765 -0.2350
 5143SOL    HW126888   0.771   1.762   3.758  0.8066 -0.7415  1.3072
 5143SOL    HW226889   0.734   1.619   3.745 -0.8223  0.9782 -0.1332
 5144SOL     OW26890   3.710   2.091   2.603 -0.2201  0.7205 -0.9007
 5144SOL    HW126891   3.653   2.019   2.578  0.7014 -0.6483  0.8728
 5144SOL    HW226892   3.642   2.132   2.657  1.6363  2.1064  0.4023
 5145SOL     OW26893   0.167   4.039   0.514 -0.2688 -0.2676  0.0377
 5145SOL    HW126894   0.164   4.090   0.595  0.2130  0.8843 -0.6706
 5145SOL    HW226895   0.167   3.946   0.536  0.0483  0.4508  2.9996
 5146SOL     OW26896   1.992   3.802   8.205  0.4179 -0.1005  0.2314
 5146SOL    HW126897   1.984   3.708   8.189 -1.6822  0.1804 -0.3590
 5146SOL    HW226898   1.985   3.802   8.300  1.3625 -0.6497  0.2997
 5147SOL     OW26899   0.922   1.500   8.672 -0.1539 -0.2010  0.4808
 5147SOL    HW126900   0.854   1.537   8.615 -0.2636 -1.6623 -0.3213
 5147SOL    HW226901   0.939   1.418   8.626 -1.9161 -0.6572  0.6349
 5148SOL     OW26902   1.266   4.258  12.007 -0.2448  0.3091 -0.1130
 5148SOL    HW126903   1.241   4.193  12.073 -2.7684  2.0396  0.6518
 5148SOL    HW226904   1.184   4.302  11.987  0.2801  1.0763 -0.5651
 5149SOL     OW26905   0.277   2.122  16.026 -0.1333  0.3684 -0.0448
 5149SOL    HW126906   0.266   2.216  16.012 -0.6431  0.7331  2.7857
 5149SOL    HW226907   0.258   2.100  15.934  0.0189  1.4787 -0.3320
 5150SOL     OW26908   0.761   0.012  12.570 -0.2181  0.5305 -0.0020
 5150SOL    HW126909   0.785   4.673  12.639 -0.6514 -1.3209 -1.5296
 5150SOL    HW226910   0.799   0.086  12.618 -0.1576  0.0664  0.6657
 5151SOL     OW26911   1.545   4.141   7.278  0.4849  0.2164 -0.3522
 5151SOL    HW126912   1.531   4.105   7.190 -0.2974 -0.4032  0.0296
 5151SOL    HW226913   1.488   4.216   7.267  1.6917  1.2281  0.2642
 5152SOL     OW26914   2.422   2.388   5.127  0.0499  0.3866  0.6164
 5152SOL    HW126915   2.433   2.464   5.069 -2.5667  1.8184  1.9671
 5152SOL    HW226916   2.332   2.389   5.159 -0.4423 -1.7581 -0.7053
 5153SOL     OW26917   2.681   4.082   8.733  0.3910 -0.1094  0.0060
 5153SOL    HW126918   2.610   4.141   8.708 -1.6334 -2.1138  1.0727
 5153SOL    HW226919   2.739   4.099   8.658  0.2251 -0.3730 -0.1817
 5154SOL     OW26920   4.099   2.357  13.030  0.3617 -0.0183 -0.0911
 5154SOL    HW126921   4.129   2.402  12.951 -1.9442 -0.4997 -1.2208
 5154SOL    HW226922   4.014   2.397  13.049 -0.3898 -0.0334 -3.4756
 5155SOL     OW26923   0.170   1.705   8.673 -0.5211 -0.2141  0.3040
 5155SOL    HW126924   0.222   1.785   8.666 -2.0267  0.6459 -1.1097
 5155SOL    HW226925   0.082   1.745   8.675  0.0555  0.9837  1.6745
 5156SOL     OW26926   2.810   3.309   8.108  0.4617  0.0859  0.0715
 5156SOL    HW126927   2.751   3.380   8.135  0.6228  0.6720 -1.1065
 5156SOL    HW226928   2.744   3.253   8.066  0.7237 -1.1041  1.2509
 5157SOL     OW26929   1.170   3.197  12.493  0.6054 -0.1714  0.7278
 5157SOL    HW126930   1.097   3.146  12.458  0.7010 -0.5073  1.0149
 5157SOL    HW226931   1.237   3.172  12.429 -0.7906  0.2978 -0.8940
 5158SOL     OW26932   0.699   2.265   1.880  0.1979 -0.7266 -0.1816
 5158SOL    HW126933   0.760   2.233   1.814 -0.5545 -0.9379 -0.7738
 5158SOL    HW226934   0.682   2.182   1.925  1.6149 -0.9126  0.0103
 5159SOL     OW26935   3.442   2.142   2.499 -0.1246  0.0812 -0.3742
 5159SOL    HW126936   3.390   2.099   2.431 -1.8001 -0.7798  1.4322
 5159SOL    HW226937   3.529   2.153   2.461 -0.4529  0.3366 -1.0569
 5160SOL     OW26938   3.003   1.529   9.419 -0.0798 -0.3113  0.0313
 5160SOL    HW126939   2.956   1.540   9.502  0.6768 -0.5782  0.4902
 5160SOL    HW226940   2.957   1.585   9.357  1.9204  1.3844  0.1143
 5161SOL     OW26941   4.219   1.006   8.490 -0.0268  0.0758 -0.1308
 5161SOL    HW126942   4.242   1.099   8.491 -1.8163  0.5434 -1.8934
 5161SOL    HW226943   4.214   0.990   8.584 -0.4047 -2.1962 -0.5397
 5162SOL     OW26944   2.037   1.311  16.516  0.4942  0.5225  0.9393
 5162SOL    HW126945   1.975   1.273  16.578  1.6039 -1.0660  1.0632
 5162SOL    HW226946   2.077   1.238  16.468 -1.4502 -0.5966  1.0318
 5163SOL     OW26947   1.264   3.421   3.424  0.9327  0.2422  0.1340
 5163SOL    HW126948   1.248   3.328   3.405  0.5064  0.4251 -0.4034
 5163SOL    HW226949   1.172   3.449   3.428  1.4098  1.6205  1.5249
 5164SOL     OW26950   0.937   1.660   3.470 -0.7871  0.7474 -0.1027
 5164SOL    HW126951   1.021   1.677   3.513 -1.1339  1.0386  0.4650
 5164SOL    HW226952   0.880   1.630   3.541 -0.7576  1.8630  0.3816
 5165SOL     OW26953   2.727   3.562   0.195  0.1989  0.3744 -0.1320
 5165SOL    HW126954   2.695   3.649   0.222 -0.9082  0.4430 -1.6510
 5165SOL    HW226955   2.787   3.542   0.267  1.5047  1.8527 -0.7997
 5166SOL     OW26956   2.328   1.182   5.833  0.0233 -0.0971 -0.8403
 5166SOL    HW126957   2.265   1.124   5.877 -0.0251  0.3380 -0.3254
 5166SOL    HW226958   2.342   1.244   5.905 -1.9830  1.7913 -2.0820
 5167SOL     OW26959   4.493   2.556   2.760  0.2139 -0.0134 -0.1496
 5167SOL    HW126960   4.505   2.545   2.665  2.8686  0.6774  0.1013
 5167SOL    HW226961   4.399   2.543   2.766  0.0754  0.0739 -1.9803
 5168SOL     OW26962   2.813   2.119  15.739  0.2265  0.3385 -0.0034
 5168SOL    HW126963   2.808   2.206  15.698  0.3324 -1.5635 -4.0389
 5168SOL    HW226964   2.726   2.115  15.779 -1.1597 -0.8456 -3.1274
 5169SOL     OW26965   0.503   2.892  15.940  0.1839 -0.4739  0.1247
 5169SOL    HW126966   0.480   2.983  15.959  0.0761 -0.6382  0.7955
 5169SOL    HW226967   0.520   2.851  16.025 -2.9568  0.9007  1.4315
 5170SOL     OW26968   0.612   2.415   7.358  0.5366  0.1384 -0.1851
 5170SOL    HW126969   0.691   2.380   7.400 -0.1735 -0.5722  0.5570
 5170SOL    HW226970   0.650   2.442   7.274 -0.1056 -2.2981 -1.2402
 5171SOL     OW26971   2.885   3.797   9.196  0.5844  0.0727  0.3425
 5171SOL    HW126972   2.964   3.743   9.202  1.2372  1.1478  1.5442
 5171SOL    HW226973   2.866   3.809   9.290 -1.7243 -2.5962  0.2189
 5172SOL     OW26974   2.230   3.982   7.801 -0.4564  0.1301 -0.3052
 5172SOL    HW126975   2.218   3.966   7.707  0.2201 -0.7429 -0.2372
 5172SOL    HW226976   2.305   4.041   7.797 -1.2244  1.1929  1.0496
 5173SOL     OW26977   0.301   1.058   3.186 -0.3614  0.4384  0.1707
 5173SOL    HW126978   0.284   1.152   3.179  0.2690  0.5690  0.4543
 5173SOL    HW226979   0.264   1.020   3.107  0.8709  0.2688 -0.3147
 5174SOL     OW26980   3.873   0.525   4.922  0.1698 -0.4144  0.7876
 5174SOL    HW126981   3.927   0.453   4.890 -0.5030 -0.7153  0.3392
 5174SOL    HW226982   3.809   0.467   4.964  0.9870 -0.9766  1.2746
 5175SOL     OW26983   0.836   2.668   5.786 -0.2648 -0.1076 -0.1462
 5175SOL    HW126984   0.880   2.598   5.833  2.4918  0.7417 -1.4408
 5175SOL    HW226985   0.793   2.716   5.856 -2.7302 -0.7547 -1.2363
 5176SOL     OW26986   0.626   1.940   4.576  0.0036 -0.0563 -0.5706
 5176SOL    HW126987   0.649   1.899   4.660 -1.1529 -0.1141 -0.2936
 5176SOL    HW226988   0.640   2.033   4.594  2.1477 -0.6153  0.7228
 5177SOL     OW26989   3.406   2.453   9.140  0.0128 -0.3058  0.1718
 5177SOL    HW126990   3.415   2.539   9.180 -1.2638  1.0782 -2.5049
 5177SOL    HW226991   3.323   2.470   9.096 -0.4828  1.4722  1.8187
 5178SOL     OW26992   2.437   4.712   5.006 -0.2997 -0.0164  0.1102
 5178SOL    HW126993   2.424   0.000   5.100 -1.0417  0.0124  0.0018
 5178SOL    HW226994   2.433   4.616   5.002  0.4294 -0.0876  0.9786
 5179SOL     OW26995   0.107   3.052  17.532  0.0019  0.4484 -0.4346
 5179SOL    HW126996   0.062   2.968  17.545 -1.0278  1.1805  0.7544
 5179SOL    HW226997   0.059   3.094  17.461  2.3371 -0.1159 -2.3417
 5180SOL     OW26998   1.237   2.315   2.630 -0.0045 -0.0498 -0.6366
 5180SOL    HW126999   1.297   2.261   2.681  2.3633  0.7102 -2.6279
 5180SOL    HW227000   1.191   2.357   2.703 -1.0831 -0.6238 -0.9850
 5181SOL     OW27001   2.679   1.018   4.173  0.2827 -0.3961 -0.1729
 5181SOL    HW127002   2.770   1.044   4.185  0.2242  0.5433 -1.7051
 5181SOL    HW227003   2.694   0.950   4.108 -0.9400 -1.1567  0.3399
 5182SOL     OW27004   3.495   0.896   5.338 -0.2839 -0.2176 -0.6249
 5182SOL    HW127005   3.400   0.896   5.347 -0.3474  3.3075 -1.4203
 5182SOL    HW227006   3.503   0.827   5.272  0.2843 -0.7144 -0.0373
 5183SOL     OW27007   1.333   4.025   6.008  0.1337  0.0873  0.0631
 5183SOL    HW127008   1.380   3.947   5.978 -1.5282 -1.3691  1.1817
 5183SOL    HW227009   1.239   4.004   6.009 -0.0083  0.6470 -1.9798
 5184SOL     OW27010   2.656   1.820   3.457  0.3540 -0.7801  0.5225
 5184SOL    HW127011   2.562   1.821   3.475  0.2433 -2.1690  0.0058
 5184SOL    HW227012   2.671   1.905   3.416  2.0107 -1.7588 -0.8941
 5185SOL     OW27013   3.694   0.986  11.404 -0.3983  0.3443 -0.5933
 5185SOL    HW127014   3.716   0.951  11.490  2.3708 -1.3405 -1.9717
 5185SOL    HW227015   3.598   0.985  11.403 -0.3834 -1.6524 -0.5272
 5186SOL     OW27016   0.185   3.275   5.771 -0.5257  0.3778 -0.7486
 5186SOL    HW127017   0.097   3.238   5.779 -1.4205  3.3591  2.9883
 5186SOL    HW227018   0.215   3.266   5.861 -0.7326  2.0593 -0.5119
 5187SOL     OW27019   0.465   1.097   1.524 -0.1141  0.2580  0.4339
 5187SOL    HW127020   0.543   1.146   1.550 -1.1137  3.0635 -1.9342
 5187SOL    HW227021   0.395   1.150   1.562 -1.0344 -1.1538  0.7092
 5188SOL     OW27022   4.162   3.318   5.291 -0.1721  0.5192 -0.1177
 5188SOL    HW127023   4.178   3.410   5.316  1.9007  0.4857 -1.2662
 5188SOL    HW227024   4.191   3.276   5.372  0.4296 -0.8568 -1.0505
 5189SOL     OW27025   3.560   2.865   5.739  0.2579 -0.4923  0.3381
 5189SOL    HW127026   3.492   2.812   5.781  0.3679  1.2636  2.7555
 5189SOL    HW227027   3.538   2.956   5.762  0.5568 -0.6461  1.2587
 5190SOL     OW27028   4.322   3.284   2.694  0.6821  0.1273  0.4377
 5190SOL    HW127029   4.402   3.337   2.689 -0.5817  1.8773 -1.3117
 5190SOL    HW227030   4.249   3.345   2.684 -0.6295 -1.3696  0.9763
 5191SOL     OW27031   4.240   1.706   8.665 -0.2725 -0.5607 -0.1638
 5191SOL    HW127032   4.190   1.646   8.611 -3.2549 -0.0830  2.0658
 5191SOL    HW227033   4.196   1.788   8.643 -2.3388 -1.7862 -0.5963
 5192SOL     OW27034   3.253   1.956  15.128  0.3620  0.0601 -0.3307
 5192SOL    HW127035   3.304   2.028  15.165  3.7595 -2.4440 -0.1690
 5192SOL    HW227036   3.163   1.988  15.137  0.5728  0.9792 -1.4028
 5193SOL     OW27037   0.118   2.448   9.033  0.1929 -0.0664 -0.3229
 5193SOL    HW127038   0.180   2.425   8.965  0.7174 -0.7879  0.4058
 5193SOL    HW227039   0.065   2.368   9.035 -1.0747  0.7653  0.1669
 5194SOL     OW27040   1.819   3.506   9.831  0.2735  0.1970 -0.0748
 5194SOL    HW127041   1.844   3.468   9.747  0.6629  0.5748 -0.1266
 5194SOL    HW227042   1.789   3.428   9.877  1.9999 -0.6670 -0.3875
 5195SOL     OW27043   4.025   3.681   5.529 -0.1404 -0.6462 -0.5880
 5195SOL    HW127044   4.032   3.589   5.553 -1.0991 -0.4816  0.3239
 5195SOL    HW227045   3.943   3.686   5.479  0.3207 -1.4942 -1.4353
 5196SOL     OW27046   1.021   2.418  13.840 -0.2991  0.2404 -0.8732
 5196SOL    HW127047   0.975   2.368  13.772  0.3186 -0.8858 -0.4534
 5196SOL    HW227048   0.980   2.382  13.918 -0.6269  2.1516 -0.1513
 5197SOL     OW27049   3.721   1.811   6.746  0.8604  0.5110  0.5913
 5197SOL    HW127050   3.810   1.811   6.712 -0.2840 -1.2113 -2.4126
 5197SOL    HW227051   3.662   1.783   6.675  1.8627  3.2350 -1.3079
 5198SOL     OW27052   3.347   0.912   4.727  0.2251  0.3597 -0.4405
 5198SOL    HW127053   3.309   0.830   4.695  3.0874 -1.0519 -0.1587
 5198SOL    HW227054   3.265   0.946   4.764  0.0250 -0.9129  0.2970
 5199SOL     OW27055   1.696   0.290   6.743 -0.0629 -0.0852  0.0437
 5199SOL    HW127056   1.741   0.206   6.733  0.3327  0.2799 -1.1708
 5199SOL    HW227057   1.604   0.265   6.744  0.2941 -1.3178  1.9868
 5200SOL     OW27058   2.078   1.564   3.071  0.0962 -0.0616  0.3425
 5200SOL    HW127059   2.116   1.614   3.143 -0.0933  2.5608 -1.3873
 5200SOL    HW227060   2.048   1.484   3.115  0.6060 -0.9269 -0.8845
 5201SOL     OW27061   0.719   3.698   0.491  0.2681 -0.0986  0.3522
 5201SOL    HW127062   0.753   3.744   0.415 -1.1801 -0.3585 -0.4736
 5201SOL    HW227063   0.763   3.747   0.560  3.6610 -0.3477 -1.6749
 5202SOL     OW27064   3.446   2.199   2.792  0.0427  1.2446 -0.2018
 5202SOL    HW127065   3.515   2.132   2.795 -0.3854  0.8111 -0.0579
 5202SOL    HW227066   3.417   2.204   2.883 -0.1142 -1.6825 -0.0927
 5203SOL     OW27067   0.495   0.177  13.599  0.2296 -0.2315  0.3695
 5203SOL    HW127068   0.520   0.178  13.691  0.2293 -0.2307  0.3696
 5203SOL    HW227069   0.520   0.086  13.583  2.2129  0.4960 -0.6386
 5204SOL     OW27070   0.817   0.543   5.769 -0.7514  0.1361 -0.9864
 5204SOL    HW127071   0.875   0.482   5.724 -2.9167 -2.4937 -0.1615
 5204SOL    HW227072   0.836   0.633   5.741  0.4033  1.5548  4.3797
 5205SOL     OW27073   0.536   0.429  13.431 -0.4571  0.1309  0.0395
 5205SOL    HW127074   0.629   0.423  13.411 -0.5107  2.7434 -0.9125
 5205SOL    HW227075   0.516   0.349  13.481 -0.7817  0.5450  0.5772
 5206SOL     OW27076   4.650   2.263  12.970  0.1337  0.3264 -0.2413
 5206SOL    HW127077   4.585   2.329  12.946  0.9172  0.8320 -0.9528
 5206SOL    HW227078   4.593   2.193  13.003  1.4488 -0.1514  1.0079
 5207SOL     OW27079   4.217   1.827  12.069 -0.6243  0.2174  0.2876
 5207SOL    HW127080   4.188   1.740  12.097 -2.3994  0.2611 -1.4935
 5207SOL    HW227081   4.233   1.817  11.975  1.1157  2.7277  0.3179
 5208SOL     OW27082   2.596   4.687   8.892  0.2194 -0.4659  0.3187
 5208SOL    HW127083   2.530   0.002   8.951 -1.6829 -1.1766 -1.3294
 5208SOL    HW227084   2.683   4.717   8.917  0.5625 -1.2209  0.0253
 5209SOL     OW27085   2.250   3.218  13.398  0.4421  0.0586 -0.7358
 5209SOL    HW127086   2.323   3.163  13.429 -0.2223  0.0094  0.7425
 5209SOL    HW227087   2.186   3.157  13.364  1.0924 -0.2633 -1.3790
 5210SOL     OW27088   1.521   2.350   3.439 -0.0686 -0.2922  0.0945
 5210SOL    HW127089   1.469   2.333   3.517  1.5487  0.2900  1.2974
 5210SOL    HW227090   1.477   2.427   3.403 -1.3892 -0.7655  0.7034
 5211SOL     OW27091   2.191   3.754   2.261 -0.3654  0.3845 -0.1180
 5211SOL    HW127092   2.235   3.795   2.336 -1.8501 -0.1212  1.0376
 5211SOL    HW227093   2.107   3.800   2.267 -0.0347  0.7137  2.0151
 5212SOL     OW27094   3.665   0.406   5.045 -0.4668 -0.3073  0.1445
 5212SOL    HW127095   3.677   0.451   5.129 -3.0638  1.1167 -0.2346
 5212SOL    HW227096   3.688   0.317   5.072 -0.9739 -0.4680  0.0502
 5213SOL     OW27097   0.691   0.356   7.571 -0.0714  0.4136 -0.2366
 5213SOL    HW127098   0.704   0.449   7.550  0.5082  0.4859  0.4479
 5213SOL    HW227099   0.695   0.356   7.666  0.5909  0.1481 -0.2596
 5214SOL     OW27100   4.212   1.824  11.743  0.6585 -0.5403  0.2198
 5214SOL    HW127101   4.153   1.893  11.715  1.3824 -0.8306 -2.0607
 5214SOL    HW227102   4.287   1.880  11.762  1.2833 -1.5360  0.6660
 5215SOL     OW27103   0.088   0.429  11.267  0.6019  0.5496  0.1180
 5215SOL    HW127104   0.173   0.414  11.226  0.4449 -0.4417  0.1531
 5215SOL    HW227105   0.125   0.500  11.319 -0.6360  0.6661  0.8495
 5216SOL     OW27106   0.809   3.768   5.325 -0.0238 -0.1245  0.3899
 5216SOL    HW127107   0.882   3.830   5.329  1.3287 -1.6831 -0.4634
 5216SOL    HW227108   0.737   3.822   5.357 -0.6462 -1.1935  0.7762
 5217SOL     OW27109   3.601   2.003   2.858  0.6057  0.0510  0.3179
 5217SOL    HW127110   3.587   1.982   2.950 -1.7394 -0.7434 -0.2128
 5217SOL    HW227111   3.671   1.947   2.826  1.0234 -0.0266  1.3543
 5218SOL     OW27112   0.440   0.516   7.434  0.3405  0.1034  0.1798
 5218SOL    HW127113   0.495   0.587   7.467 -0.1716  0.5799  0.0080
 5218SOL    HW227114   0.493   0.481   7.362 -2.4610 -0.4287 -1.6008
 5219SOL     OW27115   0.502   3.339  17.183 -0.2771  0.4725  0.4213
 5219SOL    HW127116   0.536   3.290  17.108 -3.3132  2.3104 -2.1977
 5219SOL    HW227117   0.422   3.289  17.199 -0.4924  0.5734 -0.3158
 5220SOL     OW27118   0.582   4.446  10.896  0.4346  0.2349 -0.3608
 5220SOL    HW127119   0.526   4.394  10.954 -0.7751  0.7637 -1.0624
 5220SOL    HW227120   0.554   4.536  10.910 -0.2903  0.2259 -1.6819
 5221SOL     OW27121   1.140   0.690   6.922 -0.3420 -0.3818  0.2328
 5221SOL    HW127122   1.113   0.776   6.890 -0.2318 -0.0927  0.9157
 5221SOL    HW227123   1.059   0.646   6.948 -0.3863 -0.1399  0.5039
 5222SOL     OW27124   4.695   4.245   4.653 -0.1822 -0.8155  0.2948
 5222SOL    HW127125   4.613   4.286   4.682 -0.2218 -0.0817 -0.8604
 5222SOL    HW227126   0.015   4.251   4.738 -0.0283  1.9545  0.0089
 5223SOL     OW27127   1.192   3.496   4.367 -0.4305 -0.6598 -0.2148
 5223SOL    HW127128   1.122   3.552   4.401 -0.2449 -0.3334 -0.3628
 5223SOL    HW227129   1.198   3.430   4.436  1.2184  0.0770  0.3482
 5224SOL     OW27130   0.161   0.910   1.730  0.0470  0.1788 -0.4032
 5224SOL    HW127131   0.179   0.950   1.645 -0.7784  0.5567 -0.3971
 5224SOL    HW227132   0.143   0.987   1.782 -0.7882 -1.3066  1.5116
 5225SOL     OW27133   3.637   2.423   2.317  0.0246 -0.5403  0.0257
 5225SOL    HW127134   3.658   2.480   2.243 -3.5567  1.4335  0.5639
 5225SOL    HW227135   3.591   2.349   2.277  1.1353 -0.9107 -0.5671
 5226SOL     OW27136   0.040   1.372   7.281  0.4480 -0.1947  0.0386
 5226SOL    HW127137   0.115   1.359   7.223  0.9385 -0.0264  0.6492
 5226SOL    HW227138   0.048   1.305   7.349 -1.5216  0.2592  0.7123
 5227SOL     OW27139   4.697   0.837   7.556 -0.1378  0.3409 -0.2241
 5227SOL    HW127140   4.641   0.761   7.570 -0.8608  1.3000  2.1524
 5227SOL    HW227141   4.630   0.905   7.561  0.5296  1.0006 -0.2123
 5228SOL     OW27142   3.060   2.387  16.954  0.3756 -0.2129  0.5805
 5228SOL    HW127143   3.035   2.475  16.925  1.8927  0.8004  2.3941
 5228SOL    HW227144   2.973   2.352  16.976 -0.8578  2.4964  0.0028
 5229SOL     OW27145   1.548   3.588  11.414 -0.5014 -0.7484  0.1696
 5229SOL    HW127146   1.541   3.683  11.420  1.0912 -0.7834  2.2866
 5229SOL    HW227147   1.614   3.592  11.345  0.0308 -0.2446  0.7081
 5230SOL     OW27148   3.382   1.225   6.716  0.2451  0.6579 -0.1848
 5230SOL    HW127149   3.470   1.207   6.750  0.4887  0.1483 -1.1025
 5230SOL    HW227150   3.375   1.168   6.639  0.1876  0.6857 -0.2006
 5231SOL     OW27151   4.046   0.868  12.544  0.5023  0.0698  0.3297
 5231SOL    HW127152   4.067   0.826  12.461 -3.0539  0.0650 -0.5653
 5231SOL    HW227153   3.999   0.943  12.510  0.4839  0.0895  0.3991
 5232SOL     OW27154   3.665   2.575   0.387 -0.0062  0.1819  0.2200
 5232SOL    HW127155   3.595   2.640   0.385  1.6887  1.9143 -2.6119
 5232SOL    HW227156   3.622   2.496   0.419  0.5627 -0.1877  0.0786
 5233SOL     OW27157   3.255   3.403   4.829  0.2229  0.3695 -0.0289
 5233SOL    HW127158   3.179   3.437   4.782  0.0132 -1.3076 -0.9308
 5233SOL    HW227159   3.322   3.466   4.802 -1.1956  0.5869 -3.0726
 5234SOL     OW27160   4.493   2.549  17.085  0.3600 -0.0714 -0.1357
 5234SOL    HW127161   4.419   2.508  17.129  1.2186 -0.4951  0.9289
 5234SOL    HW227162   4.529   2.598  17.158  1.3008 -0.1315 -0.5582
 5235SOL     OW27163   2.158   2.061   1.901  0.6266 -0.4007 -0.2123
 5235SOL    HW127164   2.152   2.082   1.808  0.7425 -3.6303 -0.9427
 5235SOL    HW227165   2.140   1.968   1.890  1.7759 -0.5614 -0.6815
 5236SOL     OW27166   3.649   0.667   7.062 -0.2706 -0.1852 -0.3791
 5236SOL    HW127167   3.653   0.736   6.996  1.2126  0.4454  0.3576
 5236SOL    HW227168   3.736   0.632   7.081  0.8101  3.2213  1.0020
 5237SOL     OW27169   0.675   4.668   6.522  0.2256  0.1224 -0.2982
 5237SOL    HW127170   0.618   4.702   6.453  1.1748  1.4452 -0.4410
 5237SOL    HW227171   0.756   4.657   6.472  0.1053 -0.0451 -0.4545
 5238SOL     OW27172   3.930   1.565  11.525  0.6531 -0.5133  0.0794
 5238SOL    HW127173   4.018   1.588  11.495 -0.6444 -0.3890 -3.7116
 5238SOL    HW227174   3.936   1.556  11.620 -0.9157 -1.8124  0.0460
 5239SOL     OW27175   3.415   2.281   6.804  0.0691  0.1642 -0.5728
 5239SOL    HW127176   3.508   2.271   6.824  0.4768  0.0333 -2.5440
 5239SOL    HW227177   3.416   2.259   6.711 -0.8989  2.5578 -1.1724
 5240SOL     OW27178   4.004   3.522  10.760  0.3586  0.2242 -0.1545
 5240SOL    HW127179   3.918   3.564  10.764  0.3601  0.4020 -2.1040
 5240SOL    HW227180   4.025   3.503  10.852  1.2169  2.0963  0.0468
 5241SOL     OW27181   1.639   2.960   1.888  0.0535  0.1979 -0.2230
 5241SOL    HW127182   1.579   3.010   1.943 -0.5258 -1.5488  0.7318
 5241SOL    HW227183   1.724   2.972   1.931 -1.6646  2.2561  2.5791
 5242SOL     OW27184   3.955   1.274   1.959  0.0261  0.1210 -0.1802
 5242SOL    HW127185   3.863   1.292   1.938 -0.4111 -1.5590  0.2955
 5242SOL    HW227186   3.971   1.194   1.910  0.4062 -0.9400  1.7239
 5243SOL     OW27187   1.090   1.889   2.580 -0.6282 -0.4633 -0.0113
 5243SOL    HW127188   1.068   1.955   2.645 -0.6527 -1.5010  1.0240
 5243SOL    HW227189   1.041   1.809   2.603  0.1758 -1.5019 -1.8650
 5244SOL     OW27190   2.916   1.593   5.298 -0.2034  0.0655  0.0590
 5244SOL    HW127191   2.945   1.610   5.208  0.6656 -2.9058 -0.2218
 5244SOL    HW227192   2.984   1.528   5.317 -3.0719 -2.8942  0.0987
 5245SOL     OW27193   0.961   0.743   6.543  0.0973  0.4514  0.3293
 5245SOL    HW127194   0.925   0.822   6.584 -1.5931  0.6902 -1.6059
 5245SOL    HW227195   0.913   0.674   6.588  2.1691 -1.9224 -1.0691
 5246SOL     OW27196   1.372   1.042   9.405  0.4919  0.7150 -0.0268
 5246SOL    HW127197   1.314   0.967   9.408 -1.3524  2.1510 -0.0514
 5246SOL    HW227198   1.355   1.067   9.495 -0.2493  0.3840 -0.0801
 5247SOL     OW27199   3.210   0.642  12.492 -0.3234  0.1881  0.0856
 5247SOL    HW127200   3.256   0.633  12.575  0.7302 -0.6688 -0.5827
 5247SOL    HW227201   3.286   0.653  12.435  1.4748  0.5925  2.5695
 5248SOL     OW27202   2.340   2.701  11.915 -0.4302 -0.6483 -0.5503
 5248SOL    HW127203   2.280   2.627  11.911 -2.4200  0.9749 -0.4903
 5248SOL    HW227204   2.281   2.773  11.935  0.9601  0.6579 -1.0830
 5249SOL     OW27205   2.625   0.919  15.808  0.2611  0.2101 -0.2549
 5249SOL    HW127206   2.569   0.848  15.777 -1.1897  1.9727 -1.7205
 5249SOL    HW227207   2.699   0.903  15.749 -1.4522 -1.6719 -1.8899
 5250SOL     OW27208   0.503   4.528   9.698  0.2837 -0.3716 -0.4987
 5250SOL    HW127209   0.536   4.440   9.717 -0.6619 -0.1508  2.0645
 5250SOL    HW227210   0.471   4.516   9.608  1.4679 -0.8607 -0.8542
 5251SOL     OW27211   4.305   2.746   3.025 -0.1755 -0.4059  0.0448
 5251SOL    HW127212   4.388   2.780   3.059 -1.1661  0.7005  1.3442
 5251SOL    HW227213   4.337   2.666   2.982  1.1197  0.0635  0.1330
 5252SOL     OW27214   1.913   0.989   2.528  0.4723  0.3403  0.1512
 5252SOL    HW127215   1.858   0.956   2.598  1.6192  1.0784  1.3913
 5252SOL    HW227216   1.926   0.911   2.474 -1.2852  0.0724  0.1046
 5253SOL     OW27217   3.283   2.496   1.438 -0.5543  0.1206  0.4117
 5253SOL    HW127218   3.314   2.573   1.487 -0.7711  0.1421  0.5154
 5253SOL    HW227219   3.245   2.448   1.512  1.6981 -1.5049  0.5342
 5254SOL     OW27220   3.193   3.675   6.703  0.1037  0.0297 -0.6809
 5254SOL    HW127221   3.132   3.604   6.724 -0.1807 -0.2189 -2.3233
 5254SOL    HW227222   3.212   3.691   6.795 -0.9743 -1.6409 -0.1744
 5255SOL     OW27223   1.486   2.296   8.274 -0.2020  0.0353  0.3289
 5255SOL    HW127224   1.398   2.300   8.310 -1.3415 -0.5010 -2.3847
 5255SOL    HW227225   1.529   2.371   8.316  0.3836 -0.5808  0.8471
 5256SOL     OW27226   2.756   1.277  14.559 -0.0184  0.1344  0.3550
 5256SOL    HW127227   2.771   1.205  14.498 -0.2163 -1.0666  1.7263
 5256SOL    HW227228   2.842   1.287  14.601  0.6370  1.7071 -1.3192
 5257SOL     OW27229   2.167   2.447   3.040  0.4488 -0.4209 -0.0519
 5257SOL    HW127230   2.215   2.514   3.087 -1.5416  0.5333  0.6036
 5257SOL    HW227231   2.152   2.494   2.958 -0.7545  0.1018  0.4603
 5258SOL     OW27232   0.726   4.612  16.075  0.2923  0.0041 -0.5070
 5258SOL    HW127233   0.752   4.635  16.165  0.4809  1.3842 -0.9013
 5258SOL    HW227234   0.764   4.683  16.023 -1.1535  1.4912  0.4703
 5259SOL     OW27235   3.532   4.301   6.678 -0.2758 -0.3900 -0.6130
 5259SOL    HW127236   3.463   4.261   6.625 -0.4833 -1.7314  0.6525
 5259SOL    HW227237   3.529   4.391   6.647  0.0763 -0.4567 -0.8414
 5260SOL     OW27238   3.301   1.098  17.071 -0.0417 -0.3881 -0.1088
 5260SOL    HW127239   3.219   1.092  17.023  1.1896 -1.4939 -2.0806
 5260SOL    HW227240   3.344   1.167  17.021 -0.3940 -0.4347 -0.4795
 5261SOL     OW27241   3.134   0.059   7.551 -0.1306  0.2770  0.0816
 5261SOL    HW127242   3.068   4.717   7.529 -1.4982  1.2043  1.4056
 5261SOL    HW227243   3.071   0.117   7.594 -0.4160 -1.7648  2.4319
 5262SOL     OW27244   0.894   1.060  15.813  0.4672 -0.3875  0.0811
 5262SOL    HW127245   0.881   1.098  15.727  0.0841 -1.3217 -0.2713
 5262SOL    HW227246   0.864   1.136  15.863  0.8584  0.3165 -0.7494
 5263SOL     OW27247   1.603   1.406   6.111 -0.3622  0.7996 -0.1067
 5263SOL    HW127248   1.684   1.376   6.153 -0.4621  0.8400  0.1186
 5263SOL    HW227249   1.551   1.326   6.109  0.2573  0.4229 -0.9100
 5264SOL     OW27250   0.343   0.464   1.025 -0.2041  0.0946 -0.3422
 5264SOL    HW127251   0.395   0.464   0.945 -0.8271 -0.0064 -0.7500
 5264SOL    HW227252   0.362   0.378   1.062  0.5015  0.1765 -0.5138
 5265SOL     OW27253   0.751   4.518   3.952 -0.5365 -0.4274 -0.0759
 5265SOL    HW127254   0.691   4.522   3.877 -0.4637 -0.0414 -0.1123
 5265SOL    HW227255   0.744   4.426   3.976  0.7715 -0.0990  1.5714
 5266SOL     OW27256   1.168   4.433  17.659 -0.0682 -0.2783  0.3734
 5266SOL    HW127257   1.108   4.390  17.598 -2.2731  0.6021  1.9382
 5266SOL    HW227258   1.119   4.431   0.045 -1.0366 -1.3236 -0.2282
 5267SOL     OW27259   2.071   4.564   8.366  0.3952  0.2282  0.1851
 5267SOL    HW127260   2.037   4.489   8.415 -1.0553  0.5970 -0.2671
 5267SOL    HW227261   2.051   4.637   8.425  0.3743  2.0321 -2.0378
 5268SOL     OW27262   4.619   4.643   4.735 -0.3100  0.4254 -0.1824
 5268SOL    HW127263   4.546   4.589   4.763 -0.8757  0.5841 -1.3390
 5268SOL    HW227264   4.667   4.586   4.675  0.0331  0.8808 -0.3478
 5269SOL     OW27265   0.741   3.678   9.033  0.9736  1.0067 -0.0341
 5269SOL    HW127266   0.762   3.610   9.097  2.3918 -1.1892 -2.8470
 5269SOL    HW227267   0.755   3.637   8.948 -1.9333 -2.0359  0.9740
 5270SOL     OW27268   3.266   2.781   7.917  0.1987  0.4217 -0.7218
 5270SOL    HW127269   3.227   2.865   7.891  0.9838  1.1441  0.4157
 5270SOL    HW227270   3.260   2.784   8.012 -2.9300 -0.2222 -0.8975
 5271SOL     OW27271   3.506   4.184   0.794  0.2350  0.2452 -0.5979
 5271SOL    HW127272   3.518   4.127   0.871 -0.9175  1.4748  0.4868
 5271SOL    HW227273   3.413   4.170   0.781  0.4166 -2.4862  0.8212
 5272SOL     OW27274   1.919   4.022   8.454 -0.3007 -0.7688  0.0468
 5272SOL    HW127275   1.966   3.939   8.460  1.4968  0.1545 -1.0199
 5272SOL    HW227276   1.987   4.090   8.449 -0.9456  0.0327  2.3784
 5273SOL     OW27277   3.382   1.116   5.119  0.3184 -0.1862 -0.2140
 5273SOL    HW127278   3.381   1.073   5.034  1.6062  4.2092 -2.4482
 5273SOL    HW227279   3.465   1.162   5.112  0.3281 -0.6546 -3.2179
 5274SOL     OW27280   2.331   3.703   9.434 -0.0312  0.3731 -0.0622
 5274SOL    HW127281   2.320   3.784   9.484 -2.0186 -1.8485  3.0441
 5274SOL    HW227282   2.346   3.736   9.345 -0.7090  0.9053  0.0180
 5275SOL     OW27283   0.895   1.286  14.944  0.3831  0.4307  0.0760
 5275SOL    HW127284   0.891   1.213  14.882 -0.6649  0.7445 -0.2287
 5275SOL    HW227285   0.911   1.348  14.873  0.2928  1.6623  1.1377
 5276SOL     OW27286   4.527   3.675  14.289  0.5496 -0.5103 -0.2472
 5276SOL    HW127287   4.493   3.592  14.253 -0.4702  1.0934 -3.0031
 5276SOL    HW227288   4.563   3.644  14.372  0.9941 -1.8905 -0.9319
 5277SOL     OW27289   3.407   2.956   8.356 -0.0593  0.1588  0.3455
 5277SOL    HW127290   3.451   3.006   8.287  0.1655 -0.2354  0.1994
 5277SOL    HW227291   3.316   2.972   8.334 -0.0979 -0.8400 -0.2564
 5278SOL     OW27292   4.120   3.648   8.407  0.1734 -0.0113 -0.3305
 5278SOL    HW127293   4.183   3.576   8.421 -1.2298 -0.6870  2.5583
 5278SOL    HW227294   4.116   3.687   8.494 -1.1175 -1.1229  0.1205
 5279SOL     OW27295   1.443   4.050   2.281  0.2870 -0.1105 -0.1558
 5279SOL    HW127296   1.538   4.036   2.278 -0.0633 -2.5631  0.2555
 5279SOL    HW227297   1.440   4.144   2.263  1.2597 -0.3096 -1.3701
 5280SOL     OW27298   1.748   2.326   3.993 -0.8910 -0.3776  0.0922
 5280SOL    HW127299   1.727   2.419   3.994  0.5448 -0.0623  0.6106
 5280SOL    HW227300   1.739   2.300   4.084 -1.9772  1.3148  0.4549
 5281SOL     OW27301   1.248   1.917   8.309  0.4495  0.1604  0.1810
 5281SOL    HW127302   1.197   1.956   8.380 -0.2546 -0.6327  0.1159
 5281SOL    HW227303   1.328   1.964   8.332 -0.3700  0.6500  2.0463
 5282SOL     OW27304   1.694   0.510   6.943 -0.1584 -0.5850  0.1469
 5282SOL    HW127305   1.716   0.461   6.864 -0.4341  0.4633 -0.5729
 5282SOL    HW227306   1.615   0.467   6.976 -1.6453  1.5048 -0.6893
 5283SOL     OW27307   1.832   2.883  15.061 -0.2380 -0.2948  0.5074
 5283SOL    HW127308   1.772   2.890  15.136  0.7293 -1.9208  1.4357
 5283SOL    HW227309   1.777   2.868  14.985 -1.6900  4.0299  0.7321
 5284SOL     OW27310   2.641   4.396  13.075 -0.1952 -0.2089  0.4493
 5284SOL    HW127311   2.582   4.364  13.143  0.8028 -0.7107  1.0715
 5284SOL    HW227312   2.706   4.448  13.123 -1.7334  1.1268  1.0799
 5285SOL     OW27313   2.107   4.316   7.056 -0.1516  0.3832 -0.0202
 5285SOL    HW127314   2.089   4.368   7.134 -3.1014 -0.8181  0.0990
 5285SOL    HW227315   2.203   4.317   7.059 -0.1247  1.7045 -1.0578
 5286SOL     OW27316   3.299   0.686   7.907  0.2224  0.3106  0.1957
 5286SOL    HW127317   3.378   0.635   7.927  0.7467  1.2733  0.5537
 5286SOL    HW227318   3.309   0.766   7.959  3.9725  1.0692 -1.6612
 5287SOL     OW27319   2.227   3.504   7.029  0.7700 -0.1660  0.5022
 5287SOL    HW127320   2.171   3.479   6.955 -0.2610 -1.8711  1.8570
 5287SOL    HW227321   2.174   3.578   7.059  1.5476  1.4377 -2.1407
 5288SOL     OW27322   4.644   1.161   3.345 -0.1232  0.3562  0.1653
 5288SOL    HW127323   4.646   1.127   3.255 -0.3854 -1.2524  0.7719
 5288SOL    HW227324   4.561   1.210   3.341 -0.7632 -0.6365  1.5294
 5289SOL     OW27325   1.250   1.769  15.937 -0.0117 -0.2846 -0.1639
 5289SOL    HW127326   1.324   1.711  15.956 -0.4472 -0.9312 -0.4459
 5289SOL    HW227327   1.200   1.717  15.875 -1.2152 -1.0833  1.4634
 5290SOL     OW27328   2.576   1.000   5.766  0.6409 -0.1359  0.1108
 5290SOL    HW127329   2.498   1.032   5.811 -1.1570  1.3188 -4.0727
 5290SOL    HW227330   2.648   1.037   5.817  0.3372  0.5394  0.0435
 5291SOL     OW27331   4.497   3.808   2.227  0.1302  0.3035 -0.0516
 5291SOL    HW127332   4.587   3.839   2.240  0.7255 -1.9795  1.2024
 5291SOL    HW227333   4.502   3.732   2.286 -1.1399  2.9983  3.5394
 5292SOL     OW27334   0.636   0.958   6.203 -0.6211  0.0262 -1.2071
 5292SOL    HW127335   0.591   0.911   6.133 -1.2173 -0.3721 -0.5541
 5292SOL    HW227336   0.638   0.898   6.277 -0.9063  0.4053 -0.8929
 5293SOL     OW27337   0.666   2.533   4.423  0.1609 -0.2283  0.0240
 5293SOL    HW127338   0.743   2.563   4.472 -1.0928  2.3202  0.4086
 5293SOL    HW227339   0.626   2.615   4.394 -0.1961 -0.8097 -1.1367
 5294SOL     OW27340   0.808   3.848   8.169 -0.8449 -0.1663 -0.3704
 5294SOL    HW127341   0.767   3.838   8.255 -1.0042  1.4178 -0.2645
 5294SOL    HW227342   0.728   3.838   8.117 -2.5015  1.3791  1.8454
 5295SOL     OW27343   3.739   4.364   5.812 -0.4364 -0.1705 -0.0092
 5295SOL    HW127344   3.824   4.403   5.792 -1.0957  1.4346  0.3115
 5295SOL    HW227345   3.718   4.295   5.750 -0.7071 -1.7365  1.8219
 5296SOL     OW27346   4.046   2.729  10.918 -0.2596 -0.1641  0.5024
 5296SOL    HW127347   4.046   2.643  10.876 -1.0325  0.5121 -0.8670
 5296SOL    HW227348   4.132   2.739  10.959  0.0556  0.1450 -0.2484
 5297SOL     OW27349   2.066   1.683  16.940  0.0522 -0.0238  0.0323
 5297SOL    HW127350   2.142   1.730  16.906 -0.5960  2.1703  1.5873
 5297SOL    HW227351   2.086   1.667  17.033 -1.9812  1.2861  0.7084
 5298SOL     OW27352   4.073   1.852   2.992  0.0478  0.5007  0.2445
 5298SOL    HW127353   4.050   1.767   2.955  1.4081 -0.1073  0.7801
 5298SOL    HW227354   4.123   1.878   2.914  0.1454 -0.9766 -0.1819
 5299SOL     OW27355   0.219   2.168   3.520  0.2348  0.0663 -0.0665
 5299SOL    HW127356   0.292   2.124   3.477  1.3608  0.8302  1.0424
 5299SOL    HW227357   0.263   2.247   3.553  3.2638 -1.0622 -1.4608
 5300SOL     OW27358   2.400   1.033  12.020 -0.3538 -0.4848  0.0381
 5300SOL    HW127359   2.487   1.033  11.981 -0.1986 -0.1932  0.3908
 5300SOL    HW227360   2.419   1.067  12.107 -0.6980 -0.6652  0.1866
 5301SOL     OW27361   1.339   4.501   1.666 -0.1867 -0.1361 -0.2104
 5301SOL    HW127362   1.354   4.410   1.695 -0.5511  0.1631  0.9034
 5301SOL    HW227363   1.264   4.498   1.607 -0.4926 -1.4673  0.2206
 5302SOL     OW27364   3.640   2.683   8.233  0.1618 -0.0127 -0.1267
 5302SOL    HW127365   3.660   2.768   8.192 -0.9838  0.0668 -0.5250
 5302SOL    HW227366   3.713   2.630   8.201 -0.0943 -0.2822 -0.2645
 5303SOL     OW27367   4.550   4.296   8.588 -0.0805  0.0280  0.1437
 5303SOL    HW127368   4.516   4.386   8.589 -2.5260 -0.9348  1.7406
 5303SOL    HW227369   4.629   4.294   8.643 -1.3015  0.9084  1.9235
 5304SOL     OW27370   2.529   1.060   8.526 -0.0357  0.1642 -0.1065
 5304SOL    HW127371   2.487   0.974   8.535  1.0526 -0.4461 -0.8928
 5304SOL    HW227372   2.473   1.110   8.467  0.1518  0.2653 -0.1972
 5305SOL     OW27373   1.213   1.247   2.414 -0.4294  0.1570  0.3125
 5305SOL    HW127374   1.219   1.288   2.328 -1.6318  0.5710  0.4305
 5305SOL    HW227375   1.136   1.191   2.401 -0.1726 -0.8213  2.9666
 5306SOL     OW27376   1.547   2.458   2.175  0.0381 -0.9404  0.0546
 5306SOL    HW127377   1.467   2.471   2.124  0.2446  0.0703 -0.0046
 5306SOL    HW227378   1.517   2.424   2.259 -0.7725  0.0343  0.1568
 5307SOL     OW27379   3.234   1.222   7.241 -0.1639 -0.0454 -0.0153
 5307SOL    HW127380   3.225   1.217   7.146 -2.2982 -1.8434  0.2909
 5307SOL    HW227381   3.181   1.299   7.259  1.6211  1.2039 -0.0594
 5308SOL     OW27382   0.980   1.505   4.161 -0.5394  0.3895  0.4140
 5308SOL    HW127383   0.995   1.527   4.252  0.8727  0.6833  0.1021
 5308SOL    HW227384   1.035   1.429   4.143 -1.5599  0.6029 -3.7831
 5309SOL     OW27385   2.855   3.842   6.660  0.0021 -0.2717  0.7586
 5309SOL    HW127386   2.773   3.839   6.710 -0.0050  0.8594  0.8126
 5309SOL    HW227387   2.848   3.929   6.620  2.6279 -0.7457 -0.7217
 5310SOL     OW27388   0.426   1.708   7.871 -0.4741  0.4223  0.3192
 5310SOL    HW127389   0.347   1.748   7.907 -0.2429  1.4948 -0.3617
 5310SOL    HW227390   0.473   1.676   7.948  0.6575  0.8136 -0.2189
 5311SOL     OW27391   2.975   3.695   4.310 -0.6020  0.1315 -0.7652
 5311SOL    HW127392   3.024   3.777   4.304 -0.5328  0.2898  1.7430
 5311SOL    HW227393   2.908   3.710   4.378  0.0173  0.5626 -0.2508
 5312SOL     OW27394   3.497   3.651   9.156 -0.4004  0.6780 -0.4911
 5312SOL    HW127395   3.513   3.703   9.235  2.3840  0.3482 -0.8369
 5312SOL    HW227396   3.432   3.587   9.185 -1.0396  1.7239  0.4192
 5313SOL     OW27397   1.568   1.063   8.130 -0.7358 -0.2933 -0.2504
 5313SOL    HW127398   1.659   1.083   8.106 -1.3691  1.5253 -1.1091
 5313SOL    HW227399   1.572   1.064   8.226  0.9061  1.5008 -0.3479
 5314SOL     OW27400   2.681   2.710   8.107 -0.2491 -0.0908  0.4497
 5314SOL    HW127401   2.674   2.742   8.197  4.0403  1.5747  0.1631
 5314SOL    HW227402   2.672   2.793   8.059  0.7296  0.0497  0.5114
 5315SOL     OW27403   4.576   1.547   6.162  0.2362  0.1872  0.7123
 5315SOL    HW127404   4.496   1.590   6.193  1.3011  2.0591  0.8263
 5315SOL    HW227405   4.644   1.545   6.229  1.3669 -1.9870 -0.4903
 5316SOL     OW27406   0.886   1.411   2.652  0.3637  0.0620  0.3040
 5316SOL    HW127407   0.798   1.426   2.617  1.0320  1.8012 -0.6178
 5316SOL    HW227408   0.936   1.403   2.570 -0.3181  0.2381 -0.1329
 5317SOL     OW27409   0.879   0.644   8.527 -0.2303 -0.0106  0.4216
 5317SOL    HW127410   0.959   0.592   8.537 -0.5971 -1.0889 -2.4463
 5317SOL    HW227411   0.909   0.728   8.491 -0.1736 -0.8237 -1.3960
 5318SOL     OW27412   3.942   3.089   8.214  0.1236 -0.0918  0.2075
 5318SOL    HW127413   3.857   3.128   8.195 -0.1940 -1.3450 -0.8719
 5318SOL    HW227414   3.988   3.161   8.259 -0.4457  0.8749 -0.7506
 5319SOL     OW27415   2.793   2.449   3.841  0.1524 -0.3506 -0.2563
 5319SOL    HW127416   2.785   2.481   3.931 -0.7518 -1.5020  0.0701
 5319SOL    HW227417   2.811   2.533   3.798  0.6509 -0.5519 -0.4427
 5320SOL     OW27418   3.299   1.920  17.044  0.0547  0.3827  0.1600
 5320SOL    HW127419   3.222   1.915  16.988 -0.0403  0.8903  0.2361
 5320SOL    HW227420   3.287   2.006  17.085 -2.5950 -0.5921  1.4068
 5321SOL     OW27421   1.453   0.816  13.049 -0.1267 -0.0868  0.7861
 5321SOL    HW127422   1.394   0.874  13.097 -0.3880  0.3780 -0.0909
 5321SOL    HW227423   1.452   0.847  12.958  2.7101  2.9218  1.7357
 5322SOL     OW27424   4.439   4.664  12.699  0.4274  0.4715  0.2286
 5322SOL    HW127425   4.411   4.577  12.671 -0.5911  0.8069  0.2341
 5322SOL    HW227426   4.467   4.692  12.612  1.3914 -0.7236  0.1517
 5323SOL     OW27427   0.258   4.323   7.071 -0.0623 -0.9054 -0.5441
 5323SOL    HW127428   0.271   4.416   7.056  0.7347 -0.5093  2.5922
 5323SOL    HW227429   0.234   4.290   6.985  0.0571  0.4044 -1.0765
 5324SOL     OW27430   2.182   1.213   9.128 -0.0000  0.3718  0.2481
 5324SOL    HW127431   2.226   1.129   9.117 -1.1521 -0.2630  0.5960
 5324SOL    HW227432   2.225   1.247   9.049  0.8874 -2.9596 -0.7010
 5325SOL     OW27433   3.278   4.058  13.081  0.5584  0.5113 -0.4787
 5325SOL    HW127434   3.301   4.064  13.174  0.1839  1.7665 -0.4634
 5325SOL    HW227435   3.362   4.024  13.050 -0.1489  1.2604 -3.1315
 5326SOL     OW27436   0.207   1.752   3.219  0.1892 -0.1127  0.4336
 5326SOL    HW127437   0.229   1.825   3.161  0.4156  0.3704  1.1222
 5326SOL    HW227438   0.115   1.777   3.232  0.1451 -0.6494  1.1453
 5327SOL     OW27439   0.610   0.691   8.208  0.4297 -0.3466  0.3832
 5327SOL    HW127440   0.617   0.684   8.113 -1.4347 -0.4372  0.2486
 5327SOL    HW227441   0.518   0.666   8.219  0.8106 -1.8527  0.1391
 5328SOL     OW27442   2.807   0.091   5.095  0.1300 -0.5215  0.4073
 5328SOL    HW127443   2.854   0.097   5.012 -1.1635  2.4968 -0.1285
 5328SOL    HW227444   2.732   0.039   5.065 -1.0832  1.0983  0.6044
 5329SOL     OW27445   1.880   3.678   3.057  0.1404 -0.1059  0.1128
 5329SOL    HW127446   1.950   3.742   3.067  0.7320 -0.9745  1.4905
 5329SOL    HW227447   1.849   3.692   2.967 -0.7537  0.6472  0.5459
 5330SOL     OW27448   2.871   1.747  16.271 -0.0202 -0.6308 -1.0000
 5330SOL    HW127449   2.793   1.699  16.242 -1.2665  0.0142  1.3147
 5330SOL    HW227450   2.857   1.834  16.233 -1.1058  0.5076  1.9937
 5331SOL     OW27451   0.145   1.528   2.995  0.0998 -0.1010 -0.2974
 5331SOL    HW127452   0.220   1.587   2.993 -0.6622  0.8180 -1.6907
 5331SOL    HW227453   0.090   1.559   2.923  0.3682  1.1046  0.0291
 5332SOL     OW27454   1.525   4.639   3.927  0.4026  0.2124  0.4346
 5332SOL    HW127455   1.490   4.620   4.014 -0.8059  0.6624  0.0478
 5332SOL    HW227456   1.540   4.551   3.894 -0.4779 -0.0366  0.6937
 5333SOL     OW27457   1.547   3.038   4.880 -0.5751 -0.6920  0.5349
 5333SOL    HW127458   1.485   2.985   4.929 -2.9152  1.2592 -0.2578
 5333SOL    HW227459   1.609   2.968   4.863  0.1169  0.0100  0.1805
 5334SOL     OW27460   0.090   0.358   4.727 -0.2170 -0.5226  0.4303
 5334SOL    HW127461   0.183   0.347   4.708 -0.7043  0.0372 -2.3649
 5334SOL    HW227462   0.043   0.354   4.643 -1.5316 -0.4750  1.1627
 5335SOL     OW27463   3.142   0.708   9.358  0.0591 -0.7178  0.3440
 5335SOL    HW127464   3.112   0.642   9.296  1.5206  1.4156 -2.6100
 5335SOL    HW227465   3.224   0.733   9.315 -0.8949  1.6038 -0.0801
 5336SOL     OW27466   1.828   4.519   2.667  0.2841 -0.2852 -0.1295
 5336SOL    HW127467   1.804   4.588   2.605  0.9435 -0.0741 -0.1499
 5336SOL    HW227468   1.912   4.493   2.629 -0.5279 -2.0032 -0.7584
 5337SOL     OW27469   3.106   2.512   5.036  0.6070  0.6035  0.5305
 5337SOL    HW127470   3.152   2.522   5.119 -0.0361 -2.6288  1.3140
 5337SOL    HW227471   3.183   2.503   4.981 -1.3603 -2.9908 -1.7061
 5338SOL     OW27472   1.574   3.960   4.005 -0.0587 -0.8166 -0.0140
 5338SOL    HW127473   1.481   3.942   3.998 -0.0092 -0.5506 -1.4574
 5338SOL    HW227474   1.612   3.875   4.027 -1.8251 -2.4051 -3.1455
 5339SOL     OW27475   0.909   2.827   9.219 -0.2036 -0.1627  0.1492
 5339SOL    HW127476   0.832   2.775   9.245 -0.2419 -0.9749 -1.6049
 5339SOL    HW227477   0.867   2.898   9.172  2.6083  2.2991  1.4108
 5340SOL     OW27478   0.458   1.010   1.886  0.1043  0.7638  0.1433
 5340SOL    HW127479   0.430   0.920   1.868 -0.2823  0.6844  1.1626
 5340SOL    HW227480   0.371   1.048   1.874  0.2113  0.2417 -2.4700
 5341SOL     OW27481   3.560   4.548   5.742 -0.4190 -0.4827  0.2946
 5341SOL    HW127482   3.634   4.494   5.769 -2.4412 -3.1956  0.3643
 5341SOL    HW227483   3.486   4.506   5.785 -0.0715  0.0820  1.4546
 5342SOL     OW27484   3.752   1.739   4.321  0.3895  0.3590  0.3878
 5342SOL    HW127485   3.703   1.791   4.386  1.9666  2.1028  0.1734
 5342SOL    HW227486   3.820   1.696   4.373  1.9938  0.8434 -1.3339
 5343SOL     OW27487   3.105   0.596   7.162  0.8093 -0.2128 -0.6438
 5343SOL    HW127488   3.088   0.595   7.256 -0.5358  0.0489 -0.8821
 5343SOL    HW227489   3.186   0.548   7.147  0.4858 -0.7042 -0.8010
 5344SOL     OW27490   0.519   2.262   4.119 -0.6365 -0.6055  0.8540
 5344SOL    HW127491   0.563   2.251   4.203  0.0112  1.2707  0.7644
 5344SOL    HW227492   0.558   2.342   4.084 -1.0288 -1.0873 -0.7072
 5345SOL     OW27493   3.748   3.682  10.772 -0.0300  0.4897 -0.2685
 5345SOL    HW127494   3.704   3.757  10.812  1.2601  1.6799 -1.1074
 5345SOL    HW227495   3.682   3.648  10.711  2.4451 -3.0249 -1.0298
 5346SOL     OW27496   0.994   3.518   3.436 -0.1200 -0.6307  0.4743
 5346SOL    HW127497   0.954   3.432   3.441 -0.6006 -0.3698  1.1988
 5346SOL    HW227498   0.935   3.572   3.489  0.0008  0.7761 -0.8259
 5347SOL     OW27499   3.612   2.549  13.243  0.4021  0.7072  0.6824
 5347SOL    HW127500   3.633   2.632  13.286 -1.0665  0.9663  0.9111
 5347SOL    HW227501   3.564   2.507  13.315 -1.2462 -0.8742 -1.3581
 5348SOL     OW27502   2.976   1.989   2.140  0.2031  0.2159 -0.4115
 5348SOL    HW127503   3.005   2.055   2.077  1.5765 -0.2171 -0.2228
 5348SOL    HW227504   2.883   1.978   2.119  0.3643 -0.8751 -0.5599
 5349SOL     OW27505   4.609   2.688  11.592 -0.1331 -0.0188  1.0257
 5349SOL    HW127506   4.543   2.646  11.537  0.9000 -0.1957 -0.0731
 5349SOL    HW227507   4.670   2.721  11.527 -1.8417  2.1097  0.4683
 5350SOL     OW27508   2.217   4.184   4.850  0.1049  0.4885  0.1348
 5350SOL    HW127509   2.169   4.260   4.882  2.1762  2.0279 -0.4503
 5350SOL    HW227510   2.152   4.132   4.803  2.2618 -1.4322 -0.7837
 5351SOL     OW27511   3.577   4.273  17.138  0.1440 -0.1578  0.0567
 5351SOL    HW127512   3.497   4.315  17.107  0.1629 -1.1150 -1.2621
 5351SOL    HW227513   3.579   4.296  17.231 -0.6321  1.0464 -0.2277
 5352SOL     OW27514   1.605   1.780   9.578 -0.3786  0.4039  0.4435
 5352SOL    HW127515   1.543   1.775   9.651  0.9923 -0.5342  1.5471
 5352SOL    HW227516   1.656   1.859   9.598  1.7420 -0.2107 -2.6454
 5353SOL     OW27517   2.305   0.311   6.771 -0.1573 -0.5901  0.1314
 5353SOL    HW127518   2.278   0.378   6.833  2.6498 -1.2817  2.1310
 5353SOL    HW227519   2.394   0.336   6.747  1.0673 -2.9311  2.1711
 5354SOL     OW27520   0.335   3.707  16.173  0.4666  0.0974 -0.1024
 5354SOL    HW127521   0.377   3.710  16.086  0.3023 -1.1936 -0.2213
 5354SOL    HW227522   0.337   3.612  16.184 -0.9757  0.1485  0.5230
 5355SOL     OW27523   3.539   2.729   4.879  0.3373 -0.3946 -0.2433
 5355SOL    HW127524   3.608   2.794   4.869  0.5414 -0.8651 -2.0061
 5355SOL    HW227525   3.511   2.738   4.787  0.3279  0.6941 -0.1397
 5356SOL     OW27526   0.948   1.246   8.555  0.0222  0.2891  0.0192
 5356SOL    HW127527   0.941   1.299   8.475  0.4333  0.7822  0.3079
 5356SOL    HW227528   0.980   1.161   8.525  2.5322  0.8307  1.1748
 5357SOL     OW27529   1.034   0.352   9.536 -0.0920 -0.1849 -0.1335
 5357SOL    HW127530   1.110   0.298   9.558 -0.6000  0.2397  2.7084
 5357SOL    HW227531   0.961   0.293   9.555  0.4612 -0.5838  0.8058
 5358SOL     OW27532   1.497   2.083   3.373 -0.0794  0.1852  0.4435
 5358SOL    HW127533   1.483   2.166   3.419  1.0634  1.0240 -0.7450
 5358SOL    HW227534   1.581   2.098   3.329 -2.0392  0.3195 -3.1958
 5359SOL     OW27535   1.283   4.391   5.207 -0.1312  0.4410 -0.5450
 5359SOL    HW127536   1.302   4.448   5.132 -1.8136 -3.4393 -3.9323
 5359SOL    HW227537   1.213   4.443   5.246  0.4128  1.4285 -0.8575
 5360SOL     OW27538   1.270   4.123   8.411 -0.6567  0.4003 -0.2033
 5360SOL    HW127539   1.178   4.097   8.425 -1.6402  2.3842 -3.1369
 5360SOL    HW227540   1.313   4.042   8.384 -1.3561 -0.1552  0.3240
 5361SOL     OW27541   2.041   1.201   7.475  0.0553  0.2742 -0.1910
 5361SOL    HW127542   2.075   1.129   7.423 -2.5022  0.1219 -1.6681
 5361SOL    HW227543   2.010   1.151   7.551  3.0670 -0.2775  0.6564
 5362SOL     OW27544   3.389   2.264   5.126 -0.3641 -0.4358  0.1492
 5362SOL    HW127545   3.356   2.199   5.064  0.3834  0.1060 -0.8104
 5362SOL    HW227546   3.478   2.228   5.132  0.4292  1.7238  1.3689
 5363SOL     OW27547   0.979   0.087   0.576 -0.2075 -0.5410  0.1178
 5363SOL    HW127548   0.902   0.074   0.521  1.3054  0.1803 -2.1615
 5363SOL    HW227549   0.986   0.002   0.618  0.5347  1.0181  3.1679
 5364SOL     OW27550   2.008   1.415   5.359 -0.4148  0.1422 -0.4867
 5364SOL    HW127551   1.939   1.437   5.422 -2.7746 -1.7656 -2.3817
 5364SOL    HW227552   2.033   1.500   5.324  2.0323 -0.1771  0.5199
 5365SOL     OW27553   0.177   3.136   3.657 -0.0192 -0.2617  0.1458
 5365SOL    HW127554   0.158   3.097   3.742 -2.8802  2.3084  0.6518
 5365SOL    HW227555   0.138   3.222   3.667  0.8203 -0.0614  1.7115
 5366SOL     OW27556   3.906   4.664   8.504 -0.8502  0.3457 -0.1885
 5366SOL    HW127557   3.858   4.606   8.445  0.2856 -0.2882 -0.4791
 5366SOL    HW227558   3.978   4.679   8.443 -0.5227 -1.8134 -0.3192
 5367SOL     OW27559   2.329   1.876   6.475  0.4426 -0.2437 -0.1425
 5367SOL    HW127560   2.322   1.971   6.479 -1.0673 -0.3609 -0.1337
 5367SOL    HW227561   2.239   1.846   6.465  0.4150 -0.3870  0.5408
 5368SOL     OW27562   0.779   0.201   8.071 -0.0553 -0.4508  0.0174
 5368SOL    HW127563   0.709   0.147   8.108 -2.8240  1.9453 -1.8168
 5368SOL    HW227564   0.827   0.137   8.019 -0.2768  0.5375 -1.3865
 5369SOL     OW27565   0.341   3.712   0.432  0.0937 -0.9870  0.5248
 5369SOL    HW127566   0.401   3.752   0.370  0.7885 -1.7855  0.6792
 5369SOL    HW227567   0.260   3.726   0.383  0.7234  0.8607  0.0108
 5370SOL     OW27568   1.587   3.207  13.281 -0.1165  0.2102  0.2200
 5370SOL    HW127569   1.562   3.216  13.373  1.4090 -1.8223  0.8295
 5370SOL    HW227570   1.682   3.196  13.279 -0.6980 -5.4037  0.8250
 5371SOL     OW27571   1.913   1.433  14.424 -0.3817  0.5135  0.4676
 5371SOL    HW127572   1.997   1.455  14.464  0.3188  1.6464 -1.6144
 5371SOL    HW227573   1.902   1.345  14.461  0.6896 -0.2014 -0.9140
 5372SOL     OW27574   3.298   1.830   8.859  0.0107 -0.4349  0.4903
 5372SOL    HW127575   3.350   1.845   8.938 -0.0928  1.1029  0.2579
 5372SOL    HW227576   3.334   1.755   8.812 -1.9778  0.5331 -2.5983
 5373SOL     OW27577   4.624   2.869   8.683 -0.2729 -0.3114  0.1002
 5373SOL    HW127578   4.712   2.865   8.646  0.2588  0.4194  1.2797
 5373SOL    HW227579   4.579   2.939   8.636  0.9530 -1.2664 -2.4997
 5374SOL     OW27580   1.853   4.239   2.110  0.6377 -0.3291 -0.2445
 5374SOL    HW127581   1.777   4.251   2.054  0.4888  0.0398  0.0371
 5374SOL    HW227582   1.831   4.150   2.137 -1.3176  0.1558 -0.2783
 5375SOL     OW27583   2.011   1.445   7.985 -0.2565 -0.5805 -0.5156
 5375SOL    HW127584   1.930   1.452   7.934 -1.2345  0.1534  1.1605
 5375SOL    HW227585   2.063   1.382   7.934  0.9296  0.9740 -1.2245
 5376SOL     OW27586   2.742   0.435   1.844  0.2592 -0.1582 -0.1595
 5376SOL    HW127587   2.664   0.382   1.859  0.3812 -0.5700 -0.9313
 5376SOL    HW227588   2.782   0.382   1.775 -1.1817  0.4702 -1.4838
 5377SOL     OW27589   0.411   3.979  12.999  0.0529 -0.0155  0.1538
 5377SOL    HW127590   0.428   4.004  12.908  1.6850 -0.7206  0.2760
 5377SOL    HW227591   0.388   3.887  12.987 -0.5936  0.1538  0.0717
 5378SOL     OW27592   3.984   4.592   6.951 -0.3528  0.2311  0.6264
 5378SOL    HW127593   3.946   4.649   6.884  2.7459  0.8719 -0.5997
 5378SOL    HW227594   4.039   4.659   6.992  1.1657 -0.9449  0.4995
 5379SOL     OW27595   3.546   2.685   6.129  0.4505 -0.0246 -0.1950
 5379SOL    HW127596   3.588   2.769   6.108  2.8936 -1.4949 -1.1918
 5379SOL    HW227597   3.584   2.676   6.217  1.7409  0.2852 -0.7197
 5380SOL     OW27598   3.128   3.040   8.299 -0.3774 -0.4867 -0.1261
 5380SOL    HW127599   3.051   3.095   8.310 -1.0739 -1.8600  1.7923
 5380SOL    HW227600   3.129   3.032   8.203  1.6559 -1.1357 -0.0438
 5381SOL     OW27601   1.257   2.386   8.618 -0.0552 -0.3503  0.1840
 5381SOL    HW127602   1.214   2.471   8.631 -1.4165 -1.3853  2.4679
 5381SOL    HW227603   1.213   2.357   8.538 -0.3650  1.1958 -0.2040
 5382SOL     OW27604   1.164   1.866  10.337 -0.0884  0.5773  0.1245
 5382SOL    HW127605   1.246   1.888  10.381  0.9408  1.5800 -2.2623
 5382SOL    HW227606   1.173   1.772  10.320  0.1205  0.8080 -1.0575
 5383SOL     OW27607   2.808   3.460  12.924 -0.7500  0.6684 -0.1172
 5383SOL    HW127608   2.747   3.502  12.985 -0.1243  0.8096  0.4103
 5383SOL    HW227609   2.893   3.467  12.969 -1.2199 -1.3217  1.0807
 5384SOL     OW27610   3.795   3.049   8.824 -0.4208 -0.2645  0.0929
 5384SOL    HW127611   3.792   2.955   8.841  0.3654 -0.1083  1.0913
 5384SOL    HW227612   3.767   3.053   8.732 -0.4083 -0.1880  0.0921
 5385SOL     OW27613   2.965   3.735  15.651  0.5993  0.3139 -0.4900
 5385SOL    HW127614   2.987   3.801  15.586 -2.2947 -1.0521 -2.8459
 5385SOL    HW227615   3.030   3.762  15.716 -1.4224  0.4874  1.4994
 5386SOL     OW27616   3.004   1.007   1.935 -0.3864 -0.1614  0.4888
 5386SOL    HW127617   3.011   1.073   2.004  0.9688 -0.5224  0.6951
 5386SOL    HW227618   2.970   1.062   1.864  1.6483  0.3112 -0.1193
 5387SOL     OW27619   4.112   4.226   4.197  0.4028 -0.6591 -0.7861
 5387SOL    HW127620   4.037   4.269   4.158  0.2555  1.2108  1.5729
 5387SOL    HW227621   4.181   4.284   4.163  0.3624 -1.9016 -2.9842
 5388SOL     OW27622   0.311   1.866   3.729 -0.6392  0.3798  0.0384
 5388SOL    HW127623   0.291   1.897   3.641  0.8337 -1.8945 -1.1046
 5388SOL    HW227624   0.314   1.771   3.715  0.0024  0.6100 -1.4079
 5389SOL     OW27625   2.365   3.279   1.152 -0.3721  0.5091  0.2944
 5389SOL    HW127626   2.318   3.316   1.078 -0.9060  0.6066  0.6808
 5389SOL    HW227627   2.351   3.349   1.216  0.9859 -0.1437  1.3154
 5390SOL     OW27628   4.699   1.591   1.120 -0.0729 -0.0413  0.0573
 5390SOL    HW127629   0.045   1.591   1.054  0.0290  3.1955  0.1514
 5390SOL    HW227630   4.699   1.497   1.139  0.5666 -0.1388 -0.4220
 5391SOL     OW27631   1.605   2.269  12.549  0.0686 -0.1079 -0.4821
 5391SOL    HW127632   1.511   2.275  12.565 -0.2040 -1.2004 -1.7115
 5391SOL    HW227633   1.632   2.304  12.634  0.9529  0.1190 -0.8499
 5392SOL     OW27634   1.767   3.607   4.257 -0.3518 -0.2193 -0.4758
 5392SOL    HW127635   1.841   3.568   4.209 -1.6170 -3.2960  0.1068
 5392SOL    HW227636   1.758   3.532   4.315 -2.5547 -0.9329 -1.7482
 5393SOL     OW27637   2.927   0.189  11.761  0.2551 -0.2027 -0.5909
 5393SOL    HW127638   2.867   0.250  11.716  1.1474  1.2888  0.2570
 5393SOL    HW227639   2.865   0.128  11.802  0.2069  0.8830  0.9780
 5394SOL     OW27640   4.569   3.437   2.044 -0.1252 -0.0831 -0.5042
 5394SOL    HW127641   4.592   3.420   2.135  2.3899  1.9493 -0.7287
 5394SOL    HW227642   4.657   3.451   2.009 -0.1814 -1.4178 -1.1734
 5395SOL     OW27643   2.865   3.553   3.106  0.0502  0.0635 -0.6834
 5395SOL    HW127644   2.954   3.586   3.123  1.0967 -4.3124  2.1137
 5395SOL    HW227645   2.807   3.629   3.114  1.1370  0.5067  2.8014
 5396SOL     OW27646   4.430   1.024   3.811 -0.3481  0.5147 -0.1328
 5396SOL    HW127647   4.392   0.937   3.826  1.8431 -0.4640 -0.2503
 5396SOL    HW227648   4.504   1.022   3.871  0.9241 -1.9360 -1.7864
 5397SOL     OW27649   4.325   3.824   7.770  0.0306  0.0554  0.2433
 5397SOL    HW127650   4.408   3.801   7.729 -1.0965  0.1898 -2.1056
 5397SOL    HW227651   4.344   3.909   7.809  2.4380 -0.2652 -0.2527
 5398SOL     OW27652   2.469   2.824  13.094 -0.0135 -0.0865  0.1503
 5398SOL    HW127653   2.498   2.869  13.173 -0.8007 -1.0497  0.9943
 5398SOL    HW227654   2.383   2.861  13.075  0.0699 -1.1899 -2.4540
 5399SOL     OW27655   3.985   1.206   6.995 -0.7450  0.3536  0.5926
 5399SOL    HW127656   4.003   1.143   6.925 -1.1985  0.4527  0.3850
 5399SOL    HW227657   3.902   1.175   7.028  0.1105 -1.9483  0.5639
 5400SOL     OW27658   2.591   2.659   3.815  0.3171 -0.3345  0.2434
 5400SOL    HW127659   2.659   2.668   3.748  0.2014  2.2295  0.4960
 5400SOL    HW227660   2.552   2.745   3.826  1.1167  0.1636 -0.7537
 5401SOL     OW27661   0.083   1.786   2.774  0.0793 -0.1095 -0.1902
 5401SOL    HW127662   0.136   1.718   2.731 -1.0539 -0.9789 -0.2102
 5401SOL    HW227663   4.721   1.786   2.731  2.5826  1.5755 -5.2063
 5402SOL     OW27664   3.802   2.158   7.887 -0.1806  0.1950 -0.1441
 5402SOL    HW127665   3.760   2.239   7.918  0.9702  0.1969  1.4243
 5402SOL    HW227666   3.729   2.115   7.844  0.2958  0.8333 -1.5744
 5403SOL     OW27667   3.318   2.716   1.654  0.3925 -0.6081  0.2727
 5403SOL    HW127668   3.387   2.775   1.685 -0.2665  1.0102 -1.3479
 5403SOL    HW227669   3.247   2.778   1.668  0.6734 -0.4742  1.1277
 5404SOL     OW27670   2.401   1.168   3.912  0.0265  0.5213  0.1480
 5404SOL    HW127671   2.377   1.200   3.825 -1.3432 -0.0509  0.3090
 5404SOL    HW227672   2.324   1.169   3.969 -0.3870 -0.4665 -0.4052
 5405SOL     OW27673   3.626   1.936  10.900 -0.3465  0.3721  0.0983
 5405SOL    HW127674   3.648   1.998  10.830 -0.5041 -1.6220 -1.7274
 5405SOL    HW227675   3.614   1.857  10.847 -1.1704 -0.6263  1.7589
 5406SOL     OW27676   0.081   4.462   4.009 -0.1180  0.2364  0.1459
 5406SOL    HW127677   0.059   4.528   3.944 -1.6605 -0.4023  0.0199
 5406SOL    HW227678   0.006   4.452   4.067 -0.6450 -0.5933 -0.6815
 5407SOL     OW27679   1.754   1.073   2.048  0.0728 -0.5864  0.2465
 5407SOL    HW127680   1.818   1.135   2.083  0.0177 -0.8201  0.7585
 5407SOL    HW227681   1.689   1.072   2.118 -0.6364  1.0457 -0.3908
 5408SOL     OW27682   0.196   0.504   2.504 -0.1366  0.8635  0.2883
 5408SOL    HW127683   0.173   0.421   2.546  2.0066 -0.3653 -0.9845
 5408SOL    HW227684   0.280   0.476   2.469  0.4935  0.5948  1.9757
 5409SOL     OW27685   1.285   1.376  10.481 -0.1873  0.4141 -0.1386
 5409SOL    HW127686   1.245   1.294  10.510 -0.1224  0.8350  1.1259
 5409SOL    HW227687   1.378   1.355  10.496 -0.3197  0.6945  1.0261
 5410SOL     OW27688   0.972   1.165   6.289 -0.1363 -0.1627  0.0106
 5410SOL    HW127689   1.050   1.219   6.275 -2.1501  2.0609 -2.4801
 5410SOL    HW227690   0.936   1.207   6.367 -4.0288  0.4130 -2.1148
 5411SOL     OW27691   1.177   2.276   2.939 -0.1409  0.5914  0.3206
 5411SOL    HW127692   1.192   2.344   3.005 -0.4480  1.1372 -0.1679
 5411SOL    HW227693   1.113   2.221   2.985 -0.0746  0.4305  0.2208
 5412SOL     OW27694   3.309   3.746  13.090  0.0168  0.1894 -0.0353
 5412SOL    HW127695   3.349   3.832  13.096  0.3206  0.1044 -0.9758
 5412SOL    HW227696   3.249   3.763  13.017  0.4349 -2.1608 -0.9283
 5413SOL     OW27697   2.439   3.965   4.680  0.6809  0.5075  0.0945
 5413SOL    HW127698   2.452   3.873   4.704 -1.5389  0.6831  1.9484
 5413SOL    HW227699   2.417   4.003   4.765 -1.9371  0.2413 -0.4680
 5414SOL     OW27700   4.649   4.220   6.204 -1.0710 -0.3795 -0.2469
 5414SOL    HW127701   4.717   4.241   6.268 -0.7907  1.0813 -1.0254
 5414SOL    HW227702   4.700   4.234   6.125 -2.9510 -1.2281 -1.6048
 5415SOL     OW27703   0.627   3.525   5.327  0.2395 -0.1618  0.6948
 5415SOL    HW127704   0.595   3.494   5.412 -0.0887 -1.7668 -0.0071
 5415SOL    HW227705   0.683   3.600   5.345  1.5658 -0.5420 -1.7707
 5416SOL     OW27706   3.619   0.229  13.879 -0.3622  0.2317  0.1962
 5416SOL    HW127707   3.571   0.282  13.943 -1.1842 -1.0119  0.5873
 5416SOL    HW227708   3.565   0.151  13.888  0.7188 -0.8707 -2.9431
 5417SOL     OW27709   0.501   2.881   2.320  0.2190  0.0202  0.0004
 5417SOL    HW127710   0.453   2.799   2.320 -1.0478  0.7547 -0.0327
 5417SOL    HW227711   0.547   2.885   2.404 -1.2784 -1.1471  0.8704
 5418SOL     OW27712   2.773   2.681  10.100 -0.2053 -0.1318  0.3515
 5418SOL    HW127713   2.765   2.606  10.159  0.8163 -0.5081  0.0103
 5418SOL    HW227714   2.692   2.730  10.115 -0.7534 -1.6601  2.4875
 5419SOL     OW27715   1.152   4.181  12.259 -0.2247  0.3131 -0.1738
 5419SOL    HW127716   1.175   4.203  12.349 -0.4377  1.9864 -0.5254
 5419SOL    HW227717   1.073   4.231  12.239 -0.1179 -0.1216 -1.6712
 5420SOL     OW27718   4.550   0.336   4.129 -0.2923 -0.1381  0.4522
 5420SOL    HW127719   4.581   0.334   4.038  0.4262 -1.6397  0.7280
 5420SOL    HW227720   4.585   0.253   4.160 -1.3551 -1.3073 -1.4599
 5421SOL     OW27721   1.605   2.252   9.704  0.0657 -0.6526  0.1210
 5421SOL    HW127722   1.622   2.165   9.669  1.3125  0.1368 -1.2383
 5421SOL    HW227723   1.669   2.267   9.774  0.9897  0.0883 -0.8803
 5422SOL     OW27724   3.502   2.773   8.851  0.1758 -0.3602  0.1660
 5422SOL    HW127725   3.493   2.796   8.758  0.7867  0.0140  0.1996
 5422SOL    HW227726   3.597   2.768   8.858  0.4649  3.7538 -0.8261
 5423SOL     OW27727   2.270   1.071   5.515 -0.0661 -0.1643 -0.5078
 5423SOL    HW127728   2.328   1.065   5.591  0.4509  0.3158 -0.8675
 5423SOL    HW227729   2.337   1.079   5.447  1.2526  1.3446  0.9683
 5424SOL     OW27730   2.575   0.404   9.675  0.5752 -0.6328  0.1916
 5424SOL    HW127731   2.548   0.317   9.648 -1.8151  0.0796  0.2470
 5424SOL    HW227732   2.592   0.447   9.591  0.0710  1.5020  1.1730
 5425SOL     OW27733   4.495   0.368   2.046 -0.4550  0.3994  0.2391
 5425SOL    HW127734   4.525   0.332   1.963 -2.2076  0.9144 -0.6135
 5425SOL    HW227735   4.401   0.378   2.035 -0.6118  0.8218  1.9074
 5426SOL     OW27736   2.028   1.695   5.257  0.4960  0.4778  0.2886
 5426SOL    HW127737   2.040   1.748   5.179 -0.0724 -2.6813 -1.9469
 5426SOL    HW227738   1.965   1.754   5.299 -0.6676  0.3242 -1.2534
 5427SOL     OW27739   1.382   1.905  12.836 -0.0494 -0.3857  0.1564
 5427SOL    HW127740   1.390   1.987  12.788  0.0297 -1.6861 -2.0369
 5427SOL    HW227741   1.452   1.912  12.901 -0.1747 -0.9134  0.3441
 5428SOL     OW27742   2.082   3.054   3.362  0.0167 -0.1253 -0.4807
 5428SOL    HW127743   2.028   3.007   3.298 -1.8498 -0.3198  1.2340
 5428SOL    HW227744   2.021   3.114   3.404 -1.1844 -1.0145 -0.9431
 5429SOL     OW27745   3.685   1.820   6.068  0.4926 -0.2320  0.0181
 5429SOL    HW127746   3.760   1.760   6.068  0.7118  0.0149  2.5577
 5429SOL    HW227747   3.630   1.772   6.130 -1.9941  0.5791 -1.5834
 5430SOL     OW27748   0.577   1.065   3.809 -0.1192  0.4218  0.4257
 5430SOL    HW127749   0.544   1.010   3.738  1.7080  1.2008 -1.0321
 5430SOL    HW227750   0.541   1.148   3.780 -0.5179  0.0839 -0.0629
 5431SOL     OW27751   3.331   1.081   2.001  0.2998  0.3356 -0.0422
 5431SOL    HW127752   3.366   0.992   1.990  1.0220  0.2457  2.8118
 5431SOL    HW227753   3.290   1.063   2.086 -2.3970  0.8898 -1.2497
 5432SOL     OW27754   0.893   2.655  10.359  0.1916  1.0305  0.2709
 5432SOL    HW127755   0.817   2.675  10.413 -1.3358 -1.0737 -1.1111
 5432SOL    HW227756   0.903   2.726  10.296  1.4906  0.3606 -0.2811
 5433SOL     OW27757   0.913   4.163  11.494  0.0256  0.3648  0.6169
 5433SOL    HW127758   0.894   4.093  11.431  0.2894 -0.2700  1.2502
 5433SOL    HW227759   1.003   4.142  11.519 -0.3946 -0.1464  1.6660
 5434SOL     OW27760   3.016   3.651   2.384  0.2745  0.3129 -0.1174
 5434SOL    HW127761   2.977   3.564   2.376  1.9595 -0.5569  1.2075
 5434SOL    HW227762   2.933   3.699   2.388  0.8208  1.1790  0.6743
 5435SOL     OW27763   4.658   4.005   7.264 -0.6453 -0.0047  0.0823
 5435SOL    HW127764   0.030   4.009   7.272 -0.5944 -1.5126  0.3028
 5435SOL    HW227765   4.623   4.031   7.349 -0.5393 -0.1732  0.1774
 5436SOL     OW27766   3.838   1.487   7.308 -0.0961 -0.3029 -0.7436
 5436SOL    HW127767   3.903   1.448   7.249 -1.0586 -1.0918 -1.2842
 5436SOL    HW227768   3.802   1.415   7.359 -0.3488 -2.4747 -4.0160
 5437SOL     OW27769   4.698   3.186   4.648  0.2769  0.6321  0.5081
 5437SOL    HW127770   4.675   3.274   4.617  0.4713  0.0355 -1.3322
 5437SOL    HW227771   4.682   3.200   4.741 -1.5806 -1.9223  0.5671
 5438SOL     OW27772   0.189   4.710   8.059 -0.8665 -0.3028 -0.2822
 5438SOL    HW127773   0.168   0.062   8.004  1.9392 -0.4476 -1.5388
 5438SOL    HW227774   0.106   4.661   8.060 -1.1301  0.1271 -1.1028
 5439SOL     OW27775   0.492   0.072   6.341  0.0179  0.0051 -0.6353
 5439SOL    HW127776   0.549   0.096   6.269  1.8487  0.8427  1.0857
 5439SOL    HW227777   0.526   0.136   6.404 -0.5900  0.9394 -1.2585
 5440SOL     OW27778   4.505   1.058   7.543  0.0981  0.1276 -0.5678
 5440SOL    HW127779   4.452   1.048   7.463 -0.4048  1.8106 -0.4578
 5440SOL    HW227780   4.433   1.086   7.600 -0.5741 -1.9149 -0.4086
 5441SOL     OW27781   2.783   2.735  10.859  0.2721  0.0761  0.0599
 5441SOL    HW127782   2.785   2.806  10.923 -4.2359 -0.0312  0.2694
 5441SOL    HW227783   2.833   2.664  10.900 -0.7767  0.3256  1.7564
 5442SOL     OW27784   1.699   1.099   4.120  0.0406  0.0972  0.2135
 5442SOL    HW127785   1.779   1.046   4.113 -0.8557 -0.9885 -1.9211
 5442SOL    HW227786   1.750   1.179   4.110 -1.2812  0.8295 -0.6654
 5443SOL     OW27787   0.550   4.312   3.347  0.2742 -0.1224 -0.2491
 5443SOL    HW127788   0.508   4.396   3.364  0.8998  0.5872 -2.2826
 5443SOL    HW227789   0.504   4.284   3.267  0.3489  2.9445 -1.3729
 5444SOL     OW27790   0.803   0.446  14.050 -0.2517 -0.3263  0.5451
 5444SOL    HW127791   0.820   0.442  13.956  2.1864  0.5001  0.9521
 5444SOL    HW227792   0.881   0.407  14.091  0.3706 -0.1223 -0.4298
 5445SOL     OW27793   0.046   0.546   4.255  0.0627  0.4119  0.3785
 5445SOL    HW127794   0.138   0.523   4.245 -0.3792 -0.5173 -1.5842
 5445SOL    HW227795   0.009   0.458   4.255  0.6969  0.1506 -0.8745
 5446SOL     OW27796   4.659   3.869  14.988  1.0195  0.3302 -0.0480
 5446SOL    HW127797   0.014   3.900  14.942 -0.5271  4.0023 -0.2338
 5446SOL    HW227798   4.692   3.790  15.029  0.1606  0.7945  1.5255
 5447SOL     OW27799   1.264   0.675   6.368 -0.4139 -0.7353  0.7534
 5447SOL    HW127800   1.220   0.728   6.435  1.4882  0.5284  1.0112
 5447SOL    HW227801   1.191   0.628   6.327 -0.2395  0.1038 -0.5425
 5448SOL     OW27802   1.729   4.122   0.751  0.3625 -0.1819 -0.0068
 5448SOL    HW127803   1.636   4.099   0.748 -0.2117  2.1519 -0.3709
 5448SOL    HW227804   1.748   4.144   0.660  2.1275  0.2763  0.4623
 5449SOL     OW27805   1.916   3.278   9.423  0.3051  0.4926 -0.7073
 5449SOL    HW127806   1.924   3.369   9.450  0.6735 -0.5000  2.5319
 5449SOL    HW227807   1.873   3.256   9.506  0.5631  0.6396 -0.5363
 5450SOL     OW27808   0.519   2.971  17.249 -0.2627  0.2685 -0.0868
 5450SOL    HW127809   0.526   3.003  17.339 -0.6313 -0.8039  0.3291
 5450SOL    HW227810   0.425   2.984  17.238 -0.3835 -0.8813 -0.4049
 5451SOL     OW27811   4.359   1.104   7.916 -0.4137 -0.0340 -0.3531
 5451SOL    HW127812   4.334   1.049   7.991 -2.0302  3.9056  2.0240
 5451SOL    HW227813   4.440   1.144   7.949 -1.9784  2.9613 -0.1016
 5452SOL     OW27814   1.475   2.184   2.464 -1.0287 -0.0536  0.7030
 5452SOL    HW127815   1.514   2.115   2.410  1.1943 -0.0554  2.3421
 5452SOL    HW227816   1.410   2.129   2.507 -0.2637  0.1925  2.1699
 5453SOL     OW27817   1.671   1.091  12.929  0.4521  0.4570  0.1967
 5453SOL    HW127818   1.625   1.041  12.861  3.1441  0.2061 -1.4605
 5453SOL    HW227819   1.600   1.133  12.977  0.3454 -1.1209  1.4155
 5454SOL     OW27820   4.532   1.817   4.550 -0.3639 -0.2360  0.3114
 5454SOL    HW127821   4.624   1.828   4.574 -0.2638 -0.9044  0.2388
 5454SOL    HW227822   4.493   1.884   4.606  0.5976  1.2525 -0.8227
 5455SOL     OW27823   1.036   1.065   9.442  0.1121 -0.0372 -0.0986
 5455SOL    HW127824   1.096   0.991   9.435  0.3473 -0.1819  3.5309
 5455SOL    HW227825   0.958   1.023   9.478  0.9767 -0.3912  1.3407
 5456SOL     OW27826   0.872   2.785  12.600 -0.5395  0.3316  0.2439
 5456SOL    HW127827   0.957   2.827  12.615 -0.1509 -0.3523 -0.0163
 5456SOL    HW227828   0.805   2.852  12.591 -1.3494 -0.1477  2.4838
 5457SOL     OW27829   0.314   0.475   4.218  0.4486  0.5822  0.1523
 5457SOL    HW127830   0.356   0.409   4.162 -1.1175 -2.1675  2.1922
 5457SOL    HW227831   0.348   0.550   4.170  0.7425  1.2115  1.3406
 5458SOL     OW27832   0.061   1.058   1.354  0.4652 -0.0303 -0.1839
 5458SOL    HW127833   4.710   1.051   1.414 -0.2382 -0.1402 -1.0628
 5458SOL    HW227834   0.028   1.096   1.273  0.6921  2.2906  0.7879
 5459SOL     OW27835   3.288   4.227   1.051  0.8436  0.6561 -0.1580
 5459SOL    HW127836   3.306   4.283   0.976  0.1354  3.6024  1.8975
 5459SOL    HW227837   3.355   4.158   1.051 -0.9974 -1.1103 -1.2073
 5460SOL     OW27838   4.031   1.391   7.584 -0.3823 -0.0584  0.6074
 5460SOL    HW127839   3.984   1.380   7.502 -0.2767 -1.0296  0.6756
 5460SOL    HW227840   4.118   1.408   7.550  0.1753  0.0315  2.0571
 5461SOL     OW27841   2.094   3.807   8.492 -0.5916  0.0966 -0.3259
 5461SOL    HW127842   2.163   3.862   8.456 -0.5300  0.0207 -0.3235
 5461SOL    HW227843   2.144   3.747   8.549 -1.6678  1.3968  1.9877
 5462SOL     OW27844   3.887   0.008   2.373 -0.3994 -0.9106 -0.4187
 5462SOL    HW127845   3.839   4.719   2.292 -3.0001  0.4690  0.9220
 5462SOL    HW227846   3.815   0.053   2.417 -0.1138 -0.2738 -0.5912
 5463SOL     OW27847   4.547   3.563   4.182  0.0258 -0.3414  0.2586
 5463SOL    HW127848   4.608   3.605   4.122 -2.4660 -2.1829 -3.5492
 5463SOL    HW227849   4.529   3.628   4.250 -1.2734 -0.1507 -0.2563
 5464SOL     OW27850   0.581   2.930  14.185  0.1326  0.2044  0.3814
 5464SOL    HW127851   0.655   2.989  14.201 -0.1710  0.7563 -0.2757
 5464SOL    HW227852   0.535   2.934  14.269 -1.5313 -0.5568 -0.4942
 5465SOL     OW27853   1.717   1.542   8.383 -0.2516  0.1430  0.1419
 5465SOL    HW127854   1.812   1.531   8.393  0.0239  1.6799 -0.8076
 5465SOL    HW227855   1.700   1.480   8.311  0.2330  0.1629  0.0088
 5466SOL     OW27856   2.027   3.387   3.818  0.2799 -0.1051 -0.1353
 5466SOL    HW127857   2.120   3.397   3.835  0.1524 -0.9009  1.0186
 5466SOL    HW227858   2.030   3.392   3.723 -2.1578 -1.3066 -0.2678
 5467SOL     OW27859   4.428   3.064   3.694  0.5058  0.9143  0.6686
 5467SOL    HW127860   4.478   3.036   3.617  0.5433  1.2260  0.5816
 5467SOL    HW227861   4.415   3.158   3.681 -2.4468  0.6360  1.6541
 5468SOL     OW27862   3.110   1.980   8.703 -0.0465  0.9976 -0.2496
 5468SOL    HW127863   3.064   1.900   8.678  1.5407  0.3220 -1.0287
 5468SOL    HW227864   3.177   1.946   8.763  0.2964 -0.2678 -1.3432
 5469SOL     OW27865   3.984   1.081   5.081  0.5082  0.2299 -0.7255
 5469SOL    HW127866   3.969   1.174   5.065 -2.2367 -0.0337  0.3359
 5469SOL    HW227867   3.896   1.051   5.057  0.0135  0.9139  0.2336
 5470SOL     OW27868   1.313   4.090   6.516 -0.6153 -0.1639  0.2631
 5470SOL    HW127869   1.364   4.170   6.505 -2.0432  0.4800 -1.6908
 5470SOL    HW227870   1.335   4.057   6.429  1.0768  2.5417 -0.3181
 5471SOL     OW27871   2.970   2.285  12.520  0.0567 -0.3297 -0.3348
 5471SOL    HW127872   3.018   2.313  12.597 -0.8208 -2.5655  1.0412
 5471SOL    HW227873   3.003   2.356  12.466 -1.0947  0.7420  0.3869
 5472SOL     OW27874   2.507   1.779   6.965  0.4320  0.2619  0.2633
 5472SOL    HW127875   2.545   1.832   6.895 -1.7683  2.0346  0.4053
 5472SOL    HW227876   2.537   1.811   7.050  0.1146  0.7865  0.1806
 5473SOL     OW27877   4.016   1.645   2.515 -0.3603  0.6146 -0.3186
 5473SOL    HW127878   4.051   1.729   2.483  1.4640 -0.2126 -0.5187
 5473SOL    HW227879   4.097   1.600   2.537 -0.4229  0.2794 -0.7681
 5474SOL     OW27880   1.036   2.909  11.299  0.2025 -0.2012 -0.6851
 5474SOL    HW127881   1.070   2.852  11.368  1.6833 -0.5983 -1.7428
 5474SOL    HW227882   1.036   2.845  11.228 -4.9594  1.3454 -2.0810
 5475SOL     OW27883   2.813   4.382   2.281  0.0143  0.2418 -0.6477
 5475SOL    HW127884   2.764   4.399   2.201 -1.6978 -2.4195 -0.1745
 5475SOL    HW227885   2.741   4.356   2.339 -0.6844  0.4640 -1.4183
 5476SOL     OW27886   1.674   3.923   5.559  0.4659 -0.0985 -0.1114
 5476SOL    HW127887   1.747   3.869   5.591  1.5274  0.6069 -1.3408
 5476SOL    HW227888   1.725   3.988   5.510  0.0593 -0.9600 -1.6596
 5477SOL     OW27889   2.861   4.165   8.539  0.1199  0.4763  0.0185
 5477SOL    HW127890   2.939   4.110   8.551 -0.0420 -0.1658 -1.8827
 5477SOL    HW227891   2.901   4.246   8.507 -1.8838  1.0910 -0.9227
 5478SOL     OW27892   0.917   2.011   0.886  0.2753  0.0663  0.4890
 5478SOL    HW127893   0.875   1.946   0.943  3.6305 -2.4421  0.0782
 5478SOL    HW227894   0.994   2.037   0.937  0.4355  0.4599  0.0429
 5479SOL     OW27895   1.232   1.581   5.077 -0.4997  0.6991  0.6799
 5479SOL    HW127896   1.168   1.649   5.100 -2.1503 -0.6407  0.0218
 5479SOL    HW227897   1.175   1.504   5.084 -1.2444  1.0763 -1.0820
 5480SOL     OW27898   0.909   0.879   3.830 -0.3949 -0.6378 -0.4319
 5480SOL    HW127899   0.956   0.810   3.785  0.1391 -0.9981  0.6629
 5480SOL    HW227900   0.878   0.929   3.755  2.3954  2.7375  0.6290
 5481SOL     OW27901   0.989   1.721   3.990 -0.2088  0.1250  0.3269
 5481SOL    HW127902   1.008   1.638   4.033 -1.2527 -0.4087 -0.2463
 5481SOL    HW227903   0.910   1.746   4.038  1.3725  0.3594  2.7801
 5482SOL     OW27904   1.820   0.621  16.949  0.1927 -0.0813  0.0222
 5482SOL    HW127905   1.864   0.557  17.005 -1.1977 -0.7698  0.3253
 5482SOL    HW227906   1.878   0.695  16.935  0.9289 -0.8288 -0.8584
 5483SOL     OW27907   2.256   4.036   6.053  0.1414 -0.1473  0.0734
 5483SOL    HW127908   2.309   4.096   6.001  0.8497 -1.0771 -0.2798
 5483SOL    HW227909   2.224   4.098   6.119  1.3221  1.4716 -0.8593
 5484SOL     OW27910   1.442   4.608   0.262 -0.0331  0.1886  0.1542
 5484SOL    HW127911   1.501   4.609   0.186 -1.3712  0.1002 -0.8800
 5484SOL    HW227912   1.504   4.621   0.334  1.6535 -1.1218 -1.0369
 5485SOL     OW27913   2.403   1.551   8.705  0.1829  0.2145 -0.2273
 5485SOL    HW127914   2.473   1.602   8.745 -0.1997  1.1564 -0.7403
 5485SOL    HW227915   2.438   1.463   8.711  0.2411  0.1131 -2.0379
 5486SOL     OW27916   4.130   2.241   1.754  0.2348 -0.1535  0.3068
 5486SOL    HW127917   4.144   2.188   1.833  0.3330 -1.7065 -0.7450
 5486SOL    HW227918   4.214   2.220   1.713 -0.5082 -2.3406 -0.1178
 5487SOL     OW27919   0.059   2.172   3.739 -0.1814 -0.1093  0.0389
 5487SOL    HW127920   0.096   2.161   3.652  2.0222 -3.9290  1.4951
 5487SOL    HW227921   0.010   2.091   3.753 -0.5096  0.2102  0.7315
 5488SOL     OW27922   0.381   4.136   0.399 -0.0012 -0.0214 -0.0510
 5488SOL    HW127923   0.305   4.092   0.436  0.6689 -1.0744  0.0716
 5488SOL    HW227924   0.333   4.210   0.362  0.1642 -0.3064 -0.8188
 5489SOL     OW27925   3.823   4.306  16.678 -0.2879 -0.2995 -0.4699
 5489SOL    HW127926   3.747   4.272  16.629 -0.7135  0.0882 -0.0745
 5489SOL    HW227927   3.794   4.296  16.768 -1.9186  1.5355 -0.7915
 5490SOL     OW27928   0.341   4.548   5.057 -0.7736 -0.2212  0.0323
 5490SOL    HW127929   0.274   4.564   4.990 -0.6403 -0.2372 -0.1041
 5490SOL    HW227930   0.290   4.580   5.132 -0.6313  0.3321 -0.1069
 5491SOL     OW27931   2.051   0.558   4.102  0.2229  0.5382  0.5309
 5491SOL    HW127932   1.961   0.527   4.117  0.6163 -1.8772 -2.0220
 5491SOL    HW227933   2.040   0.586   4.011  0.9721 -1.2111 -0.1115
 5492SOL     OW27934   0.943   4.311   2.441  0.2382 -0.6464  0.3387
 5492SOL    HW127935   0.976   4.299   2.530  2.2677 -1.2337 -0.4928
 5492SOL    HW227936   0.970   4.225   2.409 -1.6204 -0.1850 -2.4290
 5493SOL     OW27937   0.301   2.400   4.621  0.2931 -0.3807  0.2950
 5493SOL    HW127938   0.264   2.387   4.534 -0.1535 -1.1992  0.6093
 5493SOL    HW227939   0.389   2.382   4.588  0.6427 -0.1737  1.1051
 5494SOL     OW27940   0.548   1.623   3.527  1.1376  0.3159 -0.4738
 5494SOL    HW127941   0.600   1.671   3.591 -0.4212 -0.5448  1.4502
 5494SOL    HW227942   0.469   1.677   3.521  0.3224 -0.8437 -0.0687
 5495SOL     OW27943   2.638   1.277   5.283  0.0815 -0.3715  0.2487
 5495SOL    HW127944   2.639   1.201   5.342 -0.5405 -0.7164 -0.1783
 5495SOL    HW227945   2.732   1.288   5.266 -0.0396 -1.0200 -0.8230
 5496SOL     OW27946   4.263   1.094   0.721  0.5775 -0.4517  0.1187
 5496SOL    HW127947   4.179   1.049   0.715  0.1283  0.2408  1.3023
 5496SOL    HW227948   4.279   1.110   0.628 -1.3237 -0.2261 -0.1578
 5497SOL     OW27949   1.941   1.860   9.385  0.0031  0.3823 -0.1833
 5497SOL    HW127950   1.864   1.865   9.328 -1.3497 -0.5570  1.5852
 5497SOL    HW227951   1.970   1.775   9.350  0.6234  0.1297  0.9677
 5498SOL     OW27952   2.590   3.853   6.740  0.3515  0.0084  0.1552
 5498SOL    HW127953   2.549   3.919   6.685 -2.0793 -0.0003  1.9316
 5498SOL    HW227954   2.509   3.806   6.759  0.9622 -0.9800  0.3437
 5499SOL     OW27955   2.796   4.602   4.799  0.3210  0.7195 -0.3386
 5499SOL    HW127956   2.880   4.562   4.819 -0.4253  0.4423  2.3297
 5499SOL    HW227957   2.741   4.576   4.874 -0.3247  0.7827 -0.7860
 5500SOL     OW27958   3.385   4.130   2.746  0.1304 -0.0836  0.1612
 5500SOL    HW127959   3.471   4.167   2.729  0.9362 -2.1296 -0.2566
 5500SOL    HW227960   3.379   4.060   2.681  0.0380 -1.4356  1.6107
 5501SOL     OW27961   3.852   2.542   7.764  0.1901  0.4022  0.0085
 5501SOL    HW127962   3.851   2.607   7.834  2.4108 -1.3873  1.7300
 5501SOL    HW227963   3.781   2.567   7.705 -2.9785  0.3116  3.7372
 5502SOL     OW27964   0.666   1.167   5.124 -0.4788 -0.5326 -0.1352
 5502SOL    HW127965   0.574   1.163   5.149  0.3470 -0.4953  2.9550
 5502SOL    HW227966   0.665   1.237   5.059  0.2227  1.6174  2.1571
 5503SOL     OW27967   4.690   4.622  13.592 -0.0282 -0.1651  0.4854
 5503SOL    HW127968   4.614   4.616  13.650 -1.0897  0.3832 -0.8536
 5503SOL    HW227969   0.043   4.654  13.640  2.3020 -2.0275 -1.9597
 5504SOL     OW27970   4.143   2.367   2.222  0.3275 -0.4495 -0.3144
 5504SOL    HW127971   4.102   2.450   2.247 -1.8788 -0.8927 -2.4672
 5504SOL    HW227972   4.067   2.310   2.217 -0.0600 -0.1512  1.9818
 5505SOL     OW27973   3.323   3.287   9.710 -0.2437 -0.0217  0.3885
 5505SOL    HW127974   3.418   3.279   9.695 -0.6592  0.8833 -2.6195
 5505SOL    HW227975   3.285   3.210   9.669 -0.0724 -0.7386  1.6020
 5506SOL     OW27976   2.256   2.909  15.129 -0.3438 -0.4044 -0.0466
 5506SOL    HW127977   2.198   2.942  15.060 -1.7738 -1.5737  0.5940
 5506SOL    HW227978   2.335   2.881  15.085 -0.3481  0.8735 -0.8682
 5507SOL     OW27979   3.598   3.960   0.591 -0.1274  0.5688 -0.3286
 5507SOL    HW127980   3.505   3.945   0.577 -0.0736  1.2293 -1.4063
 5507SOL    HW227981   3.611   3.918   0.675  0.8981  1.8209  0.1400
 5508SOL     OW27982   1.591   4.077   8.276  0.3490  0.1027  0.2249
 5508SOL    HW127983   1.557   4.123   8.200 -0.5812 -1.4844 -0.3152
 5508SOL    HW227984   1.624   4.150   8.328 -2.8821  1.1147  0.8590
 5509SOL     OW27985   3.943   4.300   9.597 -0.1054  0.1655 -0.0448
 5509SOL    HW127986   4.005   4.266   9.533  0.5536  1.8984 -0.3379
 5509SOL    HW227987   3.868   4.243   9.577 -0.4076 -0.7348  3.6247
 5510SOL     OW27988   2.138   1.292  17.485 -0.1622  0.0053 -0.4117
 5510SOL    HW127989   2.229   1.269  17.505  0.1000  0.7457 -0.7705
 5510SOL    HW227990   2.110   1.329  17.569 -0.9837  1.8121 -1.4879
 5511SOL     OW27991   2.881   3.313   4.916  0.2230  0.3896  0.0106
 5511SOL    HW127992   2.932   3.394   4.909  1.6245 -0.5488 -0.6866
 5511SOL    HW227993   2.929   3.254   4.858 -0.4342 -1.3014  1.1876
 5512SOL     OW27994   3.509   2.223   8.164  0.2571  0.0660 -0.9091
 5512SOL    HW127995   3.590   2.175   8.181  1.7291  3.2104  0.8524
 5512SOL    HW227996   3.434   2.164   8.162  0.3357 -0.1013  0.7925
 5513SOL     OW27997   0.500   2.331   4.450 -0.4755  0.5966 -0.2813
 5513SOL    HW127998   0.545   2.416   4.451 -0.5519  0.6355 -0.1498
 5513SOL    HW227999   0.427   2.359   4.395 -1.7301 -0.7787  0.6972
 5514SOL     OW28000   1.914   0.422   5.141 -0.2724  0.0518 -0.0284
 5514SOL    HW128001   1.915   0.435   5.236 -3.0725  0.6135 -0.0785
 5514SOL    HW228002   1.903   0.513   5.113 -2.2988  0.4127  1.9373
 5515SOL     OW28003   2.175   2.740  12.869 -0.9192  0.5912 -0.1563
 5515SOL    HW128004   2.185   2.834  12.883 -0.0423  0.3353  1.0006
 5515SOL    HW228005   2.252   2.722  12.814 -0.4974  0.8442  0.3466
 5516SOL     OW28006   0.190   3.937  13.824 -0.2194 -0.2231  0.2005
 5516SOL    HW128007   0.218   3.997  13.893  1.2445  0.7031 -1.2012
 5516SOL    HW228008   0.108   3.896  13.852 -0.1216  0.3085  1.2525
 5517SOL     OW28009   1.720   0.133   7.259 -0.0724 -0.1616  0.0155
 5517SOL    HW128010   1.637   0.175   7.237 -0.8459 -0.5434  2.1744
 5517SOL    HW228011   1.742   0.174   7.343 -0.1925  1.9443 -0.9719
 5518SOL     OW28012   1.437   4.386   7.198  0.4861  0.1259  0.0563
 5518SOL    HW128013   1.504   4.454   7.204  2.1493 -1.5652  0.6102
 5518SOL    HW228014   1.422   4.380   7.103 -2.2356 -0.2587  0.5221
 5519SOL     OW28015   0.661   0.661   1.471 -0.2910  0.4388 -0.0368
 5519SOL    HW128016   0.673   0.640   1.378  2.1251 -0.4785  0.4685
 5519SOL    HW228017   0.698   0.750   1.464  1.1122 -0.1372  0.0034
 5520SOL     OW28018   1.213   1.583   0.390  0.1790  0.6356 -0.0371
 5520SOL    HW128019   1.142   1.603   0.328  1.4371  2.3754 -0.9105
 5520SOL    HW228020   1.212   1.487   0.385  1.3476  0.6957 -1.4696
 5521SOL     OW28021   0.712   1.823   5.529 -0.3163 -0.4085 -0.2284
 5521SOL    HW128022   0.683   1.871   5.451 -2.0114  0.4265  0.9363
 5521SOL    HW228023   0.707   1.735   5.491  0.6567  0.1534 -1.6894
 5522SOL     OW28024   1.920   4.094   4.208 -0.0069  0.7811  0.3278
 5522SOL    HW128025   1.999   4.126   4.164 -0.4565  1.6572  0.1626
 5522SOL    HW228026   1.958   4.062   4.290  1.7521  1.0796 -0.3740
 5523SOL     OW28027   2.681   3.359   4.586  0.2726  0.2991 -0.3884
 5523SOL    HW128028   2.660   3.367   4.679 -0.8678  2.1836 -0.7967
 5523SOL    HW228029   2.729   3.277   4.580  1.2087  0.8139 -0.0116
 5524SOL     OW28030   4.211   4.157   5.283  0.0564  0.5547  0.2720
 5524SOL    HW128031   4.288   4.213   5.285  0.6200 -0.1545 -1.7761
 5524SOL    HW228032   4.140   4.221   5.277 -1.5426 -1.0308  2.1378
 5525SOL     OW28033   3.456   1.961  13.559 -0.1628  0.3010 -0.3183
 5525SOL    HW128034   3.365   1.932  13.562  0.0676 -0.5234 -1.4430
 5525SOL    HW228035   3.481   1.976  13.651 -0.3588  0.0617 -0.2253
 5526SOL     OW28036   1.895   1.869   5.407  0.2136  0.7138 -0.0423
 5526SOL    HW128037   1.832   1.799   5.424  0.5635  0.4052 -0.0041
 5526SOL    HW228038   1.848   1.948   5.381 -0.5929  0.5053  0.8179
 5527SOL     OW28039   2.314   1.409   4.737  0.5680  0.5579  0.0266
 5527SOL    HW128040   2.266   1.485   4.769 -2.4425 -0.5014 -2.0066
 5527SOL    HW228041   2.249   1.365   4.683  1.3205 -0.5914  0.0425
 5528SOL     OW28042   2.510   0.216   3.788  0.3857 -0.2655  0.2857
 5528SOL    HW128043   2.460   0.135   3.775  1.6783 -1.2120  1.1122
 5528SOL    HW228044   2.471   0.279   3.727 -1.0312 -0.6486  0.7961
 5529SOL     OW28045   2.821   2.682   1.848  0.5605  0.1102 -0.2783
 5529SOL    HW128046   2.828   2.674   1.943  2.1221  2.6961 -0.1677
 5529SOL    HW228047   2.758   2.615   1.822  2.1497 -1.0642 -1.0566
 5530SOL     OW28048   1.133   3.194   6.668  0.3468  0.0043  0.0941
 5530SOL    HW128049   1.164   3.257   6.733 -0.1329 -1.6056  1.9020
 5530SOL    HW228050   1.204   3.202   6.604  0.4528 -0.4053  0.1558
 5531SOL     OW28051   1.453   3.774   2.458  0.2468 -0.4670 -0.1178
 5531SOL    HW128052   1.373   3.722   2.452  1.0593 -1.5933 -1.4124
 5531SOL    HW228053   1.421   3.855   2.495  0.5322 -0.1441 -0.5736
 5532SOL     OW28054   1.033   4.089   8.551  0.2293 -0.0333  0.4409
 5532SOL    HW128055   1.063   4.167   8.600  0.9607 -0.3832  0.5536
 5532SOL    HW228056   0.949   4.122   8.519  0.3350  0.2708  0.4699
 5533SOL     OW28057   2.389   1.452  15.679  0.0791  0.3093  0.2811
 5533SOL    HW128058   2.475   1.433  15.641  0.2326  1.3644  0.1030
 5533SOL    HW228059   2.367   1.373  15.728 -1.9556  0.4086 -0.4659
 5534SOL     OW28060   1.146   0.752   8.195 -0.2047 -0.2623  0.3162
 5534SOL    HW128061   1.199   0.831   8.193  0.4307 -0.6451  1.7865
 5534SOL    HW228062   1.104   0.751   8.282 -1.8766 -0.2745 -0.5004
 5535SOL     OW28063   2.769   4.581   1.083  0.0658 -0.3610 -0.6738
 5535SOL    HW128064   2.774   4.496   1.038 -0.3482 -0.3444 -0.7473
 5535SOL    HW228065   2.849   4.575   1.136 -0.8176 -1.3140  0.5711
 5536SOL     OW28066   1.891   0.077   2.944 -0.3332  0.3613  0.0060
 5536SOL    HW128067   1.921   0.147   2.885 -1.9979  1.5254  0.5380
 5536SOL    HW228068   1.926   0.099   3.030 -0.8035 -0.7265  0.4777
 5537SOL     OW28069   2.716   3.470  16.972  0.3207  0.4690  0.1229
 5537SOL    HW128070   2.664   3.535  16.926  0.6334 -0.6196 -1.7917
 5537SOL    HW228071   2.666   3.475  17.053  0.9384  0.0281  0.5390
 5538SOL     OW28072   2.774   0.414   5.047 -0.5976  0.2353  0.2821
 5538SOL    HW128073   2.728   0.330   5.056 -3.7868  1.7794 -1.9578
 5538SOL    HW228074   2.702   0.470   5.075  0.8858  2.1206  0.3669
 5539SOL     OW28075   1.699   4.297   8.406  0.0947 -0.1241  0.3645
 5539SOL    HW128076   1.695   4.279   8.500 -2.5573  0.2104  0.3297
 5539SOL    HW228077   1.792   4.319   8.402 -0.3317  1.1157 -2.8005
 5540SOL     OW28078   0.084   0.818   9.436 -0.4304  0.4516  0.8987
 5540SOL    HW128079   0.158   0.767   9.402 -2.8223 -0.4932 -2.8412
 5540SOL    HW228080   0.011   0.762   9.412  0.6371 -0.5020 -0.1577
 5541SOL     OW28081   2.450   0.475  16.601  0.4002  0.0230  0.0748
 5541SOL    HW128082   2.377   0.455  16.659 -0.0095 -1.6158 -0.9734
 5541SOL    HW228083   2.406   0.510  16.523  0.9085 -0.0172 -0.2329
 5542SOL     OW28084   1.065   0.431   1.438 -0.0212  0.2819 -0.7574
 5542SOL    HW128085   1.118   0.364   1.480 -0.6933 -0.5064 -1.1676
 5542SOL    HW228086   1.125   0.505   1.446 -0.1802  0.5312 -1.7650
 5543SOL     OW28087   4.660   2.334   6.180  0.5357  0.0656  0.2337
 5543SOL    HW128088   4.701   2.361   6.098 -1.5603 -1.2844 -1.2450
 5543SOL    HW228089   4.723   2.360   6.247  0.1363  1.7947 -0.0798
 5544SOL     OW28090   1.955   4.678  10.017 -0.3144 -0.1668  0.0241
 5544SOL    HW128091   1.998   0.013   9.955  0.0567  1.0523  1.4310
 5544SOL    HW228092   1.943   0.006  10.097 -1.8058 -0.5268  0.0329
 5545SOL     OW28093   3.352   3.952  15.346  0.3567  0.2482  0.2914
 5545SOL    HW128094   3.313   4.027  15.299 -2.1265 -0.0013  1.9877
 5545SOL    HW228095   3.394   3.903  15.275  0.4185  0.1199  0.4171
 5546SOL     OW28096   0.596   4.625   6.805  0.0079 -0.1526 -0.3312
 5546SOL    HW128097   0.533   4.683   6.848 -0.1676  0.6179 -1.6265
 5546SOL    HW228098   0.643   4.683   6.746  0.4962 -1.4942 -1.2673
 5547SOL     OW28099   0.377   4.092  10.766  0.1208  0.6490 -0.0313
 5547SOL    HW128100   0.391   4.153  10.838  0.2072  0.8960 -0.2607
 5547SOL    HW228101   0.328   4.144  10.703 -0.4257  1.5798  1.1629
 5548SOL     OW28102   3.516   3.096   5.341  0.2361  1.0786  0.0342
 5548SOL    HW128103   3.523   3.188   5.367 -0.7421  1.0114  0.5360
 5548SOL    HW228104   3.466   3.102   5.259  1.5950 -0.6518 -0.9135
 5549SOL     OW28105   3.736   1.477   3.832  0.1647 -0.1354  0.0041
 5549SOL    HW128106   3.782   1.462   3.749 -0.7771 -0.9233 -0.3765
 5549SOL    HW228107   3.734   1.572   3.835  0.7469  0.0083 -3.2805
 5550SOL     OW28108   0.819   1.458   9.239  0.6634  0.0249 -0.5762
 5550SOL    HW128109   0.841   1.551   9.232 -2.2233  0.9690  2.5845
 5550SOL    HW228110   0.879   1.413   9.180  0.2363  2.1221 -2.5952
 5551SOL     OW28111   3.790   1.555  16.512 -0.0122 -0.3383  0.1512
 5551SOL    HW128112   3.710   1.607  16.519  0.4047  0.0767  1.6907
 5551SOL    HW228113   3.846   1.608  16.454  0.4249 -2.1068 -1.0346
 5552SOL     OW28114   1.474   0.938  15.170 -0.2484  0.4376 -0.0932
 5552SOL    HW128115   1.514   1.025  15.164  1.1412 -0.4080 -2.7426
 5552SOL    HW228116   1.382   0.956  15.193 -0.2935  0.0698  0.0105
 5553SOL     OW28117   1.504   0.291   3.565  0.4525 -0.3338  0.1506
 5553SOL    HW128118   1.549   0.212   3.596  0.8416  0.2767  1.1297
 5553SOL    HW228119   1.415   0.262   3.548  0.2101 -1.1418  2.8140
 5554SOL     OW28120   4.390   2.038   5.674  1.0224  0.4199  0.1131
 5554SOL    HW128121   4.352   2.082   5.597  1.1047 -4.4374 -2.6795
 5554SOL    HW228122   4.342   2.089   5.740  1.1399  1.9292 -0.9570
 5555SOL     OW28123   0.741   4.407   1.533  0.0960  1.2507 -0.0600
 5555SOL    HW128124   0.729   4.500   1.511 -1.3977  0.9782 -0.4008
 5555SOL    HW228125   0.657   4.402   1.579  0.5349  2.1405  0.8439
 5556SOL     OW28126   4.421   1.862   9.853  0.3019 -0.0604 -0.4747
 5556SOL    HW128127   4.445   1.863   9.761 -1.4719  1.4431 -0.9174
 5556SOL    HW228128   4.477   1.932   9.887 -0.9856 -1.0950  3.8303
 5557SOL     OW28129   2.775   2.456  15.071  0.6039  0.7977 -0.3642
 5557SOL    HW128130   2.775   2.504  15.154 -0.7099 -2.4666  1.4994
 5557SOL    HW228131   2.862   2.417  15.077 -0.2584 -0.8540  1.2466
 5558SOL     OW28132   2.934   0.212   0.386 -0.3466 -0.2865 -0.1075
 5558SOL    HW128133   2.850   0.246   0.416  0.2545  0.1415  1.1184
 5558SOL    HW228134   2.981   0.292   0.365 -0.2657 -0.2336  0.2752
 5559SOL     OW28135   2.972   1.327   5.224 -0.1383  0.5870  0.5960
 5559SOL    HW128136   2.981   1.380   5.145 -1.0681  0.1910  0.2365
 5559SOL    HW228137   3.037   1.257   5.214  0.7038  0.9806  3.1487
 5560SOL     OW28138   1.197   2.082   3.869  0.2632 -0.1695 -0.1136
 5560SOL    HW128139   1.143   2.012   3.904 -0.5195 -0.8449 -2.6536
 5560SOL    HW228140   1.231   2.118   3.951 -2.2743 -1.4978  1.5169
 5561SOL     OW28141   4.703   1.204   5.932  0.5203  0.0864  0.3510
 5561SOL    HW128142   4.665   1.143   5.869 -0.7609  1.1359  0.1028
 5561SOL    HW228143   0.010   1.144   6.000  2.8522  0.4192 -0.3778
 5562SOL     OW28144   3.413   3.421   7.409 -0.2169 -0.0562  0.0403
 5562SOL    HW128145   3.441   3.513   7.404  0.9488 -0.4923 -1.6032
 5562SOL    HW228146   3.438   3.384   7.324  1.3359 -0.5544  0.7084
 5563SOL     OW28147   2.511   0.612  10.992 -0.5233 -0.2469 -0.4315
 5563SOL    HW128148   2.460   0.545  11.038  2.8401  0.2403  4.0237
 5563SOL    HW228149   2.436   0.664  10.962  0.3749  1.5231  0.3912
 5564SOL     OW28150   1.066   0.355   0.540 -0.0352  0.2478 -0.2140
 5564SOL    HW128151   1.030   0.267   0.541 -0.9016  0.5968 -0.9226
 5564SOL    HW228152   1.005   0.400   0.482 -0.5824 -0.6497 -0.3320
 5565SOL     OW28153   2.536   1.079   7.004  0.0155  0.2201 -0.2970
 5565SOL    HW128154   2.460   1.026   7.029  1.4175 -0.8431  1.6777
 5565SOL    HW228155   2.559   1.122   7.086  1.7292 -0.8127 -0.2350
 5566SOL     OW28156   1.872   3.566   7.056 -0.5414 -0.2954 -0.2220
 5566SOL    HW128157   1.923   3.521   7.124  0.2725  1.6380  0.4443
 5566SOL    HW228158   1.918   3.647   7.034  0.5541 -1.1102 -0.9257
 5567SOL     OW28159   0.879   1.457   7.843  0.8645 -0.0086  0.1116
 5567SOL    HW128160   0.882   1.474   7.749  1.6173  3.0534  0.6986
 5567SOL    HW228161   0.815   1.385   7.844  0.6527  0.1709 -0.6539
 5568SOL     OW28162   1.086   4.085   1.335  0.4653  0.7964  0.2078
 5568SOL    HW128163   1.150   4.123   1.395 -1.6361  0.5243  2.5857
 5568SOL    HW228164   1.004   4.095   1.383 -0.5557  2.2879 -1.8411
 5569SOL     OW28165   0.146   4.282   3.530 -0.1884 -0.0595  0.5413
 5569SOL    HW128166   0.097   4.300   3.449  0.0399 -1.0233  0.1834
 5569SOL    HW228167   0.221   4.238   3.490  2.0486  1.9711  2.5736
 5570SOL     OW28168   4.298   3.222   8.127  0.4044  0.2179 -0.1338
 5570SOL    HW128169   4.248   3.234   8.047  1.3228  0.7094 -0.6398
 5570SOL    HW228170   4.278   3.132   8.152 -0.1852  1.3791  3.5760
 5571SOL     OW28171   2.084   2.272  10.831 -0.2964 -0.4478 -0.5581
 5571SOL    HW128172   2.131   2.258  10.913 -0.0540  0.8466 -0.4806
 5571SOL    HW228173   2.010   2.318  10.870  2.1853  0.0197  3.5793
 5572SOL     OW28174   1.380   1.845  10.703  0.3391  0.1432 -0.1909
 5572SOL    HW128175   1.310   1.781  10.713  1.0058 -0.4762  0.5066
 5572SOL    HW228176   1.359   1.889  10.621  2.5770 -1.3934 -1.5802
 5573SOL     OW28177   0.589   0.938   9.277 -0.5339  0.5474 -0.4836
 5573SOL    HW128178   0.659   0.953   9.214  0.7368 -2.2350  0.2366
 5573SOL    HW228179   0.575   1.030   9.298 -0.8477  1.0460 -2.9223
 5574SOL     OW28180   4.562   3.333  15.706  0.1098 -0.5133 -0.0283
 5574SOL    HW128181   4.485   3.281  15.685 -0.7521  0.7191  0.0972
 5574SOL    HW228182   4.580   3.362  15.617 -0.5735 -2.4507 -0.7858
 5575SOL     OW28183   2.817   2.413   4.409 -0.4553 -0.0686  0.6070
 5575SOL    HW128184   2.776   2.425   4.323  2.8487  1.0171 -0.8021
 5575SOL    HW228185   2.897   2.463   4.393 -0.3269  0.2015  2.0810
 5576SOL     OW28186   0.189   1.034  14.524  0.1842  0.3873 -0.0126
 5576SOL    HW128187   0.161   0.951  14.564  1.6008  0.1739  0.5378
 5576SOL    HW228188   0.121   1.085  14.566  1.2014  0.7234  1.2258
 5577SOL     OW28189   4.331   0.016   5.403 -0.1493 -0.8368  0.0035
 5577SOL    HW128190   4.424   0.037   5.391 -0.2278  0.0081  0.9174
 5577SOL    HW228191   4.286   0.097   5.427 -0.2698 -1.0017  0.3306
 5578SOL     OW28192   0.676   1.414   9.459 -0.0035  0.0839  0.1674
 5578SOL    HW128193   0.583   1.410   9.439  0.0664 -2.5944  0.3808
 5578SOL    HW228194   0.717   1.414   9.372 -0.7914  0.2049 -0.1990
 5579SOL     OW28195   3.391   3.373  13.194 -0.2639  0.0176  0.3716
 5579SOL    HW128196   3.304   3.377  13.233  0.0659 -1.7270  1.2767
 5579SOL    HW228197   3.406   3.279  13.179  0.3651  0.3269 -0.9208
 5580SOL     OW28198   4.577   0.541   3.056  0.5776 -0.4013  0.0324
 5580SOL    HW128199   4.666   0.574   3.070  0.6351 -0.4799 -0.1494
 5580SOL    HW228200   4.543   0.590   2.982  2.5869 -0.0014 -0.6402
 5581SOL     OW28201   1.315   3.919   4.029  0.3339 -0.4235  0.3645
 5581SOL    HW128202   1.230   3.909   3.986  0.5155 -0.7861  0.0924
 5581SOL    HW228203   1.298   3.968   4.110  1.9033  0.4461  0.1743
 5582SOL     OW28204   0.219   3.471   5.264  0.2582 -0.0677 -0.6227
 5582SOL    HW128205   0.140   3.419   5.280  1.3259 -1.1634  1.0138
 5582SOL    HW228206   0.252   3.444   5.349  0.2843 -1.6165 -1.1236
 5583SOL     OW28207   3.336   4.705   7.379 -0.1373 -0.1153 -0.0624
 5583SOL    HW128208   3.407   4.669   7.432 -1.5319  0.0111  1.8922
 5583SOL    HW228209   3.277   0.015   7.447  0.3253  1.4550 -0.4363
 5584SOL     OW28210   0.206   0.265  13.652  0.0379  0.1475 -0.2086
 5584SOL    HW128211   0.222   0.304  13.738  1.0933  2.0769 -1.2946
 5584SOL    HW228212   0.285   0.283  13.602  1.5687 -0.5936  1.9758
 5585SOL     OW28213   0.793   3.468   9.194 -0.9425 -0.0487  0.1257
 5585SOL    HW128214   0.762   3.381   9.170 -3.2607  0.7457  0.1904
 5585SOL    HW228215   0.876   3.453   9.238 -0.8295 -0.8524 -0.3677
 5586SOL     OW28216   0.798   1.261   4.464  0.1077 -0.0770  0.2940
 5586SOL    HW128217   0.840   1.193   4.411 -1.3192 -0.7650  0.0426
 5586SOL    HW228218   0.745   1.309   4.401  0.8686  0.2259 -0.1036
 5587SOL     OW28219   3.641   4.279   4.482  0.9568  0.4108 -0.2300
 5587SOL    HW128220   3.666   4.222   4.409  1.4600  0.9398 -0.4669
 5587SOL    HW228221   3.548   4.291   4.463  0.6784 -1.2495 -0.0096
 5588SOL     OW28222   3.754   0.129   3.982  0.2777 -0.0978 -0.4044
 5588SOL    HW128223   3.668   0.143   3.942 -0.2825 -1.0686  0.4404
 5588SOL    HW228224   3.739   0.190   4.054  0.4125 -0.1429 -0.3387
 5589SOL     OW28225   4.170   3.329   3.886 -0.4081  0.5133  0.4116
 5589SOL    HW128226   4.138   3.413   3.917 -1.4571  0.9149 -1.8234
 5589SOL    HW228227   4.245   3.333   3.946  0.4309 -0.6910 -0.5561
 5590SOL     OW28228   2.326   1.179   8.357 -0.6219  0.4206  0.0883
 5590SOL    HW128229   2.269   1.236   8.306 -1.8395 -0.6085  0.2958
 5590SOL    HW228230   2.266   1.104   8.359 -1.3252  0.9825  0.0831
 5591SOL     OW28231   2.987   0.912   3.835  0.6900 -0.1019 -0.4282
 5591SOL    HW128232   3.078   0.940   3.826  0.6775  0.5516  1.4740
 5591SOL    HW228233   2.944   0.979   3.782  0.7545 -0.4176 -0.8797
 5592SOL     OW28234   2.675   3.145  14.668 -0.1801 -0.2863  0.0350
 5592SOL    HW128235   2.705   3.129  14.758 -1.5096 -2.7910  0.0360
 5592SOL    HW228236   2.601   3.085  14.659 -0.1898 -0.1407 -0.8370
 5593SOL     OW28237   4.495   3.714   5.110  0.2764  0.1079 -0.1549
 5593SOL    HW128238   4.486   3.799   5.154 -1.1776  0.3907 -0.9923
 5593SOL    HW228239   4.575   3.683   5.154  1.2754 -0.6848 -2.5345
 5594SOL     OW28240   2.291   0.822   2.509  0.4032 -0.0447 -0.1712
 5594SOL    HW128241   2.208   0.840   2.465  0.3902  1.7708  0.5923
 5594SOL    HW228242   2.279   0.728   2.522 -2.2368  0.3334  0.2888
 5595SOL     OW28243   4.667   3.364   7.152 -0.2039 -0.1049  0.2105
 5595SOL    HW128244   0.016   3.318   7.112 -0.9481 -0.1334 -1.0981
 5595SOL    HW228245   4.594   3.305   7.136  0.2670 -0.6710  0.1587
 5596SOL     OW28246   4.364   3.003  17.414 -0.0219  0.5084  0.5342
 5596SOL    HW128247   4.301   2.958  17.471 -0.1551 -1.3388 -1.0510
 5596SOL    HW228248   4.391   3.074  17.472 -0.1142  0.9017  0.0956
 5597SOL     OW28249   3.964   1.940   2.560 -0.0265  0.0085  0.2187
 5597SOL    HW128250   3.891   1.997   2.584 -0.5305 -1.2798  1.7677
 5597SOL    HW228251   3.972   1.968   2.469 -0.7920 -1.7118 -0.3766
 5598SOL     OW28252   3.984   2.118   6.055 -0.2141  0.0875  0.6792
 5598SOL    HW128253   4.069   2.081   6.076  1.5390  1.8939 -3.1864
 5598SOL    HW228254   4.008   2.206   6.028 -0.1922  0.4196  1.7789
 5599SOL     OW28255   1.833   1.765   6.219  0.1857 -0.4076  0.6640
 5599SOL    HW128256   1.927   1.747   6.228 -0.2487 -3.9488 -1.9532
 5599SOL    HW228257   1.846   1.794   6.129 -1.8445  3.0623  1.4825
 5600SOL     OW28258   2.690   4.438  11.438 -0.3300  0.2732 -0.6662
 5600SOL    HW128259   2.728   4.351  11.426 -1.0356 -0.1311  0.0857
 5600SOL    HW228260   2.678   4.463  11.346 -2.8978  1.1616 -0.0749
 5601SOL     OW28261   2.257   1.291   6.634 -0.8081 -0.0789 -0.5257
 5601SOL    HW128262   2.228   1.348   6.705  0.1862  0.4300 -0.5276
 5601SOL    HW228263   2.268   1.203   6.671 -0.0217  0.1665 -0.1680
 5602SOL     OW28264   2.676   0.092  11.837  0.8254  0.1671  0.4307
 5602SOL    HW128265   2.712   0.006  11.816  0.5088  0.1504 -0.0293
 5602SOL    HW228266   2.605   0.077  11.899  0.6611 -1.4391 -0.1377
 5603SOL     OW28267   2.793   3.302   7.748 -0.5988  0.1798  0.0310
 5603SOL    HW128268   2.773   3.209   7.757 -0.1659  0.2282  1.4884
 5603SOL    HW228269   2.885   3.294   7.771 -0.8646 -1.4709  0.4828
 5604SOL     OW28270   1.223   4.365   2.897 -0.2792 -0.1140  0.1787
 5604SOL    HW128271   1.288   4.427   2.864  1.2600 -0.5991  2.2519
 5604SOL    HW228272   1.275   4.309   2.955 -0.5190 -0.5979 -0.0695
 5605SOL     OW28273   3.308   1.364   8.467 -0.0432  0.1303  0.4137
 5605SOL    HW128274   3.402   1.365   8.485  0.3305  1.0248 -1.5838
 5605SOL    HW228275   3.313   1.431   8.399 -0.7011  0.2624  0.4979
 5606SOL     OW28276   1.339   3.201   9.144 -0.6963  0.3066 -0.0787
 5606SOL    HW128277   1.254   3.169   9.172 -0.3098 -0.4659  0.2160
 5606SOL    HW228278   1.377   3.121   9.107 -0.1995 -0.0617  1.2391
 5607SOL     OW28279   0.674   3.424   2.035  0.0792  0.7949 -0.1983
 5607SOL    HW128280   0.767   3.421   2.057  0.0605 -2.2449 -0.5381
 5607SOL    HW228281   0.679   3.394   1.945 -0.4622 -0.4432  0.1812
 5608SOL     OW28282   4.178   2.802  17.137  0.8174  0.2236 -0.5642
 5608SOL    HW128283   4.132   2.765  17.212 -1.4692  1.9888 -1.0818
 5608SOL    HW228284   4.261   2.756  17.144  0.1677 -0.8261  0.2441
 5609SOL     OW28285   1.533   3.277  15.072 -0.4855 -0.7637  0.3418
 5609SOL    HW128286   1.606   3.236  15.118  0.7969  0.7778 -0.3332
 5609SOL    HW228287   1.507   3.200  15.020  0.5427 -0.5287 -0.5274
 5610SOL     OW28288   0.240   3.510   0.768 -0.1917 -0.3023  0.2630
 5610SOL    HW128289   0.185   3.566   0.824 -0.7512  0.0092 -0.5865
 5610SOL    HW228290   0.292   3.582   0.732  1.5209 -3.4276 -3.5158
 5611SOL     OW28291   3.677   3.402   7.655 -0.2748 -0.4957 -0.0837
 5611SOL    HW128292   3.727   3.365   7.583  1.4501  1.6708  0.0163
 5611SOL    HW228293   3.748   3.431   7.712  0.5177 -0.4056 -1.1100
 5612SOL     OW28294   2.307   3.313  11.567  0.0825 -0.1277 -0.5443
 5612SOL    HW128295   2.332   3.393  11.520 -0.5468  0.9687  0.9967
 5612SOL    HW228296   2.289   3.349  11.653  1.6298 -2.2034  0.6403
 5613SOL     OW28297   2.406   3.457   1.666 -0.3857  0.1496  0.1009
 5613SOL    HW128298   2.498   3.478   1.649 -0.2691 -1.0478 -0.7246
 5613SOL    HW228299   2.411   3.405   1.746 -0.4472  0.3420  0.2290
 5614SOL     OW28300   3.931   3.301   9.275 -0.1878 -0.7512  0.2596
 5614SOL    HW128301   3.977   3.348   9.345 -1.2788 -0.5540  0.8509
 5614SOL    HW228302   3.849   3.347   9.295  0.4971  0.0116  1.3338
 5615SOL     OW28303   4.712   1.847   7.944  0.5200 -0.0581 -0.6948
 5615SOL    HW128304   0.003   1.893   7.861  1.8958 -0.0973 -0.4761
 5615SOL    HW228305   4.675   1.906   8.010  0.5663 -0.0572 -0.6697
 5616SOL     OW28306   0.189   4.500  10.946 -0.1279 -0.5127 -0.0074
 5616SOL    HW128307   0.239   4.431  10.903  0.5600 -0.3751  0.5604
 5616SOL    HW228308   0.226   4.507  11.034  1.0622  1.7740 -0.7017
 5617SOL     OW28309   2.167   2.608   4.636  0.3153 -0.1497 -0.2475
 5617SOL    HW128310   2.145   2.575   4.549 -0.9120 -1.4880  0.5679
 5617SOL    HW228311   2.137   2.533   4.688  1.3795 -1.6142 -1.7227
 5618SOL     OW28312   0.906   4.680  14.889 -0.0641 -0.2744  0.1702
 5618SOL    HW128313   0.851   4.616  14.935  0.8686  1.3855  3.5873
 5618SOL    HW228314   0.852   4.687  14.810  0.0891  0.3133  0.1174
 5619SOL     OW28315   4.126   3.235   7.403 -0.1262 -0.1596 -0.2213
 5619SOL    HW128316   4.086   3.179   7.469 -1.3771  1.6858  0.5794
 5619SOL    HW228317   4.053   3.288   7.372  0.2716 -0.8230 -2.3277
 5620SOL     OW28318   1.667   2.798   4.685 -0.0976  0.2480 -0.2045
 5620SOL    HW128319   1.626   2.725   4.731 -0.0697  1.1731  1.2890
 5620SOL    HW228320   1.599   2.820   4.623 -1.1685 -0.2663  0.7813
 5621SOL     OW28321   4.525   3.298   6.057  0.1826  0.0016  0.0524
 5621SOL    HW128322   4.430   3.294   6.045  0.3131 -0.2161 -0.9277
 5621SOL    HW228323   4.550   3.295   5.964 -2.1100  2.1458 -0.6189
 5622SOL     OW28324   1.187   4.334  11.657  0.2121 -0.6312  0.6707
 5622SOL    HW128325   1.168   4.268  11.591 -1.9000 -0.2020  0.8585
 5622SOL    HW228326   1.250   4.275  11.700  0.2975  0.8410  2.5693
 5623SOL     OW28327   1.252   3.278   7.934  0.6077  0.1436 -0.5129
 5623SOL    HW128328   1.312   3.337   7.981  0.5316  0.1757 -0.4567
 5623SOL    HW228329   1.170   3.311   7.970  0.8677 -0.2754  0.4542
 5624SOL     OW28330   2.280   3.361   3.914  0.3581 -0.0899 -0.1963
 5624SOL    HW128331   2.337   3.292   3.879  0.8342  0.4573 -0.5036
 5624SOL    HW228332   2.332   3.436   3.886  1.4261 -0.9865 -0.6325
 5625SOL     OW28333   4.326   0.809   2.569  0.1358  0.4695 -0.9692
 5625SOL    HW128334   4.385   0.734   2.557  0.8675  0.7876  0.5840
 5625SOL    HW228335   4.320   0.804   2.665 -0.3307 -1.1173 -1.0815
 5626SOL     OW28336   4.395   2.841   3.341  0.2694 -0.4191 -0.5451
 5626SOL    HW128337   4.381   2.915   3.283  0.8649 -0.0774 -0.2510
 5626SOL    HW228338   4.309   2.811   3.369  1.4527 -2.6834  0.6850
 5627SOL     OW28339   1.244   3.759   0.849 -0.5957  0.1989  0.0170
 5627SOL    HW128340   1.277   3.690   0.906  0.9771  0.7578 -0.2221
 5627SOL    HW228341   1.274   3.837   0.896 -0.6237 -0.5239  1.2308
 5628SOL     OW28342   3.179   0.407   3.112  0.4322  0.1415  0.0059
 5628SOL    HW128343   3.245   0.386   3.046  0.6452  0.8122  0.0113
 5628SOL    HW228344   3.096   0.405   3.065 -0.9883 -1.4514  2.5406
 5629SOL     OW28345   4.253   1.304   5.546 -0.0333  0.3543  0.2995
 5629SOL    HW128346   4.313   1.328   5.616 -0.4248 -1.1096  1.1267
 5629SOL    HW228347   4.230   1.391   5.513  0.1545  0.1821 -0.2953
 5630SOL     OW28348   1.406   0.989  14.051 -0.5675 -0.5181  0.0389
 5630SOL    HW128349   1.343   0.951  13.990 -0.4161 -0.6878 -0.0136
 5630SOL    HW228350   1.340   1.041  14.096  0.9099  2.8877 -1.7539
 5631SOL     OW28351   0.356   3.707   5.207  0.2363  0.7490  0.1116
 5631SOL    HW128352   0.428   3.667   5.256  1.1396  1.3708 -0.7041
 5631SOL    HW228353   0.295   3.635   5.187 -0.1833  0.5823  2.0336
 5632SOL     OW28354   1.059   4.318   3.207 -0.4833  0.5202  0.1704
 5632SOL    HW128355   0.970   4.329   3.241 -0.8090  1.6239 -1.0198
 5632SOL    HW228356   1.111   4.331   3.286 -3.1503  1.2850  1.7954
 5633SOL     OW28357   4.535   2.836   1.766  0.5453  0.4052 -0.8483
 5633SOL    HW128358   4.608   2.898   1.753  2.7146 -2.2465 -1.3727
 5633SOL    HW228359   4.584   2.761   1.800 -0.2385 -0.4039 -1.5231
 5634SOL     OW28360   1.623   3.555  17.643  0.1069 -0.1371 -0.4482
 5634SOL    HW128361   1.671   3.473  17.629  0.9580  0.4711 -1.1173
 5634SOL    HW228362   1.681   3.629  17.626  1.5185 -0.6832  2.0896
 5635SOL     OW28363   2.018   2.748  12.124  0.1107  0.3867  0.0900
 5635SOL    HW128364   2.009   2.812  12.194  2.6738  0.0738  0.6964
 5635SOL    HW228365   2.088   2.789  12.073  0.4275 -1.2054 -0.7513
 5636SOL     OW28366   0.042   3.581   0.394 -0.7300 -0.7550  0.1138
 5636SOL    HW128367   4.718   3.628   0.326 -1.5316 -0.4030  0.9139
 5636SOL    HW228368   4.696   3.527   0.432 -0.9681 -1.0487 -0.7404
 5637SOL     OW28369   4.015   2.148   8.126  0.0878  0.2356 -0.6013
 5637SOL    HW128370   4.041   2.184   8.041 -2.1271 -2.9044 -2.6199
 5637SOL    HW228371   4.073   2.076   8.149  0.5417 -0.2286 -3.1074
 5638SOL     OW28372   1.598   0.840   7.976  0.7517  0.2693 -0.1475
 5638SOL    HW128373   1.591   0.872   7.886  0.9649  0.8614  0.0473
 5638SOL    HW228374   1.575   0.919   8.024 -0.1371 -0.0936  0.0205
 5639SOL     OW28375   4.127   3.748   3.823 -0.1512 -0.3438  0.3171
 5639SOL    HW128376   4.067   3.800   3.878  0.0463  1.0696 -0.7986
 5639SOL    HW228377   4.064   3.708   3.763 -0.6429 -1.0373  1.3018
 5640SOL     OW28378   3.510   0.243   2.054 -0.3495  0.6538  0.2954
 5640SOL    HW128379   3.422   0.279   2.054  0.2990  2.2673 -0.8990
 5640SOL    HW228380   3.543   0.256   1.965  0.9039 -5.0202 -0.1195
 5641SOL     OW28381   2.321   4.120   4.501 -0.1341  0.3679  0.1435
 5641SOL    HW128382   2.371   4.090   4.576  0.2440  1.4345  0.3190
 5641SOL    HW228383   2.377   4.103   4.426 -0.4647  1.0368 -0.2627
 5642SOL     OW28384   0.532   1.102   2.149 -0.3620  0.0198 -0.1607
 5642SOL    HW128385   0.504   1.092   2.058 -1.0173  2.0447 -0.1797
 5642SOL    HW228386   0.616   1.056   2.159 -0.7413 -0.3592  1.2971
 5643SOL     OW28387   3.297   2.979   5.598  0.3065  0.2500  0.3341
 5643SOL    HW128388   3.377   2.928   5.614  0.3605 -0.1806 -1.2841
 5643SOL    HW228389   3.315   2.998   5.506 -0.6255 -1.6356 -0.2413
 5644SOL     OW28390   2.931   4.434   4.057  0.5570  0.1150 -0.1776
 5644SOL    HW128391   2.877   4.508   4.027 -1.3186 -1.8678 -1.6656
 5644SOL    HW228392   2.899   4.367   3.996 -0.3608  0.8397 -0.4927
 5645SOL     OW28393   3.752   3.640   8.777 -0.1495 -0.0905  0.0161
 5645SOL    HW128394   3.696   3.697   8.830 -2.2877 -0.5023 -1.8159
 5645SOL    HW228395   3.770   3.570   8.840 -1.5510 -0.5198 -0.0670
 5646SOL     OW28396   0.965   1.706  15.762 -0.7665 -0.1120  0.1199
 5646SOL    HW128397   0.924   1.639  15.817 -1.2430  0.5210  0.5396
 5646SOL    HW228398   0.962   1.664  15.676 -0.8541 -0.0777  0.1055
 5647SOL     OW28399   1.836   1.466   3.769  0.2179  0.0415 -0.3564
 5647SOL    HW128400   1.877   1.534   3.716  0.9197 -0.2854 -0.2400
 5647SOL    HW228401   1.754   1.461   3.721  1.3332  0.6423 -2.3037
 5648SOL     OW28402   0.137   3.321   3.323 -0.1656  0.0339 -0.4341
 5648SOL    HW128403   0.167   3.234   3.299 -2.0610 -0.6525 -0.3520
 5648SOL    HW228404   0.223   3.357   3.341 -0.2338 -0.5901  1.1471
 5649SOL     OW28405   4.504   3.088   2.906 -0.7412 -1.0748  0.3814
 5649SOL    HW128406   4.489   3.017   2.844  0.9508 -1.6697  0.6360
 5649SOL    HW228407   4.486   3.171   2.863  0.2474 -1.8151 -1.5049
 5650SOL     OW28408   4.274   1.646   6.243  0.4484 -0.4315 -0.2002
 5650SOL    HW128409   4.301   1.707   6.311  1.6770  0.6905 -1.6927
 5650SOL    HW228410   4.301   1.694   6.165  1.5389  0.1092  0.5144
 5651SOL     OW28411   0.235   4.681   6.934  0.6513 -0.0882 -0.3884
 5651SOL    HW128412   0.286   4.639   7.004  0.1331  0.3023  0.2157
 5651SOL    HW228413   0.309   0.012   6.905  0.4462  0.6672  0.5389
 5652SOL     OW28414   2.716   4.113  12.235  0.5448  0.2975  0.3065
 5652SOL    HW128415   2.751   4.118  12.146 -1.3109  0.1767 -0.4297
 5652SOL    HW228416   2.778   4.047  12.267  1.2078  0.7901  0.0230
 5653SOL     OW28417   2.453   4.260   2.896  0.1438 -0.0433  0.0224
 5653SOL    HW128418   2.497   4.345   2.895  1.8254 -0.9134  0.5918
 5653SOL    HW228419   2.442   4.244   2.990 -2.9317  0.8098 -0.1774
 5654SOL     OW28420   2.846   3.931   3.317  0.4102  0.1306 -0.4744
 5654SOL    HW128421   2.785   3.997   3.348 -0.8277 -0.4990 -1.6082
 5654SOL    HW228422   2.823   3.928   3.225 -2.8115  1.3625  0.3046
 5655SOL     OW28423   4.132   0.501   8.131 -0.0300  0.4185  0.5594
 5655SOL    HW128424   4.097   0.546   8.054  2.7894  2.2344  0.3398
 5655SOL    HW228425   4.044   0.486   8.167 -0.6727  0.8880 -0.8443
 5656SOL     OW28426   2.418   0.780   8.501  0.0332 -0.2778 -0.2432
 5656SOL    HW128427   2.342   0.723   8.511  1.5188 -2.0675  0.8437
 5656SOL    HW228428   2.476   0.728   8.445 -0.3517 -1.2812  0.2886
 5657SOL     OW28429   2.851   0.491   4.013  0.1282 -0.2422  0.3518
 5657SOL    HW128430   2.763   0.520   4.038  0.2485  2.2797 -2.1869
 5657SOL    HW228431   2.868   0.545   3.936 -1.1121 -1.5375 -0.8250
 5658SOL     OW28432   1.316   1.655   9.303  0.1724 -0.0405  0.3795
 5658SOL    HW128433   1.310   1.655   9.208  1.1501 -0.7198  0.3146
 5658SOL    HW228434   1.390   1.714   9.322  0.1246 -0.1524  0.9321
 5659SOL     OW28435   0.208   4.137   6.591 -0.0406  0.3334 -0.1726
 5659SOL    HW128436   0.218   4.142   6.496 -2.5434  1.8230 -0.3568
 5659SOL    HW228437   0.184   4.046   6.606 -0.3388  0.3905 -0.2946
 5660SOL     OW28438   3.833   1.587   4.975 -0.0549  0.5220 -0.0434
 5660SOL    HW128439   3.798   1.632   4.898  0.8429  1.6293  0.2032
 5660SOL    HW228440   3.769   1.614   5.041  1.6649  4.3528  0.0687
 5661SOL     OW28441   4.187   1.690   4.008  0.0433  0.7327  0.7090
 5661SOL    HW128442   4.166   1.622   4.072  0.8106 -0.5723 -0.4163
 5661SOL    HW228443   4.283   1.683   4.004  0.0899  1.5086  0.4104
 5662SOL     OW28444   1.479   2.417  16.342  0.3918  0.3063 -0.1020
 5662SOL    HW128445   1.454   2.453  16.428  1.2594 -0.9263  0.6684
 5662SOL    HW228446   1.486   2.500  16.295  0.7910  0.3338  0.0041
 5663SOL     OW28447   0.214   2.389   4.343  0.1742 -0.0332 -0.2780
 5663SOL    HW128448   0.172   2.346   4.269  0.5359 -2.1259  0.7216
 5663SOL    HW228449   0.178   2.477   4.333  2.3675  0.9364  0.4271
 5664SOL     OW28450   3.712   0.121   5.447  0.5973  0.6886 -0.5966
 5664SOL    HW128451   3.660   0.194   5.414 -1.4888  0.2598  1.6986
 5664SOL    HW228452   3.667   0.093   5.527 -0.5586  2.3590 -0.6577
 5665SOL     OW28453   4.446   1.735   0.227  0.4010 -0.4484  0.1083
 5665SOL    HW128454   4.376   1.706   0.168 -0.6765  0.2583  1.0413
 5665SOL    HW228455   4.507   1.760   0.159  0.6681  0.7480  0.7905
 5666SOL     OW28456   1.733   1.881   4.054  0.1346 -0.2162 -0.0783
 5666SOL    HW128457   1.647   1.857   4.021 -0.2964  1.6380 -0.3227
 5666SOL    HW228458   1.708   1.923   4.136 -1.7355 -0.7423 -0.3700
 5667SOL     OW28459   4.151   2.754  11.479  0.2408  0.4516 -0.3134
 5667SOL    HW128460   4.173   2.843  11.508  0.2577  0.0021  1.0664
 5667SOL    HW228461   4.225   2.709  11.518  0.4222 -0.4139 -1.6594
 5668SOL     OW28462   4.289   3.656   7.392  0.5201  0.3773  0.3698
 5668SOL    HW128463   4.342   3.736   7.390  0.4559  0.3058 -4.2953
 5668SOL    HW228464   4.358   3.591   7.400  0.4068  0.2622  0.4078
 5669SOL     OW28465   4.211   3.025  16.235  0.7674 -0.9546  0.2248
 5669SOL    HW128466   4.136   3.080  16.215  1.4117 -0.8937 -2.0041
 5669SOL    HW228467   4.275   3.084  16.274 -0.4513 -0.4193  1.3880
 5670SOL     OW28468   1.510   4.519   6.041  0.4976 -0.3072 -0.4454
 5670SOL    HW128469   1.436   4.579   6.044  0.3676 -0.4783 -0.2277
 5670SOL    HW228470   1.580   4.579   6.015  0.1485  0.3160  0.0568
 5671SOL     OW28471   1.021   2.929   6.327  0.5338  0.2800  0.4632
 5671SOL    HW128472   0.965   2.987   6.379  0.9719  1.5470 -0.4716
 5671SOL    HW228473   1.089   2.924   6.394 -0.6949  0.1647  1.7001
 5672SOL     OW28474   1.996   1.169  11.880  0.3892  0.0149 -0.5132
 5672SOL    HW128475   1.946   1.088  11.888 -0.6433  0.6750 -0.3168
 5672SOL    HW228476   2.050   1.184  11.957 -0.3219  1.3958 -0.2711
 5673SOL     OW28477   3.476   4.017   2.098  0.1439 -0.5946 -0.4962
 5673SOL    HW128478   3.438   4.073   2.165  2.3081  0.8828 -0.4848
 5673SOL    HW228479   3.532   3.961   2.153 -0.9067  1.1875  2.3709
 5674SOL     OW28480   2.238   3.136   6.768 -0.3208  0.1227  0.0338
 5674SOL    HW128481   2.179   3.199   6.809  0.0278  0.5022 -0.0560
 5674SOL    HW228482   2.277   3.083   6.838  0.0444  0.0197 -0.2493
 5675SOL     OW28483   3.575   1.243   9.130 -0.3082 -0.1780 -0.2937
 5675SOL    HW128484   3.503   1.200   9.176 -0.4606  0.7621  0.3419
 5675SOL    HW228485   3.536   1.330   9.123 -0.1988 -0.2812 -2.3776
 5676SOL     OW28486   2.495   1.301   2.201  0.0626 -1.0287 -0.0104
 5676SOL    HW128487   2.429   1.269   2.263 -0.8606 -2.0452 -1.5291
 5676SOL    HW228488   2.434   1.356   2.150  1.3948 -0.4341 -0.9658
 5677SOL     OW28489   2.755   2.105   7.149 -0.0261 -0.2069 -0.3954
 5677SOL    HW128490   2.674   2.146   7.118  0.5736 -0.8118 -2.7052
 5677SOL    HW228491   2.732   2.070   7.236 -0.9727  2.1964  0.3183
 5678SOL     OW28492   3.188   0.037  17.233  0.1245  0.7354  0.0253
 5678SOL    HW128493   3.273   0.051  17.192  1.2615 -0.5795  1.9038
 5678SOL    HW228494   3.181   0.127  17.265  1.9390 -0.3549  3.5140
 5679SOL     OW28495   0.794   2.266   6.661 -0.4222  0.7615  0.0291
 5679SOL    HW128496   0.828   2.258   6.572 -0.4163  1.2071 -0.0073
 5679SOL    HW228497   0.858   2.205   6.698 -0.3559  0.9967  0.3034
 5680SOL     OW28498   3.767   1.452  15.352  0.1689 -0.5048  0.3274
 5680SOL    HW128499   3.701   1.382  15.353  0.0400 -0.3858  0.2265
 5680SOL    HW228500   3.728   1.496  15.427  0.8382  1.6618 -0.6001
 5681SOL     OW28501   3.251   0.093   4.220 -0.3854  0.4155  0.4886
 5681SOL    HW128502   3.159   0.067   4.225 -0.2670  0.0577  0.7984
 5681SOL    HW228503   3.239   0.167   4.161 -0.1475 -0.6966 -0.9716
 5682SOL     OW28504   1.502   3.341   9.351  0.2196  0.1231  0.6971
 5682SOL    HW128505   1.457   3.303   9.275 -0.0655 -2.4456  2.1554
 5682SOL    HW228506   1.518   3.429   9.316  0.6774 -1.0854 -2.1816
 5683SOL     OW28507   2.962   1.344  11.921 -0.4659 -1.2265 -0.1274
 5683SOL    HW128508   3.033   1.289  11.956 -0.2795 -1.4137 -0.7966
 5683SOL    HW228509   2.933   1.279  11.857 -0.4060  0.1093 -1.5077
 5684SOL     OW28510   3.136   3.631   8.669 -0.3240 -0.1767  0.2252
 5684SOL    HW128511   3.122   3.659   8.579 -1.5130  1.3052  0.8645
 5684SOL    HW228512   3.223   3.668   8.683 -1.0266  0.8816  1.7648
 5685SOL     OW28513   3.550   4.241   3.139  0.0519  0.2352 -0.1112
 5685SOL    HW128514   3.468   4.258   3.093 -0.3671 -0.1107  0.5078
 5685SOL    HW228515   3.557   4.308   3.207  0.4792 -1.1754  1.2424
 5686SOL     OW28516   0.203   0.665   7.222  0.5262  0.1818 -0.5860
 5686SOL    HW128517   0.147   0.672   7.145  2.2842  0.7506 -1.7978
 5686SOL    HW228518   0.172   0.741   7.271  0.0193  0.1082 -0.7907
 5687SOL     OW28519   1.597   2.766   5.352  0.5014 -0.4661 -0.3192
 5687SOL    HW128520   1.552   2.766   5.436 -1.1754 -2.8518 -1.2047
 5687SOL    HW228521   1.678   2.815   5.362  0.3087 -0.0233 -0.9141
 5688SOL     OW28522   3.828   1.897  13.227 -0.2402  0.1172  0.4634
 5688SOL    HW128523   3.894   1.911  13.295 -1.6076  1.7448  1.4732
 5688SOL    HW228524   3.756   1.873  13.285 -1.7060  0.2590 -1.3093
 5689SOL     OW28525   3.618   0.438   6.395  0.7342  0.1738  0.0556
 5689SOL    HW128526   3.644   0.346   6.388 -0.5452 -0.4136  2.6328
 5689SOL    HW228527   3.672   0.480   6.329 -0.5997  2.8125  0.6308
 5690SOL     OW28528   2.011   0.867   9.283  0.1096 -0.2069 -0.2351
 5690SOL    HW128529   2.106   0.864   9.292  0.3897 -2.8216 -3.8671
 5690SOL    HW228530   1.993   0.913   9.365  0.6370  1.0923 -0.8575
 5691SOL     OW28531   1.706   2.387  11.737 -0.0897 -0.9130 -0.0374
 5691SOL    HW128532   1.684   2.321  11.803 -0.3659 -0.9023 -0.1214
 5691SOL    HW228533   1.621   2.428  11.722 -0.7268 -1.5246  1.8317
 5692SOL     OW28534   1.885   1.150   4.417  0.3261 -0.3232  0.0631
 5692SOL    HW128535   1.899   1.154   4.322  1.0300 -0.6241  0.1521
 5692SOL    HW228536   1.944   1.081   4.446 -1.1070 -1.6286 -0.0844
 5693SOL     OW28537   1.543   0.280   3.821 -0.1309 -0.0049 -0.1092
 5693SOL    HW128538   1.551   0.337   3.746  0.7856 -1.7210 -1.3249
 5693SOL    HW228539   1.563   0.195   3.781  1.6558  1.0534 -1.4144
 5694SOL     OW28540   0.795   3.630   3.627 -0.3572  0.0499  0.5083
 5694SOL    HW128541   0.734   3.556   3.627 -0.8162  0.4278 -0.3197
 5694SOL    HW228542   0.849   3.608   3.702  0.4821  0.4267  0.0165
 5695SOL     OW28543   4.288   1.672   1.439 -0.5786  0.8052  0.1380
 5695SOL    HW128544   4.370   1.622   1.442 -2.0441 -1.7411 -1.6328
 5695SOL    HW228545   4.259   1.652   1.350  0.6871 -1.9738  0.3452
 5696SOL     OW28546   3.178   4.365  17.636 -0.2438  0.1737  0.0276
 5696SOL    HW128547   3.101   4.415  17.662  1.2506  1.6940  1.4592
 5696SOL    HW228548   3.218   4.408  17.560 -0.9454  0.7314 -0.0227
 5697SOL     OW28549   1.797   3.320   2.054 -0.1570  0.3372 -0.0422
 5697SOL    HW128550   1.707   3.288   2.052 -0.1783  0.2508  2.2275
 5697SOL    HW228551   1.793   3.375   2.132 -1.7489  0.3321 -0.1232
 5698SOL     OW28552   3.657   3.959   6.404 -0.5098  0.9192  0.8138
 5698SOL    HW128553   3.736   3.910   6.381 -2.1546 -1.0296 -0.6893
 5698SOL    HW228554   3.589   3.897   6.378 -0.4536  0.2655  2.1925
 5699SOL     OW28555   0.844   0.954   3.407  0.1626 -0.3897 -0.0307
 5699SOL    HW128556   0.806   0.968   3.494  1.9368 -0.7503  0.7872
 5699SOL    HW228557   0.855   0.859   3.410  2.0791 -0.0926  2.0068
 5700SOL     OW28558   3.291   0.696   3.809 -0.3681  0.9748  0.3756
 5700SOL    HW128559   3.251   0.655   3.886  0.0549 -0.6187 -0.2567
 5700SOL    HW228560   3.363   0.635   3.791 -1.2836  0.1965 -0.6120
 5701SOL     OW28561   2.364   3.277   7.093 -0.2616  0.3502 -0.1332
 5701SOL    HW128562   2.291   3.230   7.133  1.6604 -1.7892  0.9003
 5701SOL    HW228563   2.335   3.367   7.084 -0.8750  0.3076  1.2780
 5702SOL     OW28564   4.668   2.607   1.908 -0.3113 -0.2026 -0.0188
 5702SOL    HW128565   0.032   2.568   1.901  0.5482  1.7268  0.2209
 5702SOL    HW228566   4.621   2.540   1.857 -2.3910 -0.8875  2.7498
 5703SOL     OW28567   2.885   3.355  17.254  0.1084 -0.1121  0.1160
 5703SOL    HW128568   2.843   3.270  17.239  2.7343 -2.1144  4.1605
 5703SOL    HW228569   2.805   3.405  17.270 -0.6444 -1.6485  1.0834
 5704SOL     OW28570   0.208   3.269   2.185 -0.4365  0.5038 -0.5430
 5704SOL    HW128571   0.231   3.177   2.198  0.5232  0.9777  1.1596
 5704SOL    HW228572   0.299   3.294   2.167 -0.3500  1.4276  1.2174
 5705SOL     OW28573   2.233   2.095   1.619 -0.7661 -0.8472  0.1061
 5705SOL    HW128574   2.286   2.027   1.576 -0.1735 -0.4094  0.1393
 5705SOL    HW228575   2.179   2.123   1.545 -1.2088 -1.2823  0.2656
 5706SOL     OW28576   1.840   3.194  13.368  0.4491 -0.2397  0.1803
 5706SOL    HW128577   1.927   3.178  13.331  1.3088  1.3791  1.4416
 5706SOL    HW228578   1.865   3.219  13.458  3.6817  0.6729 -0.9481
 5707SOL     OW28579   3.330   0.790  12.997  0.3611 -0.2929  0.2679
 5707SOL    HW128580   3.288   0.859  13.048 -2.4935 -2.2146  0.5782
 5707SOL    HW228581   3.263   0.723  13.015 -2.7131  1.1922 -5.4475
 5708SOL     OW28582   0.380   0.422   1.703 -0.2287 -0.5561 -0.2423
 5708SOL    HW128583   0.445   0.483   1.739 -1.2838 -0.1095  0.9155
 5708SOL    HW228584   0.435   0.344   1.693  0.9403  0.1578  0.4769
 5709SOL     OW28585   3.438   0.667   0.914 -0.1021 -0.3151  0.2428
 5709SOL    HW128586   3.383   0.642   0.988 -0.9272  1.5576  0.2818
 5709SOL    HW228587   3.457   0.579   0.881 -1.0274 -0.5398  0.3180
 5710SOL     OW28588   0.555   3.854   3.758  0.1317  0.5478  0.0884
 5710SOL    HW128589   0.527   3.874   3.848 -3.2689  0.0160 -0.8700
 5710SOL    HW228590   0.470   3.865   3.715  0.5374  1.1787 -0.5470
 5711SOL     OW28591   4.471   1.847   9.093  0.5846  0.3929 -0.1134
 5711SOL    HW128592   4.480   1.931   9.049  1.1378 -0.3275 -1.3815
 5711SOL    HW228593   4.467   1.793   9.014  0.8133  2.8702 -1.7880
 5712SOL     OW28594   0.410   3.259   6.466 -0.1086 -0.4223 -0.3865
 5712SOL    HW128595   0.447   3.277   6.380  1.9691 -0.1592  0.5687
 5712SOL    HW228596   0.478   3.198   6.495  0.5860 -0.4133 -2.0004
 5713SOL     OW28597   1.984   2.919  12.331  0.4675 -0.2775  0.1422
 5713SOL    HW128598   2.029   2.907  12.415 -0.6651 -1.2069  0.6068
 5713SOL    HW228599   1.906   2.869  12.355 -1.0318  1.8571 -0.3163
 5714SOL     OW28600   2.478   2.838   2.248 -0.1553  0.0535 -0.0096
 5714SOL    HW128601   2.425   2.876   2.318 -0.2489 -2.4604  1.2753
 5714SOL    HW228602   2.436   2.866   2.167  2.6558  3.2406 -0.3627
 5715SOL     OW28603   2.870   0.899   3.502  0.2054  0.1083  0.3415
 5715SOL    HW128604   2.937   0.952   3.459  1.4000 -0.5710  1.3949
 5715SOL    HW228605   2.910   0.813   3.494  2.1061  1.0575 -0.2431
 5716SOL     OW28606   0.196   1.853  16.120 -0.6628 -0.0298  0.3412
 5716SOL    HW128607   0.231   1.810  16.042  0.7736  0.4390  0.7185
 5716SOL    HW228608   0.207   1.946  16.102  3.1355 -0.6897 -0.9196
 5717SOL     OW28609   0.994   3.669   4.473  0.1696  0.1952  0.3549
 5717SOL    HW128610   1.022   3.732   4.539  1.4305  0.2637 -0.2565
 5717SOL    HW228611   0.918   3.638   4.523  0.0744 -0.2726 -0.0800
 5718SOL     OW28612   3.817   2.698   0.577  0.6011 -0.0777  0.4400
 5718SOL    HW128613   3.750   2.761   0.603  1.3388  1.3063 -1.0503
 5718SOL    HW228614   3.761   2.659   0.509  1.5139  0.0866 -0.4029
 5719SOL     OW28615   4.537   1.769   1.236 -0.2806  0.4013  0.4997
 5719SOL    HW128616   4.610   1.719   1.200 -1.1875  1.0265 -2.1986
 5719SOL    HW228617   4.467   1.725   1.187  0.9674  1.0812 -1.8881
 5720SOL     OW28618   1.757   3.053   8.967 -0.3006 -0.1933 -0.4778
 5720SOL    HW128619   1.770   3.026   9.058  1.1902  0.1875 -0.5766
 5720SOL    HW228620   1.829   3.111   8.944  0.5469  0.3284  3.5007
 5721SOL     OW28621   4.497   0.577   2.492  0.0492 -0.2599  0.1329
 5721SOL    HW128622   4.447   0.570   2.411  1.5775 -3.5924 -0.5509
 5721SOL    HW228623   4.574   0.614   2.449 -0.6566  0.2733 -0.6763
 5722SOL     OW28624   1.292   0.896   5.855  0.0598  0.1243  0.6258
 5722SOL    HW128625   1.200   0.894   5.881 -0.2431  0.4894 -0.3956
 5722SOL    HW228626   1.286   0.827   5.788  0.6492  0.8229 -0.1515
 5723SOL     OW28627   2.022   0.605   4.699 -0.1225  0.1833  0.7630
 5723SOL    HW128628   2.041   0.548   4.624  4.2687  0.5789  1.5751
 5723SOL    HW228629   2.090   0.670   4.679  1.9383 -1.6710  1.6521
 5724SOL     OW28630   1.588   3.937   5.254 -0.3445 -0.0932 -0.3635
 5724SOL    HW128631   1.538   3.858   5.232  2.8256 -1.1393 -3.7333
 5724SOL    HW228632   1.623   3.913   5.339 -1.4273  0.4580  0.2296
 5725SOL     OW28633   3.545   2.840   8.572 -0.1758  0.5837  0.7298
 5725SOL    HW128634   3.627   2.890   8.573 -0.1207  0.5142 -0.5612
 5725SOL    HW228635   3.498   2.883   8.502  0.4373 -0.1674 -0.1558
 5726SOL     OW28636   4.013   0.985   5.934 -0.0863 -0.2275  0.1319
 5726SOL    HW128637   3.993   1.076   5.913  0.4229 -0.0738  0.2909
 5726SOL    HW228638   4.093   0.999   5.985 -0.4655  2.0815  0.0766
 5727SOL     OW28639   1.396   2.312  16.032  0.3896  0.2641 -0.1124
 5727SOL    HW128640   1.435   2.343  16.113 -0.7390  1.1280  0.0928
 5727SOL    HW228641   1.470   2.318  15.970  0.7156  2.1300  0.4786
 5728SOL     OW28642   3.080   1.439   3.816 -0.1757 -0.4646 -0.0609
 5728SOL    HW128643   3.048   1.526   3.840 -1.1889 -0.5611 -1.0489
 5728SOL    HW228644   3.175   1.453   3.820 -0.5090  1.3978  1.2819
 5729SOL     OW28645   2.102   2.175   3.120 -0.6517 -0.5049 -0.2393
 5729SOL    HW128646   2.184   2.166   3.169 -1.2425  0.6982  0.9547
 5729SOL    HW228647   2.091   2.270   3.125  1.6789 -0.2804  0.8739
 5730SOL     OW28648   1.533   3.046   5.708 -0.5405 -0.3421 -0.6998
 5730SOL    HW128649   1.449   3.091   5.713  0.9644  2.2515  1.1939
 5730SOL    HW228650   1.566   3.076   5.623  0.1670 -1.2258 -0.7435
 5731SOL     OW28651   1.437   4.620  14.474  0.1754 -0.1878 -0.3633
 5731SOL    HW128652   1.503   4.592  14.411  1.4983 -0.8571  1.3314
 5731SOL    HW228653   1.491   4.684  14.521  0.1546 -0.3562 -0.1092
 5732SOL     OW28654   3.351   1.759   4.789 -0.1223  0.0726 -0.3929
 5732SOL    HW128655   3.340   1.756   4.694  0.3917 -0.3162 -0.4400
 5732SOL    HW228656   3.389   1.847   4.793 -0.3157  0.1299  0.1756
 5733SOL     OW28657   4.556   1.292   2.843 -0.4948 -0.6172  0.0916
 5733SOL    HW128658   4.472   1.334   2.864 -0.1722  1.0552 -1.9808
 5733SOL    HW228659   4.615   1.362   2.816  3.0114 -2.2022  3.6730
 5734SOL     OW28660   2.395   0.520   2.535 -0.1833  0.1692 -0.2739
 5734SOL    HW128661   2.470   0.488   2.485 -0.2386 -0.6636  0.1618
 5734SOL    HW228662   2.447   0.533   2.614 -0.7051  0.1046  0.0789
 5735SOL     OW28663   4.244   0.419   5.890 -0.0144 -0.2586 -0.5669
 5735SOL    HW128664   4.207   0.482   5.828 -0.2166 -0.1449 -0.3290
 5735SOL    HW228665   4.253   0.345   5.830 -1.8374  0.5495 -1.8329
 5736SOL     OW28666   0.064   3.472   4.347 -0.0254 -0.1112 -0.4897
 5736SOL    HW128667   4.713   3.510   4.393  0.0535 -3.2590  2.2443
 5736SOL    HW228668   0.019   3.412   4.287  0.6154 -0.8517 -0.2317
 5737SOL     OW28669   2.539   0.369   4.011 -0.0512 -0.5769  0.3266
 5737SOL    HW128670   2.524   0.310   3.938  1.3954 -1.0678  0.4405
 5737SOL    HW228671   2.452   0.381   4.050 -0.4584  2.0674 -1.3742
 5738SOL     OW28672   0.584   0.183   6.111 -0.1312  0.2548 -0.3096
 5738SOL    HW128673   0.494   0.192   6.080  0.3848  0.6329 -1.6743
 5738SOL    HW228674   0.645   0.193   6.038  0.7853  2.9811  0.8165
 5739SOL     OW28675   3.202   2.722   1.945  0.2351  0.6193  0.5694
 5739SOL    HW128676   3.154   2.766   2.015 -1.3271 -0.5317  0.2153
 5739SOL    HW228677   3.217   2.804   1.896  0.0150  0.0884 -0.3911
 5740SOL     OW28678   0.662   3.563   5.057  0.3026  0.5980  0.1342
 5740SOL    HW128679   0.726   3.497   5.031  0.8851  0.5523  1.7111
 5740SOL    HW228680   0.658   3.550   5.152  1.5569 -0.1065  0.0917
 5741SOL     OW28681   2.273   1.200   3.011  0.2127 -0.0124  0.0228
 5741SOL    HW128682   2.179   1.197   3.026 -0.0727 -0.3802 -1.8222
 5741SOL    HW228683   2.314   1.169   3.092  1.1480 -0.7719 -0.7358
 5742SOL     OW28684   2.120   0.600   1.735 -0.0675 -0.0223  0.1331
 5742SOL    HW128685   2.143   0.529   1.797 -0.0373  0.0441  0.1982
 5742SOL    HW228686   2.046   0.567   1.685  2.9221 -0.0199 -4.2822
 5743SOL     OW28687   2.570   3.979   9.894  0.3415 -0.1331  0.1193
 5743SOL    HW128688   2.635   4.029   9.944 -1.0593  0.9288  0.8671
 5743SOL    HW228689   2.518   3.946   9.967  1.1766 -1.8241 -0.0430
 5744SOL     OW28690   0.264   3.644   3.916 -0.3148  0.7624  0.6057
 5744SOL    HW128691   0.273   3.577   3.983  0.6327 -1.3205 -1.6333
 5744SOL    HW228692   0.352   3.659   3.882 -0.0926 -1.8673  0.0433
 5745SOL     OW28693   3.241   1.612   3.004 -0.2483 -0.4672  0.1876
 5745SOL    HW128694   3.189   1.642   3.079  2.8337 -1.9674  2.9303
 5745SOL    HW228695   3.326   1.584   3.039 -0.4869 -0.3077  0.9007
 5746SOL     OW28696   3.681   2.517   4.577 -0.0480  0.0008  0.2726
 5746SOL    HW128697   3.688   2.432   4.534 -1.7430  0.4135 -0.8312
 5746SOL    HW228698   3.770   2.550   4.586 -0.7406  1.3418  2.5247
 5747SOL     OW28699   2.164   3.680   7.310  0.5165  0.1577 -0.3191
 5747SOL    HW128700   2.105   3.604   7.309 -0.0447  0.6025 -2.1366
 5747SOL    HW228701   2.108   3.758   7.313 -1.1833 -1.0744  0.2897
 5748SOL     OW28702   3.397   1.058   7.732 -0.4367  0.2680 -0.0953
 5748SOL    HW128703   3.391   1.121   7.804 -2.1746  0.3719 -0.3267
 5748SOL    HW228704   3.389   1.115   7.655  1.0666 -1.6706 -1.6669
 5749SOL     OW28705   0.482   1.669  12.225  0.5966 -0.2183 -0.7124
 5749SOL    HW128706   0.420   1.704  12.161 -1.0335 -2.5467 -0.4211
 5749SOL    HW228707   0.559   1.725  12.218  1.8323 -1.8092  0.3330
 5750SOL     OW28708   2.529   0.201  16.710 -0.2150  0.2629 -0.0985
 5750SOL    HW128709   2.510   0.152  16.790  1.4505 -0.3439 -0.0713
 5750SOL    HW228710   2.592   0.142  16.669  0.3337 -0.1319  1.3160
 5751SOL     OW28711   3.189   3.922   5.343  0.4881 -0.2113  0.0238
 5751SOL    HW128712   3.174   3.981   5.269  1.3511  1.7883  1.4699
 5751SOL    HW228713   3.204   3.847   5.285 -0.5117 -1.9079  1.9735
 5752SOL     OW28714   0.103   1.536   7.855 -0.2020  0.2248  0.2928
 5752SOL    HW128715   0.011   1.556   7.842  0.5279  2.9134 -0.7087
 5752SOL    HW228716   0.111   1.475   7.782  0.7470  1.0005 -0.2626
 5753SOL     OW28717   0.847   0.922   7.046 -0.0476  0.3222  0.2998
 5753SOL    HW128718   0.916   0.928   6.979 -1.3630  0.3323 -1.0581
 5753SOL    HW228719   0.885   0.938   7.132  0.3161  0.2434  0.1532
 5754SOL     OW28720   1.372   2.397   0.537 -0.2661 -0.4396 -0.3428
 5754SOL    HW128721   1.422   2.478   0.530 -1.4608  0.2844 -0.5992
 5754SOL    HW228722   1.402   2.365   0.622 -2.1828  1.6507  1.1289
 5755SOL     OW28723   1.897   1.731   7.971  0.4117  0.1949  0.0182
 5755SOL    HW128724   1.863   1.642   7.976  0.4157  0.2072  0.2525
 5755SOL    HW228725   1.837   1.771   8.034 -0.3437 -2.9823  1.2768
 5756SOL     OW28726   1.249   2.451  10.412 -0.1666 -0.0362 -0.5306
 5756SOL    HW128727   1.218   2.538  10.436 -0.3961  0.0777 -1.2466
 5756SOL    HW228728   1.297   2.476  10.333 -0.6657 -0.9472 -1.1218
 5757SOL     OW28729   3.294   2.419  12.266  0.0130 -0.1964 -0.4489
 5757SOL    HW128730   3.379   2.379  12.252 -0.1164 -0.8571  0.6499
 5757SOL    HW228731   3.278   2.409  12.360  0.2404  1.8609 -0.1814
 5758SOL     OW28732   2.338   1.829   8.556 -0.0928 -0.2868 -0.0590
 5758SOL    HW128733   2.421   1.785   8.536 -0.5424 -0.4237 -1.5956
 5758SOL    HW228734   2.370   1.891   8.622 -1.6495 -0.5935  0.9772
 5759SOL     OW28735   3.974   3.707  15.510  0.1651 -0.2611  0.3213
 5759SOL    HW128736   3.939   3.684  15.424 -0.4383 -1.2454  0.8204
 5759SOL    HW228737   3.893   3.750  15.536  0.2445  0.0226  0.0956
 5760SOL     OW28738   2.573   2.130   8.986  0.0620  0.3301  0.0583
 5760SOL    HW128739   2.523   2.195   8.936 -1.3376  0.4871  1.6610
 5760SOL    HW228740   2.556   2.150   9.078 -1.3409  1.5353 -0.4584
 5761SOL     OW28741   3.951   4.571  15.580  0.1511 -0.4006  1.1501
 5761SOL    HW128742   3.970   4.526  15.663  2.5795 -1.1151  0.1862
 5761SOL    HW228743   3.939   4.500  15.517 -0.2341 -0.0851  0.8671
 5762SOL     OW28744   1.591   3.748   1.847  0.3669 -0.2975 -0.1242
 5762SOL    HW128745   1.533   3.811   1.888 -1.6607 -1.2127 -1.5735
 5762SOL    HW228746   1.531   3.673   1.847  0.8182 -0.6526  2.3649
 5763SOL     OW28747   2.575   3.282   3.030 -0.2523  0.2714 -0.2654
 5763SOL    HW128748   2.643   3.302   2.966  0.2497  0.3868  0.3080
 5763SOL    HW228749   2.542   3.205   2.985 -1.1854  0.3146  0.3396
 5764SOL     OW28750   1.385   4.159   9.263  0.0743  0.3598 -0.0066
 5764SOL    HW128751   1.337   4.080   9.238  0.2015  0.8359 -1.7553
 5764SOL    HW228752   1.368   4.164   9.358  0.5342  1.0794  0.0371
 5765SOL     OW28753   2.150   3.702   5.601 -0.1439 -0.1719 -0.3757
 5765SOL    HW128754   2.130   3.623   5.651  2.5916 -0.7258 -0.1412
 5765SOL    HW228755   2.196   3.671   5.523 -0.4011 -3.0940  0.6535
 5766SOL     OW28756   4.087   2.169   0.387 -0.5638 -0.2162 -0.4714
 5766SOL    HW128757   3.998   2.203   0.397  0.4917  2.0558  1.1595
 5766SOL    HW228758   4.125   2.193   0.472  1.3121 -2.0038 -0.7990
 5767SOL     OW28759   2.294   4.631   8.174 -0.3478 -0.1030 -0.3741
 5767SOL    HW128760   2.288   4.567   8.103 -2.4328 -0.1992 -0.1138
 5767SOL    HW228761   2.238   4.592   8.241 -2.5357  0.0959 -2.0681
 5768SOL     OW28762   1.484   1.609  13.383 -0.0569  0.6658  0.1874
 5768SOL    HW128763   1.525   1.576  13.303 -1.3937 -2.6706  0.8507
 5768SOL    HW228764   1.460   1.524  13.420 -0.7963 -0.5754 -3.2111
 5769SOL     OW28765   1.070   0.885  12.977  0.0487 -0.3874  0.1471
 5769SOL    HW128766   0.975   0.875  12.968  0.0294 -0.1935  0.1393
 5769SOL    HW228767   1.085   0.979  12.973  2.8735 -0.9460 -2.3710
 5770SOL     OW28768   0.504   2.114   8.542  0.6724 -0.1139  0.1046
 5770SOL    HW128769   0.488   2.208   8.553  1.1211 -0.0552  0.2573
 5770SOL    HW228770   0.563   2.107   8.617 -0.1147  2.0000  0.9178
 5771SOL     OW28771   4.551   1.849   5.461  0.4695 -0.4139 -0.0061
 5771SOL    HW128772   4.544   1.917   5.528 -0.3214 -0.4288 -0.0798
 5771SOL    HW228773   4.590   1.779   5.515 -1.0017  0.1176  1.7651
 5772SOL     OW28774   1.572   0.503   3.415 -0.1115  0.3670 -0.1058
 5772SOL    HW128775   1.615   0.451   3.347  0.2453  1.4420 -0.7198
 5772SOL    HW228776   1.548   0.434   3.476  1.3371 -0.5925 -0.6231
 5773SOL     OW28777   1.476   4.169   3.811 -0.9618  0.5290 -0.3488
 5773SOL    HW128778   1.451   4.230   3.881  0.1816 -2.2080  2.4712
 5773SOL    HW228779   1.489   4.081   3.846 -1.0658  1.2492  1.5291
 5774SOL     OW28780   0.906   4.586   0.720  0.6639 -0.3525 -0.1557
 5774SOL    HW128781   0.961   4.583   0.799  1.2298  0.6388 -0.5222
 5774SOL    HW228782   0.818   4.595   0.759  0.3896 -3.4717 -0.0429
 5775SOL     OW28783   4.661   0.604  13.967  0.1398  0.5030 -0.0142
 5775SOL    HW128784   0.022   0.561  13.982  0.6177  0.9649 -1.4341
 5775SOL    HW228785   4.620   0.552  13.899  1.2681  1.6075 -1.5347
 5776SOL     OW28786   4.566   1.567   2.902 -0.0069 -0.1780  0.1563
 5776SOL    HW128787   4.551   1.630   2.831 -0.9052  1.4305  1.7896
 5776SOL    HW228788   4.482   1.564   2.947 -0.2082  1.2320 -0.1162
 5777SOL     OW28789   0.493   2.063   9.921 -0.2694 -0.6906  0.2585
 5777SOL    HW128790   0.537   1.995   9.869  1.0228 -0.9778  1.7083
 5777SOL    HW228791   0.555   2.061   9.994  0.6393  0.0680 -0.4807
 5778SOL     OW28792   4.486   4.527   7.867 -0.1184  0.1776 -0.0426
 5778SOL    HW128793   4.518   4.456   7.810 -0.3909 -0.8110  1.0395
 5778SOL    HW228794   4.535   4.501   7.945 -0.6517 -0.5349  0.0554
 5779SOL     OW28795   3.417   1.741   8.391  0.0888  0.1022 -0.2244
 5779SOL    HW128796   3.434   1.793   8.312  1.6692 -1.3091 -0.8123
 5779SOL    HW228797   3.417   1.652   8.355  0.3836 -0.4543  1.1759
 5780SOL     OW28798   3.485   1.765   0.828 -0.3105  0.6010 -0.0570
 5780SOL    HW128799   3.410   1.768   0.888  0.0196  0.4409  0.3545
 5780SOL    HW228800   3.485   1.670   0.831  0.1399  0.6724  2.3806
 5781SOL     OW28801   2.815   2.171   7.707  0.0357 -0.7692  0.2920
 5781SOL    HW128802   2.810   2.222   7.787 -0.6317 -1.0930  0.4574
 5781SOL    HW228803   2.762   2.098   7.740 -1.5845 -0.3639 -1.3929
 5782SOL     OW28804   3.155   0.352   5.055 -0.1980 -0.4059 -0.3821
 5782SOL    HW128805   3.140   0.258   5.045  0.4175 -0.4460 -0.8960
 5782SOL    HW228806   3.212   0.357   4.978  0.1053  3.1949  0.0585
 5783SOL     OW28807   2.863   3.360  10.875 -0.2869 -0.4295  0.0338
 5783SOL    HW128808   2.924   3.419  10.921 -0.6051  1.6930 -2.2606
 5783SOL    HW228809   2.858   3.401  10.789 -0.9008  2.3955  1.3799
 5784SOL     OW28810   1.709   4.464   0.207 -0.4067 -0.4669  0.1457
 5784SOL    HW128811   1.668   4.505   0.131  0.5667 -1.0760 -0.7110
 5784SOL    HW228812   1.794   4.506   0.200 -1.3935  1.7319  1.4454
 5785SOL     OW28813   1.901   2.075   9.934 -0.2087 -0.3505  0.7147
 5785SOL    HW128814   1.863   2.162   9.951 -2.0104 -0.7190 -1.4641
 5785SOL    HW228815   1.916   2.054  10.026  0.1869  3.4761  1.5484
 5786SOL     OW28816   1.267   1.761   5.668  0.0025 -0.5156  0.7892
 5786SOL    HW128817   1.261   1.673   5.706 -0.0438 -1.7038 -1.9639
 5786SOL    HW228818   1.290   1.816   5.743 -1.2989  1.0432  0.0359
 5787SOL     OW28819   1.517   4.707   5.692  0.1981 -0.1455  0.2403
 5787SOL    HW128820   1.480   0.071   5.701 -1.4668 -0.6045 -2.0991
 5787SOL    HW228821   1.447   4.651   5.725  0.9248 -0.8572  0.5862
 5788SOL     OW28822   4.645   1.281   6.877  0.0362  0.3294  0.1172
 5788SOL    HW128823   4.578   1.339   6.913  0.3141  1.8237 -1.7511
 5788SOL    HW228824   4.591   1.233   6.815 -1.9092  0.9473  1.3449
 5789SOL     OW28825   2.375   1.430   6.450 -0.3973  0.9121 -0.7289
 5789SOL    HW128826   2.340   1.377   6.521 -0.4816  0.3644 -1.1741
 5789SOL    HW228827   2.465   1.399   6.442 -1.0590 -1.0225 -0.7198
 5790SOL     OW28828   3.044   0.936   7.321 -0.0666  0.3959 -0.6980
 5790SOL    HW128829   2.985   0.924   7.246 -1.1121 -0.3104  0.2415
 5790SOL    HW228830   3.114   0.974   7.268  0.4519 -2.0531 -1.7689
 5791SOL     OW28831   2.819   0.549   4.342 -0.0704  0.1364 -0.1917
 5791SOL    HW128832   2.762   0.597   4.282 -0.8426 -0.8628 -0.2628
 5791SOL    HW228833   2.871   0.623   4.375  0.4243 -0.6562  0.7928
 5792SOL     OW28834   3.368   2.664   2.688 -0.2862  0.2579  0.0836
 5792SOL    HW128835   3.292   2.606   2.688 -1.5275  1.8757 -1.7431
 5792SOL    HW228836   3.408   2.659   2.600  0.5014  0.7330  0.4131
 5793SOL     OW28837   0.172   2.454   5.640  0.2931  0.4512 -0.1989
 5793SOL    HW128838   0.168   2.370   5.595  0.7328  0.0686  0.4843
 5793SOL    HW228839   0.235   2.501   5.585 -0.1956  0.1217 -1.0394
 5794SOL     OW28840   4.130   1.659   3.624 -0.5347 -0.5031 -0.8006
 5794SOL    HW128841   4.111   1.568   3.648  0.2996 -0.5872 -0.4588
 5794SOL    HW228842   4.101   1.712   3.698 -2.6256  0.2421 -2.1377
 5795SOL     OW28843   2.565   1.037   6.275 -0.0184 -0.7410  0.2105
 5795SOL    HW128844   2.515   0.990   6.208  0.0405 -1.6919  0.8215
 5795SOL    HW228845   2.583   0.965   6.335  3.5711  1.9299  2.3017
 5796SOL     OW28846   0.326   0.671   9.588  0.8338 -0.1955 -0.9497
 5796SOL    HW128847   0.291   0.700   9.673 -0.8179 -0.3833 -1.5732
 5796SOL    HW228848   0.323   0.576   9.595  0.8574 -0.0802  0.7347
 5797SOL     OW28849   3.699   1.456   9.716 -0.5941 -0.1946  0.1741
 5797SOL    HW128850   3.789   1.447   9.682 -0.0742 -0.0307  1.5292
 5797SOL    HW228851   3.652   1.428   9.637 -1.9009 -0.4770  1.0715
 5798SOL     OW28852   2.832   4.184   6.103  0.1538  0.2329  0.4300
 5798SOL    HW128853   2.772   4.125   6.150 -0.9426  1.1723  0.1892
 5798SOL    HW228854   2.773   4.255   6.079  1.7716  0.9641 -1.3199
 5799SOL     OW28855   4.316   4.684   6.526 -0.2806  0.6576 -0.3974
 5799SOL    HW128856   4.224   4.671   6.505 -0.4038 -0.8592  1.0893
 5799SOL    HW228857   4.327   4.685   6.621  0.7867  0.2386 -0.5217
 5800SOL     OW28858   1.186   0.715   5.649 -0.4220 -0.2731  0.3375
 5800SOL    HW128859   1.096   0.743   5.666 -1.0848 -1.1126 -1.8226
 5800SOL    HW228860   1.203   0.748   5.561 -2.2460 -1.0366 -0.2973
 5801SOL     OW28861   1.150   1.366  17.012 -0.3384 -0.7644  0.2389
 5801SOL    HW128862   1.163   1.427  16.939 -0.8403 -1.9839 -0.8492
 5801SOL    HW228863   1.214   1.300  16.989  0.6171  0.4217 -0.5381
 5802SOL     OW28864   1.867   3.644   2.027  0.8652  0.3345  0.2087
 5802SOL    HW128865   1.856   3.705   2.101 -0.4786  1.1425 -0.6692
 5802SOL    HW228866   1.799   3.681   1.971  1.6142  2.3135  0.5736
 5803SOL     OW28867   2.182   1.659   3.323 -0.1645 -0.5348 -0.9224
 5803SOL    HW128868   2.143   1.720   3.385 -2.3591 -1.2792 -1.5599
 5803SOL    HW228869   2.251   1.718   3.292  0.8258 -0.0826  2.0759
 5804SOL     OW28870   4.540   2.758   5.309  0.4953  0.1215 -0.0817
 5804SOL    HW128871   4.589   2.682   5.342  0.0090  0.4406  1.3987
 5804SOL    HW228872   4.570   2.766   5.219 -0.4861  0.0819 -0.4026
 5805SOL     OW28873   1.752   2.360  17.212  0.4627 -0.1688  0.5555
 5805SOL    HW128874   1.733   2.388  17.301  0.4633 -0.2938  0.5948
 5805SOL    HW228875   1.822   2.420  17.187  1.5298 -2.0168 -0.8680
 5806SOL     OW28876   4.506   2.083   0.210  0.3749 -0.6228 -0.3627
 5806SOL    HW128877   4.590   2.038   0.213  1.5885  1.6159 -0.8873
 5806SOL    HW228878   4.482   2.087   0.303  0.2793 -1.4827 -0.3534
 5807SOL     OW28879   3.487   0.900  17.093  0.5343 -0.2844  0.5892
 5807SOL    HW128880   3.405   0.940  17.121 -0.9094 -2.5709 -0.4072
 5807SOL    HW228881   3.478   0.878  17.001  0.2001  1.6886  0.1576
 5808SOL     OW28882   4.444   3.102   4.082 -0.6718  0.0151  0.2611
 5808SOL    HW128883   4.356   3.076   4.110 -0.8853  0.2123 -0.2405
 5808SOL    HW228884   4.431   3.182   4.032  2.0873  0.7095  0.6265
 5809SOL     OW28885   0.427   2.613   0.617 -0.1538 -0.2158  0.1915
 5809SOL    HW128886   0.377   2.633   0.697 -0.3413  0.9836 -0.2209
 5809SOL    HW228887   0.479   2.691   0.599 -0.4910  0.0749  0.4493
 5810SOL     OW28888   0.667   0.188  11.088 -0.1351 -0.2780 -0.0530
 5810SOL    HW128889   0.616   0.267  11.072 -2.7279 -1.7546  0.9530
 5810SOL    HW228890   0.737   0.230  11.139  0.0188 -0.2860 -0.2566
 5811SOL     OW28891   0.309   2.085   4.970 -0.4868 -0.1302 -0.1658
 5811SOL    HW128892   0.255   2.012   5.002 -0.7741 -1.2296 -3.2225
 5811SOL    HW228893   0.290   2.083   4.877 -0.0809  1.9992 -0.2842
 5812SOL     OW28894   4.138   3.580  16.529 -0.1631  0.1571  0.0906
 5812SOL    HW128895   4.135   3.485  16.540 -3.3364  0.0537 -1.6273
 5812SOL    HW228896   4.109   3.583  16.438 -0.1538 -3.8576 -0.0724
 5813SOL     OW28897   0.135   1.182   8.759 -0.2017  0.3345  0.1681
 5813SOL    HW128898   0.167   1.115   8.818  0.1297  1.1594  0.9349
 5813SOL    HW228899   0.218   1.229   8.757  0.5700 -0.9479  1.9860
 5814SOL     OW28900   2.962   3.169  15.265 -0.5981 -0.2493  0.0177
 5814SOL    HW128901   2.912   3.233  15.317  1.0024 -0.4040  1.7736
 5814SOL    HW228902   2.964   3.222  15.185 -0.8009  0.8007  0.6980
 5815SOL     OW28903   0.653   1.916  10.932 -0.1733  0.0081  0.2351
 5815SOL    HW128904   0.738   1.959  10.927  0.0077 -0.3962 -0.1647
 5815SOL    HW228905   0.634   1.875  11.016  3.5307  2.2995  2.1429
 5816SOL     OW28906   4.383   1.117  13.797  0.0848 -0.3308  1.0001
 5816SOL    HW128907   4.363   1.056  13.726 -1.7933 -0.5741  1.7263
 5816SOL    HW228908   4.473   1.142  13.774 -0.7827 -0.0123 -2.0671
 5817SOL     OW28909   1.502   2.805  15.891 -0.5141  0.2514  0.3205
 5817SOL    HW128910   1.551   2.870  15.941  0.5183 -0.3770  0.1365
 5817SOL    HW228911   1.421   2.853  15.879 -0.6985 -0.1495 -0.0430
 5818SOL     OW28912   3.253   2.024   8.206 -0.2457  0.3869 -0.1019
 5818SOL    HW128913   3.174   2.035   8.153  0.8342  0.3231 -1.7608
 5818SOL    HW228914   3.228   2.037   8.297  0.1689  2.3710 -0.2520
 5819SOL     OW28915   3.919   1.965   8.797 -0.1141 -0.1042  0.0378
 5819SOL    HW128916   3.915   1.919   8.881 -0.3611 -1.0131 -0.4771
 5819SOL    HW228917   3.957   2.052   8.809 -0.9788 -0.1220  2.8772
 5820SOL     OW28918   0.308   1.952   7.508  0.2588  0.0710 -0.2327
 5820SOL    HW128919   0.258   1.875   7.535 -0.0981  0.7618  1.1029
 5820SOL    HW228920   0.322   1.994   7.593 -0.1157 -0.4299  0.0772
 5821SOL     OW28921   2.724   2.739  12.957  0.0491 -0.4305 -0.0010
 5821SOL    HW128922   2.630   2.756  12.953  0.4742  2.6574  2.9686
 5821SOL    HW228923   2.756   2.820  12.917 -0.7375  0.0373  0.3078
 5822SOL     OW28924   4.495   2.167   5.051 -0.0775  0.0950  0.2844
 5822SOL    HW128925   4.543   2.203   4.976 -0.1734 -0.0889  0.1341
 5822SOL    HW228926   4.519   2.076   5.034  0.3061  0.4735 -1.1573
 5823SOL     OW28927   3.899   3.612  13.825 -0.4783  0.7239  0.0689
 5823SOL    HW128928   3.951   3.569  13.757 -2.3965  0.0385 -0.9663
 5823SOL    HW228929   3.967   3.624  13.890 -2.8232  1.3511  2.4146
 5824SOL     OW28930   0.428   2.611   4.261 -0.0606 -1.0008 -0.3792
 5824SOL    HW128931   0.365   2.660   4.209  2.1850  1.7792 -0.4395
 5824SOL    HW228932   0.411   2.652   4.346  1.7396  2.8115 -1.8557
 5825SOL     OW28933   4.508   0.875   5.340 -0.6945  0.2613  0.6359
 5825SOL    HW128934   4.601   0.866   5.321 -0.9354 -1.2272  0.1790
 5825SOL    HW228935   4.503   0.874   5.436  0.1987 -2.6518  0.6641
 5826SOL     OW28936   1.196   2.823   0.571  0.2327  0.0258  0.1368
 5826SOL    HW128937   1.186   2.836   0.477  1.5933 -2.2576 -0.3156
 5826SOL    HW228938   1.123   2.876   0.602  0.5381  0.7527 -0.3915
 5827SOL     OW28939   3.127   0.760   1.827  0.1299 -0.7894  0.1079
 5827SOL    HW128940   3.069   0.812   1.881  0.1651  0.7838 -1.3576
 5827SOL    HW228941   3.205   0.814   1.833 -0.5804  0.3185 -0.5358
 5828SOL     OW28942   1.121   1.667   8.640 -0.1362 -0.3733  0.2412
 5828SOL    HW128943   1.153   1.657   8.550  2.3012  1.0613  0.9421
 5828SOL    HW228944   1.049   1.605   8.649  0.0333 -0.5975  0.0301
 5829SOL     OW28945   4.125   3.271  14.129 -0.3514  0.4206 -0.0483
 5829SOL    HW128946   4.079   3.330  14.189  0.5094  1.4839 -0.4479
 5829SOL    HW228947   4.101   3.305  14.043  0.8713  1.0983 -0.1124
 5830SOL     OW28948   2.502   4.350   5.736  0.3267 -0.0124 -0.6070
 5830SOL    HW128949   2.523   4.325   5.646  2.7965 -0.0028 -0.0452
 5830SOL    HW228950   2.568   4.418   5.749  0.3263 -0.3504  1.1447
 5831SOL     OW28951   2.277   3.957  12.859  0.1538 -0.1277 -0.1340
 5831SOL    HW128952   2.280   4.014  12.782  0.6401  0.7311  0.5223
 5831SOL    HW228953   2.359   3.983  12.900  0.2860 -0.8896  0.0854
 5832SOL     OW28954   2.567   2.289   2.099 -0.4798  0.1941 -0.1966
 5832SOL    HW128955   2.505   2.216   2.103  0.7117 -0.9066 -1.6911
 5832SOL    HW228956   2.611   2.280   2.014  0.0259 -1.6499  0.2569
 5833SOL     OW28957   4.567   0.389   7.145  0.1919 -0.6551 -0.4264
 5833SOL    HW128958   4.604   0.395   7.233 -0.1242  2.8670 -0.5308
 5833SOL    HW228959   4.635   0.327   7.117 -0.9369 -1.9764 -0.2229
 5834SOL     OW28960   4.293   1.026  16.227 -0.0023  0.2137 -0.3871
 5834SOL    HW128961   4.262   1.090  16.163 -1.3974  0.2466  0.3308
 5834SOL    HW228962   4.270   1.080  16.302 -2.9566 -0.3275 -0.9315
 5835SOL     OW28963   4.520   1.010   8.224  0.4140 -0.0799  0.1831
 5835SOL    HW128964   4.441   1.064   8.220 -0.3795 -1.3272 -0.9676
 5835SOL    HW228965   4.577   1.085   8.245 -1.3213  1.5223 -0.8049
 5836SOL     OW28966   2.011   2.251  14.723  0.1501  0.4344  0.3860
 5836SOL    HW128967   2.035   2.313  14.792  0.3033  1.7321 -0.8355
 5836SOL    HW228968   1.936   2.294  14.682  0.7235  1.7133  0.6815
 5837SOL     OW28969   3.116   1.180   6.195 -0.2636 -0.7149  0.3575
 5837SOL    HW128970   3.058   1.134   6.135  0.7919 -1.1172 -0.3539
 5837SOL    HW228971   3.069   1.201   6.276 -0.3763  0.4528 -0.0151
 5838SOL     OW28972   1.744   3.687   3.366 -0.8226 -0.6065 -0.1106
 5838SOL    HW128973   1.834   3.716   3.354 -0.5460 -1.2185  0.4522
 5838SOL    HW228974   1.756   3.595   3.390  0.1034 -0.3876  0.2600
 5839SOL     OW28975   2.273   2.132   6.419 -0.5427 -0.1258 -0.3593
 5839SOL    HW128976   2.270   2.112   6.325 -1.6878 -1.1125 -0.1050
 5839SOL    HW228977   2.342   2.197   6.429 -1.7065  0.8955  0.9959
 5840SOL     OW28978   2.693   4.588   4.316  0.4441 -0.2742  0.6902
 5840SOL    HW128979   2.686   4.630   4.230 -0.7035  0.4144  1.1173
 5840SOL    HW228980   2.629   4.517   4.316  0.2495 -0.1000  1.3202
 5841SOL     OW28981   3.024   2.105   8.013 -0.0422 -0.2932  0.1605
 5841SOL    HW128982   3.035   2.054   7.932 -1.3703 -0.4397  0.0716
 5841SOL    HW228983   2.972   2.178   7.981 -0.5604  0.2598  2.2903
 5842SOL     OW28984   0.801   3.854   5.786  0.3028 -0.1844  0.0848
 5842SOL    HW128985   0.756   3.931   5.749 -0.2630 -0.4689  0.1711
 5842SOL    HW228986   0.726   3.798   5.807 -0.6278  0.0315 -2.6661
 5843SOL     OW28987   1.043   2.978  15.979  0.1644 -0.2108 -0.3360
 5843SOL    HW128988   1.023   3.050  15.919 -1.2085  0.2525  0.6944
 5843SOL    HW228989   0.954   2.942  15.984 -0.2375  0.7460 -0.5649
 5844SOL     OW28990   3.027   3.727   1.611 -0.4467 -0.6100 -0.9945
 5844SOL    HW128991   3.098   3.675   1.573 -0.3088 -1.6146  0.6501
 5844SOL    HW228992   2.987   3.776   1.539 -1.0802  0.2006 -0.0948
 5845SOL     OW28993   1.248   0.955   8.602 -0.3019  0.1227 -0.3347
 5845SOL    HW128994   1.330   0.909   8.587 -1.2441 -1.5205 -0.4545
 5845SOL    HW228995   1.236   0.950   8.697  0.0312 -2.3198 -0.4024
 5846SOL     OW28996   2.459   2.590   7.665  0.2275 -0.6389 -0.2229
 5846SOL    HW128997   2.463   2.502   7.703  0.0078  0.1144  1.5074
 5846SOL    HW228998   2.489   2.580   7.575 -0.2438 -0.1183 -0.4357
 5847SOL     OW28999   3.323   4.177  16.238 -0.4309  0.1382  0.0489
 5847SOL    HW129000   3.409   4.148  16.207 -0.0468  0.7861  0.5068
 5847SOL    HW229001   3.325   4.118  16.314 -0.1673  1.6622  1.2166
 5848SOL     OW29002   0.316   1.250  15.407  0.6902 -0.1812 -0.1031
 5848SOL    HW129003   0.274   1.212  15.329 -1.5880 -1.3650  1.7065
 5848SOL    HW229004   0.256   1.213  15.472  1.7962 -1.1045  0.3777
 5849SOL     OW29005   4.511   3.818   6.771  1.0173  0.6072 -0.3333
 5849SOL    HW129006   4.417   3.834   6.759  1.0002  0.3745 -0.5149
 5849SOL    HW229007   4.543   3.868   6.846  2.4254 -0.6034 -0.1223
 5850SOL     OW29008   0.898   0.074   3.009 -0.5999  0.2590 -0.0046
 5850SOL    HW129009   0.889   0.010   3.080 -2.0469 -0.3298 -0.7035
 5850SOL    HW229010   0.896   0.159   3.053  0.0736  0.4658 -0.3824
 5851SOL     OW29011   4.321   1.493  16.133 -0.7637 -0.3339 -0.3907
 5851SOL    HW129012   4.310   1.409  16.088 -1.7464 -1.4991  2.0469
 5851SOL    HW229013   4.371   1.464  16.209 -0.9430  1.2332  0.3247
 5852SOL     OW29014   3.441   2.497   3.140 -0.1836  0.3070 -0.2526
 5852SOL    HW129015   3.503   2.553   3.094  0.9325  0.7180  1.7667
 5852SOL    HW229016   3.485   2.489   3.225 -1.0667  2.4508  0.4130
 5853SOL     OW29017   0.556   2.788   2.904 -0.3261  0.6605  0.4287
 5853SOL    HW129018   0.551   2.694   2.921  1.5555  0.5995  0.6441
 5853SOL    HW229019   0.551   2.812   2.997  0.0182  1.8833  0.1307
 5854SOL     OW29020   2.913   2.703   4.819 -0.6988 -0.2747 -0.0720
 5854SOL    HW129021   2.944   2.787   4.852 -1.1570  0.7087 -2.1102
 5854SOL    HW229022   2.995   2.667   4.787 -0.9250 -0.3130 -0.6172
 5855SOL     OW29023   2.248   2.883   5.907  0.3734 -0.4166 -0.1107
 5855SOL    HW129024   2.259   2.972   5.940 -1.9041  0.8276 -2.8222
 5855SOL    HW229025   2.164   2.881   5.862 -0.9495  0.8045  2.2751
 5856SOL     OW29026   1.050   2.089   6.058  0.3354  0.0942 -0.0563
 5856SOL    HW129027   1.047   2.027   5.985  0.3746 -2.5907  2.2016
 5856SOL    HW229028   1.045   2.041   6.141 -2.1815  0.2948 -0.1125
 5857SOL     OW29029   4.142   1.002   8.749  0.4924 -0.0307  0.2165
 5857SOL    HW129030   4.094   1.081   8.773 -2.0358 -1.3209 -0.6309
 5857SOL    HW229031   4.200   0.993   8.825  1.9415 -1.4905 -1.0529
 5858SOL     OW29032   1.932   1.904   4.966 -0.4790  0.2371  0.2687
 5858SOL    HW129033   2.026   1.894   4.978 -0.6830  0.8020  2.2193
 5858SOL    HW229034   1.899   1.821   4.931 -1.8915  0.2015  1.6626
 5859SOL     OW29035   2.313   4.124   1.827  0.2827  0.1547  0.3249
 5859SOL    HW129036   2.313   4.167   1.741  1.9098 -1.9396 -0.7215
 5859SOL    HW229037   2.274   4.039   1.808 -1.0088  0.9007 -0.3642
 5860SOL     OW29038   4.242   2.175   0.142  0.1048  0.2161  0.2165
 5860SOL    HW129039   4.198   2.176   0.227 -2.2163 -0.1697 -0.9644
 5860SOL    HW229040   4.325   2.130   0.152  0.1113 -0.1224 -1.3920
 5861SOL     OW29041   0.113   3.441   9.036  0.2862 -0.2758 -0.0562
 5861SOL    HW129042   0.066   3.475   9.112 -0.0143 -1.5479  0.3408
 5861SOL    HW229043   0.141   3.527   9.005  2.4124 -1.1469 -0.5624
 5862SOL     OW29044   3.896   1.269   4.631  0.0628 -0.3659  0.4207
 5862SOL    HW129045   3.814   1.315   4.642  0.5890  0.4934  0.7225
 5862SOL    HW229046   3.946   1.301   4.706  3.3112  0.5940 -2.1331
 5863SOL     OW29047   1.909   2.471   4.255 -0.0146 -0.6580  0.2214
 5863SOL    HW129048   1.954   2.444   4.175  0.2302 -0.0159  0.1471
 5863SOL    HW229049   1.981   2.472   4.319  1.4838 -0.2510 -1.4918
 5864SOL     OW29050   1.194   0.420   2.354  0.0381  0.5723  0.4808
 5864SOL    HW129051   1.287   0.436   2.336  0.1094  1.2591  1.4857
 5864SOL    HW229052   1.205   0.383   2.441 -0.9055 -1.0856 -0.1075
 5865SOL     OW29053   1.297   4.697   7.154  0.0208 -0.0440 -0.6754
 5865SOL    HW129054   1.283   4.634   7.084  1.5057  0.8824 -1.8036
 5865SOL    HW229055   1.387   4.678   7.182 -0.4996  0.8811  1.6456
 5866SOL     OW29056   4.428   0.331   4.689 -0.7380 -0.2142 -0.2085
 5866SOL    HW129057   4.502   0.391   4.682 -0.9596  0.1746  0.8196
 5866SOL    HW229058   4.459   0.267   4.624  0.5949 -0.8710  1.0870
 5867SOL     OW29059   3.989   4.068   3.825  0.0419 -0.6369 -0.0142
 5867SOL    HW129060   3.953   3.993   3.873 -0.6752 -0.5990 -0.4829
 5867SOL    HW229061   3.912   4.089   3.771 -0.5345  0.4732  1.2442
 5868SOL     OW29062   1.405   2.683   0.784  0.8086  0.6052  0.9146
 5868SOL    HW129063   1.322   2.708   0.744  1.6413  2.0896  0.1283
 5868SOL    HW229064   1.457   2.762   0.773  1.4248 -0.1788 -1.5683
 5869SOL     OW29065   1.755   3.704   9.558 -0.2556 -0.3783 -0.1078
 5869SOL    HW129066   1.784   3.712   9.648  0.5509  0.0700 -0.4102
 5869SOL    HW229067   1.666   3.668   9.568  0.1811 -1.2029  0.8058
 5870SOL     OW29068   1.129   3.486   4.713  0.1937  0.2814  0.1174
 5870SOL    HW129069   1.189   3.435   4.659  2.5867  0.8866  2.1983
 5870SOL    HW229070   1.186   3.517   4.784  2.1587  0.1462 -1.3989
 5871SOL     OW29071   0.790   3.996   8.696 -0.2496 -0.3029 -0.3396
 5871SOL    HW129072   0.762   3.926   8.637  0.5432  0.3061 -1.4306
 5871SOL    HW229073   0.751   3.974   8.781  2.6261 -1.1015  0.7600
 5872SOL     OW29074   2.332   2.102   3.596 -0.1517  0.1618  0.5133
 5872SOL    HW129075   2.419   2.126   3.628 -1.4458  0.0646  4.0999
 5872SOL    HW229076   2.338   2.007   3.600 -0.7470  0.0961 -0.1673
 5873SOL     OW29077   1.769   3.860  17.071 -0.1108  0.1206  0.6100
 5873SOL    HW129078   1.793   3.775  17.034  1.2710  0.4571  0.7366
 5873SOL    HW229079   1.846   3.913  17.049  0.8074 -1.1588  0.7347
 5874SOL     OW29080   1.406   2.757  10.315  0.5611 -0.0013  0.0360
 5874SOL    HW129081   1.438   2.678  10.272  2.0913  1.0770 -0.8152
 5874SOL    HW229082   1.318   2.757  10.278  1.0449  3.5911 -1.1053
 5875SOL     OW29083   2.032   3.637   7.794 -0.0683 -0.9737 -0.3247
 5875SOL    HW129084   1.948   3.613   7.833 -0.6337 -1.4286 -1.8422
 5875SOL    HW229085   2.007   3.717   7.747  1.9955 -1.4987 -2.2932
 5876SOL     OW29086   0.432   2.191   8.268 -0.1203  0.9719 -0.9356
 5876SOL    HW129087   0.339   2.192   8.293 -0.3577  0.3827 -1.7757
 5876SOL    HW229088   0.472   2.229   8.346 -0.5897  0.6470 -0.5361
 5877SOL     OW29089   0.889   2.059   8.589  0.1029  0.3691  0.2530
 5877SOL    HW129090   0.816   2.027   8.642  0.1290  0.7988  0.5548
 5877SOL    HW229091   0.856   2.149   8.585  2.0413  1.1155  1.1464
 5878SOL     OW29092   1.756   1.814   8.191 -0.3858 -0.1009 -0.3307
 5878SOL    HW129093   1.704   1.893   8.173 -1.6790 -0.4500  1.9135
 5878SOL    HW229094   1.801   1.849   8.268  1.5295 -5.3933  0.9333
 5879SOL     OW29095   3.698   3.242   8.977  0.0745  0.2047 -0.7791
 5879SOL    HW129096   3.757   3.177   8.939  1.8454  0.8291  0.9128
 5879SOL    HW229097   3.619   3.192   8.998 -0.9459  2.3560  0.5577
 5880SOL     OW29098   2.465   3.427   6.389  0.0482  0.3499  0.0901
 5880SOL    HW129099   2.555   3.396   6.391  0.1615  0.7084  0.4082
 5880SOL    HW229100   2.429   3.387   6.468  2.9089 -1.7510  0.3042
 5881SOL     OW29101   3.474   3.382   3.886  0.7562  0.1260 -0.0253
 5881SOL    HW129102   3.544   3.447   3.877 -0.1792  0.8595 -1.9210
 5881SOL    HW229103   3.525   3.301   3.875  1.2229  0.7006 -2.1013
 5882SOL     OW29104   0.592   0.845   4.042  0.3099 -0.6228 -0.1563
 5882SOL    HW129105   0.679   0.840   4.081 -0.2811  2.7659  1.5652
 5882SOL    HW229106   0.621   0.859   3.951 -1.1329  0.1086 -0.5022
 5883SOL     OW29107   1.752   0.357   7.833  0.3686  0.5290 -0.1050
 5883SOL    HW129108   1.724   0.308   7.911  0.6948  1.0768  0.3517
 5883SOL    HW229109   1.757   0.448   7.862  3.0301  0.5027 -0.4813
 5884SOL     OW29110   3.969   2.435  15.251  0.2122  0.1283 -0.0171
 5884SOL    HW129111   4.003   2.466  15.335  0.0065 -1.4845  0.6596
 5884SOL    HW229112   4.041   2.449  15.189  1.1784 -2.3068  0.5630
 5885SOL     OW29113   3.235   0.547   8.746  0.1780 -0.2225 -0.0809
 5885SOL    HW129114   3.262   0.540   8.654  1.7221 -2.7402  0.5678
 5885SOL    HW229115   3.180   0.469   8.744 -2.1105  1.3847  0.1252
 5886SOL     OW29116   1.183   4.556   6.866  0.0939 -0.0685  0.6705
 5886SOL    HW129117   1.129   4.535   6.943 -0.3820 -1.5907 -0.0839
 5886SOL    HW229118   1.165   4.649   6.875 -0.0009  0.1466 -1.9665
 5887SOL     OW29119   3.568   1.484   5.452 -0.3444 -0.3404  0.5565
 5887SOL    HW129120   3.552   1.392   5.431 -0.0467 -0.1386 -0.5931
 5887SOL    HW229121   3.489   1.528   5.420 -0.6870 -0.4425  1.2625
 5888SOL     OW29122   1.493   1.646   3.577 -0.0708  0.4720  0.1487
 5888SOL    HW129123   1.542   1.728   3.578 -0.0543  0.4474  1.2944
 5888SOL    HW229124   1.437   1.653   3.500 -0.2680 -0.2961  0.2230
 5889SOL     OW29125   0.048   4.696  10.815  0.1585  0.1578  0.5520
 5889SOL    HW129126   0.099   4.624  10.852 -0.0065 -0.9368 -1.3433
 5889SOL    HW229127   0.118   0.036  10.829  0.4835  0.1923 -1.2973
 5890SOL     OW29128   3.809   4.287  17.325  0.0236  0.1628  0.0757
 5890SOL    HW129129   3.745   4.243  17.381  2.0278 -0.8236  1.6318
 5890SOL    HW229130   3.839   4.219  17.265 -0.4017 -1.7249  2.0030
 5891SOL     OW29131   2.765   1.464   3.186  0.4869 -0.6700 -0.6974
 5891SOL    HW129132   2.691   1.512   3.223  0.8886  0.0108 -0.7865
 5891SOL    HW229133   2.767   1.510   3.102  0.8958 -0.1136 -0.3769
 5892SOL     OW29134   1.349   2.100   1.826 -0.1672 -0.6147 -0.0845
 5892SOL    HW129135   1.381   2.121   1.738  2.0893 -3.7174  0.0182
 5892SOL    HW229136   1.271   2.045   1.812  1.0561 -2.6705  1.1480
 5893SOL     OW29137   2.962   3.732   7.272  0.5238 -0.3437  0.4565
 5893SOL    HW129138   2.990   3.645   7.244 -1.0561 -0.7668  0.2038
 5893SOL    HW229139   2.897   3.734   7.202  0.1430 -0.3570  0.8104
 5894SOL     OW29140   3.235   0.302   2.611 -0.0713  0.1570  0.6491
 5894SOL    HW129141   3.211   0.213   2.638  0.2608 -0.2408 -0.3808
 5894SOL    HW229142   3.313   0.273   2.564 -1.8903 -0.3350 -2.0359
 5895SOL     OW29143   4.141   2.400   6.310 -0.1617 -0.0514  0.4856
 5895SOL    HW129144   4.109   2.312   6.331 -0.2927  0.2185  1.4179
 5895SOL    HW229145   4.192   2.384   6.231 -2.6782 -0.6131 -1.0244
 5896SOL     OW29146   0.937   0.194   4.420 -0.1865 -0.2022 -0.0656
 5896SOL    HW129147   0.964   0.280   4.450 -0.1710  0.2299 -1.3085
 5896SOL    HW229148   0.988   0.131   4.471 -3.2102 -1.6752  1.1487
 5897SOL     OW29149   0.519   3.856  10.960 -0.4230 -0.2247 -0.0615
 5897SOL    HW129150   0.523   3.834  11.053  1.0911 -1.4460 -0.4177
 5897SOL    HW229151   0.598   3.906  10.937 -0.0100 -1.8846 -2.2814
 5898SOL     OW29152   2.081   0.221   3.509  0.5847 -0.8066 -0.0931
 5898SOL    HW129153   2.174   0.234   3.528  0.6848 -0.3250 -0.9213
 5898SOL    HW229154   2.042   0.303   3.538  2.7864  0.8103 -1.7072
 5899SOL     OW29155   2.779   3.440   3.459  0.4780 -0.1272 -0.2860
 5899SOL    HW129156   2.759   3.393   3.378 -2.0729  0.4802 -0.0219
 5899SOL    HW229157   2.745   3.529   3.444  1.0796  0.3403  1.1613
 5900SOL     OW29158   1.233   2.082   4.769 -0.3058 -0.3607 -0.4757
 5900SOL    HW129159   1.140   2.096   4.788 -0.3467 -1.0618 -0.1618
 5900SOL    HW229160   1.273   2.092   4.856 -0.2000 -4.9474 -0.0126
 5901SOL     OW29161   2.803   0.962   7.134 -0.2405  0.4612 -0.0061
 5901SOL    HW129162   2.754   0.887   7.100  2.2072 -1.1957  0.1138
 5901SOL    HW229163   2.729   1.009   7.173 -0.6171  0.9407 -1.2820
 5902SOL     OW29164   1.787   3.754   2.815  0.2141 -0.6262  0.8523
 5902SOL    HW129165   1.849   3.757   2.742 -0.5558  1.1485  0.2643
 5902SOL    HW229166   1.755   3.845   2.817  0.5499 -0.4324 -3.4140
 5903SOL     OW29167   4.269   0.270   5.131  0.2234 -0.0763 -0.2643
 5903SOL    HW129168   4.351   0.317   5.145 -0.8621  1.0734  2.1830
 5903SOL    HW229169   4.266   0.254   5.036 -1.7940  0.9535 -0.3747
 5904SOL     OW29170   0.490   0.545   5.171 -0.0943  0.1962  0.2842
 5904SOL    HW129171   0.430   0.471   5.167  0.4273 -0.2624  1.0088
 5904SOL    HW229172   0.520   0.540   5.262  1.2579 -1.5894 -0.2464
 5905SOL     OW29173   2.910   3.980  13.854  0.3856  0.2811 -0.5637
 5905SOL    HW129174   2.900   3.901  13.801 -0.1512 -1.0785  1.5713
 5905SOL    HW229175   2.980   3.949  13.911  0.5944  0.8193 -0.5295
 5906SOL     OW29176   2.394   4.366  12.706 -0.0216  0.3098  0.4105
 5906SOL    HW129177   2.472   4.419  12.692  0.6924 -0.4971  1.3096
 5906SOL    HW229178   2.435   4.291  12.749 -0.4749 -1.2821 -1.9271
 5907SOL     OW29179   2.551   3.926   2.193 -0.3079 -0.0981 -0.4334
 5907SOL    HW129180   2.632   3.952   2.148  0.4594 -0.0811  0.9286
 5907SOL    HW229181   2.570   3.832   2.199  0.7295  0.0765 -0.9214
 5908SOL     OW29182   4.518   2.116  16.495  0.0614 -0.3392 -0.2567
 5908SOL    HW129183   4.523   2.065  16.415 -2.0924 -1.0582  0.0573
 5908SOL    HW229184   4.478   2.054  16.555 -2.5834  1.1880 -0.4176
 5909SOL     OW29185   1.434   3.209   1.734  0.2247  0.5283 -0.2101
 5909SOL    HW129186   1.409   3.201   1.826  1.8975 -2.3981 -0.0205
 5909SOL    HW229187   1.345   3.228   1.702  0.7250  2.0691 -0.6575
 5910SOL     OW29188   3.972   1.256  16.265 -0.1698  0.1027 -0.0501
 5910SOL    HW129189   3.967   1.170  16.223 -2.4663  1.0968 -1.8078
 5910SOL    HW229190   4.005   1.213  16.344 -0.3372  1.1025  0.5714
 5911SOL     OW29191   0.128   2.473  13.628 -0.4011  0.5595  0.1537
 5911SOL    HW129192   0.044   2.509  13.600  0.7258  2.0536 -1.2573
 5911SOL    HW229193   0.119   2.390  13.580 -1.2581  0.9990 -0.4465
 5912SOL     OW29194   3.622   3.136  15.541  0.5005  0.1521  0.1301
 5912SOL    HW129195   3.630   3.047  15.506  0.2646 -0.0797  0.6709
 5912SOL    HW229196   3.579   3.184  15.470 -2.2407  0.5005  2.0350
 5913SOL     OW29197   4.416   2.869   4.714  0.3737  0.3375  0.6770
 5913SOL    HW129198   4.427   2.834   4.803  0.3931  0.0206  0.5492
 5913SOL    HW229199   4.322   2.889   4.715  0.4897  0.9042  0.0838
 5914SOL     OW29200   1.439   0.412   6.173 -0.3932  0.1550 -0.2342
 5914SOL    HW129201   1.524   0.397   6.132 -0.6453 -1.2269 -0.2444
 5914SOL    HW229202   1.413   0.485   6.117 -0.0031  0.2675 -0.2705
 5915SOL     OW29203   2.132   0.559   0.798 -0.1070  0.0741  0.7008
 5915SOL    HW129204   2.181   0.585   0.875 -1.2948  2.2037  0.7559
 5915SOL    HW229205   2.108   0.469   0.818 -1.9989  0.2863 -0.5504
 5916SOL     OW29206   3.018   1.624   3.465 -0.1476 -0.2230  0.0279
 5916SOL    HW129207   3.075   1.555   3.500  0.8407  0.6016  0.0449
 5916SOL    HW229208   3.038   1.700   3.521 -1.4106 -0.3363  0.6460
 5917SOL     OW29209   1.104   1.423   4.791  0.0922 -0.4355  0.9548
 5917SOL    HW129210   1.072   1.434   4.880 -1.5240  1.7136  0.1062
 5917SOL    HW229211   1.199   1.436   4.787 -0.0080  0.1126  0.3129
 5918SOL     OW29212   2.549   1.850   2.217 -0.3667 -0.1475 -0.4823
 5918SOL    HW129213   2.619   1.901   2.176  1.7670 -2.8412 -0.2050
 5918SOL    HW229214   2.485   1.914   2.249 -0.9529  0.4978 -2.8804
 5919SOL     OW29215   0.941   1.886   1.626 -0.1083  0.4073  0.1368
 5919SOL    HW129216   0.863   1.831   1.616 -0.1671  0.7401 -1.2953
 5919SOL    HW229217   0.979   1.895   1.539  0.0581 -0.4601  0.1121
 5920SOL     OW29218   3.971   1.891   7.484 -0.1824  0.0677  0.0568
 5920SOL    HW129219   4.012   1.948   7.418 -1.4994 -0.9157 -1.6074
 5920SOL    HW229220   3.977   1.805   7.441  4.3050  0.1466  0.5433
 5921SOL     OW29221   3.060   2.421   2.934  0.4207 -0.2750  0.0998
 5921SOL    HW129222   3.017   2.381   3.010  2.2115 -0.9283  0.7560
 5921SOL    HW229223   3.001   2.495   2.919 -0.3261 -0.6815  1.0046
 5922SOL     OW29224   2.320   2.883   9.891 -0.2463 -0.3649  0.0786
 5922SOL    HW129225   2.372   2.816   9.934 -1.5772 -0.1057  2.0727
 5922SOL    HW229226   2.319   2.955   9.954  3.1293  2.0040 -2.5595
 5923SOL     OW29227   1.923   4.517  15.778 -0.1717  0.4053  0.0341
 5923SOL    HW129228   1.980   4.530  15.854 -0.6086 -0.3091  0.4804
 5923SOL    HW229229   1.851   4.565  15.818 -0.7380 -2.0106  1.8587
 5924SOL     OW29230   2.466   0.818   4.707  0.4049 -0.4015  0.3269
 5924SOL    HW129231   2.548   0.863   4.684  0.8605 -1.0713  0.6440
 5924SOL    HW229232   2.436   0.854   4.791 -1.6791 -2.2378  0.3480
 5925SOL     OW29233   3.373   4.135   6.118 -0.4127  1.0581 -0.0255
 5925SOL    HW129234   3.332   4.086   6.189  2.3190  0.5382  1.1655
 5925SOL    HW229235   3.397   4.216   6.162 -2.7711  1.3144  0.7666
 5926SOL     OW29236   4.441   0.816   9.620 -0.4984 -0.7500 -1.2278
 5926SOL    HW129237   4.406   0.847   9.703 -0.1056 -0.7404 -1.0649
 5926SOL    HW229238   4.528   0.791   9.652 -1.0852 -0.9717  0.1552
 5927SOL     OW29239   1.570   3.969   2.897  0.0784  0.5490  0.4303
 5927SOL    HW129240   1.593   3.939   2.985  0.4645  0.7541  0.3959
 5927SOL    HW229241   1.475   3.958   2.905  0.0245 -1.0670 -2.4853
 5928SOL     OW29242   4.395   2.409  12.997  1.0285 -0.0638  0.1435
 5928SOL    HW129243   4.360   2.406  13.086  2.0824  0.8640  0.5955
 5928SOL    HW229244   4.317   2.433  12.947  0.5763 -0.9771  0.4161
 5929SOL     OW29245   0.880   0.894   8.721  0.8811  0.0506  0.1232
 5929SOL    HW129246   0.868   0.953   8.647  2.5259  1.4836  1.0068
 5929SOL    HW229247   0.916   0.815   8.680  0.8464  1.9864 -3.6594
 5930SOL     OW29248   4.484   3.075   8.897 -0.2263 -0.4693 -0.0648
 5930SOL    HW129249   4.392   3.100   8.888  0.0106 -0.4810 -2.7741
 5930SOL    HW229250   4.528   3.136   8.838  0.7044 -0.2352  0.8728
 5931SOL     OW29251   4.058   4.507   3.841  0.3075 -0.0636 -0.0161
 5931SOL    HW129252   3.965   4.484   3.831  0.8978 -1.6856 -1.6575
 5931SOL    HW229253   4.044   4.588   3.890 -3.3669  1.0892 -2.9260
 5932SOL     OW29254   2.706   1.517   6.181 -0.2657  0.0886  0.2378
 5932SOL    HW129255   2.669   1.530   6.094  2.3363 -3.9970 -1.4908
 5932SOL    HW229256   2.755   1.598   6.196 -0.9850  0.5863 -0.1425
 5933SOL     OW29257   1.315   0.019   0.909  0.3857 -0.1494  0.3719
 5933SOL    HW129258   1.363   4.669   0.948  0.0012 -0.4140  0.3489
 5933SOL    HW229259   1.333   0.095   0.964  2.9675  0.0865 -0.7733
 5934SOL     OW29260   0.498   4.168   6.800 -0.3373  0.3611  0.3311
 5934SOL    HW129261   0.570   4.132   6.747 -0.1545  1.3731 -0.1044
 5934SOL    HW229262   0.436   4.198   6.734 -0.6128 -0.7218  0.0994
 5935SOL     OW29263   4.175   1.337   1.714 -0.1137  0.5793 -0.6884
 5935SOL    HW129264   4.180   1.274   1.643  0.1381  0.6844 -0.7642
 5935SOL    HW229265   4.108   1.399   1.685  0.7439  1.8539  0.0342
 5936SOL     OW29266   1.356   2.718  11.951 -0.3421  0.2056  0.6461
 5936SOL    HW129267   1.401   2.781  11.895 -1.3448 -1.9398 -2.6073
 5936SOL    HW229268   1.364   2.756  12.038  2.0013 -0.7674  0.8629
 5937SOL     OW29269   2.910   0.037   2.286 -0.1163  0.0714  0.3041
 5937SOL    HW129270   2.835   4.703   2.300  1.9308 -2.5272  0.4880
 5937SOL    HW229271   2.866   0.122   2.281  1.6689  1.0688  1.6224
 5938SOL     OW29272   0.533   2.884  12.826 -0.1693  0.7966  0.0922
 5938SOL    HW129273   0.556   2.792  12.840  2.0073  1.1745 -0.9315
 5938SOL    HW229274   0.443   2.879  12.858 -0.2606  0.2441 -0.2458
 5939SOL     OW29275   4.026   1.674   7.318 -0.1558 -0.1308  0.6121
 5939SOL    HW129276   4.100   1.634   7.362  0.3777 -0.9525 -1.0499
 5939SOL    HW229277   3.955   1.614   7.340 -0.5358  0.3256  0.6544
 5940SOL     OW29278   3.234   0.148   6.115  0.0894  1.0304  0.2378
 5940SOL    HW129279   3.260   0.239   6.128  1.2824  0.9082 -1.2293
 5940SOL    HW229280   3.145   0.153   6.083  0.6007  1.2625 -1.1236
 5941SOL     OW29281   1.998   3.008   7.818  0.6002 -0.7037  0.0373
 5941SOL    HW129282   1.993   2.957   7.899 -0.1790 -1.3519 -0.4210
 5941SOL    HW229283   1.968   3.092   7.852  2.6557  0.5943 -1.3780
 5942SOL     OW29284   0.371   1.922  15.729 -0.7235 -0.5684 -0.5347
 5942SOL    HW129285   0.459   1.958  15.742  0.1375 -2.5253 -0.9435
 5942SOL    HW229286   0.351   1.954  15.641  0.7450 -0.3541 -0.7909
 5943SOL     OW29287   0.271   0.154   2.734  0.6295 -0.0032 -0.1703
 5943SOL    HW129288   0.274   0.120   2.824 -0.1592 -0.0048 -0.1492
 5943SOL    HW229289   0.361   0.184   2.720  0.6045 -0.7355 -1.8257
 5944SOL     OW29290   2.962   3.381  12.366  0.1178  0.5540  0.1858
 5944SOL    HW129291   2.909   3.387  12.446  0.6401  0.6937  0.5150
 5944SOL    HW229292   2.918   3.449  12.315 -0.7892 -0.0405  0.1612
 5945SOL     OW29293   1.420   0.425   4.937  0.0366  0.0979 -0.4241
 5945SOL    HW129294   1.504   0.406   4.978 -0.3554 -1.8720 -0.5269
 5945SOL    HW229295   1.423   0.373   4.857 -0.5942 -0.3811 -0.1383
 5946SOL     OW29296   1.604   4.059  11.950 -0.0577  0.4464 -0.1640
 5946SOL    HW129297   1.664   4.097  11.886 -0.6569  0.3054 -0.8083
 5946SOL    HW229298   1.660   4.006  12.007  0.9525  1.7914  0.0998
 5947SOL     OW29299   1.401   0.378   1.980 -0.1607  0.6005  0.2022
 5947SOL    HW129300   1.467   0.313   1.955 -2.0319 -0.3838 -2.0847
 5947SOL    HW229301   1.326   0.339   2.024  0.1594 -0.0964  0.1245
 5948SOL     OW29302   1.487   3.110   2.922 -0.1202 -0.4791 -0.4116
 5948SOL    HW129303   1.577   3.135   2.899  0.0260 -1.9306 -1.4064
 5948SOL    HW229304   1.468   3.174   2.991 -0.0195 -1.8471  0.8919
 5949SOL     OW29305   4.670   0.821   6.349  0.1245  0.1616 -0.0544
 5949SOL    HW129306   4.592   0.872   6.371  1.1087  0.7255  2.1744
 5949SOL    HW229307   0.018   0.882   6.332  1.0727 -0.3264  2.1461
 5950SOL     OW29308   1.882   3.432  11.447 -0.0383  0.2111  0.2150
 5950SOL    HW129309   1.937   3.354  11.456  1.1069  1.0991  0.8969
 5950SOL    HW229310   1.808   3.393  11.400 -1.7711  1.3812  1.9972
 5951SOL     OW29311   1.349   4.123   7.837  0.7457 -0.3196  0.1534
 5951SOL    HW129312   1.295   4.121   7.917  1.7947  1.4448  0.9056
 5951SOL    HW229313   1.426   4.077   7.869  0.7796 -0.1315  0.3459
 5952SOL     OW29314   3.560   1.314   8.180 -0.2601 -0.0728 -0.0403
 5952SOL    HW129315   3.597   1.345   8.097 -2.0539  2.4090  0.1050
 5952SOL    HW229316   3.598   1.227   8.193 -0.3872 -0.1327 -0.0722
 5953SOL     OW29317   4.559   0.862   4.639  0.1420  0.9669 -0.3297
 5953SOL    HW129318   4.564   0.789   4.701  1.2758 -0.1303 -1.7348
 5953SOL    HW229319   4.618   0.838   4.568  0.8668  2.2511 -0.1701
 5954SOL     OW29320   1.100   2.632   1.831  0.9282  0.6369 -0.0490
 5954SOL    HW129321   1.030   2.692   1.858  0.0979  0.4019 -1.6576
 5954SOL    HW229322   1.041   2.556   1.821 -0.3642  1.5591  0.5202
 5955SOL     OW29323   2.658   2.478   1.794  0.4311 -0.1826 -0.1679
 5955SOL    HW129324   2.711   2.400   1.780 -1.6036 -1.6424  0.1862
 5955SOL    HW229325   2.587   2.453   1.734  0.1720 -1.8550  0.8365
 5956SOL     OW29326   2.006   1.767  17.229 -0.5390 -0.1751  0.3838
 5956SOL    HW129327   1.934   1.798  17.285 -0.1166  0.1121  0.7716
 5956SOL    HW229328   2.063   1.844  17.224  0.9509 -1.2965 -0.0381
 5957SOL     OW29329   2.891   3.063   5.704  0.0270 -0.1532 -0.1368
 5957SOL    HW129330   2.801   3.031   5.702  0.4578 -1.4381  1.3712
 5957SOL    HW229331   2.884   3.117   5.783 -2.1055  0.3117 -0.6294
 5958SOL     OW29332   4.705   0.059   6.527 -0.0020  0.1091 -0.5110
 5958SOL    HW129333   4.634   4.723   6.505 -1.3672  1.8540 -0.8018
 5958SOL    HW229334   4.673   0.086   6.613  1.0859 -0.4717  0.0776
 5959SOL     OW29335   0.664   1.261  10.014  0.1191 -0.0793 -0.3357
 5959SOL    HW129336   0.751   1.226   9.992 -0.6016 -0.4667 -2.5349
 5959SOL    HW229337   0.605   1.223   9.950  0.7086  0.4156 -1.1804
 5960SOL     OW29338   0.298   1.833   9.203 -0.6230  0.6068  0.4254
 5960SOL    HW129339   0.245   1.845   9.125 -0.2601  1.0259  0.2373
 5960SOL    HW229340   0.310   1.738   9.200 -1.9180  0.4387  0.7101
 5961SOL     OW29341   2.638   3.039   6.394 -0.6583  0.5492  0.0910
 5961SOL    HW129342   2.596   3.025   6.479  0.7753  1.4234  0.9507
 5961SOL    HW229343   2.582   3.100   6.346 -1.4141 -1.0883 -1.0948
 5962SOL     OW29344   2.408   3.936   8.729  0.0532  0.2316  0.8959
 5962SOL    HW129345   2.386   4.029   8.730 -2.1451 -0.2630  0.0311
 5962SOL    HW229346   2.391   3.905   8.818  2.3365  0.4538  1.3898
 5963SOL     OW29347   4.015   1.143   7.724 -0.0729  0.1495 -0.1533
 5963SOL    HW129348   3.932   1.153   7.770 -0.0766 -3.1040  0.5381
 5963SOL    HW229349   4.019   1.220   7.667 -0.9760 -0.8668 -1.5588
 5964SOL     OW29350   3.546   2.418  15.862  0.0706  0.4826 -0.4124
 5964SOL    HW129351   3.583   2.332  15.840 -0.6085  0.0044  0.3160
 5964SOL    HW229352   3.591   2.432  15.946  0.4591  0.6018 -0.6443
 5965SOL     OW29353   4.370   3.563   5.759 -0.4463  0.0869 -0.1036
 5965SOL    HW129354   4.348   3.633   5.699 -2.5652 -0.7596 -0.2957
 5965SOL    HW229355   4.459   3.551   5.726 -0.9361 -2.5955 -0.4513
 5966SOL     OW29356   2.474   3.850  12.123 -0.4571  0.0779 -0.6644
 5966SOL    HW129357   2.563   3.885  12.118 -0.3178 -0.1294  0.4449
 5966SOL    HW229358   2.452   3.832  12.032 -1.5267 -1.3905 -0.0893
 5967SOL     OW29359   1.770   0.547   0.831 -0.2394 -0.1500  0.3453
 5967SOL    HW129360   1.831   0.508   0.768 -1.2208 -1.6199  0.3190
 5967SOL    HW229361   1.683   0.538   0.792  0.3266  0.5121 -1.0857
 5968SOL     OW29362   2.715   0.409   4.577  0.5743 -0.2737 -0.7500
 5968SOL    HW129363   2.778   0.429   4.647 -1.5956 -5.0352  2.5566
 5968SOL    HW229364   2.757   0.449   4.501 -0.0533  1.3433 -0.2355
 5969SOL     OW29365   3.095   1.035   4.784 -0.4073  0.1129 -0.1357
 5969SOL    HW129366   3.027   0.981   4.825  0.2631  1.6462  3.0338
 5969SOL    HW229367   3.041   1.113   4.790 -2.0930 -1.2380  2.4317
 5970SOL     OW29368   3.084   0.259   7.320 -0.1116 -0.6039 -0.0357
 5970SOL    HW129369   3.104   0.350   7.342 -1.1028 -0.1934 -0.9044
 5970SOL    HW229370   3.152   0.216   7.373 -0.4783 -2.8022 -1.3556
 5971SOL     OW29371   1.523   2.260   8.636  0.1307 -0.0987 -0.6311
 5971SOL    HW129372   1.533   2.186   8.577 -0.3342 -0.7810  0.1514
 5971SOL    HW229373   1.434   2.282   8.611  0.6598  2.9204  0.0720
 5972SOL     OW29374   1.538   0.699   3.861 -0.0880  0.0762  0.1210
 5972SOL    HW129375   1.538   0.617   3.912 -0.7169  1.2875  2.0703
 5972SOL    HW229376   1.448   0.729   3.868 -0.3108 -0.9357  1.7832
 5973SOL     OW29377   4.327   0.131  14.408 -0.3958  0.0377  0.2345
 5973SOL    HW129378   4.395   0.177  14.457 -0.2921  1.0895 -0.8936
 5973SOL    HW229379   4.247   0.164  14.448 -2.1296 -0.9178 -2.4183
 5974SOL     OW29380   4.073   3.091   6.693 -0.1792  0.2846 -0.2478
 5974SOL    HW129381   4.114   3.054   6.615  1.4889  1.1109  0.2406
 5974SOL    HW229382   4.144   3.153   6.709  0.4820  0.2531 -3.0532
 5975SOL     OW29383   3.803   4.700  12.464 -0.2529  0.1094  0.1186
 5975SOL    HW129384   3.739   4.662  12.524 -0.9606  0.4861 -0.3933
 5975SOL    HW229385   3.880   4.643  12.460 -0.3411 -0.0991  1.6590
 5976SOL     OW29386   4.519   4.140   1.386  0.2255 -0.1694  0.4976
 5976SOL    HW129387   4.601   4.160   1.432 -0.0692  1.5021  0.3118
 5976SOL    HW229388   4.522   4.196   1.308  1.2357 -1.4328 -0.3637
 5977SOL     OW29389   3.344   1.677   5.352 -0.1639  0.4091 -0.0135
 5977SOL    HW129390   3.344   1.599   5.297 -1.3825 -1.5212  2.7248
 5977SOL    HW229391   3.292   1.745   5.309 -1.3756  0.4411  1.5208
 5978SOL     OW29392   2.333   2.346   8.167  0.1277  0.1669 -0.1095
 5978SOL    HW129393   2.415   2.308   8.199  0.9848  0.7372 -1.6066
 5978SOL    HW229394   2.368   2.406   8.101  1.2401 -0.2245  0.1301
 5979SOL     OW29395   3.536   1.212   7.229 -0.2096 -0.3876 -0.8375
 5979SOL    HW129396   3.546   1.290   7.284  0.0893 -0.2995 -1.0120
 5979SOL    HW229397   3.465   1.252   7.180 -1.2866 -1.2195  0.0419
 5980SOL     OW29398   3.697   3.762   3.183  0.1174  0.2599  0.0075
 5980SOL    HW129399   3.630   3.813   3.228  0.8478  0.0074  1.3674
 5980SOL    HW229400   3.641   3.687   3.160 -1.5291  1.9216 -1.4260
 5981SOL     OW29401   0.182   3.083   1.269  0.0492 -0.1468  0.0993
 5981SOL    HW129402   0.277   3.070   1.271  0.1075  0.3483  0.8075
 5981SOL    HW229403   0.166   3.130   1.351 -2.5114 -2.8968  1.1959
 5982SOL     OW29404   2.277   3.696  11.997 -0.0551  0.2653  0.3716
 5982SOL    HW129405   2.187   3.721  11.973 -0.2017  0.2413  0.8953
 5982SOL    HW229406   2.325   3.748  11.932  1.3772 -2.7371 -0.9646
 5983SOL     OW29407   3.443   1.253   4.823  0.3546 -0.0132  0.0026
 5983SOL    HW129408   3.489   1.196   4.762 -0.4769 -1.6437  0.8963
 5983SOL    HW229409   3.357   1.262   4.783  0.2606  1.1707  0.4698
 5984SOL     OW29410   2.983   1.092   6.452  0.9162  0.8426 -0.4308
 5984SOL    HW129411   3.014   1.183   6.454  0.7186  0.8865  0.3388
 5984SOL    HW229412   2.896   1.098   6.492  1.5774  0.7544  1.0136
 5985SOL     OW29413   3.709   4.633   6.880 -0.4325 -0.2785 -0.4710
 5985SOL    HW129414   3.712   4.580   6.960  0.2897  1.3117  0.5442
 5985SOL    HW229415   3.734   4.567   6.815  1.6869 -1.5006  1.5938
 5986SOL     OW29416   4.559   2.735   2.131  0.4366 -0.6368  0.0186
 5986SOL    HW129417   4.617   2.709   2.059 -0.3918 -0.7315 -0.6129
 5986SOL    HW229418   4.622   2.711   2.199  1.9247  1.0559 -0.7680
 5987SOL     OW29419   3.117   3.053   3.044 -0.3396  0.8293  0.0449
 5987SOL    HW129420   3.154   3.058   2.955 -0.7199  0.4687 -0.1300
 5987SOL    HW229421   3.049   2.990   3.022 -0.7073  1.1549  0.2647
 5988SOL     OW29422   1.357   3.054   8.791 -0.2029 -0.4165 -0.0325
 5988SOL    HW129423   1.267   3.023   8.780 -0.3608 -0.2039  0.6596
 5988SOL    HW229424   1.381   3.009   8.872  0.6199  1.5876  0.8563
 5989SOL     OW29425   0.029   2.475   0.804  0.6341 -0.3656 -0.4209
 5989SOL    HW129426   4.704   2.470   0.721  0.9927  0.6690 -0.6885
 5989SOL    HW229427   4.692   2.536   0.846  0.8126  0.0329 -0.7360
 5990SOL     OW29428   0.224   2.850   5.345 -0.0040 -0.1354  0.3413
 5990SOL    HW129429   0.172   2.868   5.267 -0.0965 -0.6860  0.2754
 5990SOL    HW229430   0.207   2.914   5.414 -1.3274 -1.0449  0.8658
 5991SOL     OW29431   4.531   1.616   1.823  0.1247 -0.2045  0.5147
 5991SOL    HW129432   4.552   1.573   1.906  0.1380 -0.3981  0.4109
 5991SOL    HW229433   4.495   1.542   1.774  2.1728  0.1082 -1.4534
 5992SOL     OW29434   1.525   0.396   1.210  0.1970  0.1992  0.7320
 5992SOL    HW129435   1.589   0.437   1.152  1.2182 -2.4074  0.0184
 5992SOL    HW229436   1.525   0.445   1.292 -0.5609 -0.0549  0.8903
 5993SOL     OW29437   2.073   1.220   5.752 -0.4960  0.3448  0.6051
 5993SOL    HW129438   2.065   1.134   5.792 -0.7233 -0.0303 -0.2623
 5993SOL    HW229439   2.167   1.236   5.764  0.2148 -4.2435  1.1734
 5994SOL     OW29440   4.706   1.205   8.309 -0.3860  0.1791  0.0293
 5994SOL    HW129441   0.036   1.252   8.245 -0.3937  1.5298  1.0170
 5994SOL    HW229442   0.034   1.218   8.389 -0.3310 -1.3637  0.2387
 5995SOL     OW29443   3.069   3.036   9.833 -0.5269  0.2110  0.1940
 5995SOL    HW129444   3.006   2.969   9.860  0.3567 -0.2742  1.0562
 5995SOL    HW229445   3.006   3.102   9.804 -2.6846 -2.0462 -0.2130
 5996SOL     OW29446   3.686   3.323   2.519 -0.0070  0.0290 -0.1320
 5996SOL    HW129447   3.685   3.234   2.483  0.8582 -0.3043  0.6820
 5996SOL    HW229448   3.592   3.342   2.525 -0.3552 -1.0964 -1.7153
 5997SOL     OW29449   2.364   3.679   8.622  0.4341 -0.6117  0.2198
 5997SOL    HW129450   2.369   3.764   8.666  0.0425  0.4662 -1.8317
 5997SOL    HW229451   2.317   3.623   8.684  0.8313 -1.6152 -0.3768
 5998SOL     OW29452   2.321   3.274   5.509 -0.2648  0.3336  0.1183
 5998SOL    HW129453   2.228   3.286   5.530  0.1618  2.1893  0.9272
 5998SOL    HW229454   2.321   3.241   5.419 -0.2143 -0.9090  0.5602
 5999SOL     OW29455   3.077   2.032   2.937  0.0024 -0.2317 -0.4386
 5999SOL    HW129456   3.153   2.036   2.879 -0.3680  0.3835 -0.8719
 5999SOL    HW229457   3.018   1.971   2.893 -0.7601  0.5410 -0.4634
 6000SOL     OW29458   3.181   4.626   5.667 -0.5497  0.2642  0.1654
 6000SOL    HW129459   3.115   4.654   5.604  0.2993 -2.5133 -1.9696
 6000SOL    HW229460   3.201   4.536   5.642  0.0510  0.9212 -1.7804
 6001SOL     OW29461   3.159   1.690   8.385 -0.4276 -0.1053 -0.0058
 6001SOL    HW129462   3.138   1.712   8.295 -0.3429 -1.0225 -0.2510
 6001SOL    HW229463   3.249   1.721   8.394 -0.1959 -0.2991 -1.6381
 6002SOL     OW29464   2.852   4.697   4.509  0.4905  0.3536 -0.2615
 6002SOL    HW129465   2.783   0.021   4.554  0.2935 -0.5014  0.3372
 6002SOL    HW229466   2.804   4.650   4.441 -0.2338  0.1739  0.3753
 6003SOL     OW29467   0.011   3.548   3.014  0.0176  0.7084 -0.3665
 6003SOL    HW129468   0.054   3.628   2.985  1.8202  0.2247  0.9324
 6003SOL    HW229469   4.711   3.567   3.104 -0.5525 -0.6730 -0.2178
 6004SOL     OW29470   4.563   1.330   0.868  0.5529 -0.1196 -0.1485
 6004SOL    HW129471   4.576   1.297   0.779 -0.7179  0.7348 -0.6522
 6004SOL    HW229472   4.523   1.415   0.849 -1.4811 -0.7428  1.3257
 6005SOL     OW29473   0.409   2.249   6.184  0.0067 -0.1774 -0.0547
 6005SOL    HW129474   0.339   2.262   6.248 -0.7613  0.7567 -1.0997
 6005SOL    HW229475   0.419   2.154   6.176 -0.0900 -0.2221  0.3455
 6006SOL     OW29476   2.481   4.588  11.034  0.2318  0.5119  0.7007
 6006SOL    HW129477   2.535   4.552  10.964 -0.9071  1.3226 -0.5979
 6006SOL    HW229478   2.538   4.644  11.088 -2.6745  1.2612  3.0260
 6007SOL     OW29479   3.681   0.122   8.551 -0.5972  0.3199 -0.1035
 6007SOL    HW129480   3.751   0.056   8.555 -0.7405  0.2020  0.4371
 6007SOL    HW229481   3.600   0.074   8.567 -2.4727  3.4815 -0.1903
 6008SOL     OW29482   4.587   1.298  12.876  0.0729  0.7881 -0.2592
 6008SOL    HW129483   4.536   1.230  12.921  0.0433  0.7101 -0.4103
 6008SOL    HW229484   4.659   1.315  12.936  0.2898 -0.0760 -0.2718
 6009SOL     OW29485   1.542   1.427   6.873 -0.6634  0.0064  0.2070
 6009SOL    HW129486   1.556   1.355   6.935 -2.0769 -1.3579 -1.0650
 6009SOL    HW229487   1.453   1.408   6.844  0.1814  1.0784 -3.1179
 6010SOL     OW29488   1.439   4.086   7.024  0.4182 -0.0752 -0.8048
 6010SOL    HW129489   1.526   4.094   6.985  1.9386  0.0194  2.5846
 6010SOL    HW229490   1.428   3.991   7.018  2.1313 -0.4302  1.9134
 6011SOL     OW29491   3.558   1.312   3.421  0.2191  0.1445  0.3651
 6011SOL    HW129492   3.493   1.380   3.398 -1.2217 -0.6539  2.0637
 6011SOL    HW229493   3.552   1.309   3.517  0.4130 -0.4956  0.3536
 6012SOL     OW29494   0.714   2.086  13.962  0.4307  0.2090 -0.5079
 6012SOL    HW129495   0.650   2.014  13.965 -0.1439  0.7527  0.2567
 6012SOL    HW229496   0.696   2.116  13.872  0.8121  0.7599 -0.3981
 6013SOL     OW29497   1.844   0.441   3.895 -0.1510  0.1253  0.3298
 6013SOL    HW129498   1.801   0.433   3.810 -1.6055  0.4096  1.0227
 6013SOL    HW229499   1.871   0.532   3.891 -1.1349  0.3498 -1.0536
 6014SOL     OW29500   4.092   2.550   7.613  0.2656 -0.1078  1.2043
 6014SOL    HW129501   4.151   2.486   7.574  0.0019  0.5887 -0.3348
 6014SOL    HW229502   4.018   2.501   7.647 -0.0833  0.5150  1.3423
 6015SOL     OW29503   4.088   2.095  10.235  0.5524  0.2094 -0.0220
 6015SOL    HW129504   4.159   2.069  10.293 -0.8134 -2.6121  0.3493
 6015SOL    HW229505   4.009   2.084  10.287 -0.0800  0.5146 -0.9078
 6016SOL     OW29506   0.809   0.900  12.936  0.1622  0.5205  0.1440
 6016SOL    HW129507   0.759   0.982  12.934  2.9411  2.2250  0.1055
 6016SOL    HW229508   0.757   0.846  12.996 -2.4243  0.7872 -1.8323
 6017SOL     OW29509   3.929   1.517   9.104  0.2133  0.1989  0.4844
 6017SOL    HW129510   3.836   1.539   9.111 -0.1634 -0.5207 -2.3865
 6017SOL    HW229511   3.964   1.534   9.192 -1.3637 -4.4270  2.0238
 6018SOL     OW29512   4.464   1.464   6.995 -0.2912  0.3834 -0.2340
 6018SOL    HW129513   4.501   1.553   7.001  0.4945  0.1140 -1.0613
 6018SOL    HW229514   4.392   1.460   6.932 -0.5712 -0.8798  0.1698
 6019SOL     OW29515   3.008   1.997   7.060 -0.4687  0.1998  0.0958
 6019SOL    HW129516   2.932   2.034   7.105  0.3519  1.2478  0.6077
 6019SOL    HW229517   3.048   2.081   7.038 -2.4150  1.5888  1.8844
 6020SOL     OW29518   2.589   2.407   8.389 -0.2820 -0.1320 -0.6357
 6020SOL    HW129519   2.521   2.352   8.428 -0.4924  0.0363 -0.7617
 6020SOL    HW229520   2.614   2.454   8.469 -2.0136 -0.2873 -0.0064
 6021SOL     OW29521   2.105   2.636   2.259 -0.2154 -0.1150  0.3488
 6021SOL    HW129522   2.046   2.711   2.263 -2.0547 -1.6059  1.1048
 6021SOL    HW229523   2.185   2.683   2.236 -0.2323 -0.6682 -0.8740
 6022SOL     OW29524   0.162   0.447   5.679 -0.3233 -0.2229 -0.2829
 6022SOL    HW129525   0.184   0.361   5.644  2.2126 -0.7430  2.5847
 6022SOL    HW229526   0.246   0.475   5.714 -1.2170 -0.3960  2.0137
 6023SOL     OW29527   3.238   0.348   1.368  0.7066 -0.0683  0.4157
 6023SOL    HW129528   3.292   0.355   1.447  0.0436 -0.7534  0.9342
 6023SOL    HW229529   3.168   0.411   1.386  0.4185  0.3489 -2.2331
 6024SOL     OW29530   3.327   0.176  13.435 -0.4686  0.5430  0.2830
 6024SOL    HW129531   3.400   0.199  13.493 -2.1563 -0.6876  2.8790
 6024SOL    HW229532   3.270   0.120  13.487 -1.0534 -0.3064 -1.2715
 6025SOL     OW29533   0.069   1.060  13.428 -0.1514  0.1356  0.1501
 6025SOL    HW129534   0.143   1.010  13.393 -0.2149  0.2393 -0.1273
 6025SOL    HW229535   0.006   1.079  13.360 -0.0574  0.5819  0.1863
 6026SOL     OW29536   0.450   1.338   0.065 -0.5414 -0.0397  0.0749
 6026SOL    HW129537   0.454   1.406   0.132  0.6171  0.6721 -0.7281
 6026SOL    HW229538   0.440   1.264   0.125 -0.1611  1.2409  1.7056
 6027SOL     OW29539   4.365   1.413   2.213 -0.0547 -0.3232 -0.2738
 6027SOL    HW129540   4.314   1.434   2.135  0.8097 -1.4356 -1.1373
 6027SOL    HW229541   4.314   1.337   2.240  0.5909 -0.6453  0.0213
 6028SOL     OW29542   2.268   0.323   1.502 -0.3052  0.4833 -0.2156
 6028SOL    HW129543   2.249   0.416   1.514 -1.1673 -0.2730  4.1568
 6028SOL    HW229544   2.355   0.333   1.463  0.0804  0.9498  0.7812
 6029SOL     OW29545   4.440   3.382   3.983 -0.4821 -0.3901 -0.0226
 6029SOL    HW129546   4.456   3.443   3.912 -0.4257 -1.9695 -1.3547
 6029SOL    HW229547   4.480   3.432   4.054 -1.3164 -0.6296  0.6191
 6030SOL     OW29548   0.785   0.614   8.779  0.2089  0.1236 -0.0991
 6030SOL    HW129549   0.872   0.598   8.814  0.9359 -0.2222 -2.1034
 6030SOL    HW229550   0.797   0.618   8.685 -0.1129  0.8159 -0.1078
 6031SOL     OW29551   1.329   4.493   9.405 -0.4424 -0.0729  0.0606
 6031SOL    HW129552   1.339   4.589   9.403 -1.3408  0.0338  0.8235
 6031SOL    HW229553   1.412   4.466   9.366 -0.7576 -0.9899  0.0201
 6032SOL     OW29554   2.457   1.234  16.319 -0.4924 -0.0977  0.4867
 6032SOL    HW129555   2.456   1.321  16.359 -1.1866 -0.3705  1.0552
 6032SOL    HW229556   2.550   1.211  16.328 -0.0892  1.1093 -0.7093
 6033SOL     OW29557   1.646   4.609   4.753  0.0686 -0.1117 -0.5161
 6033SOL    HW129558   1.620   4.697   4.778 -1.1422 -0.4503 -0.5820
 6033SOL    HW229559   1.735   4.602   4.789 -0.3699 -0.8682  0.3976
 6034SOL     OW29560   2.437   3.977   5.537 -0.2566  0.3005  0.3253
 6034SOL    HW129561   2.370   4.015   5.480 -1.9233 -1.0235  1.3849
 6034SOL    HW229562   2.392   3.971   5.622 -0.1283 -0.1885  0.3563
 6035SOL     OW29563   1.094   0.040   8.423 -0.0604  0.3868 -0.3901
 6035SOL    HW129564   1.021   0.099   8.402 -1.2520 -0.8007  0.4564
 6035SOL    HW229565   1.133   0.084   8.499  0.6804 -1.6232  0.3905
 6036SOL     OW29566   1.517   1.360   1.997  0.4534 -0.1740  0.0209
 6036SOL    HW129567   1.503   1.411   1.917  0.9914 -0.1140 -0.0347
 6036SOL    HW229568   1.560   1.285   1.955  1.2559  1.0697 -1.3492
 6037SOL     OW29569   3.772   1.350   4.375 -0.1491 -0.9043  0.0753
 6037SOL    HW129570   3.844   1.407   4.401 -0.2727 -1.2909  1.2645
 6037SOL    HW229571   3.737   1.319   4.458  1.6325  0.2355  1.2449
 6038SOL     OW29572   0.169   1.266   7.668 -0.4701 -0.0716 -0.3561
 6038SOL    HW129573   0.253   1.308   7.651 -1.1319  0.8610 -1.3271
 6038SOL    HW229574   0.160   1.211   7.590  1.3875 -0.0970 -0.5459
 6039SOL     OW29575   1.973   0.178   4.045 -0.0667 -0.0579  0.1641
 6039SOL    HW129576   1.896   0.211   3.998  0.2276  1.3563  0.6892
 6039SOL    HW229577   2.019   0.131   3.975  0.8103 -2.3151  2.2624
 6040SOL     OW29578   3.345   2.084   3.983  0.1446 -0.1484 -0.4126
 6040SOL    HW129579   3.386   2.041   3.908  1.4545  0.8567 -0.2814
 6040SOL    HW229580   3.256   2.092   3.949  0.3638  0.5782 -0.7973
 6041SOL     OW29581   3.145   2.427   8.921  0.1052  0.3907  0.0238
 6041SOL    HW129582   3.105   2.355   8.872 -0.9779  1.0408 -0.0208
 6041SOL    HW229583   3.210   2.448   8.854  1.7132  0.7906  1.6928
 6042SOL     OW29584   0.839   4.177   1.477 -0.2700  0.4840 -0.2469
 6042SOL    HW129585   0.770   4.146   1.419 -0.4232  0.3322  0.0193
 6042SOL    HW229586   0.797   4.255   1.513  0.6027  0.9711 -0.2637
 6043SOL     OW29587   3.048   2.717   3.480  0.3709  0.1525 -0.4967
 6043SOL    HW129588   3.044   2.810   3.500  0.8926 -0.0942  0.7607
 6043SOL    HW229589   3.140   2.695   3.494 -0.4521 -3.0873 -0.1999
 6044SOL     OW29590   4.006   1.810   6.699 -0.1452 -0.6094  0.4442
 6044SOL    HW129591   4.066   1.777   6.765  0.6889 -0.3560 -0.1771
 6044SOL    HW229592   4.025   1.904   6.703  1.9702 -0.9970 -0.1099
 6045SOL     OW29593   3.029   1.277  14.316 -0.0803 -0.1472 -0.2229
 6045SOL    HW129594   2.946   1.229  14.325  0.2098 -0.5687  0.1845
 6045SOL    HW229595   3.039   1.295  14.409  0.6311  0.6434 -0.4509
 6046SOL     OW29596   3.293   0.273   3.339 -0.6108  0.6915  0.0297
 6046SOL    HW129597   3.226   0.271   3.271  0.9884  1.8797 -1.5892
 6046SOL    HW229598   3.326   0.358   3.310 -0.3788 -0.1613 -2.2256
 6047SOL     OW29599   3.876   3.562   8.323  0.4097  0.0923  0.3778
 6047SOL    HW129600   3.908   3.499   8.258 -0.1659  0.3869 -0.1904
 6047SOL    HW229601   3.965   3.582   8.353  0.6862  0.4245 -0.6647
 6048SOL     OW29602   0.185   3.196  17.031 -0.2293 -0.2766 -0.2008
 6048SOL    HW129603   0.211   3.194  17.123 -1.7381 -2.4039  0.1831
 6048SOL    HW229604   0.258   3.152  16.988 -1.7600 -1.0057 -2.0792
 6049SOL     OW29605   1.870   3.234   6.061 -0.0150 -0.0204 -0.1147
 6049SOL    HW129606   1.821   3.166   6.016 -0.7845  1.0176 -0.8499
 6049SOL    HW229607   1.937   3.257   5.996  0.4503  0.9407  0.6994
 6050SOL     OW29608   4.397   1.218   8.792 -0.0711 -0.2558 -0.3419
 6050SOL    HW129609   4.328   1.280   8.769 -1.1928 -1.0442  0.8811
 6050SOL    HW229610   4.347   1.179   8.864  0.3963  1.8427  1.0956
 6051SOL     OW29611   2.895   2.178   3.084  0.9335  0.0475  0.1674
 6051SOL    HW129612   2.819   2.181   3.026  1.6941  1.3755 -0.7575
 6051SOL    HW229613   2.960   2.151   3.020 -0.6415  0.5678 -1.6416
 6052SOL     OW29614   4.547   1.063  14.007  0.6203 -0.7105 -0.2668
 6052SOL    HW129615   4.483   1.039  13.940  0.2672  1.1221 -0.5952
 6052SOL    HW229616   4.521   1.151  14.033 -1.0808 -0.8944 -1.3328
 6053SOL     OW29617   0.864   1.010  17.468 -0.1840  0.1112  0.4566
 6053SOL    HW129618   0.883   0.926  17.425  3.7274  1.2568 -0.0420
 6053SOL    HW229619   0.946   1.056  17.452 -0.5108  0.7839  0.7002
 6054SOL     OW29620   4.585   3.972  15.863 -0.0858 -0.3352 -0.6711
 6054SOL    HW129621   4.590   3.910  15.790  0.2285 -1.3492  0.1990
 6054SOL    HW229622   4.672   3.963  15.903  0.1762 -1.0794 -1.3939
 6055SOL     OW29623   0.099   4.302  12.090  0.3892  0.3233 -0.0032
 6055SOL    HW129624   0.184   4.340  12.112  0.5344  0.9395 -1.6238
 6055SOL    HW229625   0.122   4.225  12.038  1.0946  0.5579 -0.0387
 6056SOL     OW29626   2.316   4.613  12.422 -0.6033 -0.4311 -0.0403
 6056SOL    HW129627   2.346   4.555  12.353 -4.3919 -0.7519 -1.4514
 6056SOL    HW229628   2.333   4.691  12.369 -0.5585 -0.2612  0.2185
 6057SOL     OW29629   0.724   3.270   3.417  0.3003 -0.2962  0.2208
 6057SOL    HW129630   0.691   3.356   3.390 -0.0554 -0.1325  1.1636
 6057SOL    HW229631   0.646   3.220   3.439 -1.3086  1.7409 -0.9205
 6058SOL     OW29632   0.125   0.188  10.549 -0.1409  0.3605 -0.5596
 6058SOL    HW129633   0.140   0.187  10.455  0.8628 -0.6389 -0.3945
 6058SOL    HW229634   0.176   0.266  10.572  1.1319 -0.5215 -0.4170
 6059SOL     OW29635   0.280   1.244   7.179  0.0705  0.4955  0.3038
 6059SOL    HW129636   0.283   1.239   7.083  0.6560  1.0804  0.2960
 6059SOL    HW229637   0.351   1.305   7.198 -0.0260  0.3898  0.9827
 6060SOL     OW29638   4.199   0.488   2.852  0.0512 -0.2139  0.0305
 6060SOL    HW129639   4.235   0.552   2.913 -1.4367  0.8804 -0.2431
 6060SOL    HW229640   4.278   0.455   2.810  0.8731 -0.3682  1.6902
 6061SOL     OW29641   2.778   4.110  12.959 -0.2848 -0.2704  0.0637
 6061SOL    HW129642   2.738   4.187  13.000  0.5627  1.6843 -2.8023
 6061SOL    HW229643   2.864   4.117  13.000 -0.0183 -3.3745  0.0224
 6062SOL     OW29644   4.390   2.157   7.012 -0.4057  0.2088 -0.2228
 6062SOL    HW129645   4.476   2.140   6.974 -1.0420 -0.9548 -1.1354
 6062SOL    HW229646   4.391   2.079   7.069  1.6132  1.1676  1.0799
 6063SOL     OW29647   1.031   1.104   8.324 -0.3772 -0.4201 -0.1606
 6063SOL    HW129648   1.010   1.129   8.234 -0.6284  2.3742  0.6607
 6063SOL    HW229649   1.109   1.155   8.347 -0.5250 -0.7402  1.0860
 6064SOL     OW29650   2.852   4.229   5.740  0.1391 -0.1038  0.2870
 6064SOL    HW129651   2.808   4.239   5.656  1.1937 -1.4533 -0.4407
 6064SOL    HW229652   2.801   4.156   5.775  0.5633  0.3637  1.8734
 6065SOL     OW29653   3.289   4.647  12.637 -0.2175 -0.3509  0.5987
 6065SOL    HW129654   3.314   4.673  12.548 -1.1174 -1.3418  0.0447
 6065SOL    HW229655   3.344   4.694  12.698  0.4725  0.7881 -0.9124
 6066SOL     OW29656   4.238   1.558   1.205 -0.3893 -0.6777  0.5516
 6066SOL    HW129657   4.282   1.600   1.132 -1.5246 -0.9189 -0.2750
 6066SOL    HW229658   4.232   1.465   1.185  1.5879 -0.9325  1.1782
 6067SOL     OW29659   1.843   1.797   5.959  0.2831 -0.2283 -0.0807
 6067SOL    HW129660   1.857   1.850   5.880  0.8504  0.2983  0.3703
 6067SOL    HW229661   1.858   1.706   5.932  0.1510 -0.0714 -0.6966
 6068SOL     OW29662   2.753   1.140   0.770  0.0270  0.4910  0.3577
 6068SOL    HW129663   2.724   1.076   0.835  0.1624 -0.4196 -0.4693
 6068SOL    HW229664   2.726   1.224   0.807  0.1099  0.9386 -0.6092
 6069SOL     OW29665   0.708   2.778  17.249 -0.4458  0.2796  0.2707
 6069SOL    HW129666   0.656   2.859  17.246 -0.8995 -0.0449 -0.5033
 6069SOL    HW229667   0.649   2.716  17.207  0.4182 -0.1068 -0.3818
 6070SOL     OW29668   0.203   2.824   6.052  0.1747 -0.1814 -0.9088
 6070SOL    HW129669   0.254   2.785   5.980 -0.2247 -0.2400 -1.1615
 6070SOL    HW229670   0.215   2.767   6.128 -2.5848  2.2905  1.3762
 6071SOL     OW29671   3.692   4.313   6.901 -0.1799  0.0034 -0.3286
 6071SOL    HW129672   3.629   4.292   6.832 -0.0536 -1.8546  0.1174
 6071SOL    HW229673   3.650   4.318   6.987 -2.7515  0.8371 -1.6379
 6072SOL     OW29674   0.037   2.964   5.707  0.0253  0.3484  0.3215
 6072SOL    HW129675   4.670   2.934   5.712  0.3049 -0.5042  0.1705
 6072SOL    HW229676   0.044   3.005   5.793  0.6770 -1.2282  1.0175
 6073SOL     OW29677   0.877   2.712  16.108  0.2882 -0.1509 -0.6126
 6073SOL    HW129678   0.852   2.628  16.148  0.4034 -0.2025 -0.6480
 6073SOL    HW229679   0.972   2.701  16.102  0.4099  0.6194  0.0167
 6074SOL     OW29680   3.486   3.784   2.325  0.2420  0.3076  0.3724
 6074SOL    HW129681   3.531   3.748   2.248  1.5712  1.2194  0.7313
 6074SOL    HW229682   3.428   3.708   2.331  0.5419 -0.0007 -0.6099
 6075SOL     OW29683   0.933   4.668   6.017  0.6492 -0.1183 -0.0004
 6075SOL    HW129684   1.018   4.645   6.054 -0.1538 -0.7844  1.4326
 6075SOL    HW229685   0.933   4.623   5.933  1.6640 -1.7631  0.8938
 6076SOL     OW29686   1.905   1.483   2.833  0.2111 -1.0089  0.4910
 6076SOL    HW129687   1.991   1.488   2.875  0.2087  1.8618  0.1334
 6076SOL    HW229688   1.859   1.535   2.899 -1.5047 -0.9637 -0.7279
 6077SOL     OW29689   3.245   1.220   6.954  0.0150 -0.4617 -0.1897
 6077SOL    HW129690   3.322   1.257   6.912 -0.6038 -0.4382 -1.3166
 6077SOL    HW229691   3.178   1.282   6.925  1.9848  1.2136 -1.1684
 6078SOL     OW29692   2.747   1.257   0.539  0.1008  0.2038 -0.2443
 6078SOL    HW129693   2.772   1.205   0.615 -1.2809 -0.2950 -0.1231
 6078SOL    HW229694   2.713   1.190   0.481 -0.2121  0.2946 -0.1663
 6079SOL     OW29695   4.222   2.269  10.066 -0.0775  0.0833  0.2569
 6079SOL    HW129696   4.207   2.214   9.989 -1.3923 -0.5423  0.9651
 6079SOL    HW229697   4.197   2.201  10.129 -0.5440 -0.0906 -0.1182
 6080SOL     OW29698   0.392   2.565   9.014 -0.6719  0.6625 -0.1623
 6080SOL    HW129699   0.341   2.537   9.090  1.3206 -2.2937  0.0948
 6080SOL    HW229700   0.475   2.575   9.060 -0.3419 -0.0141 -0.6058
 6081SOL     OW29701   4.550   3.747   1.545  0.2819 -0.1311 -0.0393
 6081SOL    HW129702   4.472   3.743   1.600  0.4933  1.9134  0.4113
 6081SOL    HW229703   4.616   3.779   1.606 -0.5062  0.1970  0.6332
 6082SOL     OW29704   4.121   2.955   7.040 -0.1843  0.0439  0.3657
 6082SOL    HW129705   4.191   2.989   6.985  0.6783 -0.9160  0.8855
 6082SOL    HW229706   4.063   3.031   7.036 -0.2582  0.0823  2.2535
 6083SOL     OW29707   1.977   3.486   4.957 -0.3003 -0.1026 -0.6642
 6083SOL    HW129708   2.018   3.544   4.893 -1.9822  1.2326 -0.5165
 6083SOL    HW229709   2.030   3.407   4.942  1.4464  1.2150 -1.3886
 6084SOL     OW29710   1.445   0.935   4.901  0.0759 -0.7179 -0.0227
 6084SOL    HW129711   1.429   1.028   4.919 -1.1575 -1.5093  2.8899
 6084SOL    HW229712   1.456   0.935   4.806  0.8323 -1.6261  0.0693
 6085SOL     OW29713   3.130   4.578   8.203  0.6896  0.3757  0.1029
 6085SOL    HW129714   3.132   4.658   8.255 -0.8602  0.4212  0.0921
 6085SOL    HW229715   3.058   4.594   8.142 -0.1106  0.6294  1.1078
 6086SOL     OW29716   4.105   2.003   7.275 -0.5202 -0.0209 -0.6061
 6086SOL    HW129717   4.199   1.999   7.256  0.1545  3.0005  2.1000
 6086SOL    HW229718   4.088   2.042   7.189  1.1180  0.7055 -0.5954
 6087SOL     OW29719   4.563   0.328  11.395  0.9573  1.1094  0.1904
 6087SOL    HW129720   4.615   0.349  11.317 -1.0585  0.0718 -1.4212
 6087SOL    HW229721   4.569   0.410  11.445  2.0178  0.7894  0.5872
 6088SOL     OW29722   0.678   0.308   2.154 -0.3415  0.3180  0.2712
 6088SOL    HW129723   0.744   0.366   2.116 -1.9942  1.9638 -0.0753
 6088SOL    HW229724   0.618   0.376   2.187  1.0767  1.3968  0.6244
 6089SOL     OW29725   3.953   4.470   7.314  0.1996  0.1778 -0.1462
 6089SOL    HW129726   4.004   4.403   7.360 -0.1336 -0.7767 -1.1568
 6089SOL    HW229727   3.945   4.425   7.230 -1.0570 -1.2165  0.7193
 6090SOL     OW29728   0.852   4.223   7.654 -0.0621  0.4852  0.8607
 6090SOL    HW129729   0.889   4.257   7.573 -1.4860  2.1783  0.9185
 6090SOL    HW229730   0.824   4.138   7.620  0.2454 -0.5417  3.1439
 6091SOL     OW29731   0.844   2.599   0.197 -0.1415  0.3695 -0.3519
 6091SOL    HW129732   0.823   2.506   0.199  1.0336  0.1104  0.3759
 6091SOL    HW229733   0.901   2.595   0.120  0.0796  2.0553 -0.2710
 6092SOL     OW29734   0.844   3.305  15.887  0.2225  0.4611 -0.3624
 6092SOL    HW129735   0.765   3.358  15.878  0.1872  0.3068 -0.9376
 6092SOL    HW229736   0.827   3.265  15.972 -1.8661  0.4819 -0.7889
 6093SOL     OW29737   3.994   0.599   8.525 -0.1201  0.6081  0.2009
 6093SOL    HW129738   4.031   0.516   8.557  0.9268  1.5754  1.5093
 6093SOL    HW229739   4.070   0.624   8.472  0.5212 -1.1450  0.2879
 6094SOL     OW29740   1.255   4.672  10.066  0.2984  0.3000  0.0968
 6094SOL    HW129741   1.167   4.652  10.034 -0.1791  2.1785  0.1907
 6094SOL    HW229742   1.249   4.620  10.146 -1.2113  1.2045  0.5693
 6095SOL     OW29743   0.771   4.416   6.279  0.0429 -0.1326  0.5953
 6095SOL    HW129744   0.704   4.363   6.234 -0.3049  0.3248  0.5779
 6095SOL    HW229745   0.739   4.391   6.366  0.7523 -0.9652  0.6139
 6096SOL     OW29746   1.074   0.207   0.805  0.2777  0.3783 -0.0830
 6096SOL    HW129747   1.043   0.156   0.730 -0.0846 -0.7122  0.8056
 6096SOL    HW229748   1.163   0.174   0.815  0.1087 -0.2245 -0.6353
 6097SOL     OW29749   3.896   0.788   4.861  0.7821 -0.0632  0.1397
 6097SOL    HW129750   3.951   0.784   4.783  0.4799  1.4930 -0.1548
 6097SOL    HW229751   3.888   0.696   4.887  0.3194  0.1295  0.6647
 6098SOL     OW29752   4.118   4.110   6.828  0.3066  0.0341 -0.1685
 6098SOL    HW129753   4.121   4.197   6.789  0.9992 -0.7836 -1.9346
 6098SOL    HW229754   4.024   4.098   6.834  0.1000  0.8722 -1.8949
 6099SOL     OW29755   4.310   4.496  10.341 -0.0818 -0.3388 -0.3347
 6099SOL    HW129756   4.273   4.411  10.365  1.8713 -0.8515  0.8729
 6099SOL    HW229757   4.237   4.543  10.382 -0.2092 -1.5876  0.8420
 6100SOL     OW29758   3.495   2.679   2.414 -0.1304 -0.2297 -0.3855
 6100SOL    HW129759   3.588   2.693   2.432  0.0212 -0.9592 -0.5937
 6100SOL    HW229760   3.492   2.583   2.406  3.5629 -0.4091  0.0638
 6101SOL     OW29761   3.360   0.466   6.885  0.3388  0.4460 -0.1521
 6101SOL    HW129762   3.430   0.441   6.825 -0.7803 -1.0218 -0.8593
 6101SOL    HW229763   3.397   0.448   6.971 -1.7110  0.2292  0.6812
 6102SOL     OW29764   1.325   4.301   6.254 -0.1971  0.7214  0.0716
 6102SOL    HW129765   1.256   4.365   6.270  0.5331  0.9747  2.2476
 6102SOL    HW229766   1.370   4.306   6.338 -0.1809  3.0628 -0.0662
 6103SOL     OW29767   0.207   3.834   5.443  0.0131  0.3940  0.2820
 6103SOL    HW129768   0.259   3.778   5.385 -0.2230 -2.5450  2.9135
 6103SOL    HW229769   0.197   3.905   5.380  1.1709 -0.8780 -1.3281
 6104SOL     OW29770   4.093   1.315  16.751 -0.1527  0.1523 -0.2598
 6104SOL    HW129771   4.143   1.336  16.830 -2.2664 -4.8486  2.4184
 6104SOL    HW229772   4.002   1.331  16.777  0.1343  1.2549  0.0614
 6105SOL     OW29773   2.861   4.339  10.448  0.0925  1.1752 -0.1437
 6105SOL    HW129774   2.872   4.254  10.405  0.4959  1.1096  0.1001
 6105SOL    HW229775   2.848   4.394  10.370  1.3709 -0.3059 -1.3974
 6106SOL     OW29776   2.033   4.267   7.681  0.0947  0.1005  0.2880
 6106SOL    HW129777   2.033   4.230   7.769 -0.1049 -2.6485 -0.8488
 6106SOL    HW229778   1.951   4.315   7.689 -0.4965 -0.5073 -1.8930
 6107SOL     OW29779   1.684   3.654   6.436 -0.1160 -0.2722  0.2796
 6107SOL    HW129780   1.758   3.609   6.396  1.3391  2.1553  0.2704
 6107SOL    HW229781   1.617   3.591   6.409  0.9001 -1.5558  0.7867
 6108SOL     OW29782   4.621   0.003   5.454  0.3268 -0.0157  0.0226
 6108SOL    HW129783   4.650   0.008   5.546 -1.4228  1.2689  0.4970
 6108SOL    HW229784   4.632   0.094   5.427  2.0916 -1.0469 -2.7466
 6109SOL     OW29785   4.406   1.412   3.939  0.0504 -0.3162  0.4472
 6109SOL    HW129786   4.490   1.404   3.894 -1.2270 -3.3169 -1.4284
 6109SOL    HW229787   4.348   1.454   3.875 -0.3020  2.5794  2.6756
 6110SOL     OW29788   4.003   2.510   2.403 -0.0925  0.6313 -0.0028
 6110SOL    HW129789   3.931   2.572   2.392 -1.0224 -0.1483  1.6428
 6110SOL    HW229790   3.951   2.429   2.399 -0.5475  0.9319 -0.1516
 6111SOL     OW29791   1.008   2.516   8.165  1.2404  0.2273 -0.4995
 6111SOL    HW129792   0.914   2.502   8.174  1.6498 -1.9857  0.1982
 6111SOL    HW229793   1.017   2.512   8.070  1.6360  1.2108 -0.5084
 6112SOL     OW29794   0.769   0.447   4.890  0.4630 -0.6127 -0.0550
 6112SOL    HW129795   0.854   0.474   4.925 -0.4242  1.6602  0.3991
 6112SOL    HW229796   0.722   0.531   4.887 -0.9190 -1.3877 -0.0761
 6113SOL     OW29797   0.231   3.005   2.260  0.0527  0.4302  0.2052
 6113SOL    HW129798   0.305   2.948   2.280 -0.0163 -0.1058 -1.0755
 6113SOL    HW229799   0.156   2.960   2.299  0.2170  0.8726  1.0445
 6114SOL     OW29800   2.483   4.046   4.301  0.3343 -0.4788 -0.3585
 6114SOL    HW129801   2.527   3.972   4.343  0.8121  0.1625  0.2831
 6114SOL    HW229802   2.558   4.097   4.267  1.2403  0.0536  2.4571
 6115SOL     OW29803   2.355   3.609  15.880 -0.0639  0.2277 -0.0828
 6115SOL    HW129804   2.402   3.630  15.961 -0.4818  2.2859 -0.3888
 6115SOL    HW229805   2.262   3.621  15.897 -0.2725 -1.1577 -0.2018
 6116SOL     OW29806   0.140   4.017   3.882 -0.6043 -0.2466 -0.5136
 6116SOL    HW129807   0.150   4.108   3.912 -1.0184 -0.1614 -0.6241
 6116SOL    HW229808   0.057   4.031   3.835 -1.3862 -0.5642  0.7757
 6117SOL     OW29809   1.128   0.503  15.402 -0.2703  0.0241  0.0210
 6117SOL    HW129810   1.213   0.504  15.445  0.7414 -0.4754 -1.9279
 6117SOL    HW229811   1.095   0.591  15.420  1.7198  0.6085  0.8132
 6118SOL     OW29812   1.069   1.233   3.172  0.4926 -0.4084 -0.2248
 6118SOL    HW129813   1.117   1.185   3.240 -0.4115 -1.7587 -0.5483
 6118SOL    HW229814   1.037   1.303   3.229  3.0249  0.3975  0.2259
 6119SOL     OW29815   4.285   2.219   5.853  0.3085  0.2660  0.1528
 6119SOL    HW129816   4.193   2.243   5.864  0.7227  2.8832 -2.2933
 6119SOL    HW229817   4.322   2.307   5.862  1.1441  0.0173 -0.8515
 6120SOL     OW29818   1.187   4.682   1.388  0.0946 -0.1705 -0.3684
 6120SOL    HW129819   1.156   4.632   1.463 -1.1717  1.4555  0.2130
 6120SOL    HW229820   1.174   0.045   1.428 -0.1205  0.1031 -1.0251
 6121SOL     OW29821   2.039   1.884   6.428 -0.2720  0.4059  0.4159
 6121SOL    HW129822   2.004   1.795   6.430 -0.4952  0.4543 -1.4605
 6121SOL    HW229823   1.966   1.935   6.465 -0.4344  0.4909 -0.0275
 6122SOL     OW29824   2.285   2.162   6.138 -0.1927  0.0459 -0.7443
 6122SOL    HW129825   2.261   2.214   6.062  1.8598  0.0868 -1.3572
 6122SOL    HW229826   2.377   2.149   6.117  0.7501  2.3872  1.9634
 6123SOL     OW29827   3.832   2.279   8.476 -0.0245  0.0909 -0.1878
 6123SOL    HW129828   3.865   2.285   8.566 -3.6079  3.3279  0.8737
 6123SOL    HW229829   3.909   2.246   8.430  0.4803  0.3773  0.4360
 6124SOL     OW29830   3.041   4.208   6.280 -0.2003 -0.2725  0.0726
 6124SOL    HW129831   2.966   4.198   6.222 -0.2156 -0.7388  0.1686
 6124SOL    HW229832   3.102   4.254   6.222  0.1901 -1.0218 -0.1060
 6125SOL     OW29833   4.088   2.961  16.499 -0.6829 -0.2715  0.0242
 6125SOL    HW129834   4.147   2.965  16.424  0.4254  0.3306  0.9300
 6125SOL    HW229835   4.044   2.877  16.486 -0.8628 -0.4809  1.8562
 6126SOL     OW29836   2.176   2.856  16.010 -0.1756 -0.5750 -0.1882
 6126SOL    HW129837   2.245   2.814  15.959  0.2822  0.7120 -0.6200
 6126SOL    HW229838   2.189   2.948  15.989  1.2645 -0.8151 -0.3333
 6127SOL     OW29839   1.048   0.143   1.567  0.1908 -0.3446  0.5674
 6127SOL    HW129840   1.093   0.176   1.645 -0.8612  0.0717  0.9939
 6127SOL    HW229841   0.957   0.145   1.595  0.1749  0.4015  0.4844
 6128SOL     OW29842   0.677   1.850   9.745  0.6229  0.1010 -0.0810
 6128SOL    HW129843   0.700   1.791   9.674  1.8912 -0.7343  1.0245
 6128SOL    HW229844   0.640   1.787   9.807 -1.3932  1.4442  0.0873
 6129SOL     OW29845   0.834   0.456   1.988  0.0888 -0.3855 -0.4003
 6129SOL    HW129846   0.824   0.448   1.893 -0.2064 -3.7986 -0.0862
 6129SOL    HW229847   0.913   0.510   1.985 -0.7484  0.8857  0.6507
 6130SOL     OW29848   3.888   3.258   4.724  0.4203  0.2478 -0.1176
 6130SOL    HW129849   3.912   3.174   4.685  0.1394 -0.1144  0.4876
 6130SOL    HW229850   3.935   3.262   4.807  2.4526 -1.2504 -1.2055
 6131SOL     OW29851   3.273   4.586   1.458  0.3602  0.4713 -0.4040
 6131SOL    HW129852   3.322   4.509   1.429  0.0526  0.7347 -1.6126
 6131SOL    HW229853   3.308   4.656   1.402 -0.0878 -0.2295 -1.5663
 6132SOL     OW29854   3.790   3.146   2.300 -0.1352 -0.2926  0.2689
 6132SOL    HW129855   3.775   3.051   2.294 -2.2679  0.0502  0.2338
 6132SOL    HW229856   3.699   3.172   2.287  0.3114  0.8940 -0.4698
 6133SOL     OW29857   2.129   4.134   7.422 -0.0929  0.1608 -0.1576
 6133SOL    HW129858   2.114   4.209   7.480  0.0317  0.7495 -0.9027
 6133SOL    HW229859   2.135   4.064   7.487 -3.0790 -0.6650 -0.7411
 6134SOL     OW29860   2.647   1.679   0.113 -0.1114  0.1671 -0.0809
 6134SOL    HW129861   2.699   1.621   0.169  1.3898  0.9560 -0.6627
 6134SOL    HW229862   2.568   1.629   0.094 -1.0301  1.2279  0.8978
 6135SOL     OW29863   2.202   0.161  11.851  0.4015 -0.6109 -0.3890
 6135SOL    HW129864   2.270   0.096  11.866 -0.7102 -1.5457  0.6483
 6135SOL    HW229865   2.255   0.235  11.824 -0.8864 -0.2433 -1.9304
 6136SOL     OW29866   0.339   1.820   3.425 -0.3492  0.1491  0.7754
 6136SOL    HW129867   0.293   1.795   3.345 -1.8352 -2.1503  2.3755
 6136SOL    HW229868   0.367   1.910   3.409 -1.7842  0.4280 -0.1269
 6137SOL     OW29869   3.812   4.708   3.649  0.5241  0.2902  0.1654
 6137SOL    HW129870   3.860   4.683   3.570 -0.5676 -1.4429  0.0365
 6137SOL    HW229871   3.804   0.079   3.636  2.0067  0.3391 -0.2937
 6138SOL     OW29872   2.790   2.792   5.857  0.6053  0.1835  0.4900
 6138SOL    HW129873   2.707   2.839   5.848  0.8370 -0.0280 -2.9030
 6138SOL    HW229874   2.758   2.707   5.886 -2.4010 -0.0048 -3.3665
 6139SOL     OW29875   2.988   1.975   9.047  0.2920  0.4545 -0.2657
 6139SOL    HW129876   2.952   2.059   9.020 -5.3186 -2.1874 -0.9640
 6139SOL    HW229877   3.079   2.000   9.029  0.8489 -1.3575  0.0033
 6140SOL     OW29878   3.994   2.597   9.419 -0.1570 -0.6854 -0.3028
 6140SOL    HW129879   4.056   2.597   9.346 -1.2501 -2.6849 -1.2131
 6140SOL    HW229880   4.025   2.528   9.477  1.2767  0.0261 -0.2161
 6141SOL     OW29881   0.791   4.632   8.747 -0.5380  0.0286 -0.3697
 6141SOL    HW129882   0.762   4.722   8.733 -1.2741  0.0064  1.0127
 6141SOL    HW229883   0.864   4.626   8.686 -0.9477 -4.4255 -0.4032
 6142SOL     OW29884   1.728   4.569  14.619  0.4725 -0.1453 -0.6675
 6142SOL    HW129885   1.754   4.526  14.701  3.0330  0.4292 -1.2077
 6142SOL    HW229886   1.741   4.660  14.645 -1.4546 -0.1230  0.2697
 6143SOL     OW29887   1.806   2.043   3.635 -0.3604 -0.2455  0.1168
 6143SOL    HW129888   1.884   2.079   3.676  0.0377 -0.3610 -0.5310
 6143SOL    HW229889   1.739   2.071   3.697 -0.1410 -1.2840  0.8257
 6144SOL     OW29890   4.076   2.530   8.675 -0.3887 -0.1330  0.0650
 6144SOL    HW129891   3.994   2.514   8.722  0.8165  1.1232  2.5380
 6144SOL    HW229892   4.040   2.576   8.599  2.8711  1.2366 -0.6214
 6145SOL     OW29893   0.803   3.896  14.485 -0.0715 -0.0085  0.0812
 6145SOL    HW129894   0.708   3.896  14.475 -0.3034 -1.7018  2.3556
 6145SOL    HW229895   0.811   3.831  14.554 -1.8947 -0.2229  0.0949
 6146SOL     OW29896   4.581   1.494   9.092 -0.6157 -0.0933 -0.0864
 6146SOL    HW129897   4.668   1.530   9.107 -1.2481  0.9587  1.1121
 6146SOL    HW229898   4.594   1.409   9.048 -0.9948  0.5526 -1.4440
 6147SOL     OW29899   0.321   0.266   2.038 -0.3638  0.0319 -0.2970
 6147SOL    HW129900   0.346   0.176   2.015  0.3175 -0.3664  2.0144
 6147SOL    HW229901   0.230   0.259   2.068 -0.8799  0.0602 -1.8492
 6148SOL     OW29902   0.179   3.208   4.403  0.4014 -0.2325  0.8021
 6148SOL    HW129903   0.093   3.180   4.434 -0.2959  0.2250 -0.7226
 6148SOL    HW229904   0.178   3.302   4.388 -1.8885 -0.6610 -1.7971
 6149SOL     OW29905   3.722   0.800   7.479 -0.0004 -0.2285  0.0488
 6149SOL    HW129906   3.774   0.725   7.449  0.0548  0.4336 -1.5391
 6149SOL    HW229907   3.774   0.829   7.554 -0.1805  1.3556 -0.4250
 6150SOL     OW29908   2.732   4.598   7.535 -0.2229 -0.2007  0.0606
 6150SOL    HW129909   2.686   4.577   7.454  1.6902 -0.7671 -0.8789
 6150SOL    HW229910   2.741   4.692   7.519  2.2274 -0.2214  1.2568
 6151SOL     OW29911   1.706   0.673   2.734 -0.2348  0.2329 -0.0396
 6151SOL    HW129912   1.752   0.747   2.774  2.1309 -1.0928 -0.3066
 6151SOL    HW229913   1.617   0.696   2.760  0.7833  2.0418  1.8829
 6152SOL     OW29914   2.497   0.042   0.719  0.0559  0.4459  0.5045
 6152SOL    HW129915   2.508   0.061   0.812 -0.0362 -0.1600  0.6374
 6152SOL    HW229916   2.471   4.673   0.716  0.0788  0.4702 -0.7442
 6153SOL     OW29917   4.294   0.372   8.405 -0.4144  0.4465 -0.7876
 6153SOL    HW129918   4.262   0.408   8.322  0.2355 -0.6512 -1.5039
 6153SOL    HW229919   4.225   0.381   8.472 -0.1857 -0.6769 -0.3952
 6154SOL     OW29920   0.760   2.368  13.552  0.4510 -0.2110  0.1903
 6154SOL    HW129921   0.701   2.424  13.501 -1.4514 -1.2909  1.2138
 6154SOL    HW229922   0.841   2.403  13.514  1.2195 -0.4517  1.5916
 6155SOL     OW29923   1.749   0.101  11.320  0.1937  0.0364 -0.7265
 6155SOL    HW129924   1.701   0.030  11.363  1.4759 -0.2433  0.2308
 6155SOL    HW229925   1.748   0.170  11.385  0.1141 -0.6880  0.0431
 6156SOL     OW29926   2.529   3.720  16.531 -0.0795 -0.6139  0.0242
 6156SOL    HW129927   2.519   3.771  16.450  1.0944 -0.6190 -0.1181
 6156SOL    HW229928   2.584   3.657  16.484  0.9164 -0.7282  1.3776
 6157SOL     OW29929   3.060   0.346   4.051 -0.8548  0.2052  0.5581
 6157SOL    HW129930   3.059   0.347   4.146  1.1758  0.2487  0.5765
 6157SOL    HW229931   2.984   0.401   4.032 -0.3861  0.7996  0.4124
 6158SOL     OW29932   2.050   0.951   0.104 -0.4045  0.2101  0.0047
 6158SOL    HW129933   2.042   0.978   0.012  0.0393  3.5830  0.9483
 6158SOL    HW229934   2.055   0.855   0.103 -1.1543  0.1738 -0.6580
 6159SOL     OW29935   2.726   1.507   3.512  0.8620 -0.0374  0.9837
 6159SOL    HW129936   2.775   1.557   3.577 -1.4299  0.5473  2.2471
 6159SOL    HW229937   2.772   1.530   3.431  0.6757 -1.9611  0.3312
 6160SOL     OW29938   2.426   0.558   1.566 -0.7401 -0.3176 -0.2970
 6160SOL    HW129939   2.385   0.630   1.517  1.5968  0.2224 -1.5105
 6160SOL    HW229940   2.516   0.565   1.533 -0.6354  2.3277  0.4874
 6161SOL     OW29941   3.487   1.677   3.603  0.2025 -0.0531  0.0619
 6161SOL    HW129942   3.448   1.623   3.535 -0.9501 -0.7283  1.2386
 6161SOL    HW229943   3.575   1.683   3.567 -0.1467 -0.1211 -0.7908
 6162SOL     OW29944   4.193   4.040   4.945 -0.0944 -0.3782 -0.3263
 6162SOL    HW129945   4.150   4.124   4.930  0.3827  0.0460  0.6434
 6162SOL    HW229946   4.192   4.005   4.856  3.0167 -3.2561  0.7694
 6163SOL     OW29947   0.932   2.621  17.362  0.3384  0.3832  0.4976
 6163SOL    HW129948   0.860   2.679  17.336 -1.0493 -0.9039  1.5085
 6163SOL    HW229949   0.881   2.562  17.416  0.7541  1.0764  1.6414
 6164SOL     OW29950   0.700   2.315   3.220 -0.1725 -1.0193  0.7099
 6164SOL    HW129951   0.732   2.383   3.161 -1.5284  1.0048  2.2816
 6164SOL    HW229952   0.700   2.247   3.153 -1.2050  0.2833 -0.5984
 6165SOL     OW29953   1.616   4.666   0.513  0.3138 -0.5252  0.3443
 6165SOL    HW129954   1.529   4.681   0.550  0.5698 -1.2019  1.1981
 6165SOL    HW229955   1.661   0.007   0.568  0.6351 -0.4942  0.0480
 6166SOL     OW29956   2.084   4.665  11.274 -0.2850  0.4776  0.3976
 6166SOL    HW129957   2.132   4.716  11.209 -2.1059  2.8052  0.8903
 6166SOL    HW229958   2.080   0.000  11.350  1.5912  2.1036 -0.7963
 6167SOL     OW29959   2.123   4.161   6.404  0.4142  0.6253  0.0995
 6167SOL    HW129960   2.040   4.127   6.371  0.4826 -0.0523  0.6358
 6167SOL    HW229961   2.137   4.246   6.363  3.8597  0.4576  0.9332
 6168SOL     OW29962   2.932   2.495  10.874 -0.3052 -0.0710  0.1332
 6168SOL    HW129963   3.014   2.541  10.853  0.2984 -1.3923 -0.4006
 6168SOL    HW229964   2.916   2.454  10.790  0.5827  0.8545 -0.4936
 6169SOL     OW29965   3.056   0.028   9.106 -0.3249  0.0982  0.1235
 6169SOL    HW129966   3.019   4.691   9.042  0.1158  0.8957 -0.8883
 6169SOL    HW229967   2.973   0.070   9.126  0.4157  0.5798  2.2616
 6170SOL     OW29968   3.220   2.333  10.929 -0.2257 -0.1533  0.0709
 6170SOL    HW129969   3.151   2.268  10.916 -0.0689 -0.4630  0.7679
 6170SOL    HW229970   3.176   2.401  10.981  0.9167 -0.7629  1.8498
 6171SOL     OW29971   1.713   2.333   5.067 -0.1003 -0.2691  0.0805
 6171SOL    HW129972   1.635   2.284   5.040 -0.7241  1.3708 -1.1286
 6171SOL    HW229973   1.692   2.334   5.160 -0.0171 -1.2493  0.1160
 6172SOL     OW29974   1.216   2.191   3.359 -0.8077 -0.2667  0.3463
 6172SOL    HW129975   1.204   2.259   3.292 -0.3085 -1.1385 -0.6154
 6172SOL    HW229976   1.169   2.244   3.424  0.8985  0.0450  1.3239
 6173SOL     OW29977   3.368   1.299  12.955 -0.4015 -0.4078 -0.1918
 6173SOL    HW129978   3.318   1.370  12.914  0.2151  0.1445  0.0133
 6173SOL    HW229979   3.393   1.327  13.043  0.6432 -1.6719 -0.0802
 6174SOL     OW29980   1.716   3.234   5.005  0.2935  0.0112 -0.4819
 6174SOL    HW129981   1.649   3.183   4.959 -1.7688  2.4437 -0.1254
 6174SOL    HW229982   1.790   3.229   4.944  0.4752 -2.4355 -0.0571
 6175SOL     OW29983   3.853   0.140  14.027  0.6255 -0.9551 -1.3285
 6175SOL    HW129984   3.789   0.168  13.961 -0.9909 -0.9205  0.2534
 6175SOL    HW229985   3.804   0.160  14.107  0.8525  1.0302 -1.6897
 6176SOL     OW29986   1.524   3.767   4.666  0.1036  0.0537 -0.6676
 6176SOL    HW129987   1.557   3.686   4.704  1.8102 -0.0146 -2.3044
 6176SOL    HW229988   1.429   3.757   4.676 -0.2478  2.2061 -1.7947
 6177SOL     OW29989   2.712   1.300   5.674  0.1983 -0.2098 -0.2549
 6177SOL    HW129990   2.759   1.262   5.749 -2.0531 -0.5955  0.9719
 6177SOL    HW229991   2.785   1.312   5.613  1.4836 -2.4714  0.8320
 6178SOL     OW29992   3.018   1.273  14.584  0.6145  0.2582 -0.0237
 6178SOL    HW129993   3.047   1.181  14.589 -2.6307 -0.9751 -3.9932
 6178SOL    HW229994   3.088   1.312  14.637 -0.0099  2.5676 -0.9143
 6179SOL     OW29995   3.885   0.676   3.632  0.1665  0.5199 -0.3403
 6179SOL    HW129996   3.793   0.704   3.638  0.1326  0.4652 -0.6240
 6179SOL    HW229997   3.898   0.715   3.546  2.0767  1.5937  0.4179
 6180SOL     OW29998   1.115   3.050   9.203  0.2131 -0.6528  0.3764
 6180SOL    HW129999   1.110   3.061   9.298  0.1569 -1.7894  0.5004
 6180SOL    HW230000   1.077   2.963   9.210 -1.5492  0.0409 -0.7403
 6181SOL     OW30001   3.233   1.048   0.590 -0.2002 -0.3075  0.4052
 6181SOL    HW130002   3.305   1.059   0.652  0.3729  0.2419 -0.3477
 6181SOL    HW230003   3.259   1.115   0.526 -1.6030 -0.9981 -0.8944
 6182SOL     OW30004   1.791   2.316   3.318 -0.1063 -0.2068  0.0704
 6182SOL    HW130005   1.717   2.321   3.379  0.3566 -3.1000  0.8701
 6182SOL    HW230006   1.743   2.314   3.236  1.7910  0.4388 -1.0599
 6183SOL     OW30007   2.981   0.998  10.690  0.1395 -0.1724  0.5608
 6183SOL    HW130008   3.067   1.032  10.666  0.8311 -1.1496  1.6671
 6183SOL    HW230009   2.938   1.073  10.732  0.2688 -0.3611  1.0374
 6184SOL     OW30010   4.037   0.451   0.010 -0.0281  0.4576 -0.1858
 6184SOL    HW130011   3.997   0.401  17.635  3.3203 -1.2822 -0.8751
 6184SOL    HW230012   3.992   0.534  17.693 -1.3864 -0.4390 -1.2125
 6185SOL     OW30013   2.113   4.234  17.608 -0.4519  0.0635 -0.0682
 6185SOL    HW130014   2.177   4.247  17.538  0.0419  1.8175  0.7004
 6185SOL    HW230015   2.045   4.302  17.605 -0.6334 -0.0152  1.9298
 6186SOL     OW30016   1.521   0.363   2.302 -0.5901 -0.8139 -0.1669
 6186SOL    HW130017   1.477   0.287   2.341  0.5043 -1.5238 -0.3294
 6186SOL    HW230018   1.605   0.321   2.283 -0.3853  0.0648 -1.1452
 6187SOL     OW30019   2.667   3.962  15.486  0.2494  0.0286  0.0229
 6187SOL    HW130020   2.642   3.896  15.551 -0.0006  1.0108  0.9207
 6187SOL    HW230021   2.592   3.961  15.425  0.7891 -0.5425 -0.6263
 6188SOL     OW30022   1.725   3.371   3.003  0.1882 -0.6123 -0.1569
 6188SOL    HW130023   1.788   3.379   3.075 -2.1010 -0.4817  1.8123
 6188SOL    HW230024   1.643   3.357   3.049 -0.9399  4.5095 -0.6199
 6189SOL     OW30025   4.361   0.691   2.987 -0.1671 -0.1672 -0.1506
 6189SOL    HW130026   4.333   0.724   3.072 -0.7926 -0.3997 -0.2679
 6189SOL    HW230027   4.324   0.755   2.926  0.1158 -3.0505 -3.4031
 6190SOL     OW30028   4.595   2.051   9.943 -0.2085 -0.0439  0.0585
 6190SOL    HW130029   4.588   2.146   9.940 -4.3310 -0.4045 -1.6260
 6190SOL    HW230030   4.689   2.032   9.940 -0.2350 -0.0135 -0.9863
 6191SOL     OW30031   1.800   2.511   0.836 -0.1308  0.0765 -0.1337
 6191SOL    HW130032   1.854   2.504   0.915 -1.4423 -0.1275  0.7476
 6191SOL    HW230033   1.768   2.422   0.820  1.2653 -0.0219 -2.3014
 6192SOL     OW30034   4.362   3.234   9.432 -0.0818  0.3957  0.0706
 6192SOL    HW130035   4.393   3.310   9.482  0.1628 -0.3857  1.1087
 6192SOL    HW230036   4.266   3.231   9.439 -0.0217 -0.5317  0.5652
 6193SOL     OW30037   3.969   4.050   4.733  0.3420 -0.1425  0.2112
 6193SOL    HW130038   3.993   4.007   4.651 -0.3176 -2.3527  1.1970
 6193SOL    HW230039   3.957   3.982   4.799 -0.8462  0.2229  0.3739
 6194SOL     OW30040   2.344   3.053   7.761 -0.0787  0.4979 -0.2440
 6194SOL    HW130041   2.253   3.059   7.793  0.0161  0.7712 -0.0256
 6194SOL    HW230042   2.360   3.144   7.736  0.3259  0.8352  1.2301
 6195SOL     OW30043   0.160   1.175   2.924 -0.7208 -0.4626 -0.0162
 6195SOL    HW130044   0.150   1.238   2.851 -1.2600 -0.1448  0.3258
 6195SOL    HW230045   0.164   1.232   3.000  2.1449 -1.6637  0.7238
 6196SOL     OW30046   2.793   4.710  12.960 -0.3090  0.3478 -0.1464
 6196SOL    HW130047   2.699   4.689  12.956  0.0381 -1.2808  0.6007
 6196SOL    HW230048   2.779   0.081  12.962  0.6328  0.4302  1.9375
 6197SOL     OW30049   0.358   0.647   4.000 -0.2613 -0.4474  0.1037
 6197SOL    HW130050   0.423   0.717   4.015 -0.2428 -0.4675  0.1179
 6197SOL    HW230051   0.388   0.609   3.918  2.6041  0.9640  0.5018
 6198SOL     OW30052   1.790   4.161  15.113 -0.1948 -0.5936  0.0673
 6198SOL    HW130053   1.737   4.164  15.033  3.1818 -0.7665 -2.1538
 6198SOL    HW230054   1.870   4.180  15.064 -0.6807  1.7611  0.2160
 6199SOL     OW30055   3.246   0.913   7.146 -0.2005 -0.2244 -0.2823
 6199SOL    HW130056   3.296   0.977   7.197  0.8847  0.9762 -2.8012
 6199SOL    HW230057   3.281   0.829   7.176 -1.9527 -0.0647  2.1434
 6200SOL     OW30058   1.982   3.955   7.974 -0.4674 -0.3275  0.0314
 6200SOL    HW130059   2.075   3.965   7.951 -0.3837 -0.0138  0.5190
 6200SOL    HW230060   1.985   3.893   8.047 -0.6540 -1.0281 -0.5529
 6201SOL     OW30061   0.847   4.019   0.174 -0.4434  0.1819 -0.3435
 6201SOL    HW130062   0.893   3.977   0.101 -0.9917 -0.1674 -0.4861
 6201SOL    HW230063   0.812   4.103   0.144  2.7869  1.7828  0.3565
 6202SOL     OW30064   2.541   2.819  10.483 -0.4022 -0.1731 -0.6581
 6202SOL    HW130065   2.464   2.787  10.530  0.1899 -0.3036  0.2159
 6202SOL    HW230066   2.617   2.785  10.530 -1.1691  0.7047  1.2236
 6203SOL     OW30067   2.076   3.389   6.840  0.2502 -0.1117  0.2491
 6203SOL    HW130068   2.062   3.427   6.754 -2.5371 -1.3463  0.1340
 6203SOL    HW230069   1.984   3.375   6.864 -0.4541  2.8495 -0.8328
 6204SOL     OW30070   1.380   4.326   0.852  0.1961  0.5125 -0.0336
 6204SOL    HW130071   1.432   4.407   0.854 -0.9918  1.3862 -3.2928
 6204SOL    HW230072   1.348   4.320   0.942 -1.4043  1.5726 -0.5252
 6205SOL     OW30073   3.702   3.464   9.291 -0.4817 -0.2706  0.1774
 6205SOL    HW130074   3.629   3.506   9.246  0.2726 -2.1566 -2.7576
 6205SOL    HW230075   3.686   3.486   9.383 -1.4194  0.1995 -0.0933
 6206SOL     OW30076   1.435   4.354   0.014  0.6980  0.4544 -0.1975
 6206SOL    HW130077   1.354   4.391  17.674  1.0021  0.6516 -0.6867
 6206SOL    HW230078   1.473   4.334  17.624  0.8295  0.7188 -0.2002
 6207SOL     OW30079   1.777   3.220   3.662  0.5328 -0.2053 -0.2407
 6207SOL    HW130080   1.754   3.312   3.676  0.9485 -0.0588 -0.5132
 6207SOL    HW230081   1.804   3.216   3.570  0.1432 -0.1493 -0.3595
 6208SOL     OW30082   1.691   0.067   7.678  0.1213  0.3633 -0.0215
 6208SOL    HW130083   1.685   0.151   7.633  0.5260  0.2303 -0.3170
 6208SOL    HW230084   1.601   0.035   7.691 -0.6726  3.2066  1.5029
 6209SOL     OW30085   1.198   1.661   8.370 -0.5210 -0.2184 -0.0736
 6209SOL    HW130086   1.190   1.752   8.340  0.1867 -0.8961 -2.2304
 6209SOL    HW230087   1.292   1.669   8.383 -0.5794  2.0695 -0.9846
 6210SOL     OW30088   1.324   0.909  13.525 -0.0505 -0.0650 -0.6010
 6210SOL    HW130089   1.279   0.993  13.515  0.9821  0.7913  2.1071
 6210SOL    HW230090   1.257   0.843  13.507  0.9790 -0.8550 -1.5314
 6211SOL     OW30091   4.160   0.672   1.895 -0.5811  0.6788 -0.6990
 6211SOL    HW130092   4.074   0.669   1.854 -1.1655  0.6607  0.5686
 6211SOL    HW230093   4.219   0.694   1.822 -0.2277 -0.1025 -0.6505
 6212SOL     OW30094   1.911   0.707   9.775  0.8285 -0.2428  0.5292
 6212SOL    HW130095   1.957   0.783   9.810  0.2407  0.5681 -0.4434
 6212SOL    HW230096   1.951   0.688   9.690  1.2775  0.6026  0.5534
 6213SOL     OW30097   1.184   3.632   3.659 -0.3224  0.0895 -0.4709
 6213SOL    HW130098   1.175   3.598   3.570  1.5036  0.3973 -0.7799
 6213SOL    HW230099   1.248   3.701   3.641  1.4154 -1.4384 -0.2438
 6214SOL     OW30100   2.838   4.252   7.541 -0.3448 -0.1906  0.0442
 6214SOL    HW130101   2.916   4.233   7.592 -1.2920 -2.3636  0.6734
 6214SOL    HW230102   2.784   4.300   7.604 -1.1927 -0.5349 -0.4226
 6215SOL     OW30103   2.840   1.698   6.907  1.0327  0.4037  0.1852
 6215SOL    HW130104   2.802   1.635   6.967 -1.0193  1.3759 -0.0597
 6215SOL    HW230105   2.769   1.748   6.866 -0.1922 -0.7801  0.8615
 6216SOL     OW30106   4.416   2.275  13.524  0.6116 -0.5953 -0.0505
 6216SOL    HW130107   4.329   2.315  13.531 -0.3556 -2.0537 -3.5586
 6216SOL    HW230108   4.388   2.194  13.481 -3.7271 -0.4120  2.3823
 6217SOL     OW30109   2.898   4.125  12.710 -0.1205 -0.1329  0.2187
 6217SOL    HW130110   2.888   4.219  12.728  4.6678  0.2384  0.8249
 6217SOL    HW230111   2.903   4.096  12.801  1.1673 -0.6986 -0.0370
 6218SOL     OW30112   0.715   0.137   6.950 -0.0705 -0.5285  0.1018
 6218SOL    HW130113   0.705   0.087   7.031 -0.1260  3.3599  2.5417
 6218SOL    HW230114   0.770   0.078   6.899  0.6206 -0.8219  1.1992
 6219SOL     OW30115   0.989   2.828  13.316 -0.7268 -0.1048  0.1234
 6219SOL    HW130116   0.960   2.892  13.380 -0.7049  2.0369 -2.0022
 6219SOL    HW230117   0.927   2.765  13.351 -1.2732  0.2705 -0.1770
 6220SOL     OW30118   3.155   3.958   7.146 -0.0549  0.1204 -0.3315
 6220SOL    HW130119   3.145   4.051   7.169  1.6402  0.7559 -2.1685
 6220SOL    HW230120   3.071   3.919   7.168  0.0294  0.0953 -0.0488
 6221SOL     OW30121   1.654   3.813   8.132  0.0910  0.3321  0.1485
 6221SOL    HW130122   1.620   3.769   8.209 -0.3677 -0.3969 -0.4699
 6221SOL    HW230123   1.642   3.905   8.158 -1.6777 -0.1192  0.9187
 6222SOL     OW30124   1.216   3.276   3.032 -0.5659 -0.0499 -0.3642
 6222SOL    HW130125   1.153   3.338   2.996 -0.0783 -0.6482 -2.2369
 6222SOL    HW230126   1.245   3.228   2.954  0.2958 -2.4267  1.4043
 6223SOL     OW30127   0.970   4.158  14.686  0.4122 -0.6023  0.4506
 6223SOL    HW130128   1.029   4.180  14.758  1.0816  2.5297 -1.0628
 6223SOL    HW230129   0.988   4.222  14.617  2.9046 -1.5159  0.2489
 6224SOL     OW30130   2.090   2.871   1.386 -0.1994 -0.3536 -0.1436
 6224SOL    HW130131   2.054   2.881   1.474  1.1460  2.5968  0.0761
 6224SOL    HW230132   2.068   2.781   1.364  1.0246 -0.7718  0.3214
 6225SOL     OW30133   4.613   0.230   5.698 -0.1366 -0.2426 -0.6676
 6225SOL    HW130134   4.633   0.137   5.683  1.8172 -0.0139  0.5124
 6225SOL    HW230135   4.670   0.239   5.774 -2.9852 -2.2135  1.7548
 6226SOL     OW30136   2.523   4.259   9.853  0.1723  0.1694 -0.1259
 6226SOL    HW130137   2.479   4.174   9.856  1.9407 -0.7976 -2.1116
 6226SOL    HW230138   2.565   4.268   9.938  0.9177 -0.6976 -0.3973
 6227SOL     OW30139   3.121   3.272   4.304 -0.0284 -0.3987 -0.3012
 6227SOL    HW130140   3.198   3.285   4.248  1.1109  0.2355  1.3945
 6227SOL    HW230141   3.160   3.255   4.390 -0.3455  1.7583  0.2492
 6228SOL     OW30142   2.589   2.567   5.851 -0.3579  0.2215  0.2734
 6228SOL    HW130143   2.635   2.549   5.769  0.0842  1.2471  0.2874
 6228SOL    HW230144   2.522   2.625   5.816  1.1760 -0.0004 -3.0875
 6229SOL     OW30145   0.645   3.396   3.661  0.5895  0.2279 -0.0385
 6229SOL    HW130146   0.568   3.340   3.660  0.6863  0.1115 -0.7995
 6229SOL    HW230147   0.710   3.329   3.682 -0.3118  0.1608  2.5134
 6230SOL     OW30148   0.709   4.671   7.402 -0.2129 -0.0809 -0.3954
 6230SOL    HW130149   0.664   0.014   7.454 -0.9944 -1.0699  0.2116
 6230SOL    HW230150   0.773   4.626   7.457  1.2152  2.7515  0.2454
 6231SOL     OW30151   2.504   2.162   7.127 -0.1197  0.2400 -0.2690
 6231SOL    HW130152   2.440   2.119   7.183 -2.8905  2.5816 -1.6849
 6231SOL    HW230153   2.466   2.250   7.117 -1.2470 -0.3877 -1.4418
 6232SOL     OW30154   4.297   0.192   8.888  0.1683 -0.0198 -0.1591
 6232SOL    HW130155   4.271   0.284   8.887 -0.1182 -0.0876  0.4787
 6232SOL    HW230156   4.244   0.146   8.953 -0.0432 -0.2250 -0.4767
 6233SOL     OW30157   1.808   2.520  10.509  0.0866 -0.0787 -0.8184
 6233SOL    HW130158   1.860   2.471  10.446 -0.6684 -1.6498 -0.2307
 6233SOL    HW230159   1.726   2.471  10.508  0.0130  0.0128  0.0760
 6234SOL     OW30160   1.088   2.348   7.604  0.0287  0.5653  0.1503
 6234SOL    HW130161   1.155   2.416   7.597 -0.2230  0.7070 -0.8751
 6234SOL    HW230162   1.109   2.285   7.536  2.3806  0.9262  0.5563
 6235SOL     OW30163   0.626   0.976   2.699  0.1625  0.1779  0.2928
 6235SOL    HW130164   0.675   0.985   2.781 -1.0306  1.5579  0.8492
 6235SOL    HW230165   0.565   1.049   2.698  1.4638  1.2358 -1.6965
 6236SOL     OW30166   3.002   4.292   4.669  0.0068 -0.0179  0.0566
 6236SOL    HW130167   2.999   4.237   4.590 -0.3828  0.5946 -0.3616
 6236SOL    HW230168   2.916   4.274   4.708  0.5586 -3.0716 -0.1425
 6237SOL     OW30169   4.345   2.411   3.209 -0.0427  0.1858 -0.3117
 6237SOL    HW130170   4.404   2.479   3.240 -0.0420  0.7713 -1.5761
 6237SOL    HW230171   4.410   2.358   3.161  0.5279  1.2918 -0.7599
 6238SOL     OW30172   0.538   3.964   4.558  0.3889  0.2288  0.2214
 6238SOL    HW130173   0.574   3.905   4.624 -1.4415 -1.8134 -0.6110
 6238SOL    HW230174   0.565   4.046   4.600 -1.1343  0.9080 -0.1050
 6239SOL     OW30175   1.786   2.359   2.256 -0.0319  0.3796 -0.3637
 6239SOL    HW130176   1.847   2.336   2.186 -0.3410  1.6530 -1.0610
 6239SOL    HW230177   1.730   2.416   2.204 -0.5141  1.1609  1.0077
 6240SOL     OW30178   2.164   2.289   4.037  0.1878  0.3620  0.5001
 6240SOL    HW130179   2.160   2.243   3.953 -1.1960  2.6242 -0.6890
 6240SOL    HW230180   2.110   2.358   3.998  2.0983  0.6721 -1.6434
 6241SOL     OW30181   0.240   4.508   6.642  0.0505 -0.3766  0.0459
 6241SOL    HW130182   0.185   4.490   6.719  2.2730 -0.5563  1.5973
 6241SOL    HW230183   0.269   4.598   6.658 -0.5691 -0.4334  1.5015
 6242SOL     OW30184   1.437   2.265   0.104 -0.0542  0.1035 -0.1963
 6242SOL    HW130185   1.418   2.243   0.196 -0.6688  0.5266 -0.2232
 6242SOL    HW230186   1.438   2.360   0.104  0.3770  0.0959 -0.2938
 6243SOL     OW30187   0.935   3.383   2.071  0.8200  0.2348 -0.3571
 6243SOL    HW130188   0.981   3.407   1.991 -0.4706  3.2858 -0.2184
 6243SOL    HW230189   0.997   3.378   2.143  1.4311 -0.9508 -0.9701
 6244SOL     OW30190   1.285   2.055   5.381 -0.2757 -0.2128 -0.2317
 6244SOL    HW130191   1.326   2.124   5.330  0.4226 -0.4887 -0.0419
 6244SOL    HW230192   1.272   2.103   5.463 -0.2398 -1.3327  0.4353
 6245SOL     OW30193   1.130   4.025  11.223 -0.5773 -0.0733  0.5687
 6245SOL    HW130194   1.169   3.975  11.151 -1.4867  1.9745 -1.3620
 6245SOL    HW230195   1.144   4.113  11.187  0.2817 -1.6708 -2.9448
 6246SOL     OW30196   2.725   4.196  11.847  0.0182 -0.1147 -0.5962
 6246SOL    HW130197   2.713   4.289  11.828 -0.7075 -0.2988 -1.0607
 6246SOL    HW230198   2.733   4.165  11.757  0.9953 -3.0829  0.5195
 6247SOL     OW30199   1.791   0.000   5.607 -0.1259  0.1760  0.4075
 6247SOL    HW130200   1.791   0.086   5.648  1.5070 -0.5826  1.9989
 6247SOL    HW230201   1.705   4.689   5.633  0.0159 -0.3027  0.2240
 6248SOL     OW30202   3.592   3.783   0.835  0.0320  0.5025 -0.4103
 6248SOL    HW130203   3.536   3.751   0.764 -0.5265 -1.4640  0.9351
 6248SOL    HW230204   3.547   3.739   0.906 -2.1694 -0.2769 -2.3128
 6249SOL     OW30205   3.571   2.127   0.980  0.3019 -0.1982  0.3127
 6249SOL    HW130206   3.585   2.064   1.050 -1.4699 -0.7728  0.1347
 6249SOL    HW230207   3.594   2.209   1.024  0.0196  0.3886 -0.6189
 6250SOL     OW30208   2.708   3.909  12.003  0.1663 -0.5085 -0.4803
 6250SOL    HW130209   2.689   3.943  11.916  3.6018  0.6869 -0.7692
 6250SOL    HW230210   2.767   3.833  11.995 -1.5846 -1.8238 -0.8026
 6251SOL     OW30211   3.625   4.326   2.837 -0.6209 -0.2620 -0.3381
 6251SOL    HW130212   3.648   4.240   2.803  0.6434  0.6475 -1.7563
 6251SOL    HW230213   3.567   4.305   2.911  0.0269 -0.5458  0.0840
 6252SOL     OW30214   2.908   0.137   1.396  0.6021 -0.1308  0.1673
 6252SOL    HW130215   2.902   0.056   1.345 -5.1089  0.6917 -0.3693
 6252SOL    HW230216   2.957   0.194   1.337  1.2645 -0.8683  0.0028
 6253SOL     OW30217   0.976   0.901   6.226 -0.0441 -0.2193  0.1315
 6253SOL    HW130218   0.971   0.993   6.252 -0.8136  0.3860 -2.1574
 6253SOL    HW230219   1.002   0.911   6.135  0.7382  1.3931  0.5174
 6254SOL     OW30220   2.100   3.907   6.797 -0.2976  0.0448  0.1948
 6254SOL    HW130221   2.100   3.993   6.756 -1.9727  0.1540  0.4448
 6254SOL    HW230222   2.045   3.855   6.738 -0.0538  0.8163 -0.7147
 6255SOL     OW30223   0.817   3.131   8.903 -0.3309 -0.1443 -0.3582
 6255SOL    HW130224   0.762   3.205   8.929 -0.9545 -1.2304  1.3742
 6255SOL    HW230225   0.801   3.130   8.809  0.6637  1.4063 -0.5560
 6256SOL     OW30226   1.947   2.187   3.832  0.0379 -0.4509  0.1622
 6256SOL    HW130227   1.877   2.225   3.885  1.6513 -1.4383  2.9825
 6256SOL    HW230228   1.972   2.112   3.885  2.0591 -1.1041 -1.7334
 6257SOL     OW30229   1.979   4.687  15.599  0.1944  0.2523 -0.0339
 6257SOL    HW130230   2.074   4.680  15.598 -0.0603 -3.2245 -0.2082
 6257SOL    HW230231   1.963   4.619  15.664  0.5575  1.7560  1.6235
 6258SOL     OW30232   2.280   1.752   4.411 -0.3306 -0.5006  0.3536
 6258SOL    HW130233   2.373   1.731   4.401 -0.2493  0.4943 -1.1322
 6258SOL    HW230234   2.269   1.694   4.485  0.0726  0.2352  0.9888
 6259SOL     OW30235   4.162   1.508   7.800  0.1943 -0.2958  0.8193
 6259SOL    HW130236   4.187   1.600   7.795  0.2700 -0.3510  0.2151
 6259SOL    HW230237   4.133   1.487   7.711 -0.1933  0.6035  0.7412
 6260SOL     OW30238   2.398   2.613  15.064  0.5903 -0.1270 -0.1875
 6260SOL    HW130239   2.426   2.702  15.088  0.8994 -0.9189  2.3915
 6260SOL    HW230240   2.305   2.630  15.051  0.6241  0.3145  0.1389
 6261SOL     OW30241   0.590   4.654  13.601 -0.4452  0.0446 -0.1129
 6261SOL    HW130242   0.630   4.605  13.673  1.4383  0.9747 -0.5241
 6261SOL    HW230243   0.519   4.595  13.576 -0.6755 -0.1628  1.0270
 6262SOL     OW30244   3.886   2.551  16.321  0.0520 -0.2694 -0.3819
 6262SOL    HW130245   3.812   2.611  16.326  0.4149  0.4735 -4.0200
 6262SOL    HW230246   3.844   2.466  16.307  1.5034 -0.6479 -2.5136
 6263SOL     OW30247   0.204   3.547  12.287  0.0111 -0.0118  0.2967
 6263SOL    HW130248   0.164   3.460  12.295 -0.6746  0.5627  3.1475
 6263SOL    HW230249   0.227   3.550  12.194 -1.4571 -0.0759 -0.0752
 6264SOL     OW30250   2.624   2.005   4.058 -0.0706 -0.0477 -0.1594
 6264SOL    HW130251   2.560   1.981   3.990  0.8270 -0.0858 -0.9844
 6264SOL    HW230252   2.688   2.061   4.015 -1.2683  2.2049  0.9390
 6265SOL     OW30253   3.638   2.134   2.276 -0.4869  0.3432  0.0666
 6265SOL    HW130254   3.674   2.126   2.187  2.2268  0.4558  1.1538
 6265SOL    HW230255   3.673   2.055   2.317 -0.0919 -0.4741 -1.8235
 6266SOL     OW30256   1.068   1.873   1.394  0.0303 -0.4642 -0.2008
 6266SOL    HW130257   1.103   1.831   1.315 -0.3525 -1.7044  0.2896
 6266SOL    HW230258   1.103   1.961   1.384 -0.9172 -0.0541  0.2157
 6267SOL     OW30259   3.662   1.690   0.254 -0.3170 -0.1985  0.3352
 6267SOL    HW130260   3.593   1.658   0.312  0.4269  0.6363  1.6616
 6267SOL    HW230261   3.727   1.622   0.235 -1.6672 -1.3418 -0.2085
 6268SOL     OW30262   0.521   2.460   6.019  0.5115  0.4425 -1.0528
 6268SOL    HW130263   0.458   2.417   6.076  1.9406  0.9001  0.8799
 6268SOL    HW230264   0.551   2.533   6.073  0.1593 -0.6123  0.5412
 6269SOL     OW30265   2.169   1.889   7.723  0.8342  0.2166 -0.1223
 6269SOL    HW130266   2.190   1.890   7.816  3.4827  0.3083 -0.7217
 6269SOL    HW230267   2.248   1.904   7.671  0.8716  0.6398  0.0517
 6270SOL     OW30268   3.203   4.085   5.109  0.0374 -0.0697  0.0179
 6270SOL    HW130269   3.291   4.088   5.145  0.6001 -2.5759 -1.1804
 6270SOL    HW230270   3.211   4.143   5.033 -0.2097 -0.2986 -0.1866
 6271SOL     OW30271   1.497   2.194   4.345  0.0800  0.2293 -0.1350
 6271SOL    HW130272   1.585   2.227   4.330  1.0429 -2.1087  0.4236
 6271SOL    HW230273   1.508   2.103   4.370 -0.7642  0.0787 -0.3042
 6272SOL     OW30274   1.062   1.162   7.470 -0.1002 -0.1344 -0.0411
 6272SOL    HW130275   1.032   1.108   7.544  3.3497 -0.6180  0.9747
 6272SOL    HW230276   1.032   1.247   7.504  0.2365 -0.2329  0.5086
 6273SOL     OW30277   2.531   0.261   3.056 -0.2083 -0.4264  0.0184
 6273SOL    HW130278   2.600   0.260   2.989  1.1266  3.0022  1.3563
 6273SOL    HW230279   2.508   0.352   3.071  1.8208  0.2999 -1.3539
 6274SOL     OW30280   3.972   4.022   7.480  0.0831 -0.5592  0.5231
 6274SOL    HW130281   4.034   3.957   7.515 -0.4556 -1.2962  0.1183
 6274SOL    HW230282   3.960   3.979   7.395 -0.8955  0.4912  0.1422
 6275SOL     OW30283   0.858   4.358  10.086 -0.1555 -0.3237 -1.1590
 6275SOL    HW130284   0.803   4.285  10.056 -1.3765 -0.0065  0.2944
 6275SOL    HW230285   0.799   4.426  10.117 -0.6489  0.2537 -3.3205
 6276SOL     OW30286   1.663   1.348   3.020 -0.1975 -0.0362 -0.3451
 6276SOL    HW130287   1.620   1.277   3.067  1.2684 -0.5719  0.1977
 6276SOL    HW230288   1.628   1.418   3.074  0.7706  0.2996 -0.1476
 6277SOL     OW30289   2.837   3.688  11.890  0.0741 -0.3657  0.4600
 6277SOL    HW130290   2.765   3.628  11.908 -0.1060  0.2433  1.7380
 6277SOL    HW230291   2.845   3.674  11.796  0.3731 -1.1176  0.5984
 6278SOL     OW30292   0.838   1.991   3.208  0.0918  0.2621 -0.2645
 6278SOL    HW130293   0.742   1.989   3.208  0.0932  0.1580  2.7049
 6278SOL    HW230294   0.853   1.904   3.170 -0.5657  1.1079 -2.4946
 6279SOL     OW30295   2.844   4.218   3.093 -0.4870  0.3255  0.7290
 6279SOL    HW130296   2.939   4.209   3.106 -0.5918 -1.1063  0.5265
 6279SOL    HW230297   2.834   4.312   3.076  1.3438  0.4361  0.2038
 6280SOL     OW30298   0.401   2.870  13.190  0.7179 -0.1575  0.2728
 6280SOL    HW130299   0.398   2.805  13.120  1.4313  1.9917 -1.7425
 6280SOL    HW230300   0.319   2.914  13.167 -0.4114 -2.1307  0.5293
 6281SOL     OW30301   2.822   2.810   8.767 -0.3169  0.1725 -0.1872
 6281SOL    HW130302   2.815   2.880   8.702  1.5273 -0.2278 -0.8382
 6281SOL    HW230303   2.900   2.839   8.815 -0.6845  1.4207 -0.3409
 6282SOL     OW30304   2.828   2.925   1.735  0.0663 -0.1740 -0.2012
 6282SOL    HW130305   2.767   2.910   1.663 -1.1682  2.5395  0.2997
 6282SOL    HW230306   2.795   2.844   1.775 -1.3525  0.3612 -0.2773
 6283SOL     OW30307   0.257   3.224   0.286  0.4329 -0.1033  0.6751
 6283SOL    HW130308   0.264   3.317   0.306  1.1844 -0.3155  1.3576
 6283SOL    HW230309   0.350   3.207   0.298  0.1148 -1.6539  1.0010
 6284SOL     OW30310   2.443   3.869  10.094 -0.1636 -0.1353 -0.3781
 6284SOL    HW130311   2.498   3.805  10.139  0.3934 -1.4189 -2.8914
 6284SOL    HW230312   2.386   3.897  10.165  1.0830  0.4168  0.4139
 6285SOL     OW30313   1.939   1.496   7.018 -0.4042  0.0810  0.1919
 6285SOL    HW130314   1.852   1.535   7.026  0.1592  1.2839  0.4448
 6285SOL    HW230315   1.945   1.456   7.105 -0.5744 -0.6852 -0.1523
 6286SOL     OW30316   1.923   3.574   6.320  0.0305  0.0514  0.1271
 6286SOL    HW130317   1.969   3.658   6.320 -0.7870  0.4983  0.1262
 6286SOL    HW230318   1.972   3.507   6.272 -0.1946 -0.9028  1.2506
 6287SOL     OW30319   4.462   0.148   3.861 -0.0775  0.0297 -0.4286
 6287SOL    HW130320   4.512   0.229   3.848 -0.7390  0.3242 -1.1750
 6287SOL    HW230321   4.383   0.172   3.812  1.0003  0.0732 -2.1447
 6288SOL     OW30322   2.605   2.222   6.808 -0.6537 -0.8267 -0.0135
 6288SOL    HW130323   2.559   2.207   6.891  0.0318  0.7169  0.6492
 6288SOL    HW230324   2.684   2.273   6.829  0.3790 -2.1679 -0.6549
 6289SOL     OW30325   4.425   2.114   9.545 -0.1630 -0.3821 -0.1416
 6289SOL    HW130326   4.464   2.030   9.571 -4.1238 -1.3889  2.5092
 6289SOL    HW230327   4.374   2.090   9.468  2.2672  1.2966 -2.2665
 6290SOL     OW30328   1.669   2.879   7.304 -0.2542  0.0612  0.5236
 6290SOL    HW130329   1.712   2.863   7.220  3.8204  0.2783  2.5540
 6290SOL    HW230330   1.645   2.970   7.289 -0.3770 -0.4466 -2.4022
 6291SOL     OW30331   1.446   3.266   9.840  0.1544 -0.3131  0.0499
 6291SOL    HW130332   1.391   3.199   9.882 -1.5303  0.9623 -0.1165
 6291SOL    HW230333   1.395   3.299   9.766 -1.2797  1.6799  1.9400
 6292SOL     OW30334   3.795   2.218   0.443 -0.4692  0.5574 -0.3010
 6292SOL    HW130335   3.842   2.285   0.494  0.8557 -2.0180  1.8962
 6292SOL    HW230336   3.760   2.169   0.517 -1.2093  1.9957  0.3042
 6293SOL     OW30337   4.139   0.905   1.110  0.7539 -0.5968 -0.3718
 6293SOL    HW130338   4.116   0.885   1.201 -0.9707  3.9368  0.1525
 6293SOL    HW230339   4.069   0.965   1.086  2.2415  0.9768 -0.7582
 6294SOL     OW30340   4.030   0.660   6.961 -0.4656  0.6755 -0.2653
 6294SOL    HW130341   3.995   0.644   7.048 -2.5103  1.0845 -1.0106
 6294SOL    HW230342   3.988   0.583   6.924  0.2326  0.0594  0.2241
 6295SOL     OW30343   0.847   2.375   4.269  0.3644  0.3420 -0.5489
 6295SOL    HW130344   0.825   2.390   4.177  1.4884 -0.0568 -0.8725
 6295SOL    HW230345   0.821   2.455   4.315 -1.2725  1.1068 -2.8011
 6296SOL     OW30346   4.702   2.794   6.268 -0.5078  0.2471 -0.1920
 6296SOL    HW130347   0.022   2.776   6.351  0.7411 -0.3220 -0.9783
 6296SOL    HW230348   4.631   2.729   6.262 -2.0431  2.0443 -1.8497
 6297SOL     OW30349   2.882   3.580  13.516  0.0893 -0.0489  0.1808
 6297SOL    HW130350   2.873   3.656  13.459 -0.2208 -0.1178  0.1358
 6297SOL    HW230351   2.799   3.541  13.487  0.3858 -0.6177  0.0997
 6298SOL     OW30352   1.380   1.751  10.049  0.2717  0.1959 -0.1968
 6298SOL    HW130353   1.299   1.715  10.012  1.5883 -1.0470 -1.8505
 6298SOL    HW230354   1.377   1.708  10.134  0.5512 -0.6265 -0.6018
 6299SOL     OW30355   2.837   2.682   2.420  0.1000 -0.0008  0.3172
 6299SOL    HW130356   2.790   2.729   2.489  0.3621 -1.0936  1.2332
 6299SOL    HW230357   2.812   2.726   2.338  1.2933 -0.5476 -0.3402
 6300SOL     OW30358   1.524   2.216   6.291  0.0659 -0.6643 -0.0370
 6300SOL    HW130359   1.543   2.240   6.200 -0.5540  0.9170  0.2472
 6300SOL    HW230360   1.594   2.151   6.292  0.8778  0.2006 -0.3789
 6301SOL     OW30361   1.024   0.739   1.317 -0.1456  0.2808  0.2192
 6301SOL    HW130362   0.951   0.694   1.274 -0.6499 -0.7924  2.1435
 6301SOL    HW230363   0.977   0.781   1.389  0.1838 -0.7599  1.0471
 6302SOL     OW30364   0.285   4.064   4.609  0.4201 -0.4833 -0.5556
 6302SOL    HW130365   0.367   4.026   4.577  1.1357  2.6979 -2.5135
 6302SOL    HW230366   0.304   4.156   4.587  1.1563 -0.5928 -0.3729
 6303SOL     OW30367   1.514   0.028   3.684 -0.2110  0.1249  0.1312
 6303SOL    HW130368   1.443   4.702   3.643 -0.8411  1.2996 -0.2142
 6303SOL    HW230369   1.522   4.718   3.773 -1.5528  0.5905  0.4354
 6304SOL     OW30370   4.414   0.247  10.544 -0.2189 -0.7604 -0.1313
 6304SOL    HW130371   4.483   0.184  10.562  1.7214  1.5393  0.5289
 6304SOL    HW230372   4.347   0.210  10.600  0.4618  0.2620  1.3731
 6305SOL     OW30373   3.508   3.112   4.580  0.3855  0.2355  0.0007
 6305SOL    HW130374   3.521   3.194   4.628  0.8488  0.2598 -0.1698
 6305SOL    HW230375   3.572   3.052   4.617 -2.4995 -2.1035  1.2218
 6306SOL     OW30376   3.626   2.022   7.743  0.0469 -0.2647 -0.0579
 6306SOL    HW130377   3.564   1.951   7.726 -0.7849 -0.0157  1.9851
 6306SOL    HW230378   3.592   2.082   7.676 -1.3977 -1.0176  0.0025
 6307SOL     OW30379   0.309   1.359   4.831 -0.2019 -0.4899 -0.0411
 6307SOL    HW130380   0.228   1.352   4.781 -0.4618 -0.6190  0.4033
 6307SOL    HW230381   0.338   1.269   4.839  0.4891 -0.2904 -0.2745
 6308SOL     OW30382   1.350   1.142  10.193 -0.2283  0.3968  0.0477
 6308SOL    HW130383   1.438   1.107  10.202 -0.0528  1.4620  2.4103
 6308SOL    HW230384   1.364   1.235  10.177  1.2266  0.4139  1.5302
 6309SOL     OW30385   0.534   1.483   8.749  0.4692 -0.5490  0.1587
 6309SOL    HW130386   0.585   1.538   8.690  1.9700 -1.1375  0.9010
 6309SOL    HW230387   0.604   1.447   8.804  1.0198 -0.7541 -0.6755
 6310SOL     OW30388   0.002   0.994  13.725  0.4094 -0.5839  0.4234
 6310SOL    HW130389   4.700   1.079  13.760  3.5823 -0.6395  2.8939
 6310SOL    HW230390   0.023   0.952  13.809  3.2578 -1.8084 -0.8887
 6311SOL     OW30391   1.266   0.647   1.525  0.0527 -0.1947  0.0157
 6311SOL    HW130392   1.201   0.688   1.584  0.0639 -0.2385  0.0581
 6311SOL    HW230393   1.258   0.709   1.452  0.7717 -1.3575 -1.0220
 6312SOL     OW30394   3.863   1.433  10.836  0.4726  0.9392 -1.1055
 6312SOL    HW130395   3.794   1.474  10.888 -0.5794 -1.5555 -0.4994
 6312SOL    HW230396   3.923   1.416  10.909  0.6671 -0.0810 -1.4926
 6313SOL     OW30397   0.133   1.474  15.340  0.1870 -0.3335  0.6122
 6313SOL    HW130398   0.114   1.515  15.425 -1.4103 -0.2274  0.1983
 6313SOL    HW230399   0.221   1.440  15.357  1.1918  1.3770 -1.2556
 6314SOL     OW30400   0.405   0.490   5.841 -0.1690 -0.5556  0.7429
 6314SOL    HW130401   0.487   0.488   5.793 -0.1954 -0.2402  0.6835
 6314SOL    HW230402   0.398   0.586   5.844 -0.6987 -0.6659  2.8403
 6315SOL     OW30403   2.746   3.752  15.317 -0.8147  0.0209 -0.0292
 6315SOL    HW130404   2.724   3.828  15.371 -1.3149 -1.4937  1.8972
 6315SOL    HW230405   2.685   3.684  15.346 -0.3620 -0.5098 -0.3171
 6316SOL     OW30406   0.875   0.332   1.278  0.2323  0.0509 -0.7647
 6316SOL    HW130407   0.848   0.423   1.279  4.6553  1.3409 -0.3104
 6316SOL    HW230408   0.942   0.330   1.346 -0.4764  0.7033 -0.0617
 6317SOL     OW30409   2.331   3.892   8.398  0.0721  0.5763 -0.2342
 6317SOL    HW130410   2.416   3.854   8.420  0.6540  1.8701 -0.2339
 6317SOL    HW230411   2.328   3.876   8.304  0.5598  0.4192 -0.2236
 6318SOL     OW30412   1.484   0.345  12.816 -0.4212  0.3787 -0.8552
 6318SOL    HW130413   1.491   0.437  12.791 -2.3692  0.6898 -0.2438
 6318SOL    HW230414   1.432   0.310  12.743  0.4658  1.1868 -1.8820
 6319SOL     OW30415   2.155   4.489   4.842  0.3427 -0.3959  0.1744
 6319SOL    HW130416   2.188   4.560   4.788  0.2584  0.5887  1.4056
 6319SOL    HW230417   2.063   4.488   4.815  1.0809  1.9625 -2.4611
 6320SOL     OW30418   4.622   1.648  13.278  0.4957  0.7176  0.0706
 6320SOL    HW130419   4.623   1.557  13.307  0.3109  0.1165 -1.8821
 6320SOL    HW230420   4.622   1.647  13.183 -0.4215  2.4695  0.0549
 6321SOL     OW30421   2.310   3.775   6.511 -0.4168  0.0614  0.0931
 6321SOL    HW130422   2.316   3.857   6.463  1.5132 -1.5966 -2.5030
 6321SOL    HW230423   2.293   3.718   6.436 -0.7734  0.6683 -0.2799
 6322SOL     OW30424   2.528   4.425  15.771 -0.1920 -0.2965 -0.1132
 6322SOL    HW130425   2.453   4.429  15.830  1.1994 -0.1726  1.6271
 6322SOL    HW230426   2.525   4.340  15.727 -0.4897 -0.3638  0.0369
 6323SOL     OW30427   0.454   1.073   4.122  0.6339  0.2983 -0.3135
 6323SOL    HW130428   0.485   1.009   4.059 -3.1538 -1.3534 -0.4848
 6323SOL    HW230429   0.472   1.036   4.208 -1.5900 -1.4832 -0.6175
 6324SOL     OW30430   3.437   4.658  15.071 -0.3107 -0.3060  0.2924
 6324SOL    HW130431   3.489   4.633  14.995 -0.4626  1.0862 -0.2561
 6324SOL    HW230432   3.499   4.703  15.128  1.1797 -0.2204 -1.3877
 6325SOL     OW30433   0.967   4.392   8.364 -0.1962 -0.1590 -0.1966
 6325SOL    HW130434   0.875   4.398   8.338 -0.0540  0.3090 -0.5636
 6325SOL    HW230435   0.990   4.302   8.340  2.8568  0.5672  0.0423
 6326SOL     OW30436   1.525   3.601   0.198  0.0749  0.0435  0.1050
 6326SOL    HW130437   1.555   3.591   0.108 -1.0434 -0.6839 -0.1779
 6326SOL    HW230438   1.553   3.520   0.240  1.0525  0.1991 -0.2419
 6327SOL     OW30439   4.488   4.588   1.750 -0.7358 -0.2808 -0.4139
 6327SOL    HW130440   4.404   4.566   1.710  0.9508 -0.4576 -3.8906
 6327SOL    HW230441   4.495   4.682   1.732  0.2225 -0.0099  1.4066
 6328SOL     OW30442   0.524   3.820   1.914 -0.5344 -0.3248  0.2767
 6328SOL    HW130443   0.563   3.810   1.827 -0.4941 -0.0143  0.2587
 6328SOL    HW230444   0.519   3.916   1.915  0.5075 -0.2522 -0.4595
 6329SOL     OW30445   4.263   3.932  16.759 -0.2628 -0.4883  0.3446
 6329SOL    HW130446   4.184   3.973  16.725  1.4013  0.5076 -2.3347
 6329SOL    HW230447   4.263   3.969  16.847  0.5088  2.7554 -1.0401
 6330SOL     OW30448   1.878   2.980   2.030 -0.5350  0.0899 -0.3776
 6330SOL    HW130449   1.884   2.884   2.033 -1.1133  0.1012  0.7948
 6330SOL    HW230450   1.899   3.003   2.120  0.9812  1.3646 -1.0516
 6331SOL     OW30451   2.189   2.576   7.720  0.4047  0.7358 -0.4413
 6331SOL    HW130452   2.160   2.532   7.640  1.0915 -0.3217 -0.1051
 6331SOL    HW230453   2.280   2.595   7.699  0.7971 -1.1504 -0.4206
 6332SOL     OW30454   4.201   3.205  14.886 -0.4216 -0.4310  0.4632
 6332SOL    HW130455   4.281   3.228  14.934  1.7787  0.9346 -3.8881
 6332SOL    HW230456   4.176   3.290  14.850 -0.5071  0.6045  2.9311
 6333SOL     OW30457   2.400   2.569   2.014 -0.5484  0.4492 -0.1396
 6333SOL    HW130458   2.383   2.663   2.019 -1.7366  0.1493  1.6123
 6333SOL    HW230459   2.491   2.571   1.983 -0.6419  1.8222 -0.3137
 6334SOL     OW30460   2.847   0.731  13.129 -0.6042 -0.0351 -0.0399
 6334SOL    HW130461   2.754   0.751  13.124 -0.1871  1.9615  0.1312
 6334SOL    HW230462   2.849   0.638  13.109 -0.1567 -0.0111 -0.1111
 6335SOL     OW30463   1.321   1.526   6.071  0.1478  0.3038 -0.1867
 6335SOL    HW130464   1.303   1.617   6.093  2.1812  0.0811  2.3143
 6335SOL    HW230465   1.416   1.520   6.063  0.1733 -0.7646  0.8595
 6336SOL     OW30466   1.057   0.477   7.608 -0.0161  0.2132  0.5752
 6336SOL    HW130467   1.035   0.512   7.694  1.1594  3.4802 -0.4197
 6336SOL    HW230468   1.010   0.394   7.610 -0.3833  0.3488 -2.4808
 6337SOL     OW30469   4.236   2.483  17.241  0.6295  0.0030 -0.1069
 6337SOL    HW130470   4.152   2.477  17.196  0.3430 -0.2041  0.4612
 6337SOL    HW230471   4.217   2.493  17.334 -1.7795  0.5618 -0.6496
 6338SOL     OW30472   2.732   4.195   6.910 -0.4129  0.4739 -0.2946
 6338SOL    HW130473   2.770   4.114   6.877 -1.3340 -0.7919  1.7049
 6338SOL    HW230474   2.814   4.225   6.948 -0.6354  2.1016 -1.1107
 6339SOL     OW30475   4.273   3.961  14.106 -0.4801 -0.1694  0.0701
 6339SOL    HW130476   4.231   3.884  14.144  1.0306 -1.0890 -0.1400
 6339SOL    HW230477   4.367   3.941  14.102  0.4617  3.7605  2.0708
 6340SOL     OW30478   0.361   0.534   3.026  0.2705  0.7082  0.3654
 6340SOL    HW130479   0.403   0.451   3.005  0.8139  0.5166  2.1924
 6340SOL    HW230480   0.381   0.578   2.943  0.1683  0.6913  0.3318
 6341SOL     OW30481   1.677   2.668  12.016  0.1002  0.0566 -0.1504
 6341SOL    HW130482   1.604   2.727  11.998 -0.3079 -0.6688 -0.8666
 6341SOL    HW230483   1.675   2.607  11.942 -2.7328 -0.5413  0.4282
 6342SOL     OW30484   4.554   0.405   1.743  0.2775 -0.3063 -0.0120
 6342SOL    HW130485   4.597   0.322   1.720 -0.6886  0.1675 -3.5157
 6342SOL    HW230486   4.476   0.397   1.688 -0.6468  2.2935  0.9071
 6343SOL     OW30487   3.963   0.735   2.532 -0.7296  0.4345  0.4152
 6343SOL    HW130488   4.014   0.816   2.527  1.0902 -0.7057  0.5651
 6343SOL    HW230489   4.017   0.687   2.470 -0.9190  1.8007 -0.8025
 6344SOL     OW30490   4.549   3.509   3.765  0.1879 -0.0779  0.9154
 6344SOL    HW130491   4.499   3.586   3.738 -1.7570 -1.7270 -0.2172
 6344SOL    HW230492   4.500   3.440   3.719  1.5200  0.3340 -1.1423
 6345SOL     OW30493   4.305   4.366   4.936 -0.8343  0.6384 -0.1730
 6345SOL    HW130494   4.214   4.346   4.959 -0.9352 -0.4699 -1.5485
 6345SOL    HW230495   4.334   4.365   5.027  0.3067 -1.0858 -0.5666
 6346SOL     OW30496   2.039   4.145   6.700 -0.2528  0.2658 -0.1036
 6346SOL    HW130497   2.108   4.152   6.634  0.5289  0.4156  0.7285
 6346SOL    HW230498   2.037   4.222   6.757  0.6003  1.7815 -2.1056
 6347SOL     OW30499   1.870   1.120   8.510  0.4348 -0.3173 -0.3001
 6347SOL    HW130500   1.904   1.189   8.567  1.2830  0.1370 -1.3490
 6347SOL    HW230501   1.905   1.043   8.556  1.1719 -0.7558 -1.5891
 6348SOL     OW30502   2.434   1.020   1.712  0.2660  0.3052  0.0776
 6348SOL    HW130503   2.481   1.074   1.776 -0.3405 -0.3516  1.0847
 6348SOL    HW230504   2.501   0.951   1.704  0.4768  0.5725 -0.4562
 6349SOL     OW30505   2.239   2.126   6.816 -0.1991 -0.1341  0.1488
 6349SOL    HW130506   2.165   2.127   6.755 -0.1487  4.1336  0.1849
 6349SOL    HW230507   2.311   2.160   6.763 -2.2712  1.5775 -1.5495
 6350SOL     OW30508   0.614   3.383  13.575 -0.1534  0.2470  0.1425
 6350SOL    HW130509   0.671   3.401  13.650 -1.2046 -1.7427  1.4282
 6350SOL    HW230510   0.536   3.438  13.587 -0.6381 -0.4579  0.1674
 6351SOL     OW30511   3.175   1.152   8.592  0.3311  0.0032 -0.6350
 6351SOL    HW130512   3.205   1.232   8.549  0.1189  0.7032  0.4951
 6351SOL    HW230513   3.263   1.117   8.605  0.8019  2.0527  1.8242
 6352SOL     OW30514   0.060   3.736   0.601 -0.0881  0.1168  0.1059
 6352SOL    HW130515   0.067   3.694   0.516  0.5878 -1.4605  0.9482
 6352SOL    HW230516   4.689   3.737   0.617 -0.1200 -1.6211 -0.0356
 6353SOL     OW30517   1.622   3.607   6.957 -0.2762  0.2551 -0.0102
 6353SOL    HW130518   1.647   3.653   6.877  2.0948 -0.9198  0.0528
 6353SOL    HW230519   1.705   3.602   7.005  0.5574 -2.8947 -1.7938
 6354SOL     OW30520   3.741   3.550   1.033  0.1052  0.4367  0.6942
 6354SOL    HW130521   3.670   3.537   0.970  0.8782  1.0540 -0.2923
 6354SOL    HW230522   3.727   3.477   1.094 -0.2744  1.5424  1.9162
 6355SOL     OW30523   1.102   4.313   8.687 -0.1413 -0.0047 -0.0626
 6355SOL    HW130524   1.159   4.289   8.760 -1.9627  0.3564  1.4690
 6355SOL    HW230525   1.106   4.408   8.689 -1.5282  0.0936 -2.2724
 6356SOL     OW30526   3.686   1.574   6.905 -0.0486 -0.0776  0.4858
 6356SOL    HW130527   3.739   1.511   6.856 -2.0449 -1.7405  0.4628
 6356SOL    HW230528   3.703   1.657   6.862  0.8009  0.0090  0.9938
 6357SOL     OW30529   1.662   1.020  16.107  0.1347  0.5114 -0.1171
 6357SOL    HW130530   1.647   0.936  16.064 -1.5112  2.0140 -2.4983
 6357SOL    HW230531   1.741   1.059  16.068  1.1263 -0.3598  1.0240
 6358SOL     OW30532   3.046   3.485  13.075 -0.3162  0.2083 -0.2702
 6358SOL    HW130533   3.098   3.557  13.112  0.1132  0.9303 -2.3044
 6358SOL    HW230534   3.055   3.418  13.143  0.3703  1.6284  1.0263
 6359SOL     OW30535   0.683   4.645   2.712  0.0281  0.0165 -0.2085
 6359SOL    HW130536   0.763   4.593   2.722 -0.6237 -0.8785  0.3889
 6359SOL    HW230537   0.718   0.008   2.731  1.3484 -0.7262  0.7823
 6360SOL     OW30538   3.811   3.157   6.607  0.3939  0.4527 -0.8795
 6360SOL    HW130539   3.742   3.138   6.670  1.2276 -1.5191 -0.5662
 6360SOL    HW230540   3.885   3.154   6.668  1.0802 -0.3818 -1.7616
 6361SOL     OW30541   1.095   0.894   4.770  0.0989  0.2698 -0.0311
 6361SOL    HW130542   1.176   0.843   4.769 -0.7072 -1.0455  1.4115
 6361SOL    HW230543   1.107   0.958   4.700  0.4463  2.3383  1.9454
 6362SOL     OW30544   2.498   0.701   7.232 -0.1641  0.2708  0.0502
 6362SOL    HW130545   2.462   0.632   7.176  2.8644 -0.4379 -1.0030
 6362SOL    HW230546   2.561   0.655   7.287  0.8083  2.4236  0.7352
 6363SOL     OW30547   0.008   3.865   1.819 -0.4067  0.3478  0.3918
 6363SOL    HW130548   0.078   3.873   1.754 -1.0360  3.3630  0.0616
 6363SOL    HW230549   4.674   3.936   1.790  1.6327  0.9608 -2.1357
 6364SOL     OW30550   3.864   2.782  16.738 -0.1881 -0.0888  0.6330
 6364SOL    HW130551   3.944   2.796  16.787  0.7902 -0.7201 -0.7837
 6364SOL    HW230552   3.856   2.687  16.739 -0.3965 -0.0867 -0.4785
 6365SOL     OW30553   2.913   0.538  10.463  0.3352  0.1982  0.3376
 6365SOL    HW130554   2.889   0.508  10.550  0.2144  0.3557  0.3578
 6365SOL    HW230555   3.008   0.528  10.455  0.3200 -1.0516  1.6181
 6366SOL     OW30556   0.435   4.555   5.672 -0.2344  0.1669 -0.1639
 6366SOL    HW130557   0.392   4.638   5.691 -1.4759 -0.8511  1.5010
 6366SOL    HW230558   0.374   4.502   5.722 -0.0424 -1.0784 -1.2554
 6367SOL     OW30559   2.616   4.380   3.337 -0.1890  0.0463  0.1832
 6367SOL    HW130560   2.679   4.433   3.288  1.4429 -0.0646  2.1781
 6367SOL    HW230561   2.558   4.445   3.377 -0.9468 -0.5228  0.0116
 6368SOL     OW30562   4.362   2.205   2.952  0.1700 -0.2828 -0.0058
 6368SOL    HW130563   4.349   2.293   2.917 -1.0810 -1.4236 -2.4256
 6368SOL    HW230564   4.368   2.153   2.872  2.2614 -1.3223  0.8287
 6369SOL     OW30565   0.135   0.607   6.434  0.7892  0.5822  0.2192
 6369SOL    HW130566   0.116   0.556   6.355  0.9598  0.5038  0.2285
 6369SOL    HW230567   0.065   0.671   6.422 -0.1351 -0.4262  0.2819
 6370SOL     OW30568   1.946   3.599   7.506 -0.3204  0.5024 -0.0725
 6370SOL    HW130569   1.964   3.596   7.600 -0.8355  1.5492  0.0570
 6370SOL    HW230570   1.953   3.693   7.489  0.5302  0.1525 -1.6429
 6371SOL     OW30571   4.347   0.435  15.620  0.2954 -0.2349 -0.5978
 6371SOL    HW130572   4.356   0.482  15.703 -1.6602 -0.5031 -0.2413
 6371SOL    HW230573   4.260   0.396  15.631 -0.4133  2.0206  2.0557
 6372SOL     OW30574   2.486   1.548   9.043  0.2969  0.0365  0.8021
 6372SOL    HW130575   2.550   1.481   9.064  0.4130 -0.3080 -0.6546
 6372SOL    HW230576   2.423   1.497   8.991  2.5605  0.1410 -2.0601
 6373SOL     OW30577   1.187   3.733   9.893 -0.2867  0.1970 -0.1964
 6373SOL    HW130578   1.112   3.700   9.943  0.0240 -0.1812  0.0182
 6373SOL    HW230579   1.267   3.715   9.943 -0.0265  0.0831 -0.6574
 6374SOL     OW30580   2.718   3.344  15.920 -0.0157 -0.1194 -0.2730
 6374SOL    HW130581   2.716   3.260  15.967 -0.7775 -0.7564 -1.4454
 6374SOL    HW230582   2.784   3.323  15.854 -0.3183 -1.4121 -0.1772
 6375SOL     OW30583   2.750   0.594   0.279 -0.0990  0.0317  0.2471
 6375SOL    HW130584   2.758   0.522   0.217 -0.7614  1.2460 -1.2721
 6375SOL    HW230585   2.722   0.543   0.355  0.2781  1.7828  1.5670
 6376SOL     OW30586   4.014   3.061   7.573 -0.2315 -0.4666 -0.2261
 6376SOL    HW130587   4.007   2.967   7.556  0.4791 -0.3731 -1.0721
 6376SOL    HW230588   4.034   3.060   7.666  0.2036  0.2575 -0.3127
 6377SOL     OW30589   3.211   1.686  17.211 -0.2512  0.1530 -0.0811
 6377SOL    HW130590   3.251   1.680  17.297 -0.8469 -1.6675  0.0823
 6377SOL    HW230591   3.280   1.732  17.164  1.3371 -2.1279  0.0023
 6378SOL     OW30592   1.498   3.324   3.170 -0.0264 -0.9261 -0.7088
 6378SOL    HW130593   1.406   3.344   3.156 -0.4405 -1.7038  0.8881
 6378SOL    HW230594   1.513   3.308   3.263 -1.1182  0.1646 -0.3541
 6379SOL     OW30595   1.279   2.742   5.657 -0.0185  0.1083  0.8822
 6379SOL    HW130596   1.286   2.715   5.566 -0.6077 -0.5427  1.0387
 6379SOL    HW230597   1.226   2.822   5.652  0.5474  0.3058 -1.7055
 6380SOL     OW30598   2.144   4.346  11.433  0.4257  0.7208 -0.5210
 6380SOL    HW130599   2.119   4.322  11.344  1.3617 -0.1734 -0.5469
 6380SOL    HW230600   2.198   4.422  11.414  1.0759  0.0270 -1.4356
 6381SOL     OW30601   0.295   3.862  16.623  0.0142  0.2267  0.5204
 6381SOL    HW130602   0.248   3.822  16.550 -0.3808  2.0541 -0.2349
 6381SOL    HW230603   0.303   3.950  16.586  2.0092 -0.8017 -1.4659
 6382SOL     OW30604   1.471   0.218   7.196 -0.4499 -0.0800 -0.6730
 6382SOL    HW130605   1.453   0.300   7.151 -1.6664 -0.3834 -0.7550
 6382SOL    HW230606   1.382   0.193   7.222 -0.2660  0.8215  0.7618
 6383SOL     OW30607   0.793   2.333   2.129 -0.4236  0.2156  0.3681
 6383SOL    HW130608   0.851   2.267   2.168 -2.3133 -0.8335  1.3806
 6383SOL    HW230609   0.783   2.298   2.040  2.2173 -1.4282  0.7067
 6384SOL     OW30610   2.990   3.721  12.144  0.0612 -0.7306  0.0674
 6384SOL    HW130611   3.085   3.709  12.137  0.2564  0.5008  0.6707
 6384SOL    HW230612   2.964   3.704  12.054  2.1428 -0.4862 -0.5781
 6385SOL     OW30613   4.600   3.619   7.075 -0.0401 -0.9118  0.0703
 6385SOL    HW130614   4.635   3.532   7.097  2.5710 -0.1750 -1.1378
 6385SOL    HW230615   4.558   3.601   6.991  1.8079 -2.8950 -0.4243
 6386SOL     OW30616   1.752   0.864   7.617 -1.2443  0.2660 -0.0692
 6386SOL    HW130617   1.736   0.778   7.579 -0.3003  0.5739 -1.1552
 6386SOL    HW230618   1.662   0.883   7.643 -1.7486 -3.3048  0.8821
 6387SOL     OW30619   2.570   1.019  16.103 -0.1619 -0.1487 -0.0340
 6387SOL    HW130620   2.556   1.003  16.010 -1.5294 -0.3324  0.1988
 6387SOL    HW230621   2.509   1.092  16.116  1.4698  1.2149  0.0160
 6388SOL     OW30622   2.416   0.768   2.150 -0.0600  0.6025  0.1983
 6388SOL    HW130623   2.490   0.827   2.139  0.7423 -0.1021  1.8045
 6388SOL    HW230624   2.460   0.684   2.138 -3.0806 -0.9501  0.0996
 6389SOL     OW30625   0.917   1.981   7.230 -0.9082  0.4702 -0.0811
 6389SOL    HW130626   0.915   2.027   7.146  1.5627  1.4881  0.3907
 6389SOL    HW230627   0.857   1.908   7.222 -1.5019  1.2296 -2.6540
 6390SOL     OW30628   2.621   2.548  14.110  0.3472  0.1333 -0.5873
 6390SOL    HW130629   2.715   2.532  14.101  1.1890  3.0468  2.8525
 6390SOL    HW230630   2.615   2.643  14.122 -0.1656 -0.0070  0.3291
 6391SOL     OW30631   0.858   3.247  12.486  0.0338 -0.5891 -0.0994
 6391SOL    HW130632   0.905   3.241  12.569  1.7160 -0.6104 -1.0559
 6391SOL    HW230633   0.873   3.161  12.447  2.2693  1.4091 -3.5861
 6392SOL     OW30634   0.572   3.260   6.226  0.2274  0.4133 -0.1974
 6392SOL    HW130635   0.655   3.221   6.197 -0.0485 -1.9377  2.2451
 6392SOL    HW230636   0.548   3.327   6.162 -1.7784 -0.0878  0.0471
 6393SOL     OW30637   1.652   2.772  10.490 -0.2683 -0.0834  0.6741
 6393SOL    HW130638   1.603   2.721  10.554 -0.4152 -3.3636 -2.0543
 6393SOL    HW230639   1.716   2.709  10.458 -0.6444  0.3407 -0.9471
 6394SOL     OW30640   3.831   0.941  13.306 -0.2502  0.4045 -0.5228
 6394SOL    HW130641   3.776   0.875  13.349 -1.0765  1.0783 -0.5752
 6394SOL    HW230642   3.768   0.991  13.255 -1.3004 -1.4034 -0.9961
 6395SOL     OW30643   1.280   1.443   9.449 -0.3243  0.6061  0.4847
 6395SOL    HW130644   1.315   1.396   9.373 -0.9612  1.8296 -0.5529
 6395SOL    HW230645   1.277   1.534   9.418 -2.2948  0.2261 -0.4649
 6396SOL     OW30646   2.747   4.355   1.811  0.6361 -0.1024 -0.6072
 6396SOL    HW130647   2.833   4.316   1.801  1.1521  1.2221 -1.4306
 6396SOL    HW230648   2.700   4.282   1.771 -1.0897  0.6765  0.0047
 6397SOL     OW30649   2.308   3.930   1.481 -0.0189 -0.2563 -0.0014
 6397SOL    HW130650   2.314   3.849   1.430  2.2650 -1.8472  2.8133
 6397SOL    HW230651   2.249   3.905   1.551 -1.0807 -1.6054 -1.3707
 6398SOL     OW30652   3.781   0.750   3.044  0.3831 -0.4171 -0.4179
 6398SOL    HW130653   3.876   0.745   3.051  0.2885 -1.1777  0.3299
 6398SOL    HW230654   3.768   0.695   2.966 -4.7251 -1.0575  0.8557
 6399SOL     OW30655   2.046   0.643   9.543  0.1790  0.3406 -0.3443
 6399SOL    HW130656   2.074   0.561   9.584  0.9032  0.5519 -0.4178
 6399SOL    HW230657   2.072   0.628   9.452  0.3078 -2.2487  0.1060
 6400SOL     OW30658   2.727   4.370  17.187 -0.3398  0.4191 -0.8650
 6400SOL    HW130659   2.673   4.448  17.189  0.4660  0.9062  1.8764
 6400SOL    HW230660   2.655   4.324  17.145 -0.3594 -0.6051  0.2599
 6401SOL     OW30661   4.405   0.588  13.425 -0.1112  0.2143  0.2261
 6401SOL    HW130662   4.419   0.682  13.418 -0.6220  0.2117 -0.7936
 6401SOL    HW230663   4.309   0.589  13.424 -0.1461 -0.0543  2.6444
 6402SOL     OW30664   0.689   1.456   2.102 -0.2186 -0.0439  0.7288
 6402SOL    HW130665   0.710   1.387   2.039 -0.8312  2.5529 -2.3564
 6402SOL    HW230666   0.778   1.460   2.135 -0.4970 -1.3609  1.6058
 6403SOL     OW30667   4.502   2.120  14.011 -0.8026  0.0665 -0.2562
 6403SOL    HW130668   4.412   2.097  14.035 -1.0583  0.9496 -0.3907
 6403SOL    HW230669   4.539   2.103  14.098 -1.0779  0.3062 -0.0927
 6404SOL     OW30670   1.927   2.783   5.346  0.4953 -0.1696  0.2424
 6404SOL    HW130671   1.960   2.745   5.264  0.0678 -0.7058  0.3244
 6404SOL    HW230672   1.920   2.712   5.410 -0.9338 -1.3063 -1.1790
 6405SOL     OW30673   2.601   2.814   0.254 -0.5592  0.6256  0.2015
 6405SOL    HW130674   2.526   2.852   0.297 -1.3833  0.1373 -0.7957
 6405SOL    HW230675   2.555   2.743   0.209 -1.2100 -0.5290  2.6895
 6406SOL     OW30676   2.784   3.547  15.698 -0.1728 -0.2480 -0.2426
 6406SOL    HW130677   2.853   3.598  15.654 -0.0199 -0.0382  0.2284
 6406SOL    HW230678   2.714   3.611  15.712 -1.1011 -1.4068  0.3692
 6407SOL     OW30679   0.239   3.688  15.665 -0.0257  0.9440 -0.2626
 6407SOL    HW130680   0.201   3.769  15.632  0.6588  1.9072  1.3338
 6407SOL    HW230681   0.192   3.619  15.617  1.9908 -1.7321  1.5938
 6408SOL     OW30682   3.961   3.180  11.899 -0.3573  0.2977  0.3850
 6408SOL    HW130683   3.966   3.233  11.978 -2.7532  0.0797  0.6757
 6408SOL    HW230684   3.868   3.188  11.878 -0.3918 -0.8939  0.0497
 6409SOL     OW30685   3.900   4.176  11.445 -0.3521  0.0060 -0.4610
 6409SOL    HW130686   3.895   4.155  11.351 -1.0913  1.4815 -0.7450
 6409SOL    HW230687   3.982   4.134  11.472  0.1782  1.4870  0.2252
 6410SOL     OW30688   2.378   4.011   6.399  0.1199 -0.3129  0.0070
 6410SOL    HW130689   2.310   4.076   6.382  0.9804  0.9885  1.6308
 6410SOL    HW230690   2.421   4.041   6.479  1.0320 -4.0072  0.9193
 6411SOL     OW30691   2.610   3.514   0.536 -0.0399 -0.6180 -0.0348
 6411SOL    HW130692   2.566   3.438   0.497  0.5676 -0.5982 -0.7644
 6411SOL    HW230693   2.697   3.497   0.498  2.0100  2.2307  3.4099
 6412SOL     OW30694   2.267   0.547   9.706  0.8581  0.3451 -0.7964
 6412SOL    HW130695   2.327   0.482   9.670  0.1674 -0.8497  0.2500
 6412SOL    HW230696   2.312   0.622   9.665 -0.0045  0.8314 -0.8512
 6413SOL     OW30697   4.367   2.746   6.185 -0.0212  0.3907 -0.6644
 6413SOL    HW130698   4.349   2.835   6.217  1.8922  1.1072 -1.6242
 6413SOL    HW230699   4.285   2.737   6.136 -0.2594 -1.6608  0.1389
 6414SOL     OW30700   1.594   1.153   3.193 -0.0434  0.5467 -0.0229
 6414SOL    HW130701   1.649   1.185   3.264 -0.1482  0.4574  0.0969
 6414SOL    HW230702   1.530   1.104   3.245  0.9234 -3.2643 -2.3748
 6415SOL     OW30703   1.738   3.127   0.430  0.4417  0.1457 -0.1983
 6415SOL    HW130704   1.679   3.076   0.484 -2.6097  3.0171 -0.7949
 6415SOL    HW230705   1.820   3.078   0.438  0.6765  0.7277  1.0488
 6416SOL     OW30706   4.339   3.619   8.014 -0.1018 -0.1235 -0.2162
 6416SOL    HW130707   4.369   3.692   8.068  0.6201 -0.3100 -0.3753
 6416SOL    HW230708   4.408   3.603   7.950  0.7827  0.3479  0.6315
 6417SOL     OW30709   0.525   3.926   3.169  0.0026 -0.1481  0.5279
 6417SOL    HW130710   0.612   3.958   3.194 -1.0013  3.0712 -0.0872
 6417SOL    HW230711   0.485   3.903   3.253 -1.7202  1.0072  0.0201
 6418SOL     OW30712   2.794   0.277   2.336  0.9343  0.4634  0.1650
 6418SOL    HW130713   2.865   0.331   2.372  1.4943 -0.0201 -0.2176
 6418SOL    HW230714   2.761   0.336   2.269 -0.0517  1.5194  1.5680
 6419SOL     OW30715   2.607   1.266   6.414 -0.0742 -0.1633  0.2131
 6419SOL    HW130716   2.568   1.187   6.377  1.2090  0.0259 -1.5695
 6419SOL    HW230717   2.655   1.225   6.486 -0.0851 -1.2570 -0.4129
 6420SOL     OW30718   0.592   2.739   6.192 -0.2604 -1.1084 -0.0555
 6420SOL    HW130719   0.538   2.774   6.122  0.1416  0.7624  0.5836
 6420SOL    HW230720   0.671   2.762   6.143 -0.9813  2.4074  0.4570
 6421SOL     OW30721   1.456   0.994   6.851 -0.3871  0.7848  0.2563
 6421SOL    HW130722   1.526   0.962   6.908 -0.5710  1.3242  0.7848
 6421SOL    HW230723   1.504   1.045   6.786 -2.1144  0.9414 -0.9130
 6422SOL     OW30724   0.986   2.123  12.214  0.1394  0.8295  0.6970
 6422SOL    HW130725   1.061   2.081  12.173  0.3424  0.2779  1.6305
 6422SOL    HW230726   0.965   2.063  12.285 -1.5696  1.4870  0.7741
 6423SOL     OW30727   0.797   3.809   7.206  0.2360 -0.2534 -0.4315
 6423SOL    HW130728   0.702   3.813   7.196  0.2768  3.8958  0.7083
 6423SOL    HW230729   0.822   3.757   7.129 -0.4070 -0.4524 -0.5029
 6424SOL     OW30730   3.139   0.554   7.739 -0.6649  0.3273 -0.2420
 6424SOL    HW130731   3.073   0.623   7.741 -0.3255  0.6020  2.0941
 6424SOL    HW230732   3.207   0.606   7.781 -0.8565  0.0228  0.4477
 6425SOL     OW30733   1.371   2.797   3.894 -0.0875 -0.6633 -0.5841
 6425SOL    HW130734   1.322   2.849   3.831 -0.4863  2.4949  2.3047
 6425SOL    HW230735   1.453   2.842   3.914 -0.3912  1.0958 -3.2972
 6426SOL     OW30736   0.266   3.542   8.036  0.3380 -0.4742  0.3308
 6426SOL    HW130737   0.331   3.523   8.103  1.4484  2.1328 -0.0197
 6426SOL    HW230738   0.233   3.454   8.017 -0.3783  0.2699 -1.9058
 6427SOL     OW30739   2.544   2.800  15.360 -0.1877 -0.0514 -0.6071
 6427SOL    HW130740   2.550   2.894  15.343 -2.0080  0.6565  2.6976
 6427SOL    HW230741   2.449   2.784  15.354 -0.3097  1.2901 -2.1960
 6428SOL     OW30742   4.144   1.586   9.498  0.3450  0.6541  0.2076
 6428SOL    HW130743   4.147   1.614   9.590  2.9588  1.0107  0.0258
 6428SOL    HW230744   4.158   1.495   9.523  0.0326  0.5735  0.0833
 6429SOL     OW30745   3.894   3.665   5.130  0.1684  0.4148  0.1378
 6429SOL    HW130746   3.864   3.711   5.208 -1.8895  0.1089 -0.4742
 6429SOL    HW230747   3.985   3.655   5.160 -0.0007 -2.7074 -0.3949
 6430SOL     OW30748   0.350   3.628   7.054 -0.3865 -0.2316  0.1313
 6430SOL    HW130749   0.435   3.594   7.024 -0.5078 -0.5532  0.1499
 6430SOL    HW230750   0.309   3.650   6.971  2.1697  1.1380 -0.7658
 6431SOL     OW30751   2.512   4.532   6.696 -0.0392  0.1968 -0.5367
 6431SOL    HW130752   2.505   4.462   6.761 -0.5238  2.3676  1.8093
 6431SOL    HW230753   2.446   4.495   6.638  1.2226 -0.9709 -1.2138
 6432SOL     OW30754   1.150   0.005   5.492 -0.2168  0.0735 -0.4741
 6432SOL    HW130755   1.139   4.720   5.587  0.2380  1.4918 -0.2911
 6432SOL    HW230756   1.239   0.037   5.485  0.2093 -1.1549 -0.6335
 6433SOL     OW30757   2.104   4.437   6.583 -0.4481 -0.0587 -0.2073
 6433SOL    HW130758   2.017   4.421   6.546 -0.0943 -0.3557 -0.8863
 6433SOL    HW230759   2.073   4.424   6.673  0.6465  2.0774  0.4878
 6434SOL     OW30760   2.740   3.824  11.386  0.0409 -0.3266  0.0202
 6434SOL    HW130761   2.771   3.751  11.333  0.1620  0.1839 -0.6099
 6434SOL    HW230762   2.775   3.888  11.325  0.7763  0.1553  0.9361
 6435SOL     OW30763   1.465   3.622   3.170 -0.3361  0.4251 -0.2128
 6435SOL    HW130764   1.457   3.613   3.075 -1.1122 -1.9117  0.0683
 6435SOL    HW230765   1.521   3.699   3.177 -0.9174  1.0390 -2.3587
 6436SOL     OW30766   2.256   3.246   4.464  0.0446 -0.1645 -0.0846
 6436SOL    HW130767   2.247   3.251   4.369  0.0346  0.0581 -0.0712
 6436SOL    HW230768   2.316   3.171   4.468  0.0767  0.1082  4.2626
 6437SOL     OW30769   3.033   1.995  15.863  0.4014  0.3516  0.4869
 6437SOL    HW130770   3.037   1.917  15.809  0.8237  0.3431  0.5337
 6437SOL    HW230771   2.963   2.034  15.810  0.2995 -0.3537  0.1079
 6438SOL     OW30772   3.374   0.381  16.122 -0.5533 -0.4357  0.5470
 6438SOL    HW130773   3.427   0.442  16.173 -0.0520 -0.6418  0.2674
 6438SOL    HW230774   3.407   0.396  16.033 -0.4674 -0.2034  0.6175
 6439SOL     OW30775   1.819   2.630  15.733  0.3180  0.6391  0.4646
 6439SOL    HW130776   1.776   2.669  15.809  1.0920  0.2961  1.0775
 6439SOL    HW230777   1.868   2.558  15.772 -0.4805 -0.5132 -0.6788
 6440SOL     OW30778   2.469   3.344   9.232 -0.2251  0.2184 -0.2465
 6440SOL    HW130779   2.505   3.417   9.283  1.7050 -0.2057 -0.9919
 6440SOL    HW230780   2.494   3.388   9.151  2.2401  0.0577  0.4401
 6441SOL     OW30781   2.831   2.448  16.458 -0.0933 -0.5526  0.1259
 6441SOL    HW130782   2.821   2.512  16.387  0.8883  1.0955  1.4744
 6441SOL    HW230783   2.926   2.457  16.451  0.0132 -1.1688  0.7904
 6442SOL     OW30784   4.087   2.961   6.448  0.2640 -0.4150  0.1169
 6442SOL    HW130785   4.040   2.878   6.443 -0.3157 -0.3115  3.6514
 6442SOL    HW230786   4.173   2.940   6.484  0.1170  0.1094  0.7806
 6443SOL     OW30787   1.883   1.661   4.849  0.0350 -0.3368 -0.3613
 6443SOL    HW130788   1.850   1.665   4.759 -0.9463 -0.4524 -0.0089
 6443SOL    HW230789   1.855   1.573   4.872 -1.0242  0.2739  0.7179
 6444SOL     OW30790   3.102   0.774   6.920  0.2372  0.4962  0.2663
 6444SOL    HW130791   3.124   0.694   6.871  0.4640  2.1408 -2.2946
 6444SOL    HW230792   3.094   0.741   7.010 -1.2272 -0.4217 -0.1819
 6445SOL     OW30793   1.768   4.720  10.874 -0.1744 -0.2912 -0.1258
 6445SOL    HW130794   1.712   4.705  10.798 -0.5745  1.2962 -0.1580
 6445SOL    HW230795   1.801   4.636  10.906  2.6928  0.8754  0.0293
 6446SOL     OW30796   4.158   2.715   4.227 -0.1627 -0.6791  0.0463
 6446SOL    HW130797   4.175   2.723   4.133  2.8034 -0.3416  0.5984
 6446SOL    HW230798   4.235   2.765   4.254  0.3466 -1.9478  0.9820
 6447SOL     OW30799   0.890   4.074   7.279 -0.0663 -0.6032  0.3576
 6447SOL    HW130800   0.840   4.096   7.201  0.3475 -2.4257 -0.4230
 6447SOL    HW230801   0.872   3.980   7.270 -0.8540 -0.1660 -2.4168
 6448SOL     OW30802   2.846   2.419   7.200  0.0397 -0.2516  0.5718
 6448SOL    HW130803   2.783   2.444   7.132  0.3324  3.6374  1.7053
 6448SOL    HW230804   2.869   2.327   7.187 -1.6067 -0.6606  0.5415
 6449SOL     OW30805   0.605   0.692   2.642  0.1226  0.2686 -0.2446
 6449SOL    HW130806   0.553   0.678   2.563 -1.3093 -0.8968  0.9046
 6449SOL    HW230807   0.565   0.765   2.689  0.6736 -0.7263  1.7759
 6450SOL     OW30808   0.537   0.200   2.667 -0.8046  0.4010 -0.0047
 6450SOL    HW130809   0.534   0.252   2.587  0.2232 -1.1036 -1.0172
 6450SOL    HW230810   0.629   0.184   2.689  0.2543  0.8938 -4.0110
 6451SOL     OW30811   4.058   3.084   3.857  0.0156  0.2457  0.5012
 6451SOL    HW130812   4.000   3.109   3.929  0.7069  1.2490  0.7035
 6451SOL    HW230813   4.097   3.168   3.835 -0.3635  0.7301  1.6678
 6452SOL     OW30814   0.163   1.763   5.898  0.2924 -0.0503 -0.5006
 6452SOL    HW130815   0.199   1.677   5.918  1.7089  1.0609  1.6983
 6452SOL    HW230816   0.194   1.770   5.808  0.5636  0.0923 -0.3955
 6453SOL     OW30817   1.996   0.978   7.612  0.1324  0.5013  0.3834
 6453SOL    HW130818   2.032   0.989   7.700  0.8455  0.2988  0.1227
 6453SOL    HW230819   1.912   0.943   7.639  1.5635 -1.6631  2.0296
 6454SOL     OW30820   3.322   2.471   2.417 -0.1530  0.2299  0.4720
 6454SOL    HW130821   3.343   2.471   2.324  0.3436  0.1461  0.5807
 6454SOL    HW230822   3.226   2.472   2.419 -0.1764 -0.4747 -0.5947
 6455SOL     OW30823   1.720   1.022  17.410  0.0185 -0.2020 -0.5915
 6455SOL    HW130824   1.724   1.104  17.460 -0.0299 -0.1420 -0.6854
 6455SOL    HW230825   1.656   1.055  17.348 -1.6528 -1.0384  0.6693
 6456SOL     OW30826   2.211   0.796   4.619 -0.1217  0.1464  0.2488
 6456SOL    HW130827   2.296   0.782   4.661  0.4554  1.2865 -0.5296
 6456SOL    HW230828   2.229   0.784   4.526 -1.9666 -0.7302  0.0195
 6457SOL     OW30829   0.795   1.464  15.293  0.4017  0.2916  0.3606
 6457SOL    HW130830   0.721   1.410  15.320  0.9829 -0.5441  0.2560
 6457SOL    HW230831   0.853   1.391  15.273 -0.9997 -0.4916 -0.8351
 6458SOL     OW30832   0.860   3.195   5.698 -0.1441  0.3586  0.0254
 6458SOL    HW130833   0.793   3.136   5.664 -0.7898  2.0216 -1.6216
 6458SOL    HW230834   0.917   3.135   5.746 -1.4974 -1.0187 -0.0785
 6459SOL     OW30835   2.410   1.814   4.713  0.2207  0.0101 -0.0236
 6459SOL    HW130836   2.500   1.847   4.710 -0.6632  2.5191  1.3264
 6459SOL    HW230837   2.415   1.738   4.655 -1.0035 -1.0010  1.1892
 6460SOL     OW30838   3.383   4.198   2.342 -0.1456  0.2058 -0.7170
 6460SOL    HW130839   3.440   4.212   2.417 -0.3848  0.2076 -0.5352
 6460SOL    HW230840   3.386   4.277   2.288 -2.8725 -0.2207 -1.4957
 6461SOL     OW30841   4.456   4.036   6.313 -0.1302 -0.2546  0.0781
 6461SOL    HW130842   4.450   4.071   6.402 -1.5575  0.2742 -0.2368
 6461SOL    HW230843   4.525   4.092   6.277 -1.0784  0.6304 -0.3535
 6462SOL     OW30844   2.080   2.749  10.426  0.4659 -0.9576 -0.0834
 6462SOL    HW130845   2.154   2.705  10.385 -0.9013 -2.1207 -1.3227
 6462SOL    HW230846   2.009   2.737  10.363  1.5365 -1.0394 -1.2725
 6463SOL     OW30847   0.905   4.624   7.615  0.2457 -0.2825  0.3540
 6463SOL    HW130848   0.856   4.549   7.648  1.3355 -1.8131 -1.4903
 6463SOL    HW230849   0.996   4.595   7.623  0.0838 -0.8186  0.2558
 6464SOL     OW30850   1.673   0.292   4.061  0.0759  0.2200  0.2063
 6464SOL    HW130851   1.617   0.290   3.984  0.2727 -2.4185  0.1010
 6464SOL    HW230852   1.718   0.374   4.042 -0.7925  0.8213  0.7693
 6465SOL     OW30853   0.115   2.177  12.804  0.0902  0.8356  0.1021
 6465SOL    HW130854   0.154   2.265  12.796  3.1534 -0.8687 -3.5571
 6465SOL    HW230855   0.037   2.208  12.850 -0.8319 -0.5709 -0.5300
 6466SOL     OW30856   4.045   3.359   8.651  0.4853  0.2680 -0.2536
 6466SOL    HW130857   4.015   3.360   8.742  0.7221  0.4171 -0.1776
 6466SOL    HW230858   4.111   3.427   8.648 -1.3312  2.0515  0.2148
 6467SOL     OW30859   3.349   1.705   2.531  0.2916 -0.1565  0.4212
 6467SOL    HW130860   3.301   1.667   2.604  0.3065  0.0430  0.5354
 6467SOL    HW230861   3.284   1.716   2.461  0.6996 -0.1241  0.0451
 6468SOL     OW30862   3.636   2.632   6.414 -0.3667 -0.2350 -0.3009
 6468SOL    HW130863   3.681   2.650   6.497  0.9365 -2.3715 -0.5334
 6468SOL    HW230864   3.621   2.539   6.426 -2.4644 -0.0779 -1.7643
 6469SOL     OW30865   1.920   0.053   3.705  0.0974  0.1455  0.5602
 6469SOL    HW130866   1.983   0.106   3.654 -0.3710  2.2423  2.1762
 6469SOL    HW230867   1.869   0.011   3.636  0.1361 -2.3918  2.1230
 6470SOL     OW30868   1.787   1.332   5.156 -0.0034  0.3575  0.4454
 6470SOL    HW130869   1.702   1.372   5.139  1.3352  2.0637 -2.2077
 6470SOL    HW230870   1.860   1.393   5.150  1.1922 -0.9235  1.8046
 6471SOL     OW30871   2.596   0.200   4.902 -0.0113 -0.1820 -0.0761
 6471SOL    HW130872   2.535   0.141   4.946 -0.1564 -2.7758 -3.7775
 6471SOL    HW230873   2.539   0.274   4.881 -1.2565 -0.8595  0.9919
 6472SOL     OW30874   3.199   2.398  10.652  0.0507  0.1678 -0.6854
 6472SOL    HW130875   3.185   2.378  10.745 -0.6150  0.7480 -0.6611
 6472SOL    HW230876   3.292   2.423  10.656 -0.0580  0.5368 -0.4526
 6473SOL     OW30877   2.722   0.676  10.820  0.1678 -0.2761 -0.6791
 6473SOL    HW130878   2.648   0.649  10.874 -0.1765  1.3703 -0.3177
 6473SOL    HW230879   2.729   0.600  10.763 -2.0531 -0.9701 -0.0218
 6474SOL     OW30880   1.312   3.184   2.634 -0.2131 -0.1600  0.1383
 6474SOL    HW130881   1.372   3.115   2.658  1.8079  1.0364 -1.4847
 6474SOL    HW230882   1.250   3.130   2.585  1.1822 -0.0670 -1.7730
 6475SOL     OW30883   0.188   1.250   8.485 -0.0481  0.2222 -0.0040
 6475SOL    HW130884   0.283   1.244   8.469 -0.1673  0.7885 -0.9031
 6475SOL    HW230885   0.181   1.187   8.557 -3.7894  1.9144  1.0943
 6476SOL     OW30886   0.648   0.507   3.899 -0.5975  0.1360  0.4445
 6476SOL    HW130887   0.741   0.499   3.921 -0.1908  0.7473 -1.0844
 6476SOL    HW230888   0.659   0.518   3.805 -0.3833 -1.5965  0.2634
 6477SOL     OW30889   0.644   3.638   3.364  0.7125  0.3090 -0.1134
 6477SOL    HW130890   0.718   3.646   3.423 -0.5491  1.6056  1.3028
 6477SOL    HW230891   0.612   3.727   3.375 -1.8389 -0.7594  1.1153
 6478SOL     OW30892   1.633   2.165  12.255 -0.0390  0.3010 -0.6474
 6478SOL    HW130893   1.646   2.070  12.257  0.7714  0.4096 -0.6699
 6478SOL    HW230894   1.608   2.179  12.347 -0.2737  1.5036 -0.8942
 6479SOL     OW30895   2.693   3.538   7.334  0.1034 -0.5002 -0.8955
 6479SOL    HW130896   2.682   3.603   7.264  0.5531  0.7654  0.2059
 6479SOL    HW230897   2.709   3.596   7.408  0.8109 -2.7320  0.6674
 6480SOL     OW30898   2.885   3.371   8.948  0.3734 -0.6933 -0.2476
 6480SOL    HW130899   2.794   3.400   8.939  0.0471 -0.9180  2.2780
 6480SOL    HW230900   2.937   3.451   8.953  0.0283 -0.4813 -0.1054
 6481SOL     OW30901   3.286   3.552   2.051  0.1698 -0.0321 -0.2268
 6481SOL    HW130902   3.290   3.611   1.976  0.1234 -0.8798 -0.8997
 6481SOL    HW230903   3.244   3.469   2.029  1.8826 -0.3196 -2.3273
 6482SOL     OW30904   1.946   3.528  10.094  0.1685 -0.0093  0.1643
 6482SOL    HW130905   1.913   3.531  10.004 -1.0599  4.3355  0.7478
 6482SOL    HW230906   2.016   3.464  10.079  0.2456  0.5551 -1.9288
 6483SOL     OW30907   3.542   2.308   7.666 -0.3821  0.3166  0.1378
 6483SOL    HW130908   3.606   2.379   7.666 -0.7567  0.6592  1.5525
 6483SOL    HW230909   3.537   2.309   7.761  0.6014 -2.3014  0.2205
 6484SOL     OW30910   3.522   1.261   3.685  0.4101  0.7400 -0.2296
 6484SOL    HW130911   3.546   1.337   3.737 -3.0039  1.1812  0.7383
 6484SOL    HW230912   3.581   1.196   3.721 -1.0027  0.4171  1.4670
 6485SOL     OW30913   2.344   0.868  13.027  0.4233  0.1512  0.3484
 6485SOL    HW130914   2.251   0.848  13.033  0.3916  0.4770  1.0172
 6485SOL    HW230915   2.356   0.931  12.956 -0.0882  0.6167  0.6707
 6486SOL     OW30916   0.385   3.932   5.980  0.1136  0.0218 -0.5285
 6486SOL    HW130917   0.384   3.941   6.076  1.9750  1.4282 -0.6451
 6486SOL    HW230918   0.294   3.904   5.970  0.2780 -0.9547  0.7330
 6487SOL     OW30919   2.664   2.985   8.040 -0.7210 -0.0940  0.2282
 6487SOL    HW130920   2.632   3.071   8.012 -3.4253 -0.6733  1.5672
 6487SOL    HW230921   2.754   2.998   8.011 -0.8570 -1.2033 -0.7076
 6488SOL     OW30922   4.255   2.657   8.305 -0.0649  0.3459  0.3254
 6488SOL    HW130923   4.161   2.654   8.327 -0.7545  2.6526 -2.3393
 6488SOL    HW230924   4.253   2.692   8.216  0.3311 -0.2530  0.0808
 6489SOL     OW30925   2.451   3.968  15.298 -0.3727  0.0470  0.5975
 6489SOL    HW130926   2.395   4.045  15.286 -2.5460 -1.6409  0.0552
 6489SOL    HW230927   2.412   3.898  15.247  0.0798 -0.7269  1.3167
 6490SOL     OW30928   3.218   2.313   1.991 -0.4961 -0.3129  0.2760
 6490SOL    HW130929   3.146   2.276   1.940  1.5643 -0.5830 -2.4568
 6490SOL    HW230930   3.263   2.229   1.999  1.5690  0.9519  2.0544
 6491SOL     OW30931   3.273   4.312   1.321  0.2462 -0.1682 -0.0252
 6491SOL    HW130932   3.271   4.301   1.226 -0.3676 -0.9840  0.0761
 6491SOL    HW230933   3.216   4.239   1.349 -0.3767  0.3202 -0.0215
 6492SOL     OW30934   3.615   1.886   5.627 -0.3541 -0.3873 -0.1296
 6492SOL    HW130935   3.690   1.829   5.642 -1.2642 -1.6871 -0.5213
 6492SOL    HW230936   3.549   1.821   5.601 -0.8022  0.7369 -1.8523
 6493SOL     OW30937   1.861   4.544  14.857  0.1834 -0.2986 -0.4077
 6493SOL    HW130938   1.895   4.492  14.930 -1.1521 -0.4445  0.1124
 6493SOL    HW230939   1.913   4.625  14.854  0.7482 -0.6472 -0.0407
 6494SOL     OW30940   1.202   2.951   2.583 -0.4498  0.0674 -0.2749
 6494SOL    HW130941   1.255   2.872   2.595  1.5253  1.3253 -0.6941
 6494SOL    HW230942   1.141   2.925   2.514  3.0279 -1.8178 -2.6681
 6495SOL     OW30943   3.600   2.884   8.055 -0.4815  0.2318 -0.1509
 6495SOL    HW130944   3.504   2.892   8.057 -0.5683 -0.6328 -1.0699
 6495SOL    HW230945   3.624   2.976   8.068  0.3128 -0.2675  2.0291
 6496SOL     OW30946   1.256   1.873  13.843  0.2995 -0.6548 -0.2356
 6496SOL    HW130947   1.299   1.812  13.783  1.3936  1.2823 -1.4382
 6496SOL    HW230948   1.304   1.861  13.925 -2.6884 -2.4016  1.2502
 6497SOL     OW30949   0.144   1.401   1.938  0.4189 -0.3193 -0.1437
 6497SOL    HW130950   0.138   1.482   1.990  2.4619 -0.4668  0.3342
 6497SOL    HW230951   0.160   1.344   2.014  0.3340  1.3637  1.1535
 6498SOL     OW30952   2.773   1.737   3.703 -0.5681  0.3147  0.3930
 6498SOL    HW130953   2.745   1.775   3.620 -0.7130 -1.5214 -0.3908
 6498SOL    HW230954   2.703   1.753   3.765  0.6804  0.3196  1.8106
 6499SOL     OW30955   1.871   4.064  11.090 -0.2696 -0.9064 -0.3752
 6499SOL    HW130956   1.781   4.047  11.117 -0.0602 -1.1818  0.1349
 6499SOL    HW230957   1.864   4.152  11.053 -2.1551 -1.6094 -1.7308
 6500SOL     OW30958   3.523   4.112   0.032  0.3651 -0.3998 -0.1685
 6500SOL    HW130959   3.520   4.184   0.094  0.8548  0.7516 -1.4999
 6500SOL    HW230960   3.566   4.049   0.090  0.7875  0.0424 -0.0004
 6501SOL     OW30961   2.086   3.909  10.593 -0.0763 -0.1180  0.2212
 6501SOL    HW130962   2.095   3.855  10.514 -1.7499  0.3979 -0.3181
 6501SOL    HW230963   2.109   3.992  10.553  1.3186 -1.0290 -0.8827
 6502SOL     OW30964   1.582   1.496  13.166 -0.0383 -0.3018 -0.2989
 6502SOL    HW130965   1.551   1.520  13.079  1.4680 -1.0199 -1.0406
 6502SOL    HW230966   1.642   1.424  13.147  1.5863  0.4264  2.0794
 6503SOL     OW30967   2.783   3.028   7.749 -0.0192  0.0575  0.3706
 6503SOL    HW130968   2.837   2.991   7.679  0.1048  0.2348  0.3737
 6503SOL    HW230969   2.723   2.954   7.758 -0.5571  0.6020  1.2853
 6504SOL     OW30970   2.347   4.503   6.198 -0.4298 -0.3419  0.0337
 6504SOL    HW130971   2.397   4.568   6.247 -1.0228  1.1113 -1.2897
 6504SOL    HW230972   2.340   4.545   6.113 -2.0337 -1.1172 -0.2272
 6505SOL     OW30973   1.725   0.915   6.541 -0.0573  0.1053 -0.2788
 6505SOL    HW130974   1.726   0.978   6.469  1.0932  0.6283  0.1877
 6505SOL    HW230975   1.801   0.860   6.521  0.7374  0.7640  0.9732
 6506SOL     OW30976   0.296   2.203  10.049 -0.5894 -0.2547  0.0584
 6506SOL    HW130977   0.231   2.234   9.986 -0.9523 -1.7385 -0.2941
 6506SOL    HW230978   0.341   2.129  10.009 -0.9137 -1.3240  1.6511
 6507SOL     OW30979   4.094   2.169   3.409 -0.5091 -0.0035  0.4730
 6507SOL    HW130980   4.171   2.169   3.353 -0.8293 -0.8662  0.0351
 6507SOL    HW230981   4.092   2.079   3.440  3.6498 -0.3661 -0.4051
 6508SOL     OW30982   0.755   1.842  10.680  0.3212  0.1756  0.2188
 6508SOL    HW130983   0.835   1.866  10.633  1.2176 -0.9817  1.1705
 6508SOL    HW230984   0.778   1.882  10.764  0.1833 -0.3519  0.5086
 6509SOL     OW30985   0.181   1.915   3.951  0.0620  0.4632  0.1112
 6509SOL    HW130986   0.246   1.982   3.973 -0.6640  1.8456 -1.9113
 6509SOL    HW230987   0.217   1.894   3.865  0.0158  0.3466  0.1208
 6510SOL     OW30988   2.067   0.329  10.055 -0.3893 -0.3049 -0.2379
 6510SOL    HW130989   2.008   0.384  10.003  1.0524  0.5140 -1.0103
 6510SOL    HW230990   2.084   0.261   9.990  2.4099  1.0908 -0.9832
 6511SOL     OW30991   3.437   0.647   5.190 -0.0324  0.1878  0.5455
 6511SOL    HW130992   3.369   0.586   5.217 -2.3165  2.0336 -1.0670
 6511SOL    HW230993   3.433   0.625   5.097  0.6593 -4.0065  1.5012
 6512SOL     OW30994   1.456   1.536   5.289 -0.3169 -0.6011  0.1881
 6512SOL    HW130995   1.385   1.491   5.242 -0.0916 -1.4918  0.6911
 6512SOL    HW230996   1.444   1.530   5.384  1.7667 -1.5088  0.3839
 6513SOL     OW30997   1.739   0.188  11.061 -0.4535 -0.0370  0.4780
 6513SOL    HW130998   1.735   0.122  10.992  1.3981 -1.5646  1.8081
 6513SOL    HW230999   1.744   0.138  11.142 -1.7848 -0.7141  0.1399
 6514SOL     OW31000   3.198   0.843   8.595 -0.1817 -0.0910  0.1843
 6514SOL    HW131001   3.172   0.833   8.687  1.5135 -1.6483  0.4906
 6514SOL    HW231002   3.292   0.855   8.608 -0.0901 -1.5841  0.8552
 6515SOL     OW31003   1.350   3.695   6.254 -0.4678  0.4180  0.0097
 6515SOL    HW131004   1.427   3.733   6.212 -0.0373  2.3734  2.5733
 6515SOL    HW231005   1.327   3.636   6.183  2.5296  1.1735 -1.6186
 6516SOL     OW31006   3.445   0.076  14.271  0.5941  0.1830 -0.9857
 6516SOL    HW131007   3.376   0.017  14.240 -1.9803  3.5981 -1.7312
 6516SOL    HW231008   3.422   0.156  14.224 -2.0713  0.2405  0.3719
 6517SOL     OW31009   1.165   3.554   6.030 -0.1858  0.3247  0.2151
 6517SOL    HW131010   1.071   3.574   6.025 -0.4818 -0.7076  1.8297
 6517SOL    HW231011   1.198   3.567   5.941 -3.2329 -0.3406 -1.0059
 6518SOL     OW31012   2.224   3.486   8.751  0.2685 -0.4958  0.2841
 6518SOL    HW131013   2.237   3.393   8.770 -0.4564 -0.6627 -0.0286
 6518SOL    HW231014   2.128   3.490   8.750  0.4245  2.4313 -1.2986
 6519SOL     OW31015   4.685   3.654   5.309 -0.8108  0.1371 -0.5571
 6519SOL    HW131016   0.020   3.579   5.304  0.5876  1.2307 -0.6389
 6519SOL    HW231017   0.015   3.733   5.301  1.3791 -1.2127  0.7781
 6520SOL     OW31018   1.486   1.902   3.929  0.1508 -0.5287 -0.0553
 6520SOL    HW131019   1.536   1.962   3.874 -0.4096 -0.5844 -0.6172
 6520SOL    HW231020   1.437   1.965   3.981 -1.3164 -1.6766 -0.0591
 6521SOL     OW31021   2.186   1.173   4.080  0.1993 -0.2201  0.0210
 6521SOL    HW131022   2.214   1.237   4.146  1.0703 -3.0610  2.4382
 6521SOL    HW231023   2.172   1.093   4.131  0.9243  0.6327  1.5477
 6522SOL     OW31024   3.609   4.099   5.605 -0.0834 -0.2746  0.3505
 6522SOL    HW131025   3.537   4.087   5.667 -1.6868 -0.2788 -1.5166
 6522SOL    HW231026   3.664   4.023   5.623 -0.8781 -0.7111  0.9892
 6523SOL     OW31027   2.364   4.106  16.436  0.6297 -0.1171 -0.1412
 6523SOL    HW131028   2.312   4.093  16.357  1.1633  2.6111 -0.9440
 6523SOL    HW231029   2.449   4.093  16.393  1.1943  3.8140 -0.2865
 6524SOL     OW31030   2.293   0.905   9.361  0.7431  0.0850 -0.1470
 6524SOL    HW131031   2.339   0.898   9.277  1.4481 -2.5418  0.4458
 6524SOL    HW231032   2.335   0.982   9.399  1.8646  0.7666 -2.7514
 6525SOL     OW31033   1.120   1.416   8.024  0.1427  0.0165 -0.3227
 6525SOL    HW131034   1.044   1.451   7.977  0.2666  1.4316  0.5103
 6525SOL    HW231035   1.190   1.440   7.963  0.1157  0.4562 -0.1818
 6526SOL     OW31036   3.208   2.911  15.507  0.6814 -0.0043  0.2409
 6526SOL    HW131037   3.183   2.857  15.433  0.6546  0.2582  0.0574
 6526SOL    HW231038   3.291   2.872  15.532  0.5465  0.6133  1.6549
 6527SOL     OW31039   2.619   1.121   2.778  0.2666 -0.1350 -0.2885
 6527SOL    HW131040   2.629   1.038   2.732 -1.7286 -1.0568  0.9628
 6527SOL    HW231041   2.639   1.174   2.700 -1.6330  1.5472  0.3535
 6528SOL     OW31042   2.317   2.135   2.647 -0.1255 -0.1918 -0.0910
 6528SOL    HW131043   2.281   2.049   2.627 -0.2625 -0.4806  1.3868
 6528SOL    HW231044   2.300   2.136   2.741  1.0461  2.0019  0.1084
 6529SOL     OW31045   3.593   3.929  10.713 -0.0926 -0.3129 -0.1618
 6529SOL    HW131046   3.573   3.915  10.806  0.4233  0.5832  0.0882
 6529SOL    HW231047   3.544   3.859  10.671  0.5306 -0.7329 -0.1813
 6530SOL     OW31048   0.201   4.172  13.685  0.1024 -0.1348  0.3831
 6530SOL    HW131049   0.214   4.084  13.720 -0.2723 -0.8347 -1.2652
 6530SOL    HW231050   0.220   4.163  13.592  1.0944  0.0767  0.5633
 6531SOL     OW31051   2.821   2.369   6.790 -0.0501  0.2881 -0.0919
 6531SOL    HW131052   2.895   2.332   6.742 -0.9076  1.6469 -2.4650
 6531SOL    HW231053   2.867   2.439   6.837  0.3533  0.9840 -1.5467
 6532SOL     OW31054   4.461   0.704   8.424  0.0868  0.7954  0.2767
 6532SOL    HW131055   4.483   0.702   8.518 -0.1649 -2.1476  0.2860
 6532SOL    HW231056   4.494   0.793   8.413  0.3484  0.5814 -0.6344
 6533SOL     OW31057   0.306   2.483  12.334  1.0359 -0.0605 -0.3500
 6533SOL    HW131058   0.349   2.539  12.269 -0.2745  1.7873  0.3584
 6533SOL    HW231059   0.375   2.421  12.355 -0.7261 -2.0950 -0.6308
 6534SOL     OW31060   3.926   3.944   8.478  0.3209 -0.1214  0.0570
 6534SOL    HW131061   3.939   3.873   8.541  1.2386  0.9154  1.0364
 6534SOL    HW231062   3.837   3.927   8.447 -0.6430  0.9546  2.1585
 6535SOL     OW31063   0.210   4.383   5.815  0.0827  0.3992 -0.0338
 6535SOL    HW131064   0.149   4.333   5.868 -0.7215  0.4790 -0.8866
 6535SOL    HW231065   0.287   4.326   5.813  0.1677  0.6063 -3.6813
 6536SOL     OW31066   0.546   0.768   8.672  0.3850 -0.8482  0.2404
 6536SOL    HW131067   0.504   0.842   8.717  0.0985 -0.3395 -0.8699
 6536SOL    HW231068   0.616   0.745   8.734 -0.1347  1.3932  1.6539
 6537SOL     OW31069   4.625   1.465   2.578 -0.1155 -0.2711  0.0026
 6537SOL    HW131070   4.646   1.475   2.485  1.8069 -0.8866  0.3697
 6537SOL    HW231071   4.607   1.555   2.603  1.0509 -0.4062  1.3021
 6538SOL     OW31072   2.778   4.494   6.873  0.3229 -0.1072 -0.5489
 6538SOL    HW131073   2.746   4.405   6.886 -0.7969  0.4525  0.4412
 6538SOL    HW231074   2.839   4.475   6.801  1.1901  1.9066 -0.3474
 6539SOL     OW31075   0.143   2.651   7.708 -0.0084  0.3912 -0.4979
 6539SOL    HW131076   0.072   2.678   7.649  0.8004  1.8327 -0.7971
 6539SOL    HW231077   0.212   2.708   7.675 -0.8535 -0.0599 -3.1353
 6540SOL     OW31078   4.703   2.657   4.162 -0.1309 -0.0584  0.0404
 6540SOL    HW131079   4.620   2.633   4.122  0.8295 -0.4533 -1.7357
 6540SOL    HW231080   4.687   2.740   4.206 -1.9515 -0.2772 -0.2154
 6541SOL     OW31081   1.143   4.521   7.644  0.4946 -0.0674 -0.1011
 6541SOL    HW131082   1.158   4.461   7.717 -1.1722 -0.1214  0.2002
 6541SOL    HW231083   1.229   4.515   7.601  0.3030 -2.0967 -0.2174
 6542SOL     OW31084   3.645   2.447   7.137  0.6147  0.0128  0.2647
 6542SOL    HW131085   3.613   2.358   7.148 -0.4631  0.6782  2.3656
 6542SOL    HW231086   3.737   2.436   7.113 -0.0901 -1.0815 -1.9975
 6543SOL     OW31087   1.095   0.436   4.539  0.0657  0.3642  0.7305
 6543SOL    HW131088   1.091   0.469   4.629  1.1230 -0.9420  1.2533
 6543SOL    HW231089   1.178   0.390   4.533  1.3259  2.8653 -1.0507
 6544SOL     OW31090   0.321   1.121  15.681  0.3445 -0.1483  0.4574
 6544SOL    HW131091   0.335   1.136  15.775 -0.9198 -0.8110  0.7501
 6544SOL    HW231092   0.292   1.030  15.680 -2.3802  0.7251 -2.4163
 6545SOL     OW31093   4.534   0.551  13.212 -0.2180  0.4037  0.5714
 6545SOL    HW131094   4.496   0.556  13.299 -0.8958  0.3988  0.2746
 6545SOL    HW231095   4.623   0.516  13.223 -0.6227 -0.1353  2.1488
 6546SOL     OW31096   0.855   2.668  13.972 -0.0212 -0.4717  0.1470
 6546SOL    HW131097   0.776   2.626  13.938 -0.4169 -0.7995  1.4931
 6546SOL    HW231098   0.918   2.597  13.971  0.1731 -0.2686 -2.3769
 6547SOL     OW31099   2.637   1.419   4.350 -0.1146 -0.4588  0.3712
 6547SOL    HW131100   2.630   1.339   4.402  0.6189 -0.7839 -0.0392
 6547SOL    HW231101   2.584   1.390   4.276 -0.6666 -0.3642  0.7296
 6548SOL     OW31102   3.017   2.146   1.855 -0.4009  0.4468  0.4818
 6548SOL    HW131103   3.058   2.067   1.822  0.4693  0.6716  1.0505
 6548SOL    HW231104   2.986   2.188   1.774 -2.3193  1.9841  1.9809
 6549SOL     OW31105   2.078   1.700  14.324 -0.6057 -0.4061 -0.4121
 6549SOL    HW131106   1.998   1.704  14.377 -0.2283 -1.6207  0.2548
 6549SOL    HW231107   2.148   1.672  14.383  1.3152 -2.0711 -3.4918
 6550SOL     OW31108   0.534   2.381   2.227 -0.2135 -0.2444  0.1167
 6550SOL    HW131109   0.575   2.390   2.313 -0.7956 -0.4703  0.4175
 6550SOL    HW231110   0.601   2.335   2.176 -0.5912 -2.0307  1.2600
 6551SOL     OW31111   1.641   0.887  11.332  0.9019  0.0113 -0.0871
 6551SOL    HW131112   1.663   0.941  11.256  1.5850 -2.6388 -1.7695
 6551SOL    HW231113   1.675   0.798  11.318  1.1723  0.2818 -1.1036
 6552SOL     OW31114   0.869   4.394  10.605  0.0995  0.5711  0.6360
 6552SOL    HW131115   0.779   4.381  10.635  1.0580 -1.1054  2.7935
 6552SOL    HW231116   0.868   4.350  10.520  0.3841 -0.7045  1.2982
 6553SOL     OW31117   0.939   3.871   8.998  0.2392  0.1176 -0.3223
 6553SOL    HW131118   0.933   3.829   9.084 -2.5300  1.0578 -0.0516
 6553SOL    HW231119   0.852   3.905   8.979  0.7525  1.6159  0.0732
 6554SOL     OW31120   1.640   3.554   5.729 -0.2071 -0.7152 -0.5026
 6554SOL    HW131121   1.607   3.644   5.733 -0.7581 -0.8867 -1.1028
 6554SOL    HW231122   1.684   3.559   5.814 -1.1266 -0.3401 -0.0371
 6555SOL     OW31123   3.415   2.997  17.425 -0.0594  0.2492 -0.2932
 6555SOL    HW131124   3.357   3.048  17.482  0.5908  2.6782 -1.7836
 6555SOL    HW231125   3.385   2.909  17.445  1.8409 -0.3630 -0.1856
 6556SOL     OW31126   4.333   0.637  13.062 -0.2028  0.4113 -0.0018
 6556SOL    HW131127   4.282   0.618  13.141  0.2482  2.4165  0.7593
 6556SOL    HW231128   4.416   0.597  13.087 -0.6485  0.9023  2.3221
 6557SOL     OW31129   2.286   2.076   7.293 -0.2351 -0.3783  0.1897
 6557SOL    HW131130   2.219   2.084   7.361 -0.2251 -0.2979  0.1910
 6557SOL    HW231131   2.224   2.072   7.220  0.3666 -1.8148 -0.2437
 6558SOL     OW31132   3.906   1.127   9.164  0.4032  0.7576 -0.8191
 6558SOL    HW131133   3.861   1.164   9.088 -2.9211 -0.2260  0.7226
 6558SOL    HW231134   3.944   1.051   9.120  0.2242  0.5272 -0.5693
 6559SOL     OW31135   4.331   1.196   3.129 -0.0143 -0.4291 -0.1928
 6559SOL    HW131136   4.319   1.138   3.204  0.1273  0.9544  0.8903
 6559SOL    HW231137   4.245   1.231   3.104  0.2130 -1.0694 -1.8809
 6560SOL     OW31138   3.098   4.597   3.473  0.6258  0.0531 -0.4352
 6560SOL    HW131139   3.064   4.674   3.426 -0.5612 -1.0291 -1.3402
 6560SOL    HW231140   3.160   4.646   3.528  2.9630 -0.4077 -2.6676
 6561SOL     OW31141   1.956   3.151   4.456 -0.2426  0.3360  0.2620
 6561SOL    HW131142   2.050   3.156   4.476  0.1003  0.2067 -1.2851
 6561SOL    HW231143   1.962   3.064   4.417  2.8923  0.4543  0.4614
 6562SOL     OW31144   4.265   1.001  11.062  0.0980  0.0863  0.5646
 6562SOL    HW131145   4.324   1.066  11.100 -0.4729  0.5309  0.6897
 6562SOL    HW231146   4.187   1.030  11.110  0.0376  0.6364  0.1217
 6563SOL     OW31147   1.222   0.933  16.820 -0.1485  0.1162  0.6129
 6563SOL    HW131148   1.132   0.915  16.791  0.8820 -3.1109 -0.5450
 6563SOL    HW231149   1.262   0.919  16.734  2.9529  0.6289  2.0056
 6564SOL     OW31150   3.153   1.299  14.081  0.4030  0.0887  0.0503
 6564SOL    HW131151   3.112   1.385  14.070 -0.7969 -0.6614 -1.3155
 6564SOL    HW231152   3.107   1.276  14.162 -0.2289  0.0222 -0.3269
 6565SOL     OW31153   0.597   0.426   8.849  0.3848  0.1232  0.3645
 6565SOL    HW131154   0.634   0.499   8.800 -0.1805 -0.0036 -0.2438
 6565SOL    HW231155   0.662   0.408   8.917 -0.5501 -0.9908  0.9600
 6566SOL     OW31156   0.208   3.827   3.649 -0.0243  0.1376  0.3557
 6566SOL    HW131157   0.204   3.906   3.702 -1.9541  0.4402 -0.2555
 6566SOL    HW231158   0.118   3.811   3.622  0.2563  0.5699 -0.8657
 6567SOL     OW31159   0.122   0.818  14.920 -0.5330 -0.0716  0.3563
 6567SOL    HW131160   0.070   0.842  14.843 -0.2070  0.3526  0.2699
 6567SOL    HW231161   0.205   0.807  14.872 -0.1218  0.7931  0.8908
 6568SOL     OW31162   4.621   3.023   5.087 -0.2185  0.4366  0.2214
 6568SOL    HW131163   4.711   3.043   5.114  0.4904  1.9355 -3.2654
 6568SOL    HW231164   4.621   2.928   5.103 -3.2610  0.2107 -1.2345
 6569SOL     OW31165   0.933   2.057   5.285 -0.4225  0.3204 -0.2813
 6569SOL    HW131166   1.016   2.013   5.304  0.5896  2.0258 -0.7137
 6569SOL    HW231167   0.944   2.151   5.299  0.0248  0.0850  0.9299
 6570SOL     OW31168   0.950   4.482   7.329  0.0778 -0.4144  0.3322
 6570SOL    HW131169   0.872   4.428   7.340  0.0457 -0.8518 -1.9835
 6570SOL    HW231170   1.011   4.475   7.402  1.8201  1.9795 -0.8878
 6571SOL     OW31171   0.939   1.113   4.280 -0.3081  0.4341 -0.2351
 6571SOL    HW131172   0.998   1.186   4.261  0.6516 -0.1209  0.6773
 6571SOL    HW231173   0.985   1.030   4.268 -0.9867  0.1815 -1.2008
 6572SOL     OW31174   1.946   0.108  10.253 -0.2949 -0.5541  0.1789
 6572SOL    HW131175   2.012   0.176  10.242 -0.4291 -0.7803 -1.9898
 6572SOL    HW231176   1.872   0.162  10.280 -0.2566  1.8785 -4.6902
 6573SOL     OW31177   0.582   3.716   5.942 -0.5933 -0.4960  0.7106
 6573SOL    HW131178   0.518   3.785   5.929 -0.4405 -0.4968 -0.0610
 6573SOL    HW231179   0.522   3.641   5.942 -0.8524 -0.2895 -3.4964
 6574SOL     OW31180   2.097   2.452   8.640  0.0614 -0.0072  0.5593
 6574SOL    HW131181   2.165   2.483   8.700 -0.0461  2.3882 -0.5276
 6574SOL    HW231182   2.140   2.472   8.556  0.5547  0.4959  0.9297
 6575SOL     OW31183   2.213   0.582   6.271 -0.1208  0.1697  0.0694
 6575SOL    HW131184   2.236   0.517   6.338  2.4335  1.9128  0.8766
 6575SOL    HW231185   2.220   0.668   6.312 -0.7242 -0.3028  1.1979
 6576SOL     OW31186   1.997   0.067  12.545  0.6100 -0.3642 -0.7756
 6576SOL    HW131187   1.931   0.002  12.519  1.5678 -2.0787  1.1127
 6576SOL    HW231188   2.041   0.019  12.615  0.7754 -0.7961 -1.1661
 6577SOL     OW31189   3.636   1.027   3.774  0.1701 -0.1226  0.0967
 6577SOL    HW131190   3.632   0.969   3.850 -0.6981 -1.0296 -0.6537
 6577SOL    HW231191   3.729   1.051   3.779  0.0325  0.4115  0.0839
 6578SOL     OW31192   0.218   4.578   3.006  0.8526  0.0672  0.1723
 6578SOL    HW131193   0.182   4.598   2.920  0.4203 -3.0548 -0.3798
 6578SOL    HW231194   0.310   4.567   2.980  0.3479  1.4705 -2.2221
 6579SOL     OW31195   1.429   0.173   6.348 -0.1784 -0.3781 -0.0507
 6579SOL    HW131196   1.441   0.260   6.311 -2.3869 -0.6754 -1.4865
 6579SOL    HW231197   1.520   0.166   6.376  0.7155 -0.0120 -2.8542
 6580SOL     OW31198   4.563   4.381   5.890 -0.0873  0.1276  0.2708
 6580SOL    HW131199   4.578   4.431   5.970 -0.4406 -1.5221  1.3688
 6580SOL    HW231200   4.475   4.349   5.913 -0.2331 -2.1644 -3.5143
 6581SOL     OW31201   3.031   2.507   2.393 -0.2847 -0.0144 -0.3917
 6581SOL    HW131202   2.952   2.561   2.400 -0.1462  0.2968 -1.2419
 6581SOL    HW231203   3.002   2.459   2.315  4.7878 -0.3408 -2.0466
 6582SOL     OW31204   4.694   0.245  11.069 -0.6134 -0.8174 -0.2327
 6582SOL    HW131205   0.009   0.314  11.124  0.3303 -2.3201  0.9900
 6582SOL    HW231206   0.042   0.235  11.005  1.9994  0.6432  2.4848
 6583SOL     OW31207   0.620   1.857   0.868  0.3764  0.2892 -0.8267
 6583SOL    HW131208   0.577   1.785   0.912  1.8073  0.1467  0.3454
 6583SOL    HW231209   0.709   1.868   0.902  0.3954 -0.8023 -0.5312
 6584SOL     OW31210   4.290   0.486   8.892 -0.0244  0.1758  0.5951
 6584SOL    HW131211   4.227   0.557   8.902 -0.9457 -0.5001 -0.3697
 6584SOL    HW231212   4.359   0.523   8.947 -0.0026  1.7606 -0.4981
 6585SOL     OW31213   0.647   1.525  14.948 -0.5647  0.2413  0.4526
 6585SOL    HW131214   0.582   1.522  14.878  1.9413  1.0848 -1.8871
 6585SOL    HW231215   0.698   1.448  14.921 -0.0254  0.0432  2.0491
 6586SOL     OW31216   0.806   3.822   3.903  0.6853  1.0494  0.5368
 6586SOL    HW131217   0.738   3.837   3.837  0.2445  3.9514  1.6853
 6586SOL    HW231218   0.778   3.737   3.937 -0.0643  0.9818 -0.2274
 6587SOL     OW31219   0.051   3.988  15.587 -0.6161 -0.5939  0.5188
 6587SOL    HW131220   0.076   4.043  15.661  0.8810  0.1383 -0.5468
 6587SOL    HW231221   0.053   4.048  15.513 -1.0261  0.8080  1.6366
 6588SOL     OW31222   1.621   1.769  13.945  0.1592 -0.0443  0.2833
 6588SOL    HW131223   1.547   1.708  13.950  0.7955 -0.7836  0.5820
 6588SOL    HW231224   1.648   1.762  13.854  0.8229  1.6230  0.3393
 6589SOL     OW31225   2.016   1.702  11.903  0.0247 -0.0958 -0.3185
 6589SOL    HW131226   2.071   1.704  11.825  0.2544 -1.2010 -0.1852
 6589SOL    HW231227   1.941   1.651  11.870 -0.2855  0.1001  0.0789
 6590SOL     OW31228   4.484   3.037   8.522  0.0420 -0.2008 -0.4292
 6590SOL    HW131229   4.481   2.964   8.460 -0.3612 -1.7047  1.3635
 6590SOL    HW231230   4.393   3.065   8.525  0.6224  1.5868  0.5981
 6591SOL     OW31231   1.233   3.212   7.417  0.0753  0.1550  0.3297
 6591SOL    HW131232   1.271   3.282   7.470  1.6280 -0.2968 -0.1721
 6591SOL    HW231233   1.185   3.165   7.484 -0.0094  0.7406  0.6800
 6592SOL     OW31234   0.402   4.408   4.323 -0.2764 -0.1484  0.3045
 6592SOL    HW131235   0.417   4.347   4.250 -0.9735 -0.7713  0.6748
 6592SOL    HW231236   0.481   4.456   4.346 -0.6241 -0.5683  2.3316
 6593SOL     OW31237   4.515   2.829   8.329  0.8319 -0.3374  0.4741
 6593SOL    HW131238   4.525   2.740   8.363 -3.1369 -0.3208  1.6549
 6593SOL    HW231239   4.579   2.824   8.258 -1.4054 -4.3494 -1.2041
 6594SOL     OW31240   2.109   1.301   8.188 -0.1056 -0.3202 -0.3575
 6594SOL    HW131241   2.068   1.336   8.108 -1.0120 -0.9525 -0.1636
 6594SOL    HW231242   2.067   1.352   8.257  1.0763  2.1308 -1.4329
 6595SOL     OW31243   1.157   2.560   0.938 -0.4226  0.0307  0.9281
 6595SOL    HW131244   1.193   2.641   0.971  0.3485  0.7673 -1.6809
 6595SOL    HW231245   1.068   2.592   0.921  0.3167 -0.0859 -3.3354
 6596SOL     OW31246   4.608   1.236   9.036  0.2962 -0.1742  0.1173
 6596SOL    HW131247   4.690   1.239   9.085 -0.2373 -1.3438  1.0826
 6596SOL    HW231248   4.600   1.140   9.032 -1.2340 -0.0132 -0.5810
 6597SOL     OW31249   2.120   4.032   5.068  0.8199  0.0334 -0.0356
 6597SOL    HW131250   2.204   4.061   5.032 -0.2551  2.3408 -0.7149
 6597SOL    HW231251   2.152   4.005   5.154  0.7832 -1.8833 -0.6388
 6598SOL     OW31252   3.797   4.324  11.635  0.1569  0.1342  0.1193
 6598SOL    HW131253   3.770   4.405  11.592  0.0228  0.5406  0.9812
 6598SOL    HW231254   3.824   4.265  11.564  0.9059  1.8331 -1.0032
 6599SOL     OW31255   0.391   3.774   2.548  0.2831 -0.8404 -0.6594
 6599SOL    HW131256   0.414   3.727   2.468  1.3160 -0.9637 -0.2907
 6599SOL    HW231257   0.296   3.783   2.551  0.3120 -1.1885  1.1625
 6600SOL     OW31258   2.733   2.368   9.213 -0.3753 -0.5141  0.2203
 6600SOL    HW131259   2.802   2.391   9.275  1.5494  0.2705 -2.2043
 6600SOL    HW231260   2.707   2.449   9.170 -1.5645 -1.1415 -0.2264
 6601SOL     OW31261   2.776   3.310   3.220 -0.0661 -0.3108 -0.3471
 6601SOL    HW131262   2.711   3.302   3.151 -2.5279  0.0781  1.9402
 6601SOL    HW231263   2.825   3.386   3.187  1.9782 -1.0889  0.8398
 6602SOL     OW31264   3.272   1.308   3.212  0.5962 -0.3265  0.5557
 6602SOL    HW131265   3.289   1.214   3.218  1.7959 -0.0044  2.2949
 6602SOL    HW231266   3.176   1.308   3.217  0.6825  2.2487  2.2558
 6603SOL     OW31267   2.740   3.991   2.018  0.4233  0.6340 -0.1300
 6603SOL    HW131268   2.700   4.061   1.967  0.4754  0.2186 -0.7326
 6603SOL    HW231269   2.797   3.944   1.957 -0.6256 -0.0826 -0.5504
 6604SOL     OW31270   0.441   3.948   7.776 -0.3902  0.1363  0.2645
 6604SOL    HW131271   0.451   3.897   7.696  0.3636  1.1487 -0.2886
 6604SOL    HW231272   0.391   3.887   7.830 -1.1394 -0.1767 -0.7944
 6605SOL     OW31273   1.033   1.567   1.619 -0.4285 -0.2341  0.0464
 6605SOL    HW131274   1.064   1.572   1.528 -1.9149 -2.1406 -0.5516
 6605SOL    HW231275   0.941   1.558   1.594 -0.3953  2.1390 -0.8804
 6606SOL     OW31276   2.996   4.514  12.974  0.2750 -0.3680 -0.4910
 6606SOL    HW131277   2.962   4.602  12.992 -2.8522 -2.3357  3.0919
 6606SOL    HW231278   3.000   4.478  13.062  3.8926 -2.3136 -1.4816
 6607SOL     OW31279   3.737   3.871   2.919  0.3960  0.4046  0.1704
 6607SOL    HW131280   3.724   3.838   3.007 -1.2087  0.7642  0.0751
 6607SOL    HW231281   3.818   3.827   2.894 -0.1941 -2.1278  2.7833
 6608SOL     OW31282   0.684   3.049   3.841  0.0033 -0.2097 -0.2517
 6608SOL    HW131283   0.638   3.110   3.900  1.4368  0.5832  0.0457
 6608SOL    HW231284   0.622   3.023   3.773  1.9793 -1.4043 -1.5764
 6609SOL     OW31285   1.831   4.447  16.752  0.3897 -0.3286  0.1528
 6609SOL    HW131286   1.812   4.378  16.815 -0.2599  0.7111  1.0857
 6609SOL    HW231287   1.756   4.441  16.693  0.6836  0.0560 -0.2606
 6610SOL     OW31288   4.254   3.672   3.297 -0.2396  0.7262 -0.0401
 6610SOL    HW131289   4.170   3.705   3.266 -0.8625  1.2251  2.1773
 6610SOL    HW231290   4.215   3.629   3.374  0.9585  0.8471  0.6268
 6611SOL     OW31291   1.660   4.640  15.879 -0.1335 -0.1959 -0.9792
 6611SOL    HW131292   1.662   0.009  15.855 -1.1907  0.1562  0.3267
 6611SOL    HW231293   1.624   4.606  15.797  1.8748  0.3845 -2.0935
 6612SOL     OW31294   4.070   1.231   8.353 -0.5928 -0.0135  0.2026
 6612SOL    HW131295   3.983   1.205   8.382 -1.6529 -0.0733 -2.9638
 6612SOL    HW231296   4.097   1.252   8.442  1.3739  1.6886 -0.7977
 6613SOL     OW31297   0.450   4.178   3.762 -0.2802 -0.0686  0.1229
 6613SOL    HW131298   0.454   4.246   3.829  1.4109  2.2971 -2.3703
 6613SOL    HW231299   0.388   4.113   3.795 -2.3247  0.4285 -2.6469
 6614SOL     OW31300   3.412   1.604   7.902 -0.1285 -0.6440 -0.1240
 6614SOL    HW131301   3.378   1.527   7.855  0.6483 -1.4373  0.6176
 6614SOL    HW231302   3.496   1.574   7.936  1.9089  2.4276 -2.5089
 6615SOL     OW31303   2.215   3.717   1.967  0.1017 -0.2606 -0.0450
 6615SOL    HW131304   2.126   3.736   1.939  0.3477 -2.3230 -2.3099
 6615SOL    HW231305   2.216   3.773   2.044 -0.6596  0.2624 -0.4126
 6616SOL     OW31306   2.151   4.071   1.306  0.2184  0.3641 -0.3707
 6616SOL    HW131307   2.208   4.015   1.358  0.8575  2.1276  0.8509
 6616SOL    HW231308   2.137   4.019   1.227 -2.4539 -1.2236  1.1653
 6617SOL     OW31309   0.353   1.115  16.867  0.1300 -0.4198 -0.2549
 6617SOL    HW131310   0.425   1.061  16.899 -0.6462 -0.4527  1.4138
 6617SOL    HW231311   0.328   1.174  16.938  2.2239  0.0896  0.0655
 6618SOL     OW31312   0.986   2.184   9.123  0.4781  0.4843  0.1579
 6618SOL    HW131313   1.057   2.152   9.180  0.2065 -1.2374 -0.4760
 6618SOL    HW231314   0.920   2.124   9.158  2.3096 -1.5025  0.2387
 6619SOL     OW31315   2.737   1.730   1.177 -0.7780  0.7764  0.3150
 6619SOL    HW131316   2.786   1.734   1.259  0.3587  0.2801 -0.3270
 6619SOL    HW231317   2.741   1.823   1.153  0.4757  1.5690  3.5596
 6620SOL     OW31318   1.582   1.506   5.038  0.3356 -0.0561  0.7446
 6620SOL    HW131319   1.587   1.588   4.989  0.3877  0.4170  1.5422
 6620SOL    HW231320   1.548   1.535   5.123 -0.1148  0.7263  0.3030
 6621SOL     OW31321   4.379   0.535   7.427  0.2261 -0.0681 -0.6105
 6621SOL    HW131322   4.471   0.509   7.435  0.1573 -0.4507 -1.0512
 6621SOL    HW231323   4.372   0.589   7.506  0.6598  0.1036 -0.6877
 6622SOL     OW31324   0.118   3.772   0.850  0.3772  0.0590 -0.7453
 6622SOL    HW131325   0.122   3.759   0.756  1.0901 -0.0091 -0.7088
 6622SOL    HW231326   0.026   3.791   0.869  0.4863 -0.2504  0.0875
 6623SOL     OW31327   2.526   4.045   0.352 -0.3115 -0.1885 -0.3308
 6623SOL    HW131328   2.574   4.017   0.430  0.3312 -0.9728 -1.0116
 6623SOL    HW231329   2.447   4.078   0.396 -1.3362 -0.4785 -1.9801
 6624SOL     OW31330   1.317   4.156   9.511 -0.3790  0.2751 -0.0925
 6624SOL    HW131331   1.277   4.243   9.523 -3.3777 -1.0777 -0.1925
 6624SOL    HW231332   1.251   4.087   9.514 -0.5254  0.4185  0.0194
 6625SOL     OW31333   2.234   3.875   5.802  0.1605  0.5194 -0.0755
 6625SOL    HW131334   2.216   3.965   5.777 -2.1252  0.2418  0.5626
 6625SOL    HW231335   2.214   3.822   5.725 -1.5958 -0.8196  1.2735
 6626SOL     OW31336   4.426   2.612   9.337 -0.0858 -0.3954 -0.3579
 6626SOL    HW131337   4.477   2.577   9.264 -1.5489 -2.6514 -0.2916
 6626SOL    HW231338   4.409   2.705   9.320 -1.9513 -1.0575 -2.0905
 6627SOL     OW31339   2.007   3.736   5.065 -0.0364 -0.0271 -0.3336
 6627SOL    HW131340   2.006   3.645   5.035  1.0459 -0.1558  0.0458
 6627SOL    HW231341   2.097   3.765   5.078  0.1789 -0.4249 -0.9032
 6628SOL     OW31342   0.205   4.377   2.635  0.1542 -0.2829 -0.3288
 6628SOL    HW131343   0.206   4.461   2.589  2.0941 -1.5513 -2.6224
 6628SOL    HW231344   0.141   4.398   2.703 -0.1037 -1.4658 -0.2021
 6629SOL     OW31345   2.798   2.771   7.111 -0.6634  0.1638 -0.0298
 6629SOL    HW131346   2.871   2.722   7.073  0.2070  2.1663 -0.9393
 6629SOL    HW231347   2.845   2.840   7.158  1.1599 -1.4329  0.4970
 6630SOL     OW31348   2.633   4.051   0.612 -0.1623 -0.3974 -0.0131
 6630SOL    HW131349   2.722   4.046   0.576 -0.0890  0.6674  0.0381
 6630SOL    HW231350   2.617   3.957   0.622 -0.2543 -0.8398 -4.2779
 6631SOL     OW31351   1.215   2.482   6.099  0.3545 -0.0600 -0.2800
 6631SOL    HW131352   1.259   2.483   6.184 -0.0088 -2.8215 -0.0609
 6631SOL    HW231353   1.252   2.562   6.061 -0.6058  0.8537  0.7416
 6632SOL     OW31354   1.347   4.047  10.095 -0.1857 -0.0921 -0.0249
 6632SOL    HW131355   1.259   4.014  10.114 -0.3845 -0.0158 -0.8186
 6632SOL    HW231356   1.381   4.075  10.180 -2.7934  0.0481  0.9801
 6633SOL     OW31357   3.754   2.081   8.186  0.6721  0.3503 -0.6542
 6633SOL    HW131358   3.750   2.017   8.115  1.0708  0.7670 -1.0570
 6633SOL    HW231359   3.840   2.109   8.156  0.2968 -0.3647 -2.3947
 6634SOL     OW31360   3.680   1.506   7.968 -0.5743 -0.8455  0.1485
 6634SOL    HW131361   3.753   1.460   8.010  2.2610  4.6617  1.2943
 6634SOL    HW231362   3.723   1.545   7.892 -2.6608  0.5240 -0.3263
 6635SOL     OW31363   1.059   0.709   5.017  0.0683  0.5960 -0.0594
 6635SOL    HW131364   1.056   0.803   4.995 -2.1250  0.7486  0.8550
 6635SOL    HW231365   1.154   0.701   5.024 -0.1315 -1.0283  0.6841
 6636SOL     OW31366   1.574   3.462   5.188 -0.3502  0.1929 -0.1985
 6636SOL    HW131367   1.645   3.399   5.173 -0.4424 -0.3322  1.5215
 6636SOL    HW231368   1.616   3.505   5.262 -1.1395  2.1498 -0.9011
 6637SOL     OW31369   0.522   1.283  11.485  0.5204 -0.2463  0.1177
 6637SOL    HW131370   0.494   1.224  11.415 -1.0764  0.7747 -0.1272
 6637SOL    HW231371   0.470   1.247  11.558 -0.1908 -2.7196 -1.6039
 6638SOL     OW31372   3.027   2.531   5.990 -0.0178 -0.2227  0.5038
 6638SOL    HW131373   2.963   2.577   6.045  0.8551  0.4243  0.9923
 6638SOL    HW231374   3.108   2.548   6.039 -0.1014 -1.5044  1.0889
 6639SOL     OW31375   1.794   4.213   0.482 -0.0933 -0.6588  0.6325
 6639SOL    HW131376   1.868   4.201   0.424  0.0533  0.1792  0.6480
 6639SOL    HW231377   1.795   4.306   0.505 -1.1223 -0.5589  0.3067
 6640SOL     OW31378   4.589   4.677   2.971 -0.3507 -0.2998 -0.0518
 6640SOL    HW131379   4.638   4.702   2.893  0.2666 -1.5589 -0.0762
 6640SOL    HW231380   4.531   0.028   2.984  1.1779  0.8644  0.1596
 6641SOL     OW31381   3.700   2.445  12.819 -0.4225 -0.0886 -0.0193
 6641SOL    HW131382   3.688   2.355  12.788  0.5942 -0.2942  0.1779
 6641SOL    HW231383   3.711   2.476  12.729  1.7008 -0.3148  0.1602
 6642SOL     OW31384   3.957   0.874  10.213  0.0969 -0.4781  0.3191
 6642SOL    HW131385   3.971   0.962  10.179  1.5082  0.0029  2.1151
 6642SOL    HW231386   3.862   0.868  10.221 -0.1642  0.9323 -1.9275
 6643SOL     OW31387   1.745   1.543   8.668  0.0410  0.1439  0.0810
 6643SOL    HW131388   1.746   1.564   8.574  2.4713  1.7814  0.4776
 6643SOL    HW231389   1.673   1.598   8.698  0.6151 -0.7766  3.0703
 6644SOL     OW31390   1.569   3.870   0.124 -0.0676 -0.5599  0.0541
 6644SOL    HW131391   1.485   3.824   0.125 -0.4609  0.1368 -0.2225
 6644SOL    HW231392   1.601   3.849   0.036  0.8671 -0.1471  0.2995
 6645SOL     OW31393   2.079   2.945  16.260  0.0729 -0.3459  0.2155
 6645SOL    HW131394   1.990   2.914  16.277  1.2328 -2.5184  2.3184
 6645SOL    HW231395   2.099   2.879  16.194 -0.1827  0.4244 -0.6225
 6646SOL     OW31396   2.134   3.083   7.219 -0.0555 -0.2348  0.1182
 6646SOL    HW131397   2.056   3.121   7.260 -0.1090  0.1453 -0.3322
 6646SOL    HW231398   2.116   3.062   7.128 -0.1973 -1.1199  0.3508
 6647SOL     OW31399   2.309   2.862   7.320 -0.5136  0.1864 -0.5279
 6647SOL    HW131400   2.270   2.940   7.279  2.3141  1.2423 -1.1804
 6647SOL    HW231401   2.278   2.864   7.411  1.5995 -1.6696  0.2278
 6648SOL     OW31402   1.598   4.308   7.910  0.0499 -0.4505 -0.2713
 6648SOL    HW131403   1.664   4.239   7.917 -1.6711 -1.9735  0.9405
 6648SOL    HW231404   1.578   4.317   8.003 -1.7360 -0.6733 -0.6345
 6649SOL     OW31405   0.591   2.841   8.017  0.2179 -0.1786 -0.6075
 6649SOL    HW131406   0.684   2.818   8.015  0.0384 -0.9195 -0.4365
 6649SOL    HW231407   0.572   2.809   8.105 -0.7932 -0.6604 -1.0046
 6650SOL     OW31408   2.026   3.187   1.303  0.1105  0.3373 -0.5059
 6650SOL    HW131409   2.109   3.199   1.348 -0.4281  3.6432 -0.3373
 6650SOL    HW231410   1.990   3.120   1.361  1.2656  0.0853 -0.0924
 6651SOL     OW31411   1.030   1.854   9.688 -0.4330 -0.0571  0.3544
 6651SOL    HW131412   1.045   1.764   9.659 -1.4286 -0.0226 -0.2724
 6651SOL    HW231413   0.960   1.839   9.751 -1.3763  1.5115 -0.3010
 6652SOL     OW31414   2.205   0.074   0.681 -0.8440  0.2337 -0.0763
 6652SOL    HW131415   2.208   0.125   0.761  0.0955  0.9646 -0.5769
 6652SOL    HW231416   2.300   0.061   0.675 -1.1001 -2.5425  1.8087
 6653SOL     OW31417   3.455   1.514   3.128 -0.2047 -0.4782  0.1671
 6653SOL    HW131418   3.496   1.458   3.062 -1.6134 -1.6362  0.2792
 6653SOL    HW231419   3.393   1.453   3.167  0.2785 -0.8757  0.3042
 6654SOL     OW31420   0.713   1.323   4.891  0.3264  0.1783  0.1868
 6654SOL    HW131421   0.770   1.261   4.846 -0.3629 -1.0578  1.0186
 6654SOL    HW231422   0.776   1.361   4.952 -1.3996 -0.6205  2.4620
 6655SOL     OW31423   0.153   3.704  16.470 -0.8559  0.1155 -0.3514
 6655SOL    HW131424   0.070   3.686  16.514  0.2346  0.0646  1.6645
 6655SOL    HW231425   0.139   3.628  16.413  3.4618 -1.3654  0.5837
 6656SOL     OW31426   1.652   3.057   5.231  0.3868  0.0071 -0.4112
 6656SOL    HW131427   1.643   2.991   5.162  0.7494 -3.0258  2.4203
 6656SOL    HW231428   1.661   3.136   5.178 -0.2553 -0.5350 -1.3230
 6657SOL     OW31429   3.003   3.466   1.857  0.1994  0.2694  0.5859
 6657SOL    HW131430   2.949   3.391   1.834  1.9478 -1.3008  1.5939
 6657SOL    HW231431   3.081   3.429   1.899  0.8139  1.0210  0.1072
 6658SOL     OW31432   3.873   3.627   2.652  0.0780  0.5120  0.0540
 6658SOL    HW131433   3.872   3.692   2.723 -0.8891  1.0238 -0.4131
 6658SOL    HW231434   3.780   3.622   2.628 -0.5943 -1.9848  3.1500
 6659SOL     OW31435   1.037   3.390   5.411  0.2110 -0.4946  0.0781
 6659SOL    HW131436   1.126   3.369   5.382 -0.6045 -1.9836 -1.3208
 6659SOL    HW231437   1.050   3.440   5.492 -2.0766 -0.3862  0.3679
 6660SOL     OW31438   3.565   1.700  16.549  0.0817  0.4777 -0.0948
 6660SOL    HW131439   3.513   1.780  16.560  1.0241  1.0625  0.2165
 6660SOL    HW231440   3.545   1.672  16.460  1.8871 -0.1682 -0.3121
 6661SOL     OW31441   0.404   0.291   5.196  0.2696  0.3245 -0.1897
 6661SOL    HW131442   0.339   0.244   5.144  0.1318 -0.4825  0.7351
 6661SOL    HW231443   0.407   0.240   5.276 -0.4005  0.9110  0.2114
 6662SOL     OW31444   3.258   0.192  10.745 -0.1305  0.2383  0.0946
 6662SOL    HW131445   3.335   0.135  10.753  0.0558  0.6194  1.1141
 6662SOL    HW231446   3.299   0.278  10.736 -0.3000  0.4728  1.4161
 6663SOL     OW31447   4.146   1.747   4.398  0.5051 -0.1924  0.2569
 6663SOL    HW131448   4.234   1.716   4.421  0.3358 -0.5304  0.4455
 6663SOL    HW231449   4.162   1.808   4.326 -1.8686 -1.2700 -1.1919
 6664SOL     OW31450   2.098   2.063   7.523 -0.1823  0.2080 -0.0556
 6664SOL    HW131451   2.097   2.140   7.580  0.7379 -0.4393  0.8503
 6664SOL    HW231452   2.085   1.998   7.592  0.1750  1.3031  1.0409
 6665SOL     OW31453   3.339   3.241  16.895  0.4164 -0.3945  0.2076
 6665SOL    HW131454   3.351   3.280  16.808 -4.0006  2.0222  0.6948
 6665SOL    HW231455   3.369   3.313  16.951 -0.2974 -0.3343  0.5060
 6666SOL     OW31456   2.778   3.988  14.884  0.0631  0.4718  0.5900
 6666SOL    HW131457   2.796   3.917  14.946 -2.1110 -0.2067  0.4438
 6666SOL    HW231458   2.820   4.061  14.930 -1.6267  0.6198  1.8843
 6667SOL     OW31459   0.433   2.276   3.006 -0.1747 -0.1057  0.3494
 6667SOL    HW131460   0.351   2.288   2.959  1.8885  0.4714 -3.1365
 6667SOL    HW231461   0.405   2.317   3.087 -1.0643  0.1878 -0.1089
 6668SOL     OW31462   0.051   0.548   8.573 -0.2145 -0.3346  0.1916
 6668SOL    HW131463   4.693   0.499   8.580 -0.6667  0.2393 -0.9895
 6668SOL    HW231464   0.104   0.491   8.517  0.7494  2.4355 -1.6773
 6669SOL     OW31465   0.768   1.687  15.132 -0.2589  0.6948  0.7562
 6669SOL    HW131466   0.781   1.616  15.195 -0.3831  0.8990  1.0168
 6669SOL    HW231467   0.721   1.646  15.060 -0.0612 -1.8299  2.0480
 6670SOL     OW31468   4.273   2.702   6.724 -0.2168 -0.1525  0.1327
 6670SOL    HW131469   4.265   2.778   6.666 -2.2788 -0.5802 -0.1297
 6670SOL    HW231470   4.286   2.635   6.657 -2.1273  0.7366 -1.1251
 6671SOL     OW31471   2.068   3.213  11.442 -0.2748 -0.1255 -0.2239
 6671SOL    HW131472   2.153   3.240  11.476  0.3023 -0.4695 -1.3782
 6671SOL    HW231473   2.095   3.137  11.390 -0.1848  0.8972 -1.6584
 6672SOL     OW31474   2.099   0.899  14.392  0.6079  0.0875 -0.4008
 6672SOL    HW131475   2.030   0.899  14.325 -0.1950  1.6178  0.4271
 6672SOL    HW231476   2.049   0.870  14.468  0.0945  0.5571 -0.5548
 6673SOL     OW31477   1.830   0.789   1.992 -0.6849  0.1232 -0.2151
 6673SOL    HW131478   1.851   0.871   2.037 -0.2718  0.8696 -1.7836
 6673SOL    HW231479   1.735   0.793   1.980 -0.9494  1.0911  2.2048
 6674SOL     OW31480   1.755   3.689   0.402  0.0953  0.3546  0.1716
 6674SOL    HW131481   1.667   3.662   0.377 -0.2389  2.0190 -0.4595
 6674SOL    HW231482   1.777   3.761   0.343  1.8717 -0.5384 -0.2456
 6675SOL     OW31483   3.337   2.485   4.946 -0.0094 -0.2976 -0.1436
 6675SOL    HW131484   3.379   2.411   4.991  0.3420  1.1119  1.8326
 6675SOL    HW231485   3.380   2.561   4.984 -1.0227  0.8693 -1.3054
 6676SOL     OW31486   3.159   2.538   4.717 -0.5362 -0.1716 -0.2833
 6676SOL    HW131487   3.245   2.511   4.750 -0.6026 -0.3748 -0.2793
 6676SOL    HW231488   3.114   2.463   4.755 -1.9168 -0.0391 -1.6798
 6677SOL     OW31489   0.553   3.043   6.574  0.5930  0.4123  0.1279
 6677SOL    HW131490   0.540   3.033   6.669  2.3690  0.9044  0.4163
 6677SOL    HW231491   0.533   2.958   6.537 -2.9485  2.1488 -1.9175
 6678SOL     OW31492   3.520   1.252  15.420 -0.0231 -0.0898  0.5795
 6678SOL    HW131493   3.501   1.335  15.376  0.8635 -0.4749 -0.5385
 6678SOL    HW231494   3.561   1.207  15.346  1.0113  0.7064  0.6628
 6679SOL     OW31495   2.035   1.082   6.602 -0.0907  0.4377  0.3019
 6679SOL    HW131496   1.951   1.126   6.617 -0.5250 -0.7323  1.3471
 6679SOL    HW231497   2.098   1.154   6.609 -1.1650  1.3556  0.5669
 6680SOL     OW31498   2.756   0.981  13.873 -0.0633  0.1061  0.0166
 6680SOL    HW131499   2.707   1.062  13.860  1.6245  1.1947  0.4014
 6680SOL    HW231500   2.748   0.944  13.785  0.0407 -0.3363  0.1936
 6681SOL     OW31501   2.147   4.380  12.170 -0.0363 -0.7245  0.3776
 6681SOL    HW131502   2.185   4.322  12.105  0.4967  1.7776 -1.5273
 6681SOL    HW231503   2.187   4.341  12.248  1.5442 -0.5832 -0.3839
 6682SOL     OW31504   1.755   0.987   3.460 -0.1803 -0.0770  0.7377
 6682SOL    HW131505   1.706   1.016   3.536 -1.1306 -2.0740  0.8843
 6682SOL    HW231506   1.777   1.070   3.417 -1.0485 -1.2223 -1.9251
 6683SOL     OW31507   4.363   1.134   1.431  0.4113  0.0678  0.0490
 6683SOL    HW131508   4.303   1.074   1.475  0.0682  0.6351  0.3626
 6683SOL    HW231509   4.445   1.093   1.457 -0.1605 -0.1435  1.5207
 6684SOL     OW31510   3.265   4.416   3.335 -0.0145 -0.3406  0.9205
 6684SOL    HW131511   3.320   4.387   3.408 -0.3621 -1.9470  0.5419
 6684SOL    HW231512   3.206   4.474   3.383  2.1264  0.9400  1.9950
 6685SOL     OW31513   2.405   0.751   3.996 -0.1711  0.2601 -0.2875
 6685SOL    HW131514   2.389   0.691   3.923 -2.3055  0.3445  0.1120
 6685SOL    HW231515   2.451   0.825   3.956  0.8989 -0.5892 -0.6456
 6686SOL     OW31516   0.122   1.544   9.053 -0.2067 -0.3945 -0.3444
 6686SOL    HW131517   0.169   1.544   8.970  1.9107 -1.2345  0.8628
 6686SOL    HW231518   0.194   1.549   9.116  1.2653  0.4873 -2.1158
 6687SOL     OW31519   1.985   2.547  13.809  0.4557 -0.3503 -0.0855
 6687SOL    HW131520   1.934   2.527  13.887  0.5906 -0.7456 -0.1011
 6687SOL    HW231521   1.919   2.611  13.781  0.1721 -1.4000 -1.8003
 6688SOL     OW31522   0.782   2.473   3.546 -0.0792  0.0839 -0.0307
 6688SOL    HW131523   0.813   2.383   3.550  1.0847  0.4577 -0.3380
 6688SOL    HW231524   0.747   2.492   3.633 -0.3536 -1.7787  0.2512
 6689SOL     OW31525   0.902   2.192   5.625 -0.0768 -0.9721  0.4622
 6689SOL    HW131526   0.828   2.211   5.568  1.4237  2.2494 -0.4138
 6689SOL    HW231527   0.874   2.227   5.709  2.5750 -2.8675  2.1358
 6690SOL     OW31528   4.597   4.466   5.622 -0.1043  0.2227 -0.1213
 6690SOL    HW131529   4.510   4.428   5.618  0.2003 -0.6229  1.3596
 6690SOL    HW231530   4.615   4.442   5.713  3.8475 -0.8230 -1.1551
 6691SOL     OW31531   3.621   4.533  14.382 -0.1922 -0.3539  0.2029
 6691SOL    HW131532   3.565   4.489  14.446 -1.7619  0.7005 -0.4391
 6691SOL    HW231533   3.556   4.585  14.334  1.4004  1.2275 -0.2649
 6692SOL     OW31534   4.125   2.723   4.849  0.4716  0.5709  0.2343
 6692SOL    HW131535   4.123   2.727   4.754 -2.7559 -1.4732  0.2222
 6692SOL    HW231536   4.059   2.653   4.854  2.0686 -1.0949 -2.3621
 6693SOL     OW31537   2.334   4.584  14.358 -0.1070 -0.7609  0.4861
 6693SOL    HW131538   2.279   4.541  14.423 -1.0936  1.0368  0.8446
 6693SOL    HW231539   2.272   4.607  14.289  0.5385 -0.8759 -0.1432
 6694SOL     OW31540   1.440   1.129   4.127 -0.5638  0.1079  0.0076
 6694SOL    HW131541   1.533   1.116   4.109 -0.6110 -0.9840  0.5642
 6694SOL    HW231542   1.447   1.190   4.201 -1.8212 -1.8350  1.7154
 6695SOL     OW31543   4.436   4.154  13.972  0.2650 -0.4028  0.1328
 6695SOL    HW131544   4.494   4.168  14.047 -1.1102  0.7402  0.9930
 6695SOL    HW231545   4.369   4.098  14.011 -0.2913 -0.4110 -0.8368
 6696SOL     OW31546   2.856   2.218   8.987 -0.6625 -0.2832  0.2913
 6696SOL    HW131547   2.760   2.217   8.992 -0.7082  2.1928 -0.1682
 6696SOL    HW231548   2.878   2.294   9.041  1.2429  1.5517 -3.0761
 6697SOL     OW31549   3.744   2.523  12.567 -0.5439 -0.4467 -0.1345
 6697SOL    HW131550   3.699   2.584  12.508  3.6071 -1.1913 -4.0219
 6697SOL    HW231551   3.818   2.503  12.510 -0.1231 -0.2291  0.3372
 6698SOL     OW31552   2.297   1.650  15.844 -0.1367  0.4430  0.1597
 6698SOL    HW131553   2.215   1.680  15.805  0.4677  0.8875 -0.7737
 6698SOL    HW231554   2.324   1.581  15.783  1.1588  1.3304 -0.2603
 6699SOL     OW31555   4.005   1.545   0.052 -0.3040 -0.4021 -0.2852
 6699SOL    HW131556   3.969   1.542   0.141  1.4175  0.2698  0.4207
 6699SOL    HW231557   3.935   1.497   0.007 -0.6745 -1.1206  1.0474
 6700SOL     OW31558   2.189   4.589  11.586  0.0772 -0.0036  0.3112
 6700SOL    HW131559   2.163   4.678  11.559 -0.0572 -0.0112  0.4164
 6700SOL    HW231560   2.282   4.595  11.566  0.3237  1.4860  1.9017
 6701SOL     OW31561   1.571   4.559   8.575 -0.4978  0.5976  0.5460
 6701SOL    HW131562   1.509   4.493   8.605  0.7779 -1.5917 -1.6852
 6701SOL    HW231563   1.568   4.552   8.479  0.4040  1.3810  0.4538
 6702SOL     OW31564   3.704   0.417   0.627  0.1145 -0.0502 -0.1296
 6702SOL    HW131565   3.798   0.401   0.620  0.0310 -1.0388  0.9762
 6702SOL    HW231566   3.685   0.350   0.693  1.7031  0.9397  1.3491
 6703SOL     OW31567   3.342   1.525   3.442  0.0564 -0.3939  0.0092
 6703SOL    HW131568   3.269   1.478   3.482 -1.3561  1.6704 -0.1188
 6703SOL    HW231569   3.301   1.559   3.362  1.3581  2.4685  0.5788
 6704SOL     OW31570   0.426   4.623   8.840 -0.1278 -0.4255  0.0976
 6704SOL    HW131571   0.347   4.593   8.887 -0.0832 -0.0619  0.4006
 6704SOL    HW231572   0.386   4.662   8.763  1.2678  0.9579  0.0805
 6705SOL     OW31573   2.934   3.509   3.674  0.1859  0.4848  0.3709
 6705SOL    HW131574   3.000   3.572   3.646  0.2485  1.1409  2.0052
 6705SOL    HW231575   2.891   3.495   3.589  1.2747  1.6137 -0.3702
 6706SOL     OW31576   3.265   2.385  17.137 -0.2515 -0.0558 -0.2953
 6706SOL    HW131577   3.189   2.368  17.081 -1.1022 -1.7547  1.3856
 6706SOL    HW231578   3.341   2.366  17.081  0.2011 -2.3849  1.1364
 6707SOL     OW31579   0.195   1.614   2.129  0.0297  0.4622  0.1440
 6707SOL    HW131580   0.269   1.574   2.085  0.0085 -0.1568  0.6660
 6707SOL    HW231581   0.243   1.676   2.183  0.5398 -0.2627  0.5230
 6708SOL     OW31582   3.207   3.444   8.352  0.3657  0.0169  0.0483
 6708SOL    HW131583   3.204   3.364   8.404  0.3269 -1.6573 -2.5244
 6708SOL    HW231584   3.113   3.460   8.339  0.2872 -0.1331  0.4357
 6709SOL     OW31585   3.667   2.856  14.471  0.2683 -0.6097 -0.1366
 6709SOL    HW131586   3.709   2.852  14.557  1.1564  0.1692 -0.5291
 6709SOL    HW231587   3.612   2.778  14.468 -1.3624  0.5005  1.2092
 6710SOL     OW31588   0.362   0.661   1.951  0.3886 -0.1209  0.8384
 6710SOL    HW131589   0.457   0.677   1.946  0.1178  0.8340 -0.9570
 6710SOL    HW231590   0.336   0.650   1.860  0.6110 -1.5799  0.9562
 6711SOL     OW31591   2.769   1.394  16.979 -0.3006 -0.1338 -0.3818
 6711SOL    HW131592   2.785   1.467  16.919  0.0227  1.7273  1.9404
 6711SOL    HW231593   2.800   1.320  16.927 -1.2748  0.6727 -2.0999
 6712SOL     OW31594   2.719   3.065  14.924  0.3441 -0.1761 -0.6420
 6712SOL    HW131595   2.782   2.994  14.940 -2.1484 -2.4339 -0.7529
 6712SOL    HW231596   2.710   3.117  15.004 -1.4717 -0.4973 -0.6376
 6713SOL     OW31597   0.915   3.193   2.527  0.0274  0.4723  0.0697
 6713SOL    HW131598   0.856   3.251   2.479 -0.8259  0.2982  0.8999
 6713SOL    HW231599   0.859   3.142   2.586 -0.2756  0.5845 -0.1214
 6714SOL     OW31600   0.032   0.957   9.651 -0.0111 -0.1758  0.2815
 6714SOL    HW131601   0.006   0.893   9.718  0.0874 -0.3172  0.1862
 6714SOL    HW231602   0.039   0.906   9.570 -2.3173 -0.4494  0.2480
 6715SOL     OW31603   1.460   4.474   2.819 -0.1251  0.2422 -0.2968
 6715SOL    HW131604   1.532   4.538   2.808  0.3748 -0.3748 -0.6113
 6715SOL    HW231605   1.497   4.402   2.870  0.0849 -0.3749 -1.3089
 6716SOL     OW31606   3.097   1.560  11.966 -0.0136  0.8989 -0.4813
 6716SOL    HW131607   3.040   1.598  12.033  0.6337  0.4621  0.3148
 6716SOL    HW231608   3.049   1.483  11.935 -0.2224  0.5701  0.6465
 6717SOL     OW31609   3.752   1.678   2.312 -0.4845  0.0442 -0.6638
 6717SOL    HW131610   3.824   1.721   2.358  3.0956 -0.4067 -5.8902
 6717SOL    HW231611   3.789   1.655   2.227 -1.6832  0.3231 -1.2582
 6718SOL     OW31612   0.167   2.008   2.859 -0.0605 -0.1587  0.3077
 6718SOL    HW131613   0.093   2.066   2.844  0.3868 -0.1062 -1.6819
 6718SOL    HW231614   0.132   1.924   2.829  0.0576 -0.7362  1.8147
 6719SOL     OW31615   2.858   4.662   5.642 -0.2683  0.3123  0.1828
 6719SOL    HW131616   2.823   0.021   5.610 -1.1560  0.2292  0.9341
 6719SOL    HW231617   2.917   4.656   5.567  2.2837  0.7592  2.1524
 6720SOL     OW31618   4.646   4.502  13.957  0.2431 -0.2610 -0.4918
 6720SOL    HW131619   4.703   4.439  13.914  0.8295  1.0686 -1.6786
 6720SOL    HW231620   4.597   4.523  13.878  2.4358  1.5446 -1.3808
 6721SOL     OW31621   2.396   0.844   7.544  0.2541 -0.0382  0.4274
 6721SOL    HW131622   2.436   0.802   7.468  0.0901 -0.0498  0.3475
 6721SOL    HW231623   2.462   0.816   7.607 -0.6003 -1.3762  0.7164
 6722SOL     OW31624   2.585   3.225   7.953 -0.4493  0.2403  0.4719
 6722SOL    HW131625   2.509   3.277   7.980  0.5063  1.2234  1.2424
 6722SOL    HW231626   2.577   3.234   7.858 -0.4204 -1.6207  0.2927
 6723SOL     OW31627   4.255   4.079   2.698  0.1338  0.0594 -0.3226
 6723SOL    HW131628   4.175   4.103   2.651  0.2687 -0.8405 -1.0207
 6723SOL    HW231629   4.223   4.102   2.785  0.3674  1.1516 -0.5349
 6724SOL     OW31630   2.982   1.169   3.716  0.1192 -0.2521 -0.1852
 6724SOL    HW131631   3.056   1.121   3.753  0.4704 -0.1096 -0.7009
 6724SOL    HW231632   2.997   1.257   3.750  1.6352 -1.0724  1.3163
 6725SOL     OW31633   3.292   2.896   3.245 -0.0103  0.1760 -0.0892
 6725SOL    HW131634   3.225   2.965   3.237 -2.9187 -2.8817 -1.9407
 6725SOL    HW231635   3.235   2.821   3.258 -1.1734  0.8769 -1.1329
 6726SOL     OW31636   4.153   3.600   4.900  0.9064 -0.3275 -0.1192
 6726SOL    HW131637   4.117   3.683   4.870 -3.0192 -1.4952  1.4290
 6726SOL    HW231638   4.124   3.548   4.825 -1.2324  1.9022 -0.8230
 6727SOL     OW31639   4.275   0.459  10.444 -0.2290  0.5007 -0.2292
 6727SOL    HW131640   4.334   0.394  10.483  1.1262  1.5184 -0.5850
 6727SOL    HW231641   4.186   0.450  10.478  0.1530 -2.2935  0.0502
 6728SOL     OW31642   2.482   3.804   6.211 -0.3805 -0.6758 -0.3550
 6728SOL    HW131643   2.452   3.874   6.269  0.0517 -1.2270  0.5365
 6728SOL    HW231644   2.404   3.749   6.220  0.8285 -1.9667  2.0865
 6729SOL     OW31645   0.876   3.136   3.070 -0.4561 -0.1787  0.7990
 6729SOL    HW131646   0.934   3.112   2.997 -0.8058  1.5351 -0.0599
 6729SOL    HW231647   0.910   3.222   3.096  2.0474 -0.5341 -1.2293
 6730SOL     OW31648   4.224   0.288  16.903 -0.5297 -0.4062 -0.2364
 6730SOL    HW131649   4.308   0.299  16.948  0.1022 -2.2560 -0.9554
 6730SOL    HW231650   4.197   0.374  16.935  0.4222 -0.0741 -0.3135
 6731SOL     OW31651   3.184   2.521   7.807 -0.1682  0.4425 -0.1470
 6731SOL    HW131652   3.191   2.460   7.881  0.6664 -0.1565 -0.7190
 6731SOL    HW231653   3.191   2.611   7.840 -1.8217  0.6062 -0.2590
 6732SOL     OW31654   4.081   1.502   2.278  0.0458  0.2726 -0.1552
 6732SOL    HW131655   4.090   1.522   2.185  0.7694  2.2086  0.3342
 6732SOL    HW231656   4.131   1.575   2.316  2.6160 -1.5507 -0.0395
 6733SOL     OW31657   4.420   0.281   6.232 -0.4442  0.0038 -0.4224
 6733SOL    HW131658   4.385   0.195   6.257 -0.4773  0.8415  2.4329
 6733SOL    HW231659   4.501   0.271   6.282 -0.5769 -0.6406 -0.3260
 6734SOL     OW31660   2.973   2.908  11.680 -0.4767 -0.0123  0.0025
 6734SOL    HW131661   2.932   2.825  11.706 -0.4603  0.1150  0.4323
 6734SOL    HW231662   3.003   2.948  11.761 -1.1306  2.7368 -1.1139
 6735SOL     OW31663   1.898   3.428   9.166 -0.2320 -0.8760 -0.1415
 6735SOL    HW131664   1.968   3.493   9.165 -1.2440  0.2383  1.7681
 6735SOL    HW231665   1.915   3.377   9.245  1.7446  1.6954  1.0711
 6736SOL     OW31666   3.169   2.124   3.172 -0.6484  0.8491  0.1609
 6736SOL    HW131667   3.256   2.154   3.145 -0.8161  0.4339 -0.8283
 6736SOL    HW231668   3.132   2.103   3.087  0.1861  2.1093 -0.5279
 6737SOL     OW31669   3.322   0.060   9.738  0.1390  0.1951 -0.5096
 6737SOL    HW131670   3.387   0.130   9.748  0.6185 -0.0256 -2.0753
 6737SOL    HW231671   3.279   0.103   9.664  0.6129 -1.8737 -1.9896
 6738SOL     OW31672   3.364   1.146   5.579  0.8507 -0.2400 -0.7784
 6738SOL    HW131673   3.444   1.171   5.626  1.9112  0.5767 -3.0029
 6738SOL    HW231674   3.397   1.170   5.493  2.8257 -1.3112 -0.3374
 6739SOL     OW31675   0.205   0.120   8.332  0.0829  0.6672  0.0196
 6739SOL    HW131676   0.117   0.084   8.343 -0.2711  1.7936  0.8913
 6739SOL    HW231677   0.207   0.124   8.237 -3.2976 -1.1048 -0.1425
 6740SOL     OW31678   1.654   3.773   0.912 -0.6243  0.3097 -0.2442
 6740SOL    HW131679   1.685   3.752   0.824  0.0662  3.1035 -0.6898
 6740SOL    HW231680   1.592   3.702   0.928  0.2734 -0.6837 -1.1420
 6741SOL     OW31681   3.006   0.302   6.603 -0.3019 -0.4164  0.4291
 6741SOL    HW131682   3.029   0.247   6.678 -1.0281 -1.4913 -0.1338
 6741SOL    HW231683   3.083   0.348   6.570  0.7345 -2.1942  0.4161
 6742SOL     OW31684   3.647   0.404   1.008  0.4821 -0.2490 -0.0453
 6742SOL    HW131685   3.679   0.347   0.938  0.5729 -2.1134  1.5162
 6742SOL    HW231686   3.557   0.423   0.982  0.3402 -0.4226  0.3111
 6743SOL     OW31687   1.426   4.544   4.185 -0.1681  0.1373 -0.0995
 6743SOL    HW131688   1.438   4.632   4.219  3.3931  0.1274 -1.3686
 6743SOL    HW231689   1.489   4.497   4.240 -1.0687 -1.6209 -0.5855
 6744SOL     OW31690   0.828   1.039   2.115 -0.3881 -0.5900 -0.4441
 6744SOL    HW131691   0.882   0.987   2.056 -0.2364 -0.4373 -0.4411
 6744SOL    HW231692   0.798   1.108   2.056  2.1170 -0.1929 -1.2738
 6745SOL     OW31693   3.932   0.582   6.452  0.0810 -0.2598  0.5627
 6745SOL    HW131694   3.881   0.552   6.377 -0.1854  0.3731  0.4907
 6745SOL    HW231695   3.944   0.675   6.432 -0.3885 -0.3112  0.0370
 6746SOL     OW31696   0.402   1.079   6.877 -0.3852 -0.1287  0.1447
 6746SOL    HW131697   0.343   1.154   6.873  0.4435  0.4641 -0.8586
 6746SOL    HW231698   0.467   1.130   6.829  1.5948 -3.6750 -0.9765
 6747SOL     OW31699   2.893   3.935   6.979 -0.0489  0.1949 -0.1436
 6747SOL    HW131700   2.860   3.987   7.052  0.0372 -1.1566  0.8535
 6747SOL    HW231701   2.953   3.998   6.939  0.5427 -3.5535 -5.2669
 6748SOL     OW31702   4.272   0.796   5.889 -0.1637  0.2592  0.5558
 6748SOL    HW131703   4.216   0.777   5.964  0.9854 -2.4127  0.7328
 6748SOL    HW231704   4.237   0.745   5.816  0.5240  0.6494 -0.0426
 6749SOL     OW31705   3.336   3.150  11.460 -0.4847  0.6602  0.2772
 6749SOL    HW131706   3.255   3.153  11.511 -0.9986  0.4085 -0.5390
 6749SOL    HW231707   3.327   3.224  11.401  1.4274  1.2047  0.6577
 6750SOL     OW31708   2.414   2.414   7.103 -0.7572  0.1610 -0.2369
 6750SOL    HW131709   2.445   2.502   7.082 -1.3567  0.0560 -1.5023
 6750SOL    HW231710   2.390   2.422   7.196 -0.3437  3.7971 -0.4548
 6751SOL     OW31711   2.835   2.363   5.913 -0.4791 -0.6821 -0.1327
 6751SOL    HW131712   2.781   2.442   5.919  1.3802  0.4045  2.0236
 6751SOL    HW231713   2.918   2.392   5.949 -0.7668  1.4455 -1.1917
 6752SOL     OW31714   3.700   2.104  10.713  0.0980 -0.2568  0.3162
 6752SOL    HW131715   3.775   2.160  10.693  1.0332 -1.5117  0.2673
 6752SOL    HW231716   3.630   2.151  10.668  1.1964  1.1653  0.1022
 6753SOL     OW31717   2.111   1.014   5.907  0.4069 -0.0269 -0.4255
 6753SOL    HW131718   2.059   0.934   5.909  0.9217 -0.3161  1.7327
 6753SOL    HW231719   2.100   1.047   5.996 -0.8003 -1.6287  0.0220
 6754SOL     OW31720   1.656   4.596  11.517  0.3020  0.0058 -0.1904
 6754SOL    HW131721   1.623   4.596  11.607 -2.4223  2.6501 -1.1764
 6754SOL    HW231722   1.728   4.534  11.517  0.6002  0.3500 -0.5859
 6755SOL     OW31723   2.482   3.505   5.606 -0.0958  0.5219  0.3689
 6755SOL    HW131724   2.544   3.469   5.543  0.2766 -0.4585  1.2906
 6755SOL    HW231725   2.412   3.538   5.550  0.6290  0.5168 -0.5334
 6756SOL     OW31726   0.002   2.491  12.290  0.3429 -0.4012  0.3816
 6756SOL    HW131727   4.713   2.526  12.202 -0.9712  2.8862  1.8893
 6756SOL    HW231728   0.094   2.464  12.292  0.3597 -0.4067 -0.3631
 6757SOL     OW31729   0.173   1.119  10.236  0.4130  0.1266 -0.6380
 6757SOL    HW131730   0.206   1.192  10.289 -2.8692  0.5706  0.7701
 6757SOL    HW231731   0.143   1.173  10.162  1.4250  0.5334 -0.7543
 6758SOL     OW31732   4.096   1.268   2.836 -0.3750 -0.5857 -0.2382
 6758SOL    HW131733   4.036   1.326   2.788 -0.5042 -1.2038 -0.8412
 6758SOL    HW231734   4.048   1.252   2.917 -1.1201 -1.0088 -0.7533
 6759SOL     OW31735   0.232   0.920   5.502 -0.3792  0.0156 -0.1237
 6759SOL    HW131736   0.179   0.864   5.446 -3.3379  1.6554  1.0675
 6759SOL    HW231737   0.169   0.982   5.538  0.7397  1.1456 -0.0653
 6760SOL     OW31738   1.055   2.821   8.252 -0.1637  0.2468 -0.2628
 6760SOL    HW131739   1.142   2.784   8.235  0.7738  1.5363  1.7475
 6760SOL    HW231740   1.067   2.916   8.244 -0.4180  0.3207  0.2670
 6761SOL     OW31741   2.085   2.883   8.827  0.6423 -0.6531 -0.0698
 6761SOL    HW131742   2.093   2.900   8.920 -0.4060  0.1241 -0.1199
 6761SOL    HW231743   2.169   2.922   8.804 -0.2626  1.0278 -0.4977
 6762SOL     OW31744   3.639   2.512   3.357 -0.0917 -0.0285  0.3493
 6762SOL    HW131745   3.709   2.455   3.326  1.4226  2.0684 -0.0082
 6762SOL    HW231746   3.668   2.600   3.334  0.4658  0.3868  2.6435
 6763SOL     OW31747   4.613   3.557   5.554  0.4910 -0.5172 -0.2692
 6763SOL    HW131748   4.660   3.610   5.490 -0.2551  0.0937 -0.2978
 6763SOL    HW231749   4.526   3.563   5.516  0.4511  3.2875  0.5001
 6764SOL     OW31750   4.031   4.087  16.672 -0.1997  0.0102  0.5349
 6764SOL    HW131751   3.957   4.145  16.690 -1.0866 -1.4804  1.6632
 6764SOL    HW231752   4.015   4.078  16.578  2.5789 -0.2915  0.0973
 6765SOL     OW31753   2.645   0.449   8.094 -0.0982  0.5626  0.2537
 6765SOL    HW131754   2.685   0.535   8.108 -1.0182  1.3288 -1.7751
 6765SOL    HW231755   2.553   0.463   8.117 -0.1598  0.9499 -0.2345
 6766SOL     OW31756   3.280   0.415   6.519  0.0435 -0.0139 -0.1284
 6766SOL    HW131757   3.259   0.394   6.427 -2.0672  1.0832  0.0987
 6766SOL    HW231758   3.310   0.329   6.548 -0.4713  0.0057  0.4651
 6767SOL     OW31759   1.314   1.145  16.968  0.5456 -0.3252 -0.2626
 6767SOL    HW131760   1.396   1.101  16.990  1.1203 -0.0813 -1.9076
 6767SOL    HW231761   1.278   1.086  16.902  0.6985  0.4359 -1.0250
 6768SOL     OW31762   0.030   4.338   3.295 -0.0456  0.0251 -0.3818
 6768SOL    HW131763   4.682   4.402   3.302 -1.7403 -2.4793  4.6957
 6768SOL    HW231764   0.045   4.340   3.201  0.6421 -1.9042 -0.2994
 6769SOL     OW31765   1.980   4.640   0.619  0.3137 -0.6965 -0.1784
 6769SOL    HW131766   2.056   4.682   0.661  0.0939 -0.0748 -0.3957
 6769SOL    HW231767   1.909   4.692   0.657  2.4771  2.2308 -0.1114
 6770SOL     OW31768   2.587   3.753  15.723  0.6299  0.2791 -0.5843
 6770SOL    HW131769   2.514   3.753  15.785 -0.1672  1.1502 -1.5481
 6770SOL    HW231770   2.640   3.822  15.763  1.6095 -1.9171  1.9222
 6771SOL     OW31771   4.333   2.988   2.255 -0.3795 -0.1738  0.0245
 6771SOL    HW131772   4.339   2.906   2.208 -0.2975 -0.4815  0.5690
 6771SOL    HW231773   4.324   2.948   2.342 -0.6489 -0.2552 -0.0421
 6772SOL     OW31774   0.691   4.600   0.908  0.0142  0.5173 -0.5996
 6772SOL    HW131775   0.754   4.663   0.944  0.1822  0.6164 -1.0658
 6772SOL    HW231776   0.664   4.563   0.992 -1.1897 -0.0501 -1.2365
 6773SOL     OW31777   3.163   0.658  14.569 -0.0885  0.2493 -0.3491
 6773SOL    HW131778   3.213   0.632  14.491 -1.2585  0.3430 -1.1281
 6773SOL    HW231779   3.133   0.570  14.591 -1.0659  0.7360  0.2387
 6774SOL     OW31780   2.931   0.072   3.386  0.1120 -0.1557  0.0419
 6774SOL    HW131781   2.939   0.125   3.306 -3.9101  0.8130  0.2961
 6774SOL    HW231782   2.933   0.143   3.450  0.7521  2.0715 -2.4412
 6775SOL     OW31783   0.200   0.315   6.550 -0.7720  0.5207  0.1097
 6775SOL    HW131784   0.117   0.268   6.542 -0.0798 -1.4112  4.1724
 6775SOL    HW231785   0.232   0.295   6.462  1.6076 -1.7050  1.4617
 6776SOL     OW31786   0.644   1.140   8.262 -0.2701  0.1163 -0.0510
 6776SOL    HW131787   0.692   1.083   8.323 -0.7970  1.1154  1.3100
 6776SOL    HW231788   0.553   1.112   8.264 -0.1911 -0.2472 -1.4902
 6777SOL     OW31789   3.218   2.595   5.266  0.1013 -0.2083  0.0761
 6777SOL    HW131790   3.164   2.671   5.289 -0.4623  0.0765 -2.1823
 6777SOL    HW231791   3.228   2.559   5.354 -1.2200 -0.5793  0.0635
 6778SOL     OW31792   3.317   1.275  13.860  0.2023 -0.1793 -0.6897
 6778SOL    HW131793   3.262   1.261  13.937 -0.0804  2.8191 -0.3161
 6778SOL    HW231794   3.280   1.209  13.802 -2.1357 -0.7933  1.4929
 6779SOL     OW31795   0.414   3.305   6.936 -0.4859  0.3081  0.3713
 6779SOL    HW131796   0.497   3.299   6.984  1.8575 -0.2827 -3.7517
 6779SOL    HW231797   0.447   3.332   6.851  0.7929  1.4323  1.2205
 6780SOL     OW31798   1.491   3.541   3.458  0.2967 -0.1539 -0.0818
 6780SOL    HW131799   1.405   3.501   3.470  0.4734  0.4040  3.0269
 6780SOL    HW231800   1.493   3.569   3.367 -0.2539  2.7735  0.7911
 6781SOL     OW31801   0.113   2.132  10.234  0.4103  0.6806 -0.0282
 6781SOL    HW131802   0.192   2.152  10.185  0.1463  0.4036 -0.5672
 6781SOL    HW231803   0.066   2.077  10.171  1.9660 -1.1023  0.3711
 6782SOL     OW31804   0.111   1.791  17.551 -0.5339 -0.3790 -0.0739
 6782SOL    HW131805   0.193   1.834  17.573 -0.4800 -0.5833  0.1307
 6782SOL    HW231806   0.096   1.813  17.459 -0.1022  0.2338  0.0059
 6783SOL     OW31807   3.723   4.071   2.720  0.3476 -0.4789  0.2502
 6783SOL    HW131808   3.748   4.025   2.639 -1.0266 -0.4880 -0.1757
 6783SOL    HW231809   3.734   3.996   2.779 -0.7401 -0.4958  0.4392
 6784SOL     OW31810   3.200   1.601   6.502  0.7291 -0.0865 -0.0029
 6784SOL    HW131811   3.226   1.569   6.415 -0.2367  0.1025 -0.3708
 6784SOL    HW231812   3.259   1.543   6.549  0.2467 -0.2017  0.4681
 6785SOL     OW31813   1.670   4.536  14.359 -0.0241 -0.4253 -0.2721
 6785SOL    HW131814   1.704   4.560  14.445 -1.8127 -1.2201  0.6541
 6785SOL    HW231815   1.720   4.457  14.339 -0.4745  0.2324 -3.8801
 6786SOL     OW31816   1.344   1.937   2.617 -0.6931  0.2281 -0.1701
 6786SOL    HW131817   1.250   1.924   2.608 -0.7987 -0.5847  1.9800
 6786SOL    HW231818   1.377   1.863   2.566 -4.1429 -1.2167 -0.2985
 6787SOL     OW31819   3.196   0.634   5.976  0.7649  0.0434  0.5302
 6787SOL    HW131820   3.213   0.683   5.895  0.7116 -1.3829 -0.3450
 6787SOL    HW231821   3.103   0.612   5.971  0.5794  0.9455  0.0881
 6788SOL     OW31822   0.422   3.848   3.402  0.5228  0.1340 -0.4702
 6788SOL    HW131823   0.358   3.781   3.427  0.8298 -0.8198 -2.2167
 6788SOL    HW231824   0.399   3.918   3.463  0.2741  0.6974 -1.2071
 6789SOL     OW31825   0.702   1.535   0.042 -0.5342  0.3130  0.3900
 6789SOL    HW131826   0.771   1.506   0.102  0.8546  1.4886 -0.6471
 6789SOL    HW231827   0.626   1.499   0.087 -0.0568  0.8990  1.6860
 6790SOL     OW31828   1.761   4.171   1.766 -0.1484  0.6296 -0.1856
 6790SOL    HW131829   1.795   4.082   1.759  0.2081  0.9514 -2.6769
 6790SOL    HW231830   1.841   4.214   1.738  0.1257 -0.0243 -0.4197
 6791SOL     OW31831   4.244   3.360  13.888  0.0692  0.0834 -0.1442
 6791SOL    HW131832   4.295   3.441  13.892  1.8857 -0.9497 -2.2668
 6791SOL    HW231833   4.297   3.297  13.938  0.9679  0.0309 -1.1725
 6792SOL     OW31834   3.797   1.079   9.631 -0.3992 -0.5524 -0.0024
 6792SOL    HW131835   3.747   1.081   9.550 -0.8535 -1.9710  0.2325
 6792SOL    HW231836   3.820   1.172   9.633 -0.7913 -0.4050 -2.8514
 6793SOL     OW31837   0.723   1.020   5.486  0.4486 -0.1344 -0.6152
 6793SOL    HW131838   0.651   0.968   5.453 -0.9194  0.4114  1.4837
 6793SOL    HW231839   0.680   1.085   5.542  2.0273  0.7819 -0.4625
 6794SOL     OW31840   3.096   1.766   0.195  0.2592  0.1552  0.0754
 6794SOL    HW131841   3.079   1.746   0.102  3.0273  0.4682 -0.4917
 6794SOL    HW231842   3.027   1.712   0.234  1.1857 -1.9252 -1.0961
 6795SOL     OW31843   0.942   1.571   4.427  0.2175 -0.9652 -0.0422
 6795SOL    HW131844   0.978   1.611   4.506  1.9383 -1.1890 -0.6929
 6795SOL    HW231845   0.861   1.621   4.416  0.1053 -0.8908  1.1304
 6796SOL     OW31846   3.793   0.042  13.166  0.3962 -0.3822  0.2518
 6796SOL    HW131847   3.868   0.068  13.219  2.4265 -0.6192 -2.5494
 6796SOL    HW231848   3.729   0.011  13.231  1.6646 -1.7644  0.8523
 6797SOL     OW31849   4.485   4.654  13.782  0.2250 -0.2605 -0.3757
 6797SOL    HW131850   4.521   0.017  13.764 -0.4711  0.4009  1.4232
 6797SOL    HW231851   4.421   4.659  13.853 -1.0391 -0.6067 -1.4844
 6798SOL     OW31852   2.696   4.712   4.054 -0.3839  0.2396 -0.2429
 6798SOL    HW131853   2.651   4.683   3.975  1.6335 -0.9237 -0.9547
 6798SOL    HW231854   2.753   0.055   4.016 -0.7994  0.5575 -0.3006
 6799SOL     OW31855   0.599   3.304   8.737  0.6248 -0.2247  0.0504
 6799SOL    HW131856   0.521   3.280   8.687  0.1986 -1.6781  1.4044
 6799SOL    HW231857   0.566   3.257   8.814  0.1166  2.6261  1.5573
 6800SOL     OW31858   4.515   1.236   4.435 -0.1688 -0.4284 -0.3385
 6800SOL    HW131859   4.590   1.181   4.412  0.2234 -0.7145  1.5898
 6800SOL    HW231860   4.449   1.177   4.472 -0.8812  0.1082 -0.7624
 6801SOL     OW31861   3.974   1.040   3.543 -0.2226 -0.0840  0.2071
 6801SOL    HW131862   3.940   1.111   3.488 -0.8636  0.5808  1.4694
 6801SOL    HW231863   3.920   1.056   3.621 -0.1180 -1.9543  0.6723
 6802SOL     OW31864   4.579   1.144   7.215 -0.0836 -0.1832 -0.0268
 6802SOL    HW131865   4.579   1.236   7.242 -1.0604 -0.4077  0.7560
 6802SOL    HW231866   4.500   1.148   7.162  0.3715 -0.5355 -0.7284
 6803SOL     OW31867   0.848   4.617  17.438 -0.0458 -0.1615 -0.2622
 6803SOL    HW131868   0.842   4.602  17.343  0.9114  0.9685 -0.4925
 6803SOL    HW231869   0.848   4.713  17.440  0.0698 -0.1710  0.0412
 6804SOL     OW31870   3.230   2.838  11.864  0.6591  0.4884 -0.1221
 6804SOL    HW131871   3.162   2.858  11.927 -0.2010 -1.3252 -0.4695
 6804SOL    HW231872   3.313   2.862  11.906  0.2216  2.8046 -0.5905
 6805SOL     OW31873   1.901   4.494  11.332  0.0913  0.1257  0.4475
 6805SOL    HW131874   1.948   4.575  11.312  1.4175 -0.2972  1.9157
 6805SOL    HW231875   1.928   4.477  11.422 -0.8604  1.3202  0.9605
 6806SOL     OW31876   0.043   0.886  13.966 -0.7621  0.2780  0.6536
 6806SOL    HW131877   0.008   0.959  14.016  0.5758  0.6071  1.1143
 6806SOL    HW231878   4.710   0.812  13.989 -1.1918  1.0156  1.9827
 6807SOL     OW31879   3.773   4.489  12.240 -0.3236 -0.1707  0.3177
 6807SOL    HW131880   3.732   4.574  12.222 -1.9282 -1.2060 -0.8687
 6807SOL    HW231881   3.857   4.514  12.277 -0.1475 -2.7893  1.6908
 6808SOL     OW31882   2.267   3.818  14.047 -0.3558  0.3713 -0.4380
 6808SOL    HW131883   2.350   3.805  14.093 -1.1084 -2.6604  0.0172
 6808SOL    HW231884   2.234   3.888  14.104  0.9596  0.4967  0.1922
 6809SOL     OW31885   4.622   0.709   1.593  0.3228  0.7477  0.0569
 6809SOL    HW131886   4.710   0.692   1.625 -0.3673  0.1583  1.6651
 6809SOL    HW231887   4.596   0.626   1.553  0.9641  0.7617 -0.3897
 6810SOL     OW31888   1.000   2.581   9.767 -0.5496 -0.3855  0.0395
 6810SOL    HW131889   1.075   2.561   9.711 -1.2491 -1.9660 -0.3143
 6810SOL    HW231890   0.933   2.617   9.709  0.6509  0.1650 -0.9964
 6811SOL     OW31891   4.667   2.045   5.775 -0.0516  0.4088  0.7015
 6811SOL    HW131892   4.707   2.089   5.699 -1.1366 -1.1681 -0.7882
 6811SOL    HW231893   4.572   2.053   5.767 -0.0034 -0.2303 -0.5192
 6812SOL     OW31894   2.966   3.600   3.928  0.4496  0.4488  0.2831
 6812SOL    HW131895   2.963   3.541   3.853 -1.5298  2.1373 -0.9416
 6812SOL    HW231896   2.988   3.537   3.997 -1.6613  0.9164  1.3554
 6813SOL     OW31897   4.105   0.134   9.057 -0.7100 -0.5343  0.1283
 6813SOL    HW131898   4.046   0.077   9.009  0.7444 -0.4292 -1.8043
 6813SOL    HW231899   4.118   0.097   9.145 -2.7957 -2.5608 -0.4291
 6814SOL     OW31900   2.396   0.988   6.621  0.2038 -0.1735  0.4362
 6814SOL    HW131901   2.457   0.948   6.559  1.4312 -0.4789  1.8439
 6814SOL    HW231902   2.339   1.038   6.562 -1.4774 -2.6462 -0.0588
 6815SOL     OW31903   2.337   0.775   0.264 -0.4290 -0.3079 -0.1964
 6815SOL    HW131904   2.260   0.743   0.217  2.0126 -2.5901 -2.6403
 6815SOL    HW231905   2.293   0.776   0.349 -0.4081  1.1114 -0.2131
 6816SOL     OW31906   3.530   1.051   2.273  0.3749  0.1337  0.6343
 6816SOL    HW131907   3.486   1.084   2.351 -2.6180 -1.1219 -0.5337
 6816SOL    HW231908   3.603   1.113   2.276 -1.4247  2.2518  0.8416
 6817SOL     OW31909   2.085   2.250  16.847  0.5369  0.2731 -0.0573
 6817SOL    HW131910   2.052   2.256  16.757 -3.2574 -3.9074  1.0353
 6817SOL    HW231911   2.003   2.254  16.895  0.8927 -1.7281  0.7183
 6818SOL     OW31912   2.363   4.283   7.369 -0.0463  0.4721  0.1548
 6818SOL    HW131913   2.357   4.318   7.458 -1.8301  2.6516 -0.8310
 6818SOL    HW231914   2.305   4.207   7.371 -2.5422  2.3968  0.3736
 6819SOL     OW31915   3.026   2.977   4.496 -0.3186 -0.4297  0.0716
 6819SOL    HW131916   3.088   3.049   4.506 -1.1850  0.4501 -0.8803
 6819SOL    HW231917   3.081   2.910   4.535 -1.0307 -1.6405 -0.9984
 6820SOL     OW31918   1.134   1.037   3.404 -0.6925 -0.1426  0.5804
 6820SOL    HW131919   1.128   0.958   3.350 -5.3002 -1.8951  3.6529
 6820SOL    HW231920   1.039   1.041   3.417  0.1126  1.9846  5.9748
 6821SOL     OW31921   4.059   3.398   2.362  0.2498 -0.2057  0.0954
 6821SOL    HW131922   4.068   3.309   2.329  4.1929  0.4640 -0.6490
 6821SOL    HW231923   3.990   3.423   2.301 -1.6233  0.3204  2.4119
 6822SOL     OW31924   2.690   3.780   3.085 -0.2024  0.0988  0.5026
 6822SOL    HW131925   2.655   3.868   3.078 -1.0517 -0.1166  2.0929
 6822SOL    HW231926   2.614   3.723   3.073  0.6449 -1.4533  2.4647
 6823SOL     OW31927   0.842   0.276   7.259  0.1492  0.1794  0.1400
 6823SOL    HW131928   0.900   0.232   7.197  1.2052 -0.1173  1.3388
 6823SOL    HW231929   0.887   0.254   7.341  0.3649 -1.1657 -0.3486
 6824SOL     OW31930   2.805   0.192   3.906 -0.0678  0.1173  0.7430
 6824SOL    HW131931   2.784   0.276   3.946  0.8516  0.8356 -0.3243
 6824SOL    HW231932   2.742   0.190   3.834  0.8491  3.9280 -0.1500
 6825SOL     OW31933   1.199   2.905   0.919 -0.5454  0.2488  0.1659
 6825SOL    HW131934   1.202   2.931   0.827 -0.6120 -2.0635 -0.5154
 6825SOL    HW231935   1.116   2.857   0.920 -0.0310 -0.6852 -1.1262
 6826SOL     OW31936   3.208   1.104   5.812 -0.0604  0.7025 -0.3469
 6826SOL    HW131937   3.159   1.184   5.830 -1.5252 -0.2709 -0.0440
 6826SOL    HW231938   3.231   1.105   5.719  2.5646  0.0216  0.3032
 6827SOL     OW31939   1.914   4.250   0.202 -0.3986 -0.1761  0.2668
 6827SOL    HW131940   1.900   4.277   0.112  2.6114  0.3449 -0.0339
 6827SOL    HW231941   1.833   4.283   0.242 -0.7648 -1.6773  0.7889
 6828SOL     OW31942   3.407   1.256   2.461  0.7722 -0.2721  0.2477
 6828SOL    HW131943   3.458   1.253   2.542  0.6365 -0.7054  0.3140
 6828SOL    HW231944   3.353   1.333   2.481  0.8704 -0.5550  1.5730
 6829SOL     OW31945   4.281   3.594   4.454  0.1931  0.2682  0.0328
 6829SOL    HW131946   4.311   3.504   4.443 -0.1705  0.1493  0.0295
 6829SOL    HW231947   4.212   3.590   4.520  1.9970 -0.4869  1.8869
 6830SOL     OW31948   0.301   1.932   8.673  0.9997  0.0127  0.4703
 6830SOL    HW131949   0.258   1.997   8.728  0.7300 -0.7186  1.1264
 6830SOL    HW231950   0.370   1.990   8.639  0.4371  1.3104  1.5599
 6831SOL     OW31951   1.391   3.285   6.602 -0.0729 -0.2511  0.0528
 6831SOL    HW131952   1.444   3.210   6.628 -2.8910 -2.6860 -1.1488
 6831SOL    HW231953   1.457   3.354   6.604 -0.8140  0.4393  1.0254
 6832SOL     OW31954   1.793   3.099   8.340 -0.8140  0.1498  0.3500
 6832SOL    HW131955   1.770   3.169   8.278  0.9206 -0.9146 -1.4884
 6832SOL    HW231956   1.771   3.133   8.427  2.5652  0.1315  1.2274
 6833SOL     OW31957   4.122   3.859  10.163  0.0084  0.1222  0.8421
 6833SOL    HW131958   4.078   3.780  10.134  2.1082 -0.4540 -0.8122
 6833SOL    HW231959   4.162   3.841  10.249  0.7946 -1.1349  0.2203
 6834SOL     OW31960   4.337   1.842  12.798 -0.1205  0.1165  0.1245
 6834SOL    HW131961   4.423   1.841  12.839  0.3864 -1.7797 -0.9780
 6834SOL    HW231962   4.349   1.786  12.721 -0.3289  1.7246 -1.0802
 6835SOL     OW31963   3.641   2.989   3.493 -0.1320 -0.4280 -0.2845
 6835SOL    HW131964   3.554   3.027   3.489  0.0929  0.0410 -0.8269
 6835SOL    HW231965   3.674   3.040   3.419 -1.6933  0.7808 -0.1462
 6836SOL     OW31966   0.822   0.181   1.791  0.0058 -0.0039  0.0916
 6836SOL    HW131967   0.736   0.193   1.832 -0.3090  0.9954 -0.8592
 6836SOL    HW231968   0.864   0.150   1.870  1.0651 -1.4746 -1.0553
 6837SOL     OW31969   3.333   2.400  16.288  0.3101  0.3786  0.1811
 6837SOL    HW131970   3.385   2.330  16.250 -0.5202  0.0761 -0.3946
 6837SOL    HW231971   3.372   2.472  16.238 -0.0479  0.6128  0.2354
 6838SOL     OW31972   3.958   3.571   6.679  0.2841 -0.1715  0.5156
 6838SOL    HW131973   3.944   3.503   6.613 -0.5385 -0.7030  1.2504
 6838SOL    HW231974   3.895   3.636   6.648  0.2437  0.4991  2.0096
 6839SOL     OW31975   4.227   1.020   6.131  0.4876  0.0913  0.6590
 6839SOL    HW131976   4.317   1.044   6.111  0.3361 -0.5879 -0.8312
 6839SOL    HW231977   4.223   0.933   6.171  1.6685 -0.3437 -0.1680
 6840SOL     OW31978   4.166   2.963   9.412  0.2197 -0.0543  0.5451
 6840SOL    HW131979   4.166   3.036   9.350  0.4226  0.0122  0.6239
 6840SOL    HW231980   4.260   2.946   9.409  0.2771  0.2592  0.5610
 6841SOL     OW31981   1.860   1.134   8.213 -0.1786 -0.2144 -0.4018
 6841SOL    HW131982   1.830   1.119   8.303 -1.5592  1.3193 -0.5885
 6841SOL    HW231983   1.954   1.153   8.217  0.0487 -1.3379 -0.6312
 6842SOL     OW31984   4.594   3.279   3.390  0.0166  0.3418 -0.3157
 6842SOL    HW131985   4.646   3.213   3.436  0.8176 -0.1207 -1.9029
 6842SOL    HW231986   4.669   3.321   3.347 -0.2212  0.7716 -0.3145
 6843SOL     OW31987   1.311   3.877  14.617 -0.8721  0.0945 -0.3662
 6843SOL    HW131988   1.274   3.922  14.693 -1.9438 -0.2064 -0.7116
 6843SOL    HW231989   1.230   3.861  14.570 -1.5046  1.7018  0.1588
 6844SOL     OW31990   3.655   1.600   3.295 -0.2393 -0.0163  0.1727
 6844SOL    HW131991   3.652   1.638   3.207  1.0744  0.8601  0.5056
 6844SOL    HW231992   3.585   1.536   3.280  1.5721 -1.7221 -1.0091
 6845SOL     OW31993   3.468   2.595   8.482 -0.1164  0.4768 -0.0064
 6845SOL    HW131994   3.515   2.669   8.523  0.4577  0.1817 -0.1277
 6845SOL    HW231995   3.521   2.585   8.403 -0.1326  0.6231 -0.0364
 6846SOL     OW31996   3.234   4.341   4.211  0.5296  0.0475  0.0774
 6846SOL    HW131997   3.236   4.329   4.117 -0.4629  1.0728 -0.0850
 6846SOL    HW231998   3.163   4.404   4.229  1.0294  0.9572 -1.1575
 6847SOL     OW31999   3.299   1.861   0.327  0.1424 -0.1789  0.3998
 6847SOL    HW132000   3.313   1.952   0.302  1.1243 -1.0004 -2.0548
 6847SOL    HW232001   3.222   1.832   0.277  0.8944  1.7207 -1.8592
 6848SOL     OW32002   1.708   1.166   2.568  0.5772  0.3016  0.2016
 6848SOL    HW132003   1.711   1.179   2.663  2.4801  0.1093  0.1589
 6848SOL    HW232004   1.782   1.110   2.547  1.0512  0.7816  0.5871
 6849SOL     OW32005   1.416   0.223   6.757  0.2969  0.1108  0.3514
 6849SOL    HW132006   1.373   0.174   6.686  1.1780 -3.7277  2.4638
 6849SOL    HW232007   1.384   0.313   6.753 -1.5543 -0.5495  0.4772
 6850SOL     OW32008   0.860   3.789  11.027  0.4810  0.1842 -0.0528
 6850SOL    HW132009   0.830   3.790  10.936  0.3086  2.8365  0.0520
 6850SOL    HW232010   0.848   3.696  11.049 -1.4801 -0.2759 -2.9922
 6851SOL     OW32011   4.522   2.403   7.618 -0.2669  0.6657 -0.1252
 6851SOL    HW132012   4.522   2.410   7.523 -1.3907 -1.3611 -0.2600
 6851SOL    HW232013   4.532   2.311   7.643 -2.4474  0.4252 -0.1411
 6852SOL     OW32014   2.880   2.854   9.890  0.7499 -0.3293  0.1051
 6852SOL    HW132015   2.814   2.922   9.906  2.0602  0.5604  1.6565
 6852SOL    HW232016   2.858   2.800   9.967  1.4125  1.0675  1.2593
 6853SOL     OW32017   4.244   1.429  14.897 -0.0016 -0.1441 -0.4127
 6853SOL    HW132018   4.166   1.410  14.949 -0.7197  0.8158 -1.1546
 6853SOL    HW232019   4.222   1.364  14.831  2.1495 -1.7951  0.4962
 6854SOL     OW32020   3.377   0.761   1.951  0.2463 -0.1598  0.2765
 6854SOL    HW132021   3.387   0.674   1.913 -0.7436 -1.1370  2.2227
 6854SOL    HW232022   3.462   0.769   1.996 -0.9777 -2.1782  2.8992
 6855SOL     OW32023   3.379   3.651   8.492  0.0658  0.0316  0.4290
 6855SOL    HW132024   3.408   3.570   8.452  0.2866  0.5971 -0.5320
 6855SOL    HW232025   3.464   3.682   8.522 -0.0711  0.5429  0.2899
 6856SOL     OW32026   3.495   3.051   6.598 -0.0261 -0.5016 -0.3047
 6856SOL    HW132027   3.547   2.989   6.650 -0.4330 -0.1969  0.4629
 6856SOL    HW232028   3.492   3.003   6.515 -0.4851  1.3594 -1.3609
 6857SOL     OW32029   4.356   2.351   6.110 -0.0183  0.0424 -0.1620
 6857SOL    HW132030   4.390   2.425   6.060 -0.2715  0.2953  0.0372
 6857SOL    HW232031   4.426   2.321   6.168  2.7504  2.5533 -2.2144
 6858SOL     OW32032   3.506   0.537   3.702 -0.4134 -0.0801 -0.4512
 6858SOL    HW132033   3.562   0.580   3.637  1.9480 -0.4959  1.2816
 6858SOL    HW232034   3.463   0.466   3.656  0.3851  0.8140 -2.5921
 6859SOL     OW32035   0.398   0.573   8.558  0.2538 -0.3213  0.1455
 6859SOL    HW132036   0.303   0.584   8.559  0.2375 -0.3141 -1.2589
 6859SOL    HW232037   0.441   0.637   8.614 -0.0413 -1.7796  2.0548
 6860SOL     OW32038   4.674   0.408   4.954 -0.4422 -0.1048  0.4756
 6860SOL    HW132039   4.631   0.325   4.935 -2.3550  1.5052 -2.1547
 6860SOL    HW232040   4.721   0.420   4.872  0.5888 -2.0557  0.7836
 6861SOL     OW32041   4.163   0.591  12.455  0.4548 -0.2999  0.2998
 6861SOL    HW132042   4.172   0.577  12.361  1.5334  1.3145  0.1662
 6861SOL    HW232043   4.252   0.601  12.489  2.2382 -3.7800 -3.4270
 6862SOL     OW32044   0.574   1.119  15.135 -0.3668  0.6601  0.0310
 6862SOL    HW132045   0.521   1.100  15.057  0.8347  1.2078 -0.9215
 6862SOL    HW232046   0.535   1.067  15.205 -0.1742 -0.0862 -0.4239
 6863SOL     OW32047   4.583   2.992   3.463 -0.3413  0.0306  0.0559
 6863SOL    HW132048   4.659   2.977   3.405 -1.0459  1.1226 -1.1465
 6863SOL    HW232049   4.523   2.926   3.429 -2.0795  0.7918  1.6941
 6864SOL     OW32050   3.765   4.419   3.890  0.0124  0.2473 -0.3402
 6864SOL    HW132051   3.724   4.372   3.817 -0.2979 -0.1898  0.1181
 6864SOL    HW232052   3.691   4.421   3.951 -0.6960  0.5802 -1.1912
 6865SOL     OW32053   0.458   3.859  12.292  0.1055 -0.1507  0.8082
 6865SOL    HW132054   0.464   3.825  12.381 -0.7230  1.5168  1.5139
 6865SOL    HW232055   0.494   3.789  12.238  2.4682  1.3459  0.4294
 6866SOL     OW32056   2.592   3.884   8.526 -0.6839  0.1529  0.1372
 6866SOL    HW132057   2.528   3.897   8.596 -0.9743 -0.9854  0.0906
 6866SOL    HW232058   2.668   3.857   8.578  1.3516  1.1676 -2.2724
 6867SOL     OW32059   3.870   1.992   5.832  0.4932  0.4377  0.3882
 6867SOL    HW132060   3.794   2.046   5.852  0.4246 -0.2653  2.0998
 6867SOL    HW232061   3.908   1.997   5.920  0.2099  0.3947  0.5106
 6868SOL     OW32062   1.759   1.289   6.440 -0.5682 -0.2650 -0.4122
 6868SOL    HW132063   1.665   1.273   6.449 -0.5427 -0.4639 -0.4805
 6868SOL    HW232064   1.770   1.341   6.520 -0.2782 -0.4336 -0.3377
 6869SOL     OW32065   2.834   4.556  10.228 -0.1934 -0.0117  0.5365
 6869SOL    HW132066   2.795   4.632  10.184  1.9882  0.5649 -0.3905
 6869SOL    HW232067   2.915   4.593  10.263  0.0021  0.0095  0.0661
 6870SOL     OW32068   3.702   2.662   5.373  0.2368  0.1416  0.4351
 6870SOL    HW132069   3.722   2.748   5.335  0.7934 -0.9769 -1.7916
 6870SOL    HW232070   3.650   2.619   5.305  0.4901  0.9049 -0.2478
 6871SOL     OW32071   1.226   3.960   0.503 -0.5406 -0.5717  0.4120
 6871SOL    HW132072   1.206   3.904   0.428  0.8705 -0.8433  0.2366
 6871SOL    HW232073   1.320   3.977   0.494 -0.5797  0.2450  1.5179
 6872SOL     OW32074   2.034   2.984   8.574  0.1678  0.2374  0.4995
 6872SOL    HW132075   1.949   2.948   8.546  0.8819 -0.9069 -0.1745
 6872SOL    HW232076   2.028   2.949   8.663 -1.3446 -0.9610 -0.0664
 6873SOL     OW32077   0.971   4.574   1.247 -0.3519  0.2388 -0.3212
 6873SOL    HW132078   0.911   4.610   1.312 -1.7062  0.6505 -1.8044
 6873SOL    HW232079   1.052   4.621   1.266  1.3999 -2.2350 -1.6308
 6874SOL     OW32080   3.101   3.332   5.278  0.0252  0.2740  0.5867
 6874SOL    HW132081   3.130   3.345   5.369  0.3365  1.5428  0.3034
 6874SOL    HW232082   3.017   3.287   5.278 -0.4039  1.0673  0.5900
 6875SOL     OW32083   4.386   1.484  17.501 -0.1688 -0.4357  0.2080
 6875SOL    HW132084   4.355   1.398  17.471 -1.7474 -0.1399  1.0325
 6875SOL    HW232085   4.356   1.529  17.422 -1.8765 -1.1966  0.4302
 6876SOL     OW32086   1.425   3.412   7.548 -0.1068  0.4242  0.2556
 6876SOL    HW132087   1.511   3.377   7.525 -0.2669  0.4729 -0.4187
 6876SOL    HW232088   1.452   3.497   7.581 -2.2033  1.5149 -0.8544
 6877SOL     OW32089   3.394   0.267   8.115 -0.1568  0.5826 -0.1256
 6877SOL    HW132090   3.411   0.227   8.200  0.4586  1.9587  0.3918
 6877SOL    HW232091   3.303   0.295   8.128 -0.9099 -2.1510  0.7083
 6878SOL     OW32092   3.109   1.562   4.511  0.2579 -0.2726  0.5594
 6878SOL    HW132093   3.077   1.639   4.464 -1.8744 -0.3058  2.0038
 6878SOL    HW232094   3.178   1.530   4.453  0.1090  0.4251 -0.0011
 6879SOL     OW32095   1.000   4.117   9.970  0.3348 -0.1847 -0.4054
 6879SOL    HW132096   1.004   4.068  10.052 -0.2015 -2.2567 -1.6271
 6879SOL    HW232097   0.907   4.142   9.974  0.3228 -0.5014  1.5646
 6880SOL     OW32098   0.901   0.277  16.254  0.4709  0.2524 -0.2461
 6880SOL    HW132099   0.858   0.343  16.309  0.1855  0.8257 -1.1486
 6880SOL    HW232100   0.953   0.335  16.198  0.8247  0.0195 -0.1505
 6881SOL     OW32101   1.890   2.731   3.528 -0.0189 -0.5110 -0.0815
 6881SOL    HW132102   1.980   2.756   3.550 -0.8052  1.2746  1.0447
 6881SOL    HW232103   1.901   2.684   3.445 -0.6981 -0.8296  0.0091
 6882SOL     OW32104   1.483   1.800   5.226 -0.0358 -0.2038  0.1389
 6882SOL    HW132105   1.493   1.707   5.246 -1.4440  0.1230  2.3783
 6882SOL    HW232106   1.470   1.802   5.131 -1.8922  1.2130  0.4092
 6883SOL     OW32107   2.472   1.818   6.106  0.1177 -0.0790  0.2344
 6883SOL    HW132108   2.383   1.790   6.128  0.2112 -1.5501 -1.3019
 6883SOL    HW232109   2.477   1.878   6.031  1.0250 -0.2697  0.1365
 6884SOL     OW32110   0.566   2.068   5.848 -0.0795 -0.6329 -0.2588
 6884SOL    HW132111   0.621   2.146   5.854 -1.3901  0.5575 -3.5490
 6884SOL    HW232112   0.475   2.098   5.840  0.3196  0.4342 -0.8295
 6885SOL     OW32113   4.207   3.049  16.983  0.0226 -0.5248  0.0160
 6885SOL    HW132114   4.201   2.978  17.048 -0.8903  0.8851  1.4876
 6885SOL    HW232115   4.216   2.992  16.907  0.5585  0.4557 -0.6452
 6886SOL     OW32116   4.240   0.733   7.583 -0.4511 -0.7393 -0.0774
 6886SOL    HW132117   4.211   0.788   7.656  2.2630  0.6180 -0.0610
 6886SOL    HW232118   4.306   0.791   7.544  0.3707 -0.6369  1.4848
 6887SOL     OW32119   1.598   2.958   0.901 -0.3126  0.2712 -0.0122
 6887SOL    HW132120   1.566   2.902   0.972  0.1042  0.5549  0.3993
 6887SOL    HW232121   1.668   3.006   0.946  0.4478 -1.0450  0.2182
 6888SOL     OW32122   1.116   4.128  10.501  0.2619 -0.5079  0.3053
 6888SOL    HW132123   1.086   4.046  10.461  0.8046 -0.4982 -0.1226
 6888SOL    HW232124   1.124   4.184  10.424  2.8650  1.2260  1.8419
 6889SOL     OW32125   3.186   2.342  14.873 -0.2202  0.0699 -0.5785
 6889SOL    HW132126   3.258   2.279  14.883  0.2503  0.5459 -0.9714
 6889SOL    HW232127   3.167   2.340  14.779 -3.9540  2.3610  0.1664
 6890SOL     OW32128   1.108   3.974  10.156 -0.8477  0.0454  0.5112
 6890SOL    HW132129   1.036   3.975  10.219 -1.3757 -0.7290 -0.0925
 6890SOL    HW232130   1.118   3.880  10.145 -0.2138  0.2424 -0.5506
 6891SOL     OW32131   1.993   2.336   1.616  0.2959 -0.1854  0.0363
 6891SOL    HW132132   1.914   2.299   1.576 -1.3010  1.6522  1.5253
 6891SOL    HW232133   1.968   2.354   1.707 -0.3262  0.3852 -0.2518
 6892SOL     OW32134   4.135   1.335   4.322 -0.0466  0.3124 -0.6311
 6892SOL    HW132135   4.088   1.408   4.281 -2.4287 -2.2939 -2.5278
 6892SOL    HW232136   4.183   1.384   4.389 -2.3946  0.2637  1.0862
 6893SOL     OW32137   0.163   1.839   6.228  0.1486 -0.8469  0.0987
 6893SOL    HW132138   0.210   1.777   6.172 -0.1838 -1.8532  0.9259
 6893SOL    HW232139   0.199   1.923   6.202 -1.8337 -0.4852 -1.4618
 6894SOL     OW32140   3.486   3.069   4.121 -0.0502  0.4730 -0.1635
 6894SOL    HW132141   3.471   3.044   4.212 -0.9268  1.2408 -0.1012
 6894SOL    HW232142   3.407   3.038   4.077  0.9410  0.3128 -1.8472
 6895SOL     OW32143   4.327   0.582   4.539 -0.5169 -0.1287 -0.0773
 6895SOL    HW132144   4.307   0.498   4.580  0.6247 -1.1043 -1.5262
 6895SOL    HW232145   4.418   0.565   4.514 -1.0374 -2.7304 -0.2417
 6896SOL     OW32146   1.047   1.190  10.299  0.0154  0.1376  0.3277
 6896SOL    HW132147   1.121   1.142  10.334 -1.1037 -1.1586  0.9321
 6896SOL    HW232148   1.054   1.269  10.353 -1.2139  1.1172 -0.9424
 6897SOL     OW32149   1.528   3.074   6.776 -0.0776  0.7163 -0.1256
 6897SOL    HW132150   1.504   3.002   6.717  1.4785 -0.7814  1.0408
 6897SOL    HW232151   1.446   3.106   6.813 -0.5209 -0.2826 -0.2365
 6898SOL     OW32152   2.257   2.347  11.297  0.5898 -0.7205 -0.3442
 6898SOL    HW132153   2.185   2.401  11.264  1.3692 -1.1276 -2.7121
 6898SOL    HW232154   2.311   2.418  11.331  0.0081  0.0358 -0.9798
 6899SOL     OW32155   3.454   3.164   7.026  0.3626 -0.0544  0.0752
 6899SOL    HW132156   3.471   3.213   6.945 -1.7803  1.1722  0.3858
 6899SOL    HW232157   3.432   3.073   7.006  0.7903 -0.5297  1.7663
 6900SOL     OW32158   1.361   1.206   4.622 -0.4812 -0.2673 -0.0250
 6900SOL    HW132159   1.403   1.276   4.671  0.4155  0.1148 -1.3347
 6900SOL    HW232160   1.272   1.218   4.656 -0.7127 -0.9448 -0.3876
 6901SOL     OW32161   1.069   0.422  16.104 -0.1403  0.5730 -0.3191
 6901SOL    HW132162   1.087   0.515  16.092  1.6501  0.0526 -1.7702
 6901SOL    HW232163   1.051   0.401  16.012 -0.5058  0.3847 -0.2035
 6902SOL     OW32164   3.326   0.650   6.679 -0.3592 -0.2764 -0.1954
 6902SOL    HW132165   3.355   0.631   6.769  0.2659  0.1115 -0.3174
 6902SOL    HW232166   3.298   0.565   6.646 -3.6129  1.4319 -1.8574
 6903SOL     OW32167   1.822   3.580   1.174 -0.4481 -0.3645 -0.0622
 6903SOL    HW132168   1.851   3.671   1.182  0.6666 -0.8791  1.8523
 6903SOL    HW232169   1.803   3.572   1.081  1.5268  2.3231 -0.7073
 6904SOL     OW32170   3.798   2.096   4.058  0.1541  0.3497  0.4325
 6904SOL    HW132171   3.760   2.066   4.141  0.1412 -2.0842 -0.4657
 6904SOL    HW232172   3.888   2.068   4.072 -0.2767 -3.1481 -3.7758
 6905SOL     OW32173   0.426   1.450  14.774 -0.4389  0.4780  0.6001
 6905SOL    HW132174   0.337   1.416  14.769  0.9524 -3.2686  0.9196
 6905SOL    HW232175   0.419   1.536  14.733 -1.5612  0.3978  0.6240
 6906SOL     OW32176   1.646   0.901  10.849 -0.3110 -0.8956 -0.4942
 6906SOL    HW132177   1.740   0.907  10.865 -0.0642 -1.2002 -1.8395
 6906SOL    HW232178   1.626   0.835  10.915  0.7780 -1.2659 -0.5260
 6907SOL     OW32179   2.795   1.457   4.971  0.6457 -0.7530 -0.3192
 6907SOL    HW132180   2.706   1.422   4.960 -0.4530  1.1519  2.5532
 6907SOL    HW232181   2.764   1.546   4.985  0.5490 -0.9704  0.8450
 6908SOL     OW32182   2.447   4.237   3.172 -0.5929  0.1641  0.2327
 6908SOL    HW132183   2.374   4.211   3.229  1.5343  0.1037  2.9404
 6908SOL    HW232184   2.501   4.292   3.228  1.0265 -0.2560 -0.9046
 6909SOL     OW32185   1.852   2.443  11.980  0.5957 -0.1526  0.8213
 6909SOL    HW132186   1.844   2.458  11.886 -2.3949 -0.9593  0.9463
 6909SOL    HW232187   1.819   2.355  11.995  1.6017 -1.1032 -2.5753
 6910SOL     OW32188   1.129   3.858   1.709  0.0051 -0.3914  0.1736
 6910SOL    HW132189   1.072   3.817   1.644  0.9767 -0.5757 -0.5532
 6910SOL    HW232190   1.213   3.843   1.665  0.4835  1.0398  0.6007
 6911SOL     OW32191   0.538   4.002   1.024 -0.0288  0.7175  0.0157
 6911SOL    HW132192   0.567   3.921   1.065 -1.7264  0.1000  0.0061
 6911SOL    HW232193   0.472   3.963   0.967 -0.1076  0.8612  0.0089
 6912SOL     OW32194   3.254   4.099   0.014  0.5735  0.0894 -0.2033
 6912SOL    HW132195   3.237   4.192  17.696  1.8442  0.5780  1.4302
 6912SOL    HW232196   3.349   4.095   0.001  0.4820  0.2719 -0.9549
 6913SOL     OW32197   2.261   2.118  14.949  0.7677  0.2118  0.3391
 6913SOL    HW132198   2.295   2.101  14.861 -0.3817 -1.2067  0.1812
 6913SOL    HW232199   2.264   2.214  14.952 -0.8234  0.2730 -0.2936
 6914SOL     OW32200   3.941   0.852   6.353  0.4532  0.2531  0.4295
 6914SOL    HW132201   3.883   0.861   6.277 -1.4767 -0.4137  1.8059
 6914SOL    HW232202   3.944   0.945   6.374 -1.1691  0.2428  0.7105
 6915SOL     OW32203   2.807   3.347   2.902  0.1400  0.0341  0.4209
 6915SOL    HW132204   2.820   3.419   2.964  0.5687 -0.7135  1.2008
 6915SOL    HW232205   2.881   3.352   2.841  0.4407 -0.0809  0.7748
 6916SOL     OW32206   3.290   1.450   5.651 -0.0522  0.4895  0.1816
 6916SOL    HW132207   3.273   1.407   5.567 -0.6412  0.2530  0.4169
 6916SOL    HW232208   3.216   1.413   5.699  0.0320  0.8946  0.6253
 6917SOL     OW32209   4.225   0.608   6.529 -0.0715 -0.0631 -0.9427
 6917SOL    HW132210   4.161   0.550   6.488 -0.8023  1.3161 -1.7285
 6917SOL    HW232211   4.296   0.623   6.467  0.4367 -4.0714 -1.3070
 6918SOL     OW32212   4.133   3.548  10.539 -0.3344  0.3927  0.0300
 6918SOL    HW132213   4.068   3.503  10.486 -0.3273 -1.7868  1.8506
 6918SOL    HW232214   4.093   3.545  10.626  0.8064  2.2944  0.6238
 6919SOL     OW32215   4.493   1.110   6.724 -0.8653 -0.2673 -0.5147
 6919SOL    HW132216   4.509   1.016   6.732  1.9956  0.4579  2.1389
 6919SOL    HW232217   4.407   1.110   6.682 -0.4467 -0.4303 -1.3848
 6920SOL     OW32218   2.080   0.001   8.810  0.4845 -0.2622 -0.1560
 6920SOL    HW132219   2.093   0.053   8.889  1.7975 -0.1779 -0.4223
 6920SOL    HW232220   2.152   4.663   8.826 -1.3297 -3.1047 -2.9948
 6921SOL     OW32221   2.100   1.508  11.583  0.2524  0.1540  0.1023
 6921SOL    HW132222   2.170   1.532  11.522  1.4319 -0.9867  1.0168
 6921SOL    HW232223   2.107   1.589  11.633  1.7354  0.6998 -0.9709
 6922SOL     OW32224   3.677   2.152   3.159  0.1540 -0.8151  0.2346
 6922SOL    HW132225   3.690   2.057   3.151 -2.1111 -1.1963  0.9158
 6922SOL    HW232226   3.723   2.163   3.242  1.0284 -0.2157 -0.3201
 6923SOL     OW32227   2.650   3.526   7.671 -0.4342 -0.0685 -0.3111
 6923SOL    HW132228   2.579   3.490   7.618  0.0898 -0.0244 -1.0280
 6923SOL    HW232229   2.696   3.447   7.700 -2.1608 -1.0585 -0.2600
 6924SOL     OW32230   2.817   1.123   5.900  0.1143  0.3306  0.3268
 6924SOL    HW132231   2.878   1.068   5.948 -0.1858 -0.3839 -0.1073
 6924SOL    HW232232   2.795   1.177   5.976 -2.2759 -0.6366  0.3358
 6925SOL     OW32233   0.872   1.186   6.894 -0.1954 -0.5473 -0.4602
 6925SOL    HW132234   0.910   1.267   6.859  0.8950 -1.1894 -0.7444
 6925SOL    HW232235   0.899   1.198   6.985 -2.1056 -2.7392  0.3783
 6926SOL     OW32236   0.017   3.543   8.769  0.5781  0.8647  0.6391
 6926SOL    HW132237   4.664   3.567   8.717  0.9216  1.1918  0.2798
 6926SOL    HW232238   0.023   3.615   8.832 -1.2041  0.9169  0.7494
 6927SOL     OW32239   1.689   1.992   3.207 -0.4259 -0.2936 -0.0652
 6927SOL    HW132240   1.718   1.908   3.242  1.0523 -0.7782 -2.4745
 6927SOL    HW232241   1.718   1.981   3.116 -1.8397 -2.1231 -0.3037
 6928SOL     OW32242   3.648   0.224  17.487  0.5616 -0.2969  0.0683
 6928SOL    HW132243   3.580   0.231  17.553 -0.8090 -1.4948 -1.2100
 6928SOL    HW232244   3.585   0.212  17.416 -0.6862  0.4487  1.0711
 6929SOL     OW32245   3.995   2.835   6.780 -0.0797  1.0213  0.0291
 6929SOL    HW132246   4.020   2.928   6.777 -0.9847  1.3593  2.1317
 6929SOL    HW232247   4.077   2.789   6.798  0.0154  0.2011 -2.6063
 6930SOL     OW32248   1.321   3.000   1.161  0.3872 -0.0534 -0.4916
 6930SOL    HW132249   1.345   3.063   1.093  1.4585  2.0976  1.8596
 6930SOL    HW232250   1.261   2.947   1.109  0.5612  0.4072 -1.1704
 6931SOL     OW32251   3.134   2.083   8.442  0.1084  0.6673  0.1300
 6931SOL    HW132252   3.148   2.044   8.528 -1.8898 -0.7099 -0.1798
 6931SOL    HW232253   3.039   2.085   8.435  0.0695 -0.3201  0.4048
 6932SOL     OW32254   0.799   3.557   8.793  0.1411 -0.5457 -0.3479
 6932SOL    HW132255   0.732   3.493   8.771 -0.5495  0.4029 -0.9773
 6932SOL    HW232256   0.838   3.567   8.706 -0.1236 -0.3032 -0.4400
 6933SOL     OW32257   2.769   0.168   5.516  0.4096  0.1438  0.2999
 6933SOL    HW132258   2.708   0.175   5.443  0.0842 -0.7983  0.4779
 6933SOL    HW232259   2.858   0.170   5.481  0.3527  3.0735  0.3429
 6934SOL     OW32260   3.282   1.919   7.142  0.0049 -0.1148  0.0043
 6934SOL    HW132261   3.334   1.900   7.063  0.4114  2.1454 -0.2669
 6934SOL    HW232262   3.219   1.985   7.115 -0.7031 -0.5804  0.5074
 6935SOL     OW32263   0.394   1.409   2.911 -0.2346  0.0988 -0.3433
 6935SOL    HW132264   0.321   1.405   2.848 -1.1084  0.3649  0.6478
 6935SOL    HW232265   0.347   1.363   2.980  0.4338  1.6443  1.1497
 6936SOL     OW32266   3.887   0.901   8.160  0.2257  0.4288  0.2773
 6936SOL    HW132267   3.837   0.836   8.208 -1.2691  0.3989 -1.3070
 6936SOL    HW232268   3.929   0.949   8.231  0.4784  2.3011 -1.1338
 6937SOL     OW32269   2.991   2.637  12.929  0.7925  0.2541  0.2710
 6937SOL    HW132270   3.010   2.571  12.862  1.6313  0.3538  0.4123
 6937SOL    HW232271   2.897   2.635  12.945  0.4815  0.5067 -1.5515
 6938SOL     OW32272   0.564   1.595   3.892 -0.1158 -0.0671  0.1628
 6938SOL    HW132273   0.515   1.656   3.947 -1.4252  2.1097 -3.4379
 6938SOL    HW232274   0.580   1.523   3.954  0.0668 -0.6381 -0.5503
 6939SOL     OW32275   3.316   3.126  11.882 -0.8977 -0.5318 -0.4011
 6939SOL    HW132276   3.262   3.197  11.848  0.5004  1.4756  1.5925
 6939SOL    HW232277   3.298   3.057  11.818 -1.1656 -0.9700  0.1553
 6940SOL     OW32278   3.190   0.007   8.581 -0.1325  0.4840  0.2959
 6940SOL    HW132279   3.137   0.030   8.505  0.3702 -1.3789 -0.6163
 6940SOL    HW232280   3.159   4.640   8.587  1.5361 -0.0610  0.7461
 6941SOL     OW32281   4.282   0.226   7.839  0.1851  0.5539 -0.1722
 6941SOL    HW132282   4.273   0.132   7.822  1.1155  0.6515 -1.2036
 6941SOL    HW232283   4.322   0.234   7.925  0.3124 -0.1130 -0.1728
 6942SOL     OW32284   3.148   3.681   5.225  0.2989 -0.5546  0.3655
 6942SOL    HW132285   3.115   3.625   5.155 -0.2942  1.1321 -0.6815
 6942SOL    HW232286   3.072   3.697   5.281  1.1790  2.5570  0.6601
 6943SOL     OW32287   0.559   2.014   5.016  0.6560 -0.2655  0.2389
 6943SOL    HW132288   0.466   1.998   5.002  0.5838  0.1390  0.2420
 6943SOL    HW232289   0.555   2.105   5.047  1.3003 -0.3741  0.6382
 6944SOL     OW32290   0.521   0.364   2.895  0.4842 -0.4354  0.4720
 6944SOL    HW132291   0.585   0.433   2.879  1.5711 -1.2649  1.3151
 6944SOL    HW232292   0.536   0.296   2.829 -1.2695 -1.2028  0.8566
 6945SOL     OW32293   4.289   2.270   8.984  0.5246  0.0700 -0.1831
 6945SOL    HW132294   4.331   2.347   8.945  0.3069 -0.9898 -2.4749
 6945SOL    HW232295   4.197   2.291   8.993  0.9299  0.9149  1.9305
 6946SOL     OW32296   2.660   0.831   5.059 -0.5030 -0.0840  0.0094
 6946SOL    HW132297   2.707   0.820   5.141 -3.9806 -1.9102  1.7478
 6946SOL    HW232298   2.619   0.745   5.049  2.5062 -1.6178  1.1137
 6947SOL     OW32299   0.502   1.204   9.211 -0.5854  0.5792  0.3872
 6947SOL    HW132300   0.470   1.278   9.158  0.9747  0.0885 -1.2338
 6947SOL    HW232301   0.482   1.245   9.295 -0.7639 -0.3910  0.8133
 6948SOL     OW32302   3.535   0.820   6.616  0.0499 -0.1540  0.1763
 6948SOL    HW132303   3.613   0.773   6.586  1.5278  1.4887  1.4280
 6948SOL    HW232304   3.457   0.765   6.607  1.6624 -1.8650 -3.1521
 6949SOL     OW32305   2.629   2.580   5.469 -0.4069  0.2594  0.2568
 6949SOL    HW132306   2.598   2.489   5.473  1.9983 -0.4651  1.8465
 6949SOL    HW232307   2.704   2.573   5.527 -0.2174 -1.0484 -0.1479
 6950SOL     OW32308   1.766   3.926  17.357 -0.4279 -0.2151 -0.0685
 6950SOL    HW132309   1.765   4.020  17.338  0.0422 -0.2050 -0.0406
 6950SOL    HW232310   1.770   3.892  17.268  1.4891 -0.6689  0.1865
 6951SOL     OW32311   3.485   0.743   5.754  0.4244  0.0732  0.0092
 6951SOL    HW132312   3.534   0.795   5.690  1.5088 -0.2547  0.5691
 6951SOL    HW232313   3.527   0.773   5.835 -1.9854  1.1713  0.8435
 6952SOL     OW32314   2.275   0.141   3.969  0.5314  0.1115 -0.6967
 6952SOL    HW132315   2.249   0.222   3.926  0.1369  0.4362  0.1421
 6952SOL    HW232316   2.258   0.082   3.896  1.0249 -1.8650  0.7860
 6953SOL     OW32317   3.569   2.398   2.617 -0.1011 -0.1231 -0.0491
 6953SOL    HW132318   3.619   2.445   2.683  0.9169 -0.6878 -0.4192
 6953SOL    HW232319   3.604   2.431   2.534  0.6192  0.3613  0.4448
 6954SOL     OW32320   3.332   3.939   0.550  0.3825  0.4201  0.1889
 6954SOL    HW132321   3.336   3.853   0.509  2.5826  0.6417 -0.0800
 6954SOL    HW232322   3.345   3.997   0.474  2.1646  0.3151  0.4079
 6955SOL     OW32323   4.377   0.390  11.733  0.0552 -0.0338  0.1052
 6955SOL    HW132324   4.427   0.309  11.747  0.8431  0.1802 -1.4990
 6955SOL    HW232325   4.432   0.445  11.677  0.4911  0.2019  0.7596
 6956SOL     OW32326   1.996   0.612   8.078 -0.0434  0.1303  0.2297
 6956SOL    HW132327   1.999   0.572   8.165  0.2223 -0.0772  0.1242
 6956SOL    HW232328   2.081   0.587   8.042  0.0292 -1.1430  1.2765
 6957SOL     OW32329   1.701   2.687   9.088  0.6461 -0.1191  0.1849
 6957SOL    HW132330   1.650   2.613   9.120 -0.4740 -0.0975 -1.5596
 6957SOL    HW232331   1.761   2.706   9.160 -0.1764 -0.6403  0.9948
 6958SOL     OW32332   0.063   1.845   3.497  0.4060  0.5157 -0.4455
 6958SOL    HW132333   0.150   1.805   3.509 -0.2176 -0.6857  0.1047
 6958SOL    HW232334   0.030   1.853   3.587  0.9352 -1.8407 -0.0348
 6959SOL     OW32335   0.409   1.272   7.987 -0.2578 -0.0754  0.1247
 6959SOL    HW132336   0.424   1.295   7.895 -1.2842 -0.7350 -0.2076
 6959SOL    HW232337   0.323   1.237   7.966 -0.3589 -0.7842  1.7347
 6960SOL     OW32338   3.075   3.670   5.939 -0.3602  0.6909  0.3292
 6960SOL    HW132339   3.024   3.751   5.937  0.5168  1.1798 -2.0257
 6960SOL    HW232340   3.055   3.649   6.031  0.2967 -0.4900  0.2003
 6961SOL     OW32341   4.639   4.035   0.652  0.2999  0.4449 -0.2540
 6961SOL    HW132342   4.630   4.027   0.557 -0.4758  0.2850 -0.1715
 6961SOL    HW232343   4.608   3.949   0.683  1.8042 -0.5873 -1.5903
 6962SOL     OW32344   2.635   3.186  10.789  0.0112 -0.1260 -0.5609
 6962SOL    HW132345   2.723   3.215  10.814 -0.2624  0.9031 -0.7614
 6962SOL    HW232346   2.590   3.271  10.781  0.1649 -0.1466 -1.6605
 6963SOL     OW32347   4.302   0.201  13.108 -0.1289  0.4503  0.0733
 6963SOL    HW132348   4.301   0.196  13.012  0.5194  0.9356  0.0412
 6963SOL    HW232349   4.395   0.217  13.124  0.5733 -0.7564 -2.7911
 6964SOL     OW32350   1.718   4.086   4.453  0.7360  0.1621  0.0278
 6964SOL    HW132351   1.733   4.103   4.360 -2.8361 -0.1709 -0.6130
 6964SOL    HW232352   1.705   3.992   4.464 -1.2365  0.1523 -2.1951
 6965SOL     OW32353   2.142   1.582   6.537 -0.3985  0.0545  0.0894
 6965SOL    HW132354   2.129   1.516   6.605  1.4978 -0.1176  0.2823
 6965SOL    HW232355   2.232   1.608   6.557  0.0207 -1.8639  0.7141
 6966SOL     OW32356   3.115   0.938   2.496 -0.2120 -0.2539  0.5310
 6966SOL    HW132357   3.036   0.986   2.474 -0.1503  0.0506  0.9737
 6966SOL    HW232358   3.120   0.855   2.449  0.9118  0.2014 -0.1784
 6967SOL     OW32359   1.793   2.933   9.272 -0.5376  0.2009 -0.6245
 6967SOL    HW132360   1.888   2.936   9.267 -0.4462  0.2005  0.9450
 6967SOL    HW232361   1.777   3.023   9.301 -0.0454  0.4238 -1.0516
 6968SOL     OW32362   0.910   2.705   6.419  0.0634  0.8865  0.1335
 6968SOL    HW132363   0.820   2.733   6.402 -0.2201 -0.2530 -0.2377
 6968SOL    HW232364   0.958   2.776   6.378  1.6376  0.9960  2.1844
 6969SOL     OW32365   3.787   1.147   8.002  0.1949 -0.4264  0.4727
 6969SOL    HW132366   3.821   1.221   8.053  1.0401 -1.8435  1.9468
 6969SOL    HW232367   3.829   1.071   8.041  2.7775  0.2158 -1.0297
 6970SOL     OW32368   2.637   1.094   0.354 -0.5362  0.1657  0.2288
 6970SOL    HW132369   2.562   1.139   0.316 -0.1243 -0.1669 -0.9723
 6970SOL    HW232370   2.620   1.002   0.336 -0.2876  0.0715  0.4587
 6971SOL     OW32371   3.416   1.495   6.639 -0.5103  0.2142  0.3768
 6971SOL    HW132372   3.510   1.480   6.648 -0.3588  0.4839 -0.8493
 6971SOL    HW232373   3.386   1.411   6.673  0.8065  0.7389  2.8507
 6972SOL     OW32374   2.611   3.066   1.876 -0.1183  0.3481  0.0140
 6972SOL    HW132375   2.654   3.059   1.961 -2.4643  0.2808  1.1668
 6972SOL    HW232376   2.690   3.044   1.825 -0.9579 -0.7914 -0.8111
 6973SOL     OW32377   1.173   3.152   7.175 -0.4127 -0.0419  0.1891
 6973SOL    HW132378   1.222   3.193   7.246 -0.5289 -0.1065  0.3048
 6973SOL    HW232379   1.128   3.229   7.140 -0.1843 -1.0791 -2.4388
 6974SOL     OW32380   0.495   0.906   5.428  0.2052  0.0858  0.2761
 6974SOL    HW132381   0.500   0.970   5.356 -1.9978  0.0282  0.0881
 6974SOL    HW232382   0.401   0.916   5.443  0.2789  1.1644  0.0278
 6975SOL     OW32383   3.964   0.600   5.648  0.5429 -0.3763 -0.3518
 6975SOL    HW132384   3.952   0.523   5.593  0.6223  1.1010 -2.4408
 6975SOL    HW232385   3.935   0.659   5.578  2.2175  0.9820  0.0955
 6976SOL     OW32386   2.576   3.211   4.302  0.1534  0.2028 -0.3803
 6976SOL    HW132387   2.654   3.206   4.356  0.3708 -0.4658 -0.7496
 6976SOL    HW232388   2.514   3.162   4.356 -0.0747  0.1521 -0.6810
 6977SOL     OW32389   0.584   0.684   1.810 -0.2738  0.3715  0.4918
 6977SOL    HW132390   0.655   0.740   1.779  1.6851 -0.8366  2.7465
 6977SOL    HW232391   0.530   0.670   1.733 -2.3272  0.0748  1.9798
 6978SOL     OW32392   0.992   1.603   9.599  0.2182  0.0547 -0.2255
 6978SOL    HW132393   0.986   1.572   9.509  0.3726 -0.2850 -0.1164
 6978SOL    HW232394   0.944   1.535   9.645  0.1154  1.6445  2.0344
 6979SOL     OW32395   0.678   4.421   3.056  0.5728  0.3860  0.5227
 6979SOL    HW132396   0.585   4.401   3.058  0.7787 -0.7708 -0.8841
 6979SOL    HW232397   0.719   4.350   3.006 -0.4554  1.2052 -1.4885
 6980SOL     OW32398   0.144   2.584  15.814  0.3349 -0.3463 -0.5588
 6980SOL    HW132399   0.220   2.640  15.798  0.2804 -0.4719 -1.2721
 6980SOL    HW232400   0.096   2.591  15.731 -2.4217  0.1683  1.0684
 6981SOL     OW32401   3.859   2.847   4.884 -0.2008 -0.1385  0.5504
 6981SOL    HW132402   3.954   2.855   4.870 -0.4375  1.7070  0.0980
 6981SOL    HW232403   3.857   2.864   4.978  0.9332  0.0473  0.5445
 6982SOL     OW32404   0.062   2.457   3.676  0.5319  0.1610 -0.0980
 6982SOL    HW132405   0.022   2.370   3.680 -2.5273  1.5226 -0.8534
 6982SOL    HW232406   0.154   2.442   3.657  0.3773  2.0220 -2.4128
 6983SOL     OW32407   0.505   3.542   7.429 -0.4873 -0.1883  0.5102
 6983SOL    HW132408   0.551   3.493   7.497 -0.1308 -0.6029 -0.0290
 6983SOL    HW232409   0.560   3.523   7.353 -0.4467 -1.5590  0.8868
 6984SOL     OW32410   3.127   0.643  13.012 -0.4506  0.1494 -0.3857
 6984SOL    HW132411   3.063   0.599  13.067 -1.3400  1.5305 -0.3137
 6984SOL    HW232412   3.148   0.590  12.935 -1.5531  0.2018 -0.7245
 6985SOL     OW32413   2.959   1.233   7.783 -0.1685  0.0065  0.4086
 6985SOL    HW132414   2.952   1.298   7.853  1.8241  1.1247 -0.4468
 6985SOL    HW232415   2.871   1.196   7.777 -0.0664  0.2068 -2.2568
 6986SOL     OW32416   0.952   2.396  10.275 -0.0609  0.4873 -0.3000
 6986SOL    HW132417   0.942   2.490  10.290 -2.8938  0.2488 -0.6944
 6986SOL    HW232418   0.865   2.382  10.313  0.0783  0.9182  0.1789
 6987SOL     OW32419   0.346   1.224   5.565 -0.6641  0.4303 -0.3249
 6987SOL    HW132420   0.293   1.197   5.490  0.1416 -1.3802 -0.2384
 6987SOL    HW232421   0.314   1.315   5.569 -0.4963  0.4900 -0.3696
 6988SOL     OW32422   1.491   1.923   9.007  0.2970 -0.4783  0.4025
 6988SOL    HW132423   1.405   1.915   8.966  1.4603  2.2723 -2.5906
 6988SOL    HW232424   1.480   2.011   9.045 -2.3820 -1.2037  1.3103
 6989SOL     OW32425   2.257   2.191   8.703  0.1718 -1.0022  0.4644
 6989SOL    HW132426   2.244   2.243   8.783 -1.3667 -0.0998 -0.3545
 6989SOL    HW232427   2.242   2.102   8.736  0.2552 -0.9542  0.6291
 6990SOL     OW32428   0.728   3.422  13.185 -0.4060 -0.1245  0.5848
 6990SOL    HW132429   0.809   3.390  13.146 -0.8849  0.0166 -0.5310
 6990SOL    HW232430   0.749   3.511  13.213 -0.3148 -0.1429  0.5757
 6991SOL     OW32431   1.246   3.717   4.880  0.1565  0.3610 -0.2582
 6991SOL    HW132432   1.330   3.698   4.923 -0.8356  1.5504  2.1947
 6991SOL    HW232433   1.193   3.716   4.960  1.0684  1.1723  0.3635
 6992SOL     OW32434   4.655   3.405   7.822 -0.2945  0.5436  0.5046
 6992SOL    HW132435   4.584   3.391   7.759  0.0297  0.7683  0.0889
 6992SOL    HW232436   4.624   3.351   7.895  0.7417 -3.0746 -1.7325
 6993SOL     OW32437   0.081   2.135   4.514  0.6317  0.3141 -0.4423
 6993SOL    HW132438   0.035   2.209   4.474 -0.1801 -0.2180 -0.4837
 6993SOL    HW232439   0.093   2.087   4.432 -1.1698  0.9931 -1.1142
 6994SOL     OW32440   3.502   0.444   0.448  0.0698 -0.4615  0.3517
 6994SOL    HW132441   3.541   0.513   0.394  0.1423 -0.4115  0.4673
 6994SOL    HW232442   3.569   0.422   0.513 -1.2759  0.3880  2.0525
 6995SOL     OW32443   3.955   1.303   3.357  0.1940  0.1065 -0.2119
 6995SOL    HW132444   3.966   1.396   3.336  1.3533 -0.2086 -1.0050
 6995SOL    HW232445   4.013   1.261   3.293 -0.2317  1.4402 -1.4829
 6996SOL     OW32446   0.276   2.595   5.401 -0.8906  0.2511  0.5907
 6996SOL    HW132447   0.339   2.561   5.338  0.8414  1.9475  1.3783
 6996SOL    HW232448   0.263   2.684   5.367 -1.0925  0.5795  1.5012
 6997SOL     OW32449   0.600   4.202   0.547  0.1648 -0.6748 -0.7521
 6997SOL    HW132450   0.551   4.278   0.577  2.6105 -0.4372  2.6605
 6997SOL    HW232451   0.535   4.152   0.497 -0.1905  1.7083 -2.6710
 6998SOL     OW32452   3.534   3.161   6.064  0.4730 -0.3532 -0.2221
 6998SOL    HW132453   3.528   3.239   6.119  0.3283  0.0433 -0.8028
 6998SOL    HW232454   3.471   3.185   5.996  0.5076  2.3279  0.7194
 6999SOL     OW32455   0.122   4.085   8.098 -0.2845  0.3613  0.2728
 6999SOL    HW132456   0.060   4.075   8.026 -1.3189 -0.3534  1.2581
 6999SOL    HW232457   0.077   4.042   8.171 -1.1148  1.6452  0.5029
 7000SOL     OW32458   0.814   0.668   3.402  1.1359  0.8146  0.5481
 7000SOL    HW132459   0.829   0.660   3.308 -2.5441  0.7219 -0.0422
 7000SOL    HW232460   0.883   0.609   3.433  2.5504  2.6432  0.8462
 7001SOL     OW32461   3.940   2.226   9.284 -0.1877 -0.2194 -0.2187
 7001SOL    HW132462   3.914   2.318   9.278  0.4399 -0.1311 -1.6567
 7001SOL    HW232463   4.032   2.239   9.309 -1.1315  0.6237  2.8284
 7002SOL     OW32464   0.833   2.902   5.257 -0.4722  0.2356  0.4207
 7002SOL    HW132465   0.893   2.854   5.200 -2.0738 -1.6788  0.3261
 7002SOL    HW232466   0.870   2.990   5.253 -1.2486  0.5936  1.0722
 7003SOL     OW32467   0.847   4.215   7.947 -0.5362  0.7537  0.6960
 7003SOL    HW132468   0.757   4.186   7.932 -0.3728  1.3261 -1.3419
 7003SOL    HW232469   0.878   4.215   7.856  0.0799  1.7221  0.9034
 7004SOL     OW32470   3.293   3.949   3.907  0.7018 -0.7660  0.4893
 7004SOL    HW132471   3.277   3.918   3.818 -1.1314  2.6145 -0.3756
 7004SOL    HW232472   3.226   3.904   3.959  0.5031 -0.9536  0.0712
 7005SOL     OW32473   1.818   3.773  10.096 -0.1789  0.1859  0.0182
 7005SOL    HW132474   1.861   3.691  10.117  1.5404  1.1979  0.4536
 7005SOL    HW232475   1.871   3.827  10.155 -1.6364  1.1790  0.4321
 7006SOL     OW32476   2.959   1.276   2.071  0.0565  0.2463  0.1185
 7006SOL    HW132477   3.025   1.335   2.109  2.6854 -2.1420 -0.7518
 7006SOL    HW232478   2.885   1.336   2.082  1.3893  1.7573  0.9889
 7007SOL     OW32479   2.859   1.228   2.653  0.5514 -0.7737 -0.1859
 7007SOL    HW132480   2.764   1.218   2.643  0.1773  2.6071 -0.1782
 7007SOL    HW232481   2.889   1.285   2.583  0.7046 -0.6377 -0.0085
 7008SOL     OW32482   2.997   3.976   5.971 -0.0651  0.1647  0.0421
 7008SOL    HW132483   2.921   3.938   5.928 -1.1011  2.8689 -0.5516
 7008SOL    HW232484   2.962   4.048   6.024  1.4452  0.5138  0.5740
 7009SOL     OW32485   2.826   3.017   7.456  0.4605  0.4830 -0.0629
 7009SOL    HW132486   2.787   3.083   7.399 -1.4115 -0.5822 -0.0187
 7009SOL    HW232487   2.753   2.956   7.447  0.0469  0.7966  1.1921
 7010SOL     OW32488   2.440   0.099   9.100  0.3320 -0.3892  0.3931
 7010SOL    HW132489   2.476   0.069   9.184  0.3776 -0.6181  0.2899
 7010SOL    HW232490   2.351   0.119   9.129 -0.2515 -1.2463 -0.8297
 7011SOL     OW32491   2.873   0.048   6.264 -0.0533  0.2513 -0.0898
 7011SOL    HW132492   2.924   4.702   6.223  0.0700  1.2881 -1.7017
 7011SOL    HW232493   2.887   0.114   6.196  1.4436  1.3602  1.2954
 7012SOL     OW32494   4.336   2.006   2.478  0.3383  0.4731 -0.4281
 7012SOL    HW132495   4.424   1.969   2.488  0.9836  2.2766  0.6239
 7012SOL    HW232496   4.305   1.954   2.404 -0.3005  0.4675 -0.1603
 7013SOL     OW32497   3.348   1.640  17.434 -0.0760  0.1709  0.2328
 7013SOL    HW132498   3.336   1.612  17.525  1.0504 -1.3389 -0.0887
 7013SOL    HW232499   3.383   1.728  17.448  1.5004 -0.5124  0.6125
 7014SOL     OW32500   0.130   2.083  15.276  0.7299  0.2781  0.1748
 7014SOL    HW132501   0.187   2.140  15.224 -0.3520  2.0885  0.9676
 7014SOL    HW232502   0.049   2.089  15.226  0.6316 -1.9856  0.0647
 7015SOL     OW32503   2.723   4.533  11.182 -0.0503 -0.3038 -0.7557
 7015SOL    HW132504   2.735   4.612  11.235 -1.5974 -1.7070  1.7254
 7015SOL    HW232505   2.775   4.548  11.103  1.7553 -2.3442  0.0394
 7016SOL     OW32506   0.481   4.583   2.897 -0.5565  0.0292  0.0708
 7016SOL    HW132507   0.535   4.619   2.827 -0.6820 -2.8734 -1.5473
 7016SOL    HW232508   0.526   4.610   2.977  0.4330  0.1139 -0.5139
 7017SOL     OW32509   4.272   2.353   1.362  0.6041  0.1917  0.0689
 7017SOL    HW132510   4.242   2.304   1.438  2.3127  0.4570  0.9282
 7017SOL    HW232511   4.353   2.308   1.338  0.4081 -0.4958  0.6969
 7018SOL     OW32512   2.997   3.301  16.733  0.5936  0.7011  0.1139
 7018SOL    HW132513   2.921   3.352  16.705 -1.1639 -0.6800  2.3732
 7018SOL    HW232514   3.065   3.333  16.674  0.3353 -2.0027 -1.6557
 7019SOL     OW32515   3.768   1.788   3.438  0.5305  0.3870 -0.2059
 7019SOL    HW132516   3.728   1.729   3.374  0.3509  0.3150 -0.0270
 7019SOL    HW232517   3.833   1.729   3.478  0.8775  1.7615  1.2722
 7020SOL     OW32518   3.502   2.868   5.139 -0.0315 -0.4488  0.6118
 7020SOL    HW132519   3.499   2.819   5.057 -2.3322  2.2940 -0.9687
 7020SOL    HW232520   3.408   2.881   5.153  0.0751  0.6834  0.3292
 7021SOL     OW32521   2.155   1.150  12.092  0.4003 -0.3258 -0.4847
 7021SOL    HW132522   2.124   1.091  12.161  1.7904 -1.0106 -0.4370
 7021SOL    HW232523   2.226   1.097  12.056  0.6714  0.7665 -1.5373
 7022SOL     OW32524   3.654   2.585  16.092 -0.3059  0.3282  0.2565
 7022SOL    HW132525   3.713   2.556  16.162 -1.3387  0.3731  1.1407
 7022SOL    HW232526   3.692   2.663  16.052 -0.8589  0.5175  0.1067
 7023SOL     OW32527   1.380   4.542   7.500 -0.2221  0.3360  0.0910
 7023SOL    HW132528   1.370   4.493   7.418 -0.6704  0.6760 -0.0542
 7023SOL    HW232529   1.452   4.488   7.533 -0.1317  0.4779  0.1270
 7024SOL     OW32530   3.033   4.489   4.862  0.1083  0.3428  0.2726
 7024SOL    HW132531   3.061   4.418   4.804 -0.1304 -0.4990  1.2017
 7024SOL    HW232532   3.110   4.546   4.859  1.4244 -1.4369  0.2846
 7025SOL     OW32533   2.966   4.565   7.659 -0.2033  0.0026 -0.1829
 7025SOL    HW132534   2.880   4.558   7.617 -0.5167 -1.0286  0.6072
 7025SOL    HW232535   3.011   4.494   7.613  0.9538  1.3512 -1.1108
 7026SOL     OW32536   3.395   2.890   0.139 -0.3874  0.6321  0.0051
 7026SOL    HW132537   3.351   2.971   0.111 -1.6547  0.6272  2.0455
 7026SOL    HW232538   3.486   2.913   0.122 -0.0047 -0.7785  0.2081
 7027SOL     OW32539   3.237   3.697  15.454  0.3377  0.0265  0.3143
 7027SOL    HW132540   3.299   3.767  15.434 -1.1293  1.1074 -0.4885
 7027SOL    HW232541   3.277   3.662  15.533  2.4929  0.1412 -0.7290
 7028SOL     OW32542   0.649   3.978   2.881  0.4314  0.4704  0.0973
 7028SOL    HW132543   0.559   4.009   2.870  0.0604 -0.1959  1.2146
 7028SOL    HW232544   0.636   3.964   2.975  1.1117 -0.7547  0.0067
 7029SOL     OW32545   3.526   4.710   3.625 -0.2573 -0.5626  0.7031
 7029SOL    HW132546   3.610   4.670   3.599 -0.6436  0.2598 -1.8725
 7029SOL    HW232547   3.563   0.065   3.665  1.7572 -1.3771  0.4433
 7030SOL     OW32548   2.088   1.663   2.289 -0.1983 -0.2328 -0.2694
 7030SOL    HW132549   2.032   1.586   2.303 -0.2725 -0.3838 -1.3732
 7030SOL    HW232550   2.140   1.667   2.369  1.7653  1.6440 -1.6393
 7031SOL     OW32551   4.389   4.458  14.057 -0.3344 -0.0731 -0.2648
 7031SOL    HW132552   4.483   4.475  14.047 -0.1731 -0.2281  0.9510
 7031SOL    HW232553   4.362   4.519  14.125  0.5983  0.6515 -0.5389
 7032SOL     OW32554   0.657   4.576   1.873 -0.2127  0.2903  0.2227
 7032SOL    HW132555   0.627   4.663   1.896 -1.1448 -0.3407  1.3509
 7032SOL    HW232556   0.621   4.563   1.785 -1.6472 -2.7250  1.2578
 7033SOL     OW32557   4.294   2.870   5.310 -0.7245  0.7105  0.2364
 7033SOL    HW132558   4.233   2.801   5.286 -1.1750  1.5187 -0.9443
 7033SOL    HW232559   4.376   2.820   5.303 -1.4876 -0.7026  1.5499
 7034SOL     OW32560   0.543   1.620   8.099 -0.0947  0.0469  0.4865
 7034SOL    HW132561   0.453   1.594   8.119 -0.9876  2.1061 -0.9184
 7034SOL    HW232562   0.599   1.542   8.098 -1.1135 -0.6871 -0.1618
 7035SOL     OW32563   1.969   2.941   1.625  0.0851 -0.1858 -0.5153
 7035SOL    HW132564   1.952   3.035   1.631  0.8630 -0.1003  0.2893
 7035SOL    HW232565   1.879   2.910   1.624  0.6687 -1.7871 -2.6608
 7036SOL     OW32566   0.881   4.182  10.964 -0.0442  0.0285 -0.2830
 7036SOL    HW132567   0.824   4.134  10.903  0.8001 -0.5654 -0.6093
 7036SOL    HW232568   0.961   4.191  10.912  0.9864 -0.8108  1.1759
 7037SOL     OW32569   3.602   3.623   7.348  0.6870 -0.5460  0.1746
 7037SOL    HW132570   3.671   3.573   7.392  0.0845 -1.0132  0.6007
 7037SOL    HW232571   3.625   3.633   7.256  2.5110 -1.4150  0.5289
 7038SOL     OW32572   1.663   1.111   6.709 -0.0661 -0.1660 -0.2806
 7038SOL    HW132573   1.710   1.050   6.653  1.6122  0.3197  0.6090
 7038SOL    HW232574   1.611   1.166   6.651 -1.2148 -0.3134  0.5939
 7039SOL     OW32575   1.597   4.573   2.254  0.4236  0.3835  0.3541
 7039SOL    HW132576   1.617   4.589   2.346  5.0486 -0.2833 -0.5368
 7039SOL    HW232577   1.605   4.661   2.215  0.7718  0.3891  0.4369
 7040SOL     OW32578   1.900   2.250   8.589  0.2225  0.2524 -0.0730
 7040SOL    HW132579   1.948   2.324   8.627  0.3635  0.3620 -0.4642
 7040SOL    HW232580   1.925   2.176   8.644  2.0209  2.0632  1.5940
 7041SOL     OW32581   4.072   4.625   5.691 -0.1149  0.7364 -0.1476
 7041SOL    HW132582   4.029   4.707   5.669 -0.3719  0.2112 -1.6757
 7041SOL    HW232583   4.084   4.643   5.784 -3.7886  1.2439  0.2335
 7042SOL     OW32584   1.509   4.615   7.862 -0.3388  0.2288 -0.6995
 7042SOL    HW132585   1.492   4.645   7.951 -0.4844  0.3048 -0.7531
 7042SOL    HW232586   1.543   4.526   7.870 -0.9582  0.0905  0.3649
 7043SOL     OW32587   3.633   1.473  16.143 -0.0716  0.1433 -0.1955
 7043SOL    HW132588   3.580   1.547  16.172  1.6586  1.6796 -1.0059
 7043SOL    HW232589   3.657   1.426  16.223  0.1470 -0.5555 -0.6645
 7044SOL     OW32590   3.476   2.762   0.445  0.3315 -0.1864 -0.3535
 7044SOL    HW132591   3.523   2.838   0.410  1.0363  0.2556  1.5378
 7044SOL    HW232592   3.452   2.799   0.530  1.2782 -0.3721 -0.0078
 7045SOL     OW32593   2.755   1.576  13.319 -0.1287 -0.4957 -0.7257
 7045SOL    HW132594   2.705   1.599  13.397  1.7312  2.8331 -0.5080
 7045SOL    HW232595   2.744   1.657  13.269  1.3559 -0.5213 -1.1133
 7046SOL     OW32596   3.182   3.795   2.615 -0.2754  0.3829  1.0974
 7046SOL    HW132597   3.124   3.857   2.570 -1.3306 -1.2853  0.1529
 7046SOL    HW232598   3.258   3.832   2.570 -1.1216  0.7757 -0.0122
 7047SOL     OW32599   1.123   3.915  10.984 -0.4694 -0.4770 -0.0810
 7047SOL    HW132600   1.116   3.873  10.898 -1.1525 -2.7377  1.0659
 7047SOL    HW232601   1.039   3.883  11.020  0.4357 -2.2100  0.4861
 7048SOL     OW32602   0.860   1.611   1.392  0.2666  0.4571 -1.0501
 7048SOL    HW132603   0.824   1.549   1.329  0.3050 -0.1854 -0.4373
 7048SOL    HW232604   0.837   1.692   1.347 -0.1437  0.1008 -1.4839
 7049SOL     OW32605   4.032   0.668   3.852  0.3659  0.9586  0.7464
 7049SOL    HW132606   4.020   0.669   3.757  3.9612  1.7592  0.3095
 7049SOL    HW232607   3.945   0.694   3.883  0.7788  3.1144  0.1084
 7050SOL     OW32608   4.404   1.192  11.185 -0.0972  0.2065  0.7454
 7050SOL    HW132609   4.345   1.201  11.261  0.5749  1.2764  1.1449
 7050SOL    HW232610   4.483   1.238  11.213 -0.7477  2.0440 -0.4330
 7051SOL     OW32611   0.561   2.062   6.687  0.0207 -0.0251 -0.4757
 7051SOL    HW132612   0.540   2.056   6.780 -0.9958 -4.6592 -1.0082
 7051SOL    HW232613   0.628   2.130   6.685 -0.3237  0.3185 -0.2944
 7052SOL     OW32614   0.249   0.087  17.493  0.4934  0.5257 -0.0464
 7052SOL    HW132615   0.208   0.165  17.529 -0.9969 -0.1447 -0.2787
 7052SOL    HW232616   0.229   0.031  17.569 -2.5553  1.2896 -0.2877
 7053SOL     OW32617   4.676   1.047   3.579  0.1504 -0.0825 -0.2901
 7053SOL    HW132618   4.668   1.103   3.501  0.0414  0.7297  0.2983
 7053SOL    HW232619   4.703   1.111   3.644  0.2479 -0.5382  0.1129
 7054SOL     OW32620   0.761   2.889   2.508  0.4201 -0.4913 -0.0730
 7054SOL    HW132621   0.777   2.896   2.602 -1.3647  0.1804  0.1854
 7054SOL    HW232622   0.762   2.793   2.511  0.6481 -0.4996 -0.3610
 7055SOL     OW32623   3.936   3.968   5.604  0.0477 -0.1958 -0.0241
 7055SOL    HW132624   3.920   3.935   5.692 -2.8013  0.3989 -0.3351
 7055SOL    HW232625   3.965   3.885   5.566  0.2366  0.6956 -1.8021
 7056SOL     OW32626   2.318   0.560  10.396 -0.4089 -0.0583 -0.0982
 7056SOL    HW132627   2.413   0.551  10.402 -0.3330 -1.2332 -3.2434
 7056SOL    HW232628   2.285   0.538  10.483  1.8819 -0.7909  0.5853
 7057SOL     OW32629   0.024   1.741   1.725  0.6301  0.0487  0.0147
 7057SOL    HW132630   4.663   1.703   1.751 -0.3265  1.3150 -1.2694
 7057SOL    HW232631   0.026   1.822   1.775  1.1987  0.1764 -0.2134
 7058SOL     OW32632   0.702   4.119  14.733  0.0411  0.2376  0.7612
 7058SOL    HW132633   0.706   4.120  14.828  1.8481  1.7888  0.6678
 7058SOL    HW232634   0.792   4.095  14.710 -0.4782 -1.9126  0.8955
 7059SOL     OW32635   1.269   0.125   6.568 -1.0269  0.2315  0.5605
 7059SOL    HW132636   1.187   0.142   6.522 -0.6101 -0.3631 -0.3998
 7059SOL    HW232637   1.328   0.154   6.498 -0.5189 -0.9247  0.5006
 7060SOL     OW32638   1.048   0.636   8.843  0.0585 -0.3063  0.5126
 7060SOL    HW132639   1.100   0.596   8.773  2.6573  2.0174  1.0973
 7060SOL    HW232640   1.123   0.653   8.900  0.6145  1.3400 -0.6817
 7061SOL     OW32641   1.652   3.741   9.292  0.0720 -0.0294  0.0720
 7061SOL    HW132642   1.690   3.716   9.377 -0.3045  1.5792  0.7273
 7061SOL    HW232643   1.632   3.831   9.318 -0.9337 -0.7425  1.7961
 7062SOL     OW32644   0.792   4.215   7.018 -0.1277  0.0995 -0.5958
 7062SOL    HW132645   0.766   4.303   6.989  0.2549 -0.2660 -2.0563
 7062SOL    HW232646   0.879   4.208   6.980 -0.5936  1.4223 -1.9323
 7063SOL     OW32647   0.802   0.164   4.201 -0.0510 -0.5425 -1.1831
 7063SOL    HW132648   0.792   0.070   4.183  0.5957 -1.0873  1.3207
 7063SOL    HW232649   0.842   0.159   4.288  1.0647 -1.2956 -1.7379
 7064SOL     OW32650   3.094   3.143  11.594  0.2564 -0.4624 -0.1319
 7064SOL    HW132651   3.043   3.063  11.582 -0.0203 -0.0525 -1.8192
 7064SOL    HW232652   3.032   3.195  11.644  1.5648 -0.2781  1.2931
 7065SOL     OW32653   4.256   3.839   6.392  0.2276  0.1008  0.3717
 7065SOL    HW132654   4.186   3.884   6.438  1.2659 -0.1014  2.1365
 7065SOL    HW232655   4.310   3.911   6.359  0.7416 -0.7701 -0.6905
 7066SOL     OW32656   4.096   1.595   1.628 -0.3831  0.2285 -0.0524
 7066SOL    HW132657   4.178   1.621   1.586 -0.0070  3.0955  2.4517
 7066SOL    HW232658   4.033   1.618   1.560 -0.0117  0.3872 -0.3422
 7067SOL     OW32659   3.455   2.444  10.618 -0.4362  0.1290 -0.1362
 7067SOL    HW132660   3.537   2.494  10.622  1.5572 -3.0727  0.0721
 7067SOL    HW232661   3.481   2.390  10.543 -0.3223  1.5309 -1.1022
 7068SOL     OW32662   4.175   2.752  16.150  0.4154  0.3319 -0.0546
 7068SOL    HW132663   4.130   2.734  16.232  2.5433 -0.1828  1.0002
 7068SOL    HW232664   4.174   2.847  16.139  1.8767  0.3838  0.1953
 7069SOL     OW32665   3.024   2.860   6.855  0.1962 -0.1952 -0.1639
 7069SOL    HW132666   3.096   2.922   6.867 -1.8888  2.4467 -1.3192
 7069SOL    HW232667   3.052   2.818   6.773  0.9345 -1.2354  0.6147
 7070SOL     OW32668   2.872   1.585   8.723  0.2285  0.6027 -0.4798
 7070SOL    HW132669   2.888   1.605   8.815 -2.6149 -1.5433  0.4769
 7070SOL    HW232670   2.918   1.653   8.674  1.1586  1.0816  1.0603
 7071SOL     OW32671   1.440   3.816   3.657 -0.1087  0.7292  0.3075
 7071SOL    HW132672   1.431   3.848   3.567  0.5149  0.6443  0.2131
 7071SOL    HW232673   1.536   3.822   3.662  0.0327 -2.4591  1.1848
 7072SOL     OW32674   3.323   2.654  14.731 -0.6062  0.5566  0.1816
 7072SOL    HW132675   3.351   2.730  14.679  0.0106 -1.0619 -1.8435
 7072SOL    HW232676   3.399   2.597  14.721 -2.4443 -1.8221 -0.3449
 7073SOL     OW32677   2.369   2.954   1.648 -0.2066  0.0510  0.2121
 7073SOL    HW132678   2.377   3.029   1.707  1.5404 -1.4769  1.8987
 7073SOL    HW232679   2.430   2.965   1.575  2.0062  1.0945  2.2036
 7074SOL     OW32680   2.330   0.264   5.463  0.1625  0.2124  0.4048
 7074SOL    HW132681   2.359   0.204   5.394 -1.4544  1.7298 -1.6277
 7074SOL    HW232682   2.261   0.213   5.505 -0.3837  0.8321  0.2648
 7075SOL     OW32683   0.552   2.199   7.146 -0.1334  0.6640 -0.2485
 7075SOL    HW132684   0.528   2.132   7.210 -0.8535  1.1082 -0.0497
 7075SOL    HW232685   0.534   2.283   7.188  0.8863  0.4400  0.6227
 7076SOL     OW32686   1.781   1.725   7.453  0.7826  0.4290 -0.0039
 7076SOL    HW132687   1.823   1.736   7.538  0.7536 -0.6258  0.1421
 7076SOL    HW232688   1.826   1.800   7.412 -0.6665  1.5529  0.4736
 7077SOL     OW32689   3.953   4.073   4.380 -0.6671  0.0533 -0.2511
 7077SOL    HW132690   4.049   4.079   4.374 -0.5224 -2.2798 -0.2597
 7077SOL    HW232691   3.929   4.107   4.294 -0.6357 -0.7354 -0.5801
 7078SOL     OW32692   1.870   2.221  17.004 -0.5768  0.2532  0.2399
 7078SOL    HW132693   1.818   2.254  17.077 -0.8076  0.6953 -0.1293
 7078SOL    HW232694   1.806   2.224  16.933 -0.5517 -1.5560  0.1382
 7079SOL     OW32695   3.751   3.616   9.585 -0.0706  0.0992 -0.1412
 7079SOL    HW132696   3.728   3.638   9.676  0.2887  1.8250 -0.4596
 7079SOL    HW232697   3.837   3.589   9.615  0.7941  2.7945 -0.1480
 7080SOL     OW32698   3.594   4.437  15.128  0.0151  0.4541 -0.1106
 7080SOL    HW132699   3.565   4.395  15.209 -1.3893  2.3724  0.3968
 7080SOL    HW232700   3.513   4.478  15.098 -1.7689 -3.3875 -0.5717
 7081SOL     OW32701   3.784   2.959   7.360  0.7422  0.1691 -0.2414
 7081SOL    HW132702   3.794   2.878   7.410 -3.2316 -0.1295  0.0262
 7081SOL    HW232703   3.689   2.955   7.367  0.7800 -0.8123 -0.3468
 7082SOL     OW32704   1.070   3.177   3.931 -0.0927  0.3788  0.1314
 7082SOL    HW132705   1.114   3.250   3.888  1.8927 -1.3565 -0.7647
 7082SOL    HW232706   1.089   3.201   4.021  1.2618 -0.9042  0.1794
 7083SOL     OW32707   2.292   3.534   0.187  0.1100 -0.1239 -0.7903
 7083SOL    HW132708   2.209   3.570   0.155 -1.1532 -0.2107  2.3567
 7083SOL    HW232709   2.339   3.611   0.218 -2.8355  0.2229  2.9063
 7084SOL     OW32710   0.437   4.127   2.842 -0.1675 -0.1047 -0.4344
 7084SOL    HW132711   0.345   4.138   2.821 -0.9068 -2.2312  1.7635
 7084SOL    HW232712   0.475   4.212   2.819 -2.9061  0.9785 -0.9225
 7085SOL     OW32713   2.509   1.509   1.799  0.2553  0.1849  0.0818
 7085SOL    HW132714   2.496   1.564   1.877 -1.7940 -2.1899  1.3907
 7085SOL    HW232715   2.603   1.518   1.784 -0.1109  1.0892 -1.6531
 7086SOL     OW32716   0.361   3.035  16.731 -0.2587  0.3442 -0.1318
 7086SOL    HW132717   0.274   3.059  16.699 -0.9687  1.8946  2.9421
 7086SOL    HW232718   0.388   2.963  16.675  0.7291  1.5738 -1.2346
 7087SOL     OW32719   2.772   1.581   4.665  0.0622  0.1958  0.6600
 7087SOL    HW132720   2.840   1.628   4.713  0.9361  0.7815 -1.1386
 7087SOL    HW232721   2.823   1.511   4.625 -1.4947  1.2858 -3.2710
 7088SOL     OW32722   3.763   3.246   6.879 -0.4892  0.2942 -0.1655
 7088SOL    HW132723   3.677   3.205   6.867 -1.1182  0.9937  1.9803
 7088SOL    HW232724   3.793   3.197   6.956  1.2381  0.4386 -0.7406
 7089SOL     OW32725   0.944   2.206   2.299  0.1077 -0.1235  0.2906
 7089SOL    HW132726   0.947   2.117   2.334 -2.5495 -1.3480 -2.6875
 7089SOL    HW232727   1.038   2.223   2.290 -0.4062  3.0520  1.0683
 7090SOL     OW32728   2.406   3.523   2.417  0.0805 -0.0262 -0.2749
 7090SOL    HW132729   2.337   3.584   2.393  0.8388  1.0107  0.2078
 7090SOL    HW232730   2.479   3.562   2.369 -1.2727  0.3103 -2.0415
 7091SOL     OW32731   2.319   3.081  10.107  0.7163 -0.0411 -0.4104
 7091SOL    HW132732   2.269   3.161  10.124 -1.1985 -1.2609 -0.3730
 7091SOL    HW232733   2.320   3.040  10.194 -1.2281 -2.0693 -1.3480
 7092SOL     OW32734   2.605   0.091  16.190  0.6276  0.1632 -0.0177
 7092SOL    HW132735   2.695   0.110  16.219  0.1453 -1.2730  2.3782
 7092SOL    HW232736   2.559   0.174  16.200  1.3764  0.6448 -0.5549
 7093SOL     OW32737   1.078   0.830   3.222 -0.6283 -0.0115  0.1586
 7093SOL    HW132738   1.006   0.833   3.160  0.3348 -1.1382 -0.9983
 7093SOL    HW232739   1.141   0.765   3.193 -2.4308 -2.0149  0.7281
 7094SOL     OW32740   1.059   3.664   8.813 -0.2212  0.3921 -0.1658
 7094SOL    HW132741   1.016   3.581   8.833  0.9563  0.1713  1.5227
 7094SOL    HW232742   1.015   3.716   8.881  1.2051  0.6395  0.5800
 7095SOL     OW32743   3.044   0.090   8.352  0.0327 -0.1578 -0.0875
 7095SOL    HW132744   3.075   0.165   8.300 -0.0554  0.2122  0.3964
 7095SOL    HW232745   2.951   0.109   8.360 -0.7379 -3.4952 -1.1700
 7096SOL     OW32746   3.293   1.128   1.249  0.1655 -0.2986 -0.4074
 7096SOL    HW132747   3.268   1.037   1.265  1.5637 -0.3524  1.5440
 7096SOL    HW232748   3.233   1.162   1.183 -1.1541 -0.3316  0.7979
 7097SOL     OW32749   2.286   1.529   8.454  0.3564 -0.3310  0.6929
 7097SOL    HW132750   2.327   1.555   8.536 -0.1625  1.2705  0.4554
 7097SOL    HW232751   2.361   1.491   8.409 -0.6437 -1.1893 -0.2618
 7098SOL     OW32752   4.069   3.214   6.348 -0.2820 -0.0365 -0.6331
 7098SOL    HW132753   4.036   3.182   6.264 -0.2642 -0.2387 -0.5634
 7098SOL    HW232754   4.055   3.137   6.403 -1.1515  1.4697  1.2751
 7099SOL     OW32755   1.452   3.172  12.051 -0.5014  0.7144 -0.2053
 7099SOL    HW132756   1.364   3.135  12.052 -0.8632  1.6305  2.7986
 7099SOL    HW232757   1.430   3.266  12.054 -2.2192  0.3455 -1.7850
 7100SOL     OW32758   3.927   1.981   2.296  0.4119 -0.9155  0.8551
 7100SOL    HW132759   3.922   2.068   2.256 -0.3951 -1.5877 -0.5410
 7100SOL    HW232760   3.918   1.923   2.220  1.6996  0.4698 -0.3441
 7101SOL     OW32761   3.172   0.808   1.159  0.8904 -0.3051  0.0809
 7101SOL    HW132762   3.153   0.868   1.087 -1.9045 -0.7984  0.4115
 7101SOL    HW232763   3.088   0.779   1.194 -0.1442  0.5534 -1.7284
 7102SOL     OW32764   4.718   2.351   2.087 -0.0612  0.2767 -0.0695
 7102SOL    HW132765   4.632   2.391   2.073 -0.1222  0.2277  0.1651
 7102SOL    HW232766   0.048   2.421   2.052 -0.5254  0.3700 -0.5936
 7103SOL     OW32767   3.403   3.437   7.681  0.0412 -0.2733 -0.6293
 7103SOL    HW132768   3.487   3.395   7.699  0.7854  2.0403  1.3037
 7103SOL    HW232769   3.397   3.440   7.585  0.1955 -1.8029 -0.6872
 7104SOL     OW32770   1.559   3.455   8.376 -0.2829  0.0642 -0.2512
 7104SOL    HW132771   1.471   3.492   8.384  0.4012  1.8258 -0.9310
 7104SOL    HW232772   1.616   3.509   8.431 -1.8410  0.1413  1.2963
 7105SOL     OW32773   2.541   2.026   5.244  0.0196  0.6763  0.2693
 7105SOL    HW132774   2.576   2.104   5.200 -1.2016  0.4483 -1.1167
 7105SOL    HW232775   2.585   2.024   5.329  0.4429  0.1469  0.0371
 7106SOL     OW32776   1.797   2.203   8.918  0.2056  0.4278  0.6080
 7106SOL    HW132777   1.751   2.210   8.834 -1.0345 -0.7439  1.1962
 7106SOL    HW232778   1.854   2.127   8.905 -1.4718 -0.5735 -0.8657
 7107SOL     OW32779   4.617   3.522  15.892  1.0449  0.5621 -0.0211
 7107SOL    HW132780   4.534   3.568  15.876 -0.4018 -1.5628  1.2881
 7107SOL    HW232781   4.591   3.442  15.847  1.8424 -0.5122  1.4296
 7108SOL     OW32782   3.987   3.915   7.221  0.0602 -0.4438  0.0091
 7108SOL    HW132783   4.071   3.891   7.181 -0.1012 -0.3014 -0.4136
 7108SOL    HW232784   3.926   3.904   7.148 -0.0239  0.9809 -0.1296
 7109SOL     OW32785   2.444   0.395   1.777  0.7958  0.6631  0.5064
 7109SOL    HW132786   2.373   0.356   1.727  0.0461 -0.8065  2.7169
 7109SOL    HW232787   2.475   0.452   1.707 -1.4908  0.4065 -0.6985
 7110SOL     OW32788   2.679   2.113   3.367  0.4557  0.0862 -0.2185
 7110SOL    HW132789   2.747   2.128   3.433  1.3755 -1.5496 -0.8030
 7110SOL    HW232790   2.728   2.055   3.309  2.2365 -0.1920  1.5744
 7111SOL     OW32791   3.971   2.814   7.206  0.3986  0.0736  0.4215
 7111SOL    HW132792   3.921   2.887   7.239  0.8455  0.5417  0.0641
 7111SOL    HW232793   4.027   2.860   7.143  0.5950 -0.7043  0.0169
 7112SOL     OW32794   2.516   2.540  16.037  0.2164  0.1751  0.4331
 7112SOL    HW132795   2.581   2.471  16.027  1.0261  1.2823 -1.7759
 7112SOL    HW232796   2.443   2.501  16.087 -2.0102  2.9130 -0.6913
 7113SOL     OW32797   1.591   2.084  10.492  0.2114  0.0880  0.0200
 7113SOL    HW132798   1.667   2.070  10.547 -0.2878 -1.6835  0.2518
 7113SOL    HW232799   1.548   2.149  10.547 -2.8029 -0.9581 -1.1019
 7114SOL     OW32800   2.568   4.524   2.902 -0.3813  0.1081 -0.2240
 7114SOL    HW132801   2.616   4.582   2.843  1.7811 -3.1103 -1.6095
 7114SOL    HW232802   2.479   4.556   2.886  0.1325  2.1785  1.1073
 7115SOL     OW32803   3.090   3.130   9.222 -0.0103  0.1896 -0.3941
 7115SOL    HW132804   3.133   3.045   9.214 -0.1814  0.0303  0.3672
 7115SOL    HW232805   3.001   3.112   9.191  0.4959  0.6035 -2.0783
 7116SOL     OW32806   4.367   0.999   4.510  0.1206 -0.3782 -0.2024
 7116SOL    HW132807   4.414   0.929   4.555 -1.1710 -0.5290  0.9186
 7116SOL    HW232808   4.353   0.947   4.432 -1.7383 -1.5955  0.9454
 7117SOL     OW32809   3.240   2.777   4.233  0.4898  0.6753 -0.3674
 7117SOL    HW132810   3.270   2.844   4.295 -1.2471 -0.0487  1.2836
 7117SOL    HW232811   3.229   2.831   4.155 -1.1255  1.2854  0.2773
 7118SOL     OW32812   3.592   1.855  13.354 -0.3012  0.2056 -0.0537
 7118SOL    HW132813   3.540   1.914  13.408  0.5174 -0.3958  1.3743
 7118SOL    HW232814   3.543   1.776  13.378  0.9128 -0.6927 -0.5280
 7119SOL     OW32815   2.877   4.427  12.717 -0.2559  0.3432  0.4482
 7119SOL    HW132816   2.889   4.462  12.805  2.6171  4.1887 -1.4570
 7119SOL    HW232817   2.954   4.462  12.673 -1.7249  0.9875 -1.6366
 7120SOL     OW32818   3.488   2.051   5.838 -0.2983 -0.6347 -0.0136
 7120SOL    HW132819   3.517   1.997   5.765  1.7217  0.1372  0.2017
 7120SOL    HW232820   3.569   2.085   5.876 -0.0830  1.2860 -2.2295
 7121SOL     OW32821   2.034   2.392   3.396  0.1007 -0.4392 -0.3967
 7121SOL    HW132822   2.085   2.311   3.397  0.5159 -0.1766 -0.1067
 7121SOL    HW232823   1.951   2.356   3.364 -0.7853  1.2782 -0.0160
 7122SOL     OW32824   2.700   0.049   8.447 -0.6263  0.5999 -0.2383
 7122SOL    HW132825   2.678   0.141   8.464  0.4694  1.1625 -1.8770
 7122SOL    HW232826   2.636   0.015   8.386 -0.1375  2.2906 -1.6861
 7123SOL     OW32827   0.353   4.369  13.812 -0.4570 -0.3359 -0.2997
 7123SOL    HW132828   0.301   4.385  13.892 -1.2215 -0.8367 -0.6918
 7123SOL    HW232829   0.309   4.292  13.775  1.7053 -0.9439 -1.5679
 7124SOL     OW32830   2.852   3.162   8.347  0.5486 -0.0459 -0.5234
 7124SOL    HW132831   2.806   3.204   8.275 -0.9359 -0.3235  0.2543
 7124SOL    HW232832   2.796   3.088   8.370 -1.7759  1.8493 -0.0285
 7125SOL     OW32833   0.411   3.961   3.959  0.1509  0.4579 -0.1984
 7125SOL    HW132834   0.326   3.988   3.925 -0.4547  0.1461  1.0899
 7125SOL    HW232835   0.394   3.930   4.048  0.4081 -0.7894 -0.5878
 7126SOL     OW32836   3.017   4.031   8.851 -0.2025  0.7667 -0.3166
 7126SOL    HW132837   2.949   3.965   8.844  0.3511 -0.0470  1.8036
 7126SOL    HW232838   3.063   4.019   8.935 -0.3673  1.0963 -0.1760
 7127SOL     OW32839   3.512   0.838   3.949  0.2209  0.4599 -0.0455
 7127SOL    HW132840   3.466   0.832   4.032  0.8830 -2.7030  0.0795
 7127SOL    HW232841   3.435   0.824   3.894 -0.3022  1.3379  0.4677
 7128SOL     OW32842   3.468   3.551   8.038 -0.1577  0.4579  0.6869
 7128SOL    HW132843   3.426   3.467   8.057 -1.0836  0.2811 -2.1136
 7128SOL    HW232844   3.411   3.580   7.967 -2.5424 -1.4784  1.8094
 7129SOL     OW32845   3.873   0.860   7.672 -0.2437  0.0872  0.2264
 7129SOL    HW132846   3.911   0.817   7.749 -1.6223 -0.1418  0.7946
 7129SOL    HW232847   3.927   0.938   7.669  0.8317 -0.7509 -2.3021
 7130SOL     OW32848   2.059   3.059   4.184 -0.2552  0.4773 -0.2963
 7130SOL    HW132849   2.082   2.996   4.253 -0.7199 -0.1246 -0.6912
 7130SOL    HW232850   2.131   3.121   4.173 -1.7073  2.0630 -0.7515
 7131SOL     OW32851   1.795   0.644   4.894 -0.1661  0.5179 -0.0399
 7131SOL    HW132852   1.794   0.737   4.870  0.8978  0.4111 -0.4884
 7131SOL    HW232853   1.837   0.603   4.819  1.0217 -0.1849  1.0106
 7132SOL     OW32854   3.224   3.127  17.557 -0.1175  0.2973 -0.0771
 7132SOL    HW132855   3.136   3.151  17.529  0.4825  3.2414  0.5336
 7132SOL    HW232856   3.214   3.092  17.646 -1.9731 -0.8105 -0.7253
 7133SOL     OW32857   3.446   0.132   1.311 -0.0773  0.2157 -0.4736
 7133SOL    HW132858   3.392   0.210   1.321 -0.2317 -0.3790  3.5367
 7133SOL    HW232859   3.518   0.158   1.369  0.3035  0.6045 -1.1190
 7134SOL     OW32860   3.238   0.545  14.183 -0.0145  0.0749  0.1028
 7134SOL    HW132861   3.223   0.592  14.101  1.4468 -1.3945 -1.0200
 7134SOL    HW232862   3.147   0.546  14.211  0.2939  0.8999  1.0597
 7135SOL     OW32863   3.330   1.737  13.156  0.2224  0.1987  0.1139
 7135SOL    HW132864   3.341   1.830  13.176 -0.5813 -0.0137  1.5213
 7135SOL    HW232865   3.418   1.716  13.124  0.5414 -0.7369  1.5790
 7136SOL     OW32866   0.297   0.059   5.718  0.1765  0.1359 -0.2255
 7136SOL    HW132867   0.219   0.076   5.664 -0.4639 -0.7933  0.3968
 7136SOL    HW232868   0.267   0.018   5.799 -0.3665 -1.0299 -1.0038
 7137SOL     OW32869   3.060   0.764   9.813  0.2021  0.2441  0.3822
 7137SOL    HW132870   3.058   0.820   9.736 -0.2467 -0.5530 -0.1902
 7137SOL    HW232871   3.150   0.735   9.827  0.4196 -1.0335 -3.5913
 7138SOL     OW32872   2.136   4.144   2.321  0.7674  0.0068 -0.0249
 7138SOL    HW132873   2.123   4.049   2.311  0.8717 -0.4124  3.4939
 7138SOL    HW232874   2.229   4.154   2.303  0.4945 -0.4788 -1.6756
 7139SOL     OW32875   1.130   2.826   2.966  0.1246 -0.4706 -0.1253
 7139SOL    HW132876   1.054   2.772   2.988 -0.4969  0.3628 -0.2109
 7139SOL    HW232877   1.092   2.905   2.925 -1.2420 -0.2759  1.5223
 7140SOL     OW32878   4.721   3.707   4.018 -0.4619 -0.2611 -0.3344
 7140SOL    HW132879   0.084   3.700   3.977 -0.9989 -0.3028 -1.4519
 7140SOL    HW232880   0.007   3.772   4.089  2.8238 -0.2402 -0.7857
 7141SOL     OW32881   0.679   3.646   2.218  0.0029 -0.3839  0.0699
 7141SOL    HW132882   0.605   3.639   2.278  0.3112 -0.0073  0.4945
 7141SOL    HW232883   0.639   3.605   2.141 -1.0270 -1.7348  1.3491
 7142SOL     OW32884   2.928   0.751   1.232  0.0405  0.2217 -0.8170
 7142SOL    HW132885   2.864   0.695   1.187 -1.8784  1.8662 -0.1281
 7142SOL    HW232886   2.876   0.789   1.303 -0.7979 -2.0722 -0.1929
 7143SOL     OW32887   1.486   2.518  11.829 -0.0387 -0.1668 -0.5333
 7143SOL    HW132888   1.456   2.457  11.895  0.1591  2.4443  1.9642
 7143SOL    HW232889   1.452   2.601  11.862 -1.0086 -0.1522 -1.5552
 7144SOL     OW32890   2.575   3.643   2.231  0.0836 -0.2568 -0.5080
 7144SOL    HW132891   2.631   3.639   2.154 -1.8321  1.6617 -2.0108
 7144SOL    HW232892   2.488   3.620   2.199 -0.2400  0.4034 -0.1077
 7145SOL     OW32893   4.056   0.268   4.656 -0.6383  0.6358 -0.1774
 7145SOL    HW132894   3.972   0.222   4.654 -0.8920  1.0746  0.4345
 7145SOL    HW232895   4.046   0.335   4.589 -1.2992 -0.1814 -0.8817
 7146SOL     OW32896   1.932   0.865  17.317  0.3206  0.0440  0.6879
 7146SOL    HW132897   1.846   0.888  17.350  0.2023  0.8255 -0.1616
 7146SOL    HW232898   1.917   0.770  17.311 -1.2106  0.3509 -0.4415
 7147SOL     OW32899   1.077   2.795   6.029  0.4970 -0.1459 -0.5475
 7147SOL    HW132900   1.067   2.844   5.947  0.8707 -1.6834 -1.5059
 7147SOL    HW232901   1.005   2.732   6.036  1.2563 -0.9347  0.2049
 7148SOL     OW32902   1.397   3.848  11.048  0.2384 -0.4116 -0.2063
 7148SOL    HW132903   1.364   3.804  10.970 -1.6226 -0.9020  0.8476
 7148SOL    HW232904   1.457   3.912  11.010 -0.7553  0.8383  0.3200
 7149SOL     OW32905   2.726   0.982   6.837  0.5603  0.5701 -0.1031
 7149SOL    HW132906   2.667   1.033   6.892 -0.5868  0.8630 -1.6425
 7149SOL    HW232907   2.715   0.900   6.885  2.0749  0.0848 -0.5837
 7150SOL     OW32908   4.629   1.276   7.688  0.2144  0.1333 -0.2029
 7150SOL    HW132909   4.604   1.185   7.669  1.6644 -0.7060  1.9475
 7150SOL    HW232910   0.000   1.266   7.689  0.1219 -0.7081  0.4714
 7151SOL     OW32911   2.864   2.253  17.063 -0.2346 -0.1320 -0.5355
 7151SOL    HW132912   2.874   2.277  17.155 -0.0331 -0.1655 -0.5478
 7151SOL    HW232913   2.772   2.260  17.040 -0.6384  1.0861  1.3933
 7152SOL     OW32914   4.146   1.963   8.567 -0.1757 -0.2560 -0.2964
 7152SOL    HW132915   4.196   2.029   8.519  0.5378  0.4910  1.4560
 7152SOL    HW232916   4.078   2.008   8.617  0.8524  1.3222 -0.3046
 7153SOL     OW32917   4.260   3.257   5.551 -0.2291 -0.2314  0.7627
 7153SOL    HW132918   4.355   3.262   5.546 -0.3924  4.5129  1.6326
 7153SOL    HW232919   4.243   3.169   5.585 -0.1865 -0.7027 -0.4570
 7154SOL     OW32920   2.053   0.823   7.408 -0.0328 -0.6261  0.3751
 7154SOL    HW132921   2.035   0.873   7.488 -1.8507 -1.5267  0.5437
 7154SOL    HW232922   2.091   0.888   7.349  1.3339 -0.3728  1.5373
 7155SOL     OW32923   4.575   0.993   5.022 -0.0683  0.9959  0.2262
 7155SOL    HW132924   4.634   0.919   5.037 -0.3037  0.5514 -1.0898
 7155SOL    HW232925   4.495   0.949   4.996 -0.2234 -0.0857  2.4815
 7156SOL     OW32926   3.226   4.477   2.509 -0.2305  0.4475 -0.2254
 7156SOL    HW132927   3.174   4.402   2.479  0.0566  0.5799 -1.0567
 7156SOL    HW232928   3.174   4.557   2.502  0.0928  0.5530 -1.3315
 7157SOL     OW32929   0.671   2.996  16.961 -0.2743 -0.4481 -0.3260
 7157SOL    HW132930   0.583   3.031  16.971 -0.1755  0.0407 -1.1560
 7157SOL    HW232931   0.720   3.041  17.029  0.7119 -0.1268 -1.2485
 7158SOL     OW32932   2.838   1.145  14.776 -0.3985 -0.1472  0.2681
 7158SOL    HW132933   2.855   1.056  14.745 -1.4213  0.1415 -1.1366
 7158SOL    HW232934   2.785   1.171  14.701 -1.4966 -0.3588  0.9762
 7159SOL     OW32935   4.179   0.308   0.205 -0.4377  0.0249 -0.0287
 7159SOL    HW132936   4.266   0.345   0.222 -0.4837 -0.1863  0.6854
 7159SOL    HW232937   4.138   0.366   0.141 -2.7699 -0.6860  0.7943
 7160SOL     OW32938   2.274   2.929  10.322  0.1368  0.0227  0.4364
 7160SOL    HW132939   2.245   2.856  10.376  0.0256 -0.4211 -0.2311
 7160SOL    HW232940   2.300   2.987  10.394 -0.2090  0.4807  0.1995
 7161SOL     OW32941   0.680   2.429  10.699 -0.0113 -0.1741 -0.4206
 7161SOL    HW132942   0.683   2.482  10.779 -0.7261  0.8189 -1.0623
 7161SOL    HW232943   0.719   2.352  10.741  0.2185  0.6059  0.8081
 7162SOL     OW32944   3.323   1.441   4.296  0.0051 -0.0167 -0.2691
 7162SOL    HW132945   3.401   1.481   4.259  0.4729 -1.2236 -0.5674
 7162SOL    HW232946   3.290   1.389   4.223  0.6185  0.5268 -0.9270
 7163SOL     OW32947   2.219   2.455   8.390  0.1033 -0.3036  0.7379
 7163SOL    HW132948   2.144   2.496   8.346 -0.1306  1.8270  3.0933
 7163SOL    HW232949   2.272   2.437   8.313  1.3580  0.4855  1.4310
 7164SOL     OW32950   3.908   1.839   9.058  0.3288  0.2419  0.0228
 7164SOL    HW132951   3.938   1.822   9.147 -0.6129  3.5286  0.9547
 7164SOL    HW232952   3.829   1.890   9.076  0.2625 -0.7913  2.5988
 7165SOL     OW32953   3.452   0.014  13.814 -0.5202  0.3801 -0.1646
 7165SOL    HW132954   3.374   4.691  13.783  0.5053 -1.1061 -0.4522
 7165SOL    HW232955   3.495   0.029  13.730  0.3599 -3.4487 -0.3894
 7166SOL     OW32956   3.075   0.432   0.346 -0.1651  0.0616 -0.2331
 7166SOL    HW132957   3.071   0.527   0.355 -1.8127  0.0188 -0.5098
 7166SOL    HW232958   3.162   0.421   0.309 -0.9280 -1.5907 -1.5727
 7167SOL     OW32959   2.983   1.820   5.845  0.0393 -0.1404  0.5937
 7167SOL    HW132960   3.017   1.858   5.926  0.8603 -0.0840  0.2229
 7167SOL    HW232961   3.052   1.844   5.783 -1.9782 -1.0029 -2.0120
 7168SOL     OW32962   4.480   0.295   2.920 -0.1157 -0.7167  0.2377
 7168SOL    HW132963   4.478   0.354   2.996 -2.1486 -1.0696  0.4698
 7168SOL    HW232964   4.484   0.357   2.847 -1.6041 -0.2738  0.5202
 7169SOL     OW32965   2.532   1.343   1.568 -0.9245 -0.4481 -0.6751
 7169SOL    HW132966   2.500   1.433   1.559  1.3343  0.4503  0.1275
 7169SOL    HW232967   2.524   1.316   1.660  1.1646  1.2022  0.0124
 7170SOL     OW32968   4.458   3.903   8.420 -0.1806 -0.2676  0.0372
 7170SOL    HW132969   4.497   3.929   8.504  0.2771 -0.6350 -0.0603
 7170SOL    HW232970   4.377   3.954   8.426 -1.3397 -2.2921  1.5838
 7171SOL     OW32971   0.253   3.071   3.221 -0.2760 -0.1053  0.3513
 7171SOL    HW132972   0.277   2.988   3.263  1.0086 -0.9917 -2.1874
 7171SOL    HW232973   0.323   3.064   3.157 -1.5806  0.0151 -1.0752
 7172SOL     OW32974   4.262   2.660   3.649  0.1000  0.0431 -0.0254
 7172SOL    HW132975   4.238   2.679   3.558  2.0440  1.8807 -0.1616
 7172SOL    HW232976   4.252   2.749   3.683  0.2912 -0.7132  2.0170
 7173SOL     OW32977   1.600   4.586  16.132  0.3124  0.5380  0.3357
 7173SOL    HW132978   1.669   4.528  16.164 -0.9869 -2.1737 -1.7341
 7173SOL    HW232979   1.634   4.604  16.045  0.7067  1.5656  0.7084
 7174SOL     OW32980   4.320   2.602   6.991  0.2337 -0.1368 -0.1588
 7174SOL    HW132981   4.301   2.686   7.034  1.4931  0.3777 -0.6284
 7174SOL    HW232982   4.349   2.621   6.902  0.2079  0.3967 -0.0531
 7175SOL     OW32983   1.244   1.617   9.052  0.3074 -0.2769  0.0728
 7175SOL    HW132984   1.149   1.607   9.051  0.0937  1.8153 -1.3193
 7175SOL    HW232985   1.259   1.684   8.986 -0.3284  0.3311  0.5364
 7176SOL     OW32986   2.299   3.611   3.494  0.3582  0.0928 -0.2588
 7176SOL    HW132987   2.310   3.516   3.491 -0.2197  0.1345 -3.3482
 7176SOL    HW232988   2.323   3.634   3.405 -0.6553  1.1016 -0.2700
 7177SOL     OW32989   3.341   3.467  16.237  0.1999 -0.3838  0.6429
 7177SOL    HW132990   3.409   3.485  16.172 -1.0053  0.4124 -0.3910
 7177SOL    HW232991   3.265   3.468  16.179  1.2194 -1.1698 -0.6997
 7178SOL     OW32992   1.874   3.521   1.702  0.4847 -0.3956  0.0312
 7178SOL    HW132993   1.790   3.490   1.736  0.2057  1.5537  1.1182
 7178SOL    HW232994   1.897   3.454   1.638 -1.0667  0.1703 -1.1441
 7179SOL     OW32995   0.922   3.615   6.333 -0.1716 -0.3342  0.3845
 7179SOL    HW132996   0.898   3.601   6.241  0.9402 -1.0590  0.2042
 7179SOL    HW232997   0.946   3.525   6.353  0.2939 -1.0237 -3.2644
 7180SOL     OW32998   2.252   0.468  10.627  0.6316  0.3100 -0.4435
 7180SOL    HW132999   2.213   0.386  10.599 -1.3085  1.2179 -0.4265
 7180SOL    HW233000   2.170   0.517  10.631  1.3058  1.7398 -3.8452
 7181SOL     OW33001   2.685   3.599   6.260 -0.3099  0.4045 -0.4385
 7181SOL    HW133002   2.645   3.684   6.243 -0.3965  0.2211 -1.1707
 7181SOL    HW233003   2.639   3.549   6.193  0.6010  1.2833 -1.7310
 7182SOL     OW33004   1.486   1.675   1.072  0.3498 -0.1731 -0.3037
 7182SOL    HW133005   1.435   1.594   1.067 -1.1701  0.5822  2.7189
 7182SOL    HW233006   1.426   1.738   1.033 -2.3258 -1.7247  1.2933
 7183SOL     OW33007   0.507   1.688   7.195 -0.3397  0.2067 -0.1316
 7183SOL    HW133008   0.507   1.779   7.224  1.2824 -0.8491  3.2560
 7183SOL    HW233009   0.586   1.666   7.244 -1.2987 -0.7547  0.9985
 7184SOL     OW33010   1.085   3.111   1.541  0.5471  0.3987  0.0867
 7184SOL    HW133011   1.131   3.147   1.616  0.2171 -0.3286  0.6291
 7184SOL    HW233012   1.151   3.129   1.474 -1.4875 -1.7771 -2.5407
 7185SOL     OW33013   0.710   0.672  13.771 -0.0158 -0.8555 -0.2353
 7185SOL    HW133014   0.771   0.599  13.757 -0.2712 -1.5828  2.6207
 7185SOL    HW233015   0.638   0.618  13.803 -1.2629  0.8205 -0.2612
 7186SOL     OW33016   4.175   3.472   6.089  0.1474  0.0127  0.4060
 7186SOL    HW133017   4.151   3.486   5.997 -0.3309  1.8609  0.8233
 7186SOL    HW233018   4.094   3.432   6.119 -0.7224  0.3874 -1.4123
 7187SOL     OW33019   3.577   0.081   5.671 -0.7144  0.2142  0.0682
 7187SOL    HW133020   3.497   0.128   5.691  0.3096  2.3502 -0.8498
 7187SOL    HW233021   3.560   4.719   5.710 -5.1068  0.5408 -1.1889
 7188SOL     OW33022   2.017   0.017   1.844  0.3279  0.3158 -0.2336
 7188SOL    HW133023   1.989   0.085   1.783  0.3906  0.3209 -0.2564
 7188SOL    HW233024   2.056   0.068   1.914 -0.1613  0.5036 -0.0953
 7189SOL     OW33025   3.274   3.004   3.709  0.1792 -0.4713 -0.2274
 7189SOL    HW133026   3.336   3.039   3.645  1.5167 -1.8680  0.3250
 7189SOL    HW233027   3.191   3.014   3.661  0.2334  0.2972 -0.1643
 7190SOL     OW33028   1.262   0.958  13.152  0.4041  0.4517 -0.3908
 7190SOL    HW133029   1.209   1.003  13.218 -0.3475 -1.9136  0.6158
 7190SOL    HW233030   1.196   0.905  13.107  1.5710  0.7045 -2.3754
 7191SOL     OW33031   2.284   0.135   3.079  0.4421  0.1065 -0.3583
 7191SOL    HW133032   2.248   0.221   3.097  0.3717  0.1265 -0.5885
 7191SOL    HW233033   2.373   0.170   3.075 -0.2975  1.9501 -0.8787
 7192SOL     OW33034   1.140   1.369   5.200 -0.2073  0.2290 -0.1566
 7192SOL    HW133035   1.080   1.300   5.226 -2.0714  1.2889 -1.7090
 7192SOL    HW233036   1.225   1.324   5.196 -0.2854  0.0698 -0.0063
 7193SOL     OW33037   2.334   1.639  16.099  0.0781 -0.5396  0.0064
 7193SOL    HW133038   2.298   1.639  16.011 -0.2495 -3.0327  0.1319
 7193SOL    HW233039   2.304   1.723  16.133  0.2897 -0.1848 -0.6884
 7194SOL     OW33040   1.124   0.629  13.132 -0.1043  0.1872 -0.7129
 7194SOL    HW133041   1.117   0.689  13.058  1.6850  0.1535 -0.8979
 7194SOL    HW233042   1.185   0.565  13.097 -0.7220 -0.8866  0.1661
 7195SOL     OW33043   3.065   2.501   2.067  0.0301  0.6864  0.0173
 7195SOL    HW133044   3.136   2.438   2.054 -0.2922 -0.1783  2.4190
 7195SOL    HW233045   3.096   2.574   2.013  3.0424 -0.3612  0.3608
 7196SOL     OW33046   4.612   0.557   3.563 -0.2519  0.1055  0.1110
 7196SOL    HW133047   4.580   0.591   3.646  0.9613 -0.4896  0.8205
 7196SOL    HW233048   4.585   0.621   3.496 -0.3669  1.0158  1.0198
 7197SOL     OW33049   1.939   2.466   0.588  0.1465  0.5360  0.1186
 7197SOL    HW133050   2.034   2.463   0.594  0.2489  0.5834 -1.4385
 7197SOL    HW233051   1.917   2.495   0.676 -0.4515  1.2096 -0.2463
 7198SOL     OW33052   2.704   3.937  12.576 -0.0838  0.0266 -0.4004
 7198SOL    HW133053   2.781   3.951  12.522  0.3018 -1.5078 -0.2354
 7198SOL    HW233054   2.713   4.005  12.642  2.9763  1.0968 -1.9226
 7199SOL     OW33055   4.443   3.227   1.973  0.0884 -0.2567  0.2423
 7199SOL    HW133056   4.482   3.305   2.012 -0.7115  1.3977 -2.3036
 7199SOL    HW233057   4.503   3.167   2.018  1.3213  2.5454  2.3066
 7200SOL     OW33058   3.970   1.986  11.936 -1.4645  0.4629 -0.6046
 7200SOL    HW133059   3.920   2.030  11.867  1.0520  1.0353 -2.0733
 7200SOL    HW233060   4.041   2.049  11.945  0.2998 -1.5547 -0.3746
 7201SOL     OW33061   4.645   3.255   4.907  0.0616  0.8575  1.0315
 7201SOL    HW133062   4.561   3.221   4.938  0.2139 -0.1863  0.3147
 7201SOL    HW233063   4.655   3.343   4.943  0.6300  1.2240 -0.0371
 7202SOL     OW33064   3.831   0.240   2.889 -0.0680  0.7780 -0.3829
 7202SOL    HW133065   3.891   0.282   2.828  2.9802 -1.8073  0.8563
 7202SOL    HW233066   3.888   0.215   2.962  0.9569  2.4645 -0.6302
 7203SOL     OW33067   0.015   2.170   0.418  0.1020  0.0419 -0.0360
 7203SOL    HW133068   0.007   2.247   0.474 -2.6206 -1.3249  1.4914
 7203SOL    HW233069   4.651   2.137   0.437  0.4422 -1.8407 -1.7856
 7204SOL     OW33070   3.279   1.144   7.467  0.2337  0.3801 -0.2945
 7204SOL    HW133071   3.344   1.075   7.454 -2.1494 -1.8077 -0.5259
 7204SOL    HW233072   3.264   1.166   7.375  4.1875 -1.1857 -1.3171
 7205SOL     OW33073   1.870   2.000   6.721 -0.1274  0.2762 -0.3055
 7205SOL    HW133074   1.920   1.974   6.798  1.9239  0.4848 -1.5758
 7205SOL    HW233075   1.935   2.053   6.675  0.2121 -0.7668 -1.0478
 7206SOL     OW33076   3.821   3.317   5.374 -0.0796 -0.5274  0.1686
 7206SOL    HW133077   3.809   3.337   5.281  0.7270  2.0256  0.6287
 7206SOL    HW233078   3.732   3.327   5.407  0.4405 -0.9804  1.6902
 7207SOL     OW33079   0.485   4.227   4.130 -0.5048 -0.0362  0.0178
 7207SOL    HW133080   0.475   4.132   4.140 -1.9662  0.1562  0.4985
 7207SOL    HW233081   0.558   4.239   4.069 -2.8627  1.3858 -2.5484
 7208SOL     OW33082   1.148   1.681   6.616 -0.1111 -0.0573  0.0154
 7208SOL    HW133083   1.169   1.769   6.585  1.2531 -0.3231  0.1702
 7208SOL    HW233084   1.164   1.694   6.710  1.1444  0.9886 -0.3409
 7209SOL     OW33085   4.566   4.529   3.233  0.5481  0.7835 -0.6434
 7209SOL    HW133086   4.544   4.586   3.159  1.2977  0.4517 -1.1167
 7209SOL    HW233087   4.515   4.580   3.296  1.3046 -0.2054  0.7775
 7210SOL     OW33088   0.835   4.708   6.275 -0.1720 -0.1674  0.2633
 7210SOL    HW133089   0.816   4.618   6.249 -1.7813  0.8812 -2.1828
 7210SOL    HW233090   0.872   0.008   6.190 -1.8670  1.0842 -0.1212
 7211SOL     OW33091   1.131   0.652   7.371 -0.0783  0.7298 -0.5437
 7211SOL    HW133092   1.131   0.575   7.315 -0.4590  2.0654 -2.3753
 7211SOL    HW233093   1.113   0.613   7.457  3.0105  1.2417  0.3439
 7212SOL     OW33094   0.737   2.029   2.043 -0.4119  0.4830 -0.3848
 7212SOL    HW133095   0.755   1.936   2.026 -1.4873  0.0960  0.5210
 7212SOL    HW233096   0.711   2.028   2.135 -2.3071 -0.9248 -0.9220
 7213SOL     OW33097   3.232   3.428  12.458  0.5365 -0.5989  0.0200
 7213SOL    HW133098   3.152   3.385  12.427  0.6001 -0.3218 -0.5299
 7213SOL    HW233099   3.307   3.383  12.419 -0.7860 -1.7737 -1.1622
 7214SOL     OW33100   2.243   3.035   4.876  0.1492 -0.3973  0.0990
 7214SOL    HW133101   2.247   2.939   4.874  0.2054 -0.3805 -0.8714
 7214SOL    HW233102   2.337   3.051   4.877  0.1753 -0.5923  0.6007
 7215SOL     OW33103   0.181   1.258   2.169 -0.0213  0.0425 -0.3110
 7215SOL    HW133104   0.255   1.245   2.228  0.8353 -3.2208 -2.1399
 7215SOL    HW233105   0.120   1.196   2.208  1.0883 -0.9623 -0.1932
 7216SOL     OW33106   0.933   4.045  15.276 -0.3552  0.2918 -0.7482
 7216SOL    HW133107   0.962   4.108  15.209  2.5792 -0.2574 -0.0210
 7216SOL    HW233108   0.935   4.097  15.356  1.8868  0.6243 -1.0145
 7217SOL     OW33109   4.598   1.898  15.217 -0.0102  0.1416 -0.0144
 7217SOL    HW133110   4.507   1.876  15.200 -0.2880  2.2659 -1.2620
 7217SOL    HW233111   4.602   1.980  15.167  2.0014  1.2167  1.8790
 7218SOL     OW33112   3.452   0.843   3.357  0.3871 -0.7347 -0.1140
 7218SOL    HW133113   3.460   0.751   3.334 -0.8967 -1.0851  0.7773
 7218SOL    HW233114   3.394   0.828   3.432  0.9128  1.3547  0.7242
 7219SOL     OW33115   3.840   0.435   7.731  0.1018  0.0977 -0.2961
 7219SOL    HW133116   3.750   0.414   7.754  0.4571  1.0135  1.9162
 7219SOL    HW233117   3.879   0.348   7.739  2.6292  1.0528 -2.0186
 7220SOL     OW33118   2.569   4.545  13.574  0.5725  0.0151 -0.0093
 7220SOL    HW133119   2.479   4.572  13.597 -0.1897 -0.4895 -2.4515
 7220SOL    HW233120   2.579   4.474  13.638 -0.1627  0.2969  0.4321
 7221SOL     OW33121   2.520   2.200   9.263  0.2731 -0.3425 -0.1673
 7221SOL    HW133122   2.488   2.201   9.353 -0.6989 -1.9179 -0.4952
 7221SOL    HW233123   2.607   2.240   9.271  0.9006 -2.2018  2.2928
 7222SOL     OW33124   1.486   0.626   6.512  0.0053  0.1179  0.3680
 7222SOL    HW133125   1.455   0.707   6.553 -2.2935  0.1425 -1.3784
 7222SOL    HW233126   1.433   0.625   6.432  1.2925 -1.3077 -0.4544
 7223SOL     OW33127   3.876   2.247  14.736  0.7822  0.5358  0.3077
 7223SOL    HW133128   3.883   2.263  14.830 -2.3588 -1.1276  0.8576
 7223SOL    HW233129   3.808   2.312  14.718  1.4382  0.8940 -0.8404
 7224SOL     OW33130   3.739   0.389   1.262 -0.2017 -0.1979 -0.0620
 7224SOL    HW133131   3.731   0.389   1.167 -1.3183  0.3695  0.0259
 7224SOL    HW233132   3.690   0.311   1.286  0.1826  0.1329  1.8154
 7225SOL     OW33133   1.875   2.224  12.737 -0.0669  0.1662 -0.4204
 7225SOL    HW133134   1.926   2.301  12.763 -0.1878  1.0379 -2.7283
 7225SOL    HW233135   1.783   2.249  12.741 -0.3459 -1.0107  0.4009
 7226SOL     OW33136   0.468   2.619   2.493 -0.3986 -0.0372 -0.1995
 7226SOL    HW133137   0.557   2.629   2.459 -0.2481  1.7962  0.7504
 7226SOL    HW233138   0.469   2.699   2.545  2.3004 -0.6870  0.7821
 7227SOL     OW33139   1.965   2.855   8.021  0.2123 -0.2077  0.0797
 7227SOL    HW133140   1.946   2.848   8.114  2.8448  1.6338  0.7558
 7227SOL    HW233141   1.993   2.767   7.995  2.9815  0.1440  1.8546
 7228SOL     OW33142   3.631   0.026   4.246  0.2528  0.5041  0.0959
 7228SOL    HW133143   3.582   4.687   4.299 -0.4443 -0.5637 -1.8203
 7228SOL    HW233144   3.607   4.719   4.158 -0.7547 -0.5027  0.7108
 7229SOL     OW33145   2.114   4.527  13.204 -0.0160 -0.2352  0.0645
 7229SOL    HW133146   2.059   4.503  13.278 -2.3402 -1.2448 -2.0040
 7229SOL    HW233147   2.164   4.595  13.250  0.1829 -1.3342  1.4928
 7230SOL     OW33148   4.186   3.473   7.837 -0.1001 -0.1462 -0.0702
 7230SOL    HW133149   4.121   3.538   7.808 -0.9082 -1.3264 -0.8942
 7230SOL    HW233150   4.252   3.528   7.879  0.9566 -1.1745 -0.3999
 7231SOL     OW33151   4.655   2.743  10.142 -0.0060  0.6991  0.1462
 7231SOL    HW133152   4.638   2.649  10.147 -1.7684  1.0459  0.4216
 7231SOL    HW233153   4.677   2.749  10.049 -1.3661 -1.8062 -0.3423
 7232SOL     OW33154   3.820   3.743   2.261 -0.0712 -0.0533 -0.3383
 7232SOL    HW133155   3.753   3.738   2.193  1.2728  2.3282 -1.8905
 7232SOL    HW233156   3.805   3.658   2.300  0.6312 -0.9796 -2.0736
 7233SOL     OW33157   1.829   0.149   1.409  0.1146 -0.0101 -0.2083
 7233SOL    HW133158   1.781   0.179   1.332  0.5865 -0.8829 -0.8437
 7233SOL    HW233159   1.819   0.054   1.397 -0.9938 -0.3625  3.4232
 7234SOL     OW33160   1.868   0.645   7.314 -0.1015  0.1409  0.4485
 7234SOL    HW133161   1.943   0.693   7.349 -1.2282  2.1252  0.1559
 7234SOL    HW233162   1.797   0.709   7.306 -0.3713 -0.0952  0.9289
 7235SOL     OW33163   4.695   2.480   2.381  0.2589  0.5933  0.1722
 7235SOL    HW133164   4.612   2.436   2.364  0.4565 -0.9805  3.5047
 7235SOL    HW233165   0.003   2.432   2.457 -4.0065 -0.2730  1.3398
 7236SOL     OW33166   2.532   0.603   6.404  0.0535 -0.7398 -0.0217
 7236SOL    HW133167   2.609   0.551   6.428  0.0963 -1.5068 -1.8277
 7236SOL    HW233168   2.473   0.533   6.378 -0.2959  0.8149 -3.3509
 7237SOL     OW33169   2.442   0.903   6.071  0.3314  0.0760 -0.1688
 7237SOL    HW133170   2.444   0.813   6.038  0.4878  0.7900 -2.0652
 7237SOL    HW233171   2.348   0.917   6.082  0.3641 -1.4732  2.3250
 7238SOL     OW33172   3.487   3.724   9.420  0.3900 -0.4480 -0.5732
 7238SOL    HW133173   3.445   3.739   9.504  0.6585  0.2249 -0.5587
 7238SOL    HW233174   3.576   3.722   9.456 -0.3899 -0.1877  1.3862
 7239SOL     OW33175   2.207   3.754  15.543 -0.0808 -0.3479  0.2796
 7239SOL    HW133176   2.175   3.841  15.519  0.2549  0.6977  3.6331
 7239SOL    HW233177   2.140   3.697  15.504  0.8091 -0.4791 -1.0398
 7240SOL     OW33178   4.595   3.029   2.161  0.2242 -0.0307  0.6103
 7240SOL    HW133179   4.528   3.062   2.220 -1.1613 -1.9030  0.0747
 7240SOL    HW233180   4.567   2.937   2.164 -2.9734  0.9515  1.0472
 7241SOL     OW33181   1.138   1.793   3.020 -0.2315 -0.7111  0.1819
 7241SOL    HW133182   1.192   1.849   3.077 -1.5127  2.9267 -2.1680
 7241SOL    HW233183   1.201   1.742   2.969 -1.1404 -1.3084 -0.3344
 7242SOL     OW33184   4.334   1.530   6.765  0.4811  0.3871  0.0134
 7242SOL    HW133185   4.263   1.468   6.781 -0.4901  0.7253 -3.0950
 7242SOL    HW233186   4.291   1.608   6.801 -2.9469 -0.5980 -1.9961
 7243SOL     OW33187   4.242   1.264  10.908 -0.0451  0.5077  0.6396
 7243SOL    HW133188   4.215   1.280  10.998  1.8562  3.1332  0.7225
 7243SOL    HW233189   4.265   1.171  10.910 -0.6161  0.3409 -0.1017
 7244SOL     OW33190   0.621   4.590   6.041  0.3537 -0.0927  0.6849
 7244SOL    HW133191   0.632   4.563   5.950 -0.6773 -0.0106  0.5338
 7244SOL    HW233192   0.704   4.637   6.054  1.1235 -0.7325 -2.0652
 7245SOL     OW33193   4.031   4.506   6.223  0.5730  0.7255 -0.0073
 7245SOL    HW133194   4.079   4.438   6.175  0.5719 -0.6834  1.9884
 7245SOL    HW233195   3.961   4.455   6.264  2.1188 -0.9003  0.6171
 7246SOL     OW33196   1.391   1.238   5.213 -0.4788  0.5351  0.3247
 7246SOL    HW133197   1.466   1.224   5.272  2.5767  1.2409 -3.3923
 7246SOL    HW233198   1.435   1.273   5.136 -2.1935  0.0226 -0.8820
 7247SOL     OW33199   3.764   2.395   2.024  0.0708  0.0741 -0.2304
 7247SOL    HW133200   3.836   2.432   1.972 -1.0246 -0.9034 -2.4075
 7247SOL    HW233201   3.702   2.375   1.954 -1.0356  2.2903  0.1087
 7248SOL     OW33202   0.270   3.010   2.797 -0.2347  0.7014  0.3628
 7248SOL    HW133203   0.186   3.000   2.843 -0.8486  0.7187 -0.7659
 7248SOL    HW233204   0.273   3.101   2.824  0.4961  0.9040 -0.4007
 7249SOL     OW33205   4.639   4.703   4.301  0.1763  0.3183  0.2565
 7249SOL    HW133206   4.714   4.716   4.243  1.3484 -1.1462  1.4201
 7249SOL    HW233207   4.611   4.613   4.284  1.3567 -0.1820  0.9400
 7250SOL     OW33208   2.149   2.442   4.427 -0.0288 -0.4570  0.3904
 7250SOL    HW133209   2.244   2.439   4.427 -0.0059  0.4768  1.5880
 7250SOL    HW233210   2.127   2.353   4.455  1.9552 -1.1148 -0.2057
 7251SOL     OW33211   1.490   2.449  11.307  0.1125 -0.4136 -0.4339
 7251SOL    HW133212   1.577   2.410  11.295 -0.3559 -1.4033 -0.6199
 7251SOL    HW233213   1.494   2.475  11.399 -0.3325 -0.7538 -0.3172
 7252SOL     OW33214   3.539   3.327  11.539 -0.3298 -0.3119 -0.5374
 7252SOL    HW133215   3.560   3.369  11.455 -0.0496  1.8399  0.5939
 7252SOL    HW233216   3.468   3.268  11.515 -1.6404  1.4157 -0.9665
 7253SOL     OW33217   2.188   0.285   9.462 -0.3529  0.0157 -0.0993
 7253SOL    HW133218   2.159   0.225   9.395  1.1160 -2.2784  1.3149
 7253SOL    HW233219   2.178   0.365   9.410 -0.8223  1.6695  2.5293
 7254SOL     OW33220   1.590   1.497   5.856 -0.3069 -0.0346 -0.7081
 7254SOL    HW133221   1.592   1.448   5.938 -1.9373  1.1977  0.0475
 7254SOL    HW233222   1.670   1.549   5.867 -0.2682 -0.3259  0.4701
 7255SOL     OW33223   4.673   4.682  14.350 -0.1142  0.4519 -0.4103
 7255SOL    HW133224   4.643   0.036  14.302 -1.1345  0.5950  0.4577
 7255SOL    HW233225   0.030   4.714  14.391 -0.1000  0.3574 -0.3644
 7256SOL     OW33226   1.912   1.493   1.243 -0.2416  0.4480  0.6090
 7256SOL    HW133227   1.819   1.515   1.255 -0.3156 -0.4952  1.8354
 7256SOL    HW233228   1.910   1.398   1.255 -0.3485  0.3185 -0.4136
 7257SOL     OW33229   0.651   3.466   7.183 -0.5738 -0.1160 -0.3024
 7257SOL    HW133230   0.640   3.493   7.092  2.2043  0.2504 -0.5068
 7257SOL    HW233231   0.741   3.495   7.197  0.0161 -1.8402 -0.5281
 7258SOL     OW33232   0.754   0.920  13.879  1.0963  0.5425 -0.0780
 7258SOL    HW133233   0.811   0.964  13.816  1.4020  1.1529  0.6294
 7258SOL    HW233234   0.766   0.830  13.848 -1.1455 -0.3830  1.7232
 7259SOL     OW33235   3.388   4.598   4.332 -0.0501 -0.2349  0.2628
 7259SOL    HW133236   3.340   4.671   4.293  0.9841 -1.1717 -2.7893
 7259SOL    HW233237   3.318   4.533   4.338  0.0236 -0.2006  1.4918
 7260SOL     OW33238   0.417   2.780   6.790  0.0583 -0.1186 -0.1625
 7260SOL    HW133239   0.336   2.771   6.842  0.7721 -0.2887  0.9223
 7260SOL    HW233240   0.391   2.749   6.704 -1.4832 -1.3417  0.7289
 7261SOL     OW33241   1.180   4.722   4.667 -0.9323  0.1946  0.6747
 7261SOL    HW133242   1.202   4.686   4.581  0.3575  1.5290  0.4529
 7261SOL    HW233243   1.147   4.645   4.713 -1.1083 -1.2560 -1.8178
 7262SOL     OW33244   1.318   2.713   5.953 -0.1251 -0.1527 -0.2673
 7262SOL    HW133245   1.248   2.752   6.007  0.8565  0.6788  0.3969
 7262SOL    HW233246   1.283   2.724   5.864 -0.4267  0.6444 -0.0491
 7263SOL     OW33247   3.440   2.759  10.132  0.5906  0.2241 -0.0465
 7263SOL    HW133248   3.491   2.707  10.194 -1.4932 -3.1137 -1.1305
 7263SOL    HW233249   3.349   2.747  10.157  0.4787 -0.2267 -0.6507
 7264SOL     OW33250   0.380   4.478  13.535 -0.2429  0.4416  0.0432
 7264SOL    HW133251   0.373   4.390  13.499 -0.0271  0.0579  0.9339
 7264SOL    HW233252   0.344   4.464  13.622 -1.2383  1.9487 -0.1319
 7265SOL     OW33253   3.890   1.090   3.823 -0.3097 -0.6776  0.5098
 7265SOL    HW133254   3.899   1.006   3.868  0.9403 -1.0716 -0.4686
 7265SOL    HW233255   3.928   1.141   3.895 -0.9670 -1.1100  1.1629
 7266SOL     OW33256   4.703   2.796  17.553  0.6498  0.3266  0.2982
 7266SOL    HW133257   4.659   2.761  17.476 -0.8506 -0.8810  1.7069
 7266SOL    HW233258   4.640   2.781  17.623  0.5699 -0.1774  0.1192
 7267SOL     OW33259   2.843   3.792   3.725 -0.4493  0.3984 -0.3607
 7267SOL    HW133260   2.931   3.818   3.698 -1.0050  1.3346 -1.2724
 7267SOL    HW233261   2.850   3.721   3.789  0.6688 -0.0536 -0.9893
 7268SOL     OW33262   0.960   3.485   8.320 -0.6394  0.0733  0.0688
 7268SOL    HW133263   1.051   3.461   8.341 -1.0963 -3.4315 -1.9559
 7268SOL    HW233264   0.920   3.475   8.406 -1.9038  1.3932 -0.3642
 7269SOL     OW33265   0.436   1.559   1.570 -0.6738  1.2605  1.2759
 7269SOL    HW133266   0.349   1.519   1.568  0.4540 -1.1908  0.2738
 7269SOL    HW233267   0.415   1.652   1.568  0.6504  1.5436  0.5809
 7270SOL     OW33268   2.436   4.021   1.194  0.1716  0.2167  0.2381
 7270SOL    HW133269   2.486   4.094   1.157  0.5401  0.3590  1.0252
 7270SOL    HW233270   2.348   4.058   1.202  0.0416  0.2481 -1.3092
 7271SOL     OW33271   2.076   4.469  11.815  0.2806 -0.0830  0.6487
 7271SOL    HW133272   2.152   4.455  11.871 -0.1095  0.7736  1.4057
 7271SOL    HW233273   2.113   4.518  11.742  1.6772 -3.0640 -0.5979
 7272SOL     OW33274   2.043   3.490   1.895 -0.0614 -0.2962 -0.2321
 7272SOL    HW133275   2.012   3.498   1.805  1.7203 -0.8799 -0.9019
 7272SOL    HW233276   1.968   3.506   1.952 -0.1781 -1.5226 -0.0431
 7273SOL     OW33277   2.852   1.832   7.660 -0.1429  0.6982  0.0424
 7273SOL    HW133278   2.848   1.736   7.652  0.1692  0.7026 -0.1851
 7273SOL    HW233279   2.759   1.852   7.667 -0.4391 -0.5695 -0.2490
 7274SOL     OW33280   4.544   4.566   6.911  0.0141  0.1226 -0.1671
 7274SOL    HW133281   4.472   4.617   6.873  0.3177  1.1173  0.6117
 7274SOL    HW233282   4.504   4.544   6.994  1.6822  4.3698  1.7835
 7275SOL     OW33283   2.147   4.570   5.938  0.5054  0.2085 -0.1474
 7275SOL    HW133284   2.122   4.647   5.888  1.4978 -0.4285 -1.6293
 7275SOL    HW233285   2.241   4.564   5.924  0.4897  1.9445 -0.9581
 7276SOL     OW33286   1.469   2.492  10.224  0.2912  0.2818 -0.0391
 7276SOL    HW133287   1.561   2.510  10.209 -0.2672  1.2126 -2.3456
 7276SOL    HW233288   1.459   2.422  10.159  1.7685  0.0353  0.0036
 7277SOL     OW33289   3.523   0.553  15.685 -0.4041 -0.0556 -0.1776
 7277SOL    HW133290   3.451   0.587  15.631 -0.8498  0.6311  0.8446
 7277SOL    HW233291   3.583   0.525  15.616 -1.0872  1.4577 -1.3807
 7278SOL     OW33292   2.950   4.329   1.140  0.6366  0.1592  0.2497
 7278SOL    HW133293   2.911   4.243   1.122 -1.8828  1.1867  0.7909
 7278SOL    HW233294   3.038   4.311   1.106  1.1600 -0.4164  1.8927
 7279SOL     OW33295   4.705   0.436   7.734 -0.1435 -0.0778  0.2622
 7279SOL    HW133296   0.045   0.471   7.673 -0.5710  0.5669  0.1833
 7279SOL    HW233297   0.019   0.466   7.817 -1.9143  1.8649  0.3793
 7280SOL     OW33298   1.671   4.703  14.147  0.1376 -0.0511 -0.3163
 7280SOL    HW133299   1.603   4.653  14.102  0.2678  0.2125 -0.8147
 7280SOL    HW233300   1.670   4.653  14.228  1.1030 -0.8654 -0.8088
 7281SOL     OW33301   3.426   4.118   7.136  0.5243 -0.9978  0.7473
 7281SOL    HW133302   3.431   4.059   7.211 -1.3780 -1.3317  0.6104
 7281SOL    HW233303   3.364   4.081   7.074  0.1936 -1.5084  1.3821
 7282SOL     OW33304   3.485   4.596   5.206  0.0308  0.0239  0.0023
 7282SOL    HW133305   3.432   4.672   5.232 -1.8625 -0.9321 -1.0816
 7282SOL    HW233306   3.516   4.568   5.292  2.8007  0.1988 -0.9168
 7283SOL     OW33307   4.627   0.637  10.065  0.1284  0.0275  0.0476
 7283SOL    HW133308   4.562   0.572  10.090 -1.3818  2.0047  1.2644
 7283SOL    HW233309   4.654   0.666  10.152  0.6594 -1.0397  0.2403
 7284SOL     OW33310   1.333   0.461   7.701  0.1124  0.3455 -0.3903
 7284SOL    HW133311   1.327   0.368   7.720  0.2124  0.2948 -0.6042
 7284SOL    HW233312   1.241   0.487   7.694 -1.4707 -4.8881  1.2330
 7285SOL     OW33313   1.089   3.505   9.600 -0.7215  0.5478 -0.3498
 7285SOL    HW133314   1.098   3.418   9.561  2.1776 -0.6191  2.8774
 7285SOL    HW233315   1.142   3.499   9.680 -0.9838 -0.0551 -0.2154
 7286SOL     OW33316   1.820   1.235  15.308  0.0650  0.3829 -0.0721
 7286SOL    HW133317   1.913   1.215  15.293  0.4631  0.5605  2.2017
 7286SOL    HW233318   1.832   1.326  15.336  0.7002  0.9749 -2.2233
 7287SOL     OW33319   4.110   2.532   9.183  0.7141  0.6123  0.1584
 7287SOL    HW133320   4.174   2.566   9.121 -1.0282  0.1600 -1.8790
 7287SOL    HW233321   4.143   2.444   9.204  1.2077  1.5410  3.2595
 7288SOL     OW33322   1.147   1.588  13.351  0.4119 -0.5328  0.3158
 7288SOL    HW133323   1.118   1.669  13.394  1.1831  0.4322 -1.0013
 7288SOL    HW233324   1.078   1.580  13.285 -0.9406 -1.2802  1.8141
 7289SOL     OW33325   1.425   3.447   4.766 -0.3976  0.4010  0.5333
 7289SOL    HW133326   1.466   3.497   4.837  0.9767  0.3792 -0.2315
 7289SOL    HW233327   1.505   3.414   4.724  1.2834  3.0739  1.6211
 7290SOL     OW33328   4.467   4.424   4.726 -0.2764  0.0410 -0.0089
 7290SOL    HW133329   4.417   4.468   4.658 -1.4226  1.4465  1.7473
 7290SOL    HW233330   4.399   4.426   4.793  1.9267 -3.1073  2.3388
 7291SOL     OW33331   2.588   1.905   0.264 -0.0853 -0.6616  0.4374
 7291SOL    HW133332   2.624   1.830   0.217 -0.1552 -0.4828  0.0990
 7291SOL    HW233333   2.553   1.859   0.340  2.1187 -4.1291 -0.6451
 7292SOL     OW33334   1.199   2.279   8.845 -0.1753 -0.0629 -0.0686
 7292SOL    HW133335   1.228   2.311   8.760  2.3722  0.9819  1.1937
 7292SOL    HW233336   1.132   2.340   8.873 -0.0583 -0.6767  1.5920
 7293SOL     OW33337   2.272   0.579   7.475 -0.6801  0.3328  0.2403
 7293SOL    HW133338   2.299   0.603   7.386  0.3735 -0.0370  0.4541
 7293SOL    HW233339   2.299   0.663   7.513  1.1901 -0.9444  1.7335
 7294SOL     OW33340   4.066   2.099   6.352  0.2923  0.9348 -0.2533
 7294SOL    HW133341   4.062   2.005   6.369  0.9349  0.5432 -2.2141
 7294SOL    HW233342   4.011   2.127   6.425 -0.4621  0.4771 -0.6508
 7295SOL     OW33343   1.336   2.247   9.681  0.6147 -0.3031  0.2828
 7295SOL    HW133344   1.333   2.167   9.735  1.1580  0.4150  1.3823
 7295SOL    HW233345   1.430   2.263   9.683  0.9376 -2.3430  1.7942
 7296SOL     OW33346   0.953   2.586   2.989  0.0443 -0.0363  0.1728
 7296SOL    HW133347   0.897   2.556   2.918 -0.1373 -1.6942  1.0166
 7296SOL    HW233348   1.041   2.559   2.963 -0.1001 -0.7848  0.4459
 7297SOL     OW33349   2.075   0.813  11.957 -0.0026  0.7996 -0.0419
 7297SOL    HW133350   2.010   0.868  12.001 -1.0507 -1.7439  1.5630
 7297SOL    HW233351   2.033   0.728  11.965  0.3887  0.5984 -0.1168
 7298SOL     OW33352   0.548   3.803   7.129  0.1084  0.6136 -0.0397
 7298SOL    HW133353   0.523   3.895   7.119 -0.1864  0.4416 -0.8960
 7298SOL    HW233354   0.462   3.761   7.124  2.1540 -3.3033 -2.1280
 7299SOL     OW33355   2.080   3.253   4.882 -0.4705  0.0214  0.3909
 7299SOL    HW133356   2.046   3.254   4.793  4.2894  0.3162 -1.4420
 7299SOL    HW233357   2.139   3.178   4.870  0.2773  0.2488  2.6798
 7300SOL     OW33358   3.397   1.657   8.688 -0.1337 -0.3590 -0.8289
 7300SOL    HW133359   3.492   1.665   8.679  0.1431 -0.3642  2.0324
 7300SOL    HW233360   3.369   1.688   8.602 -0.8801 -2.5515 -1.3643
 7301SOL     OW33361   3.825   2.089  11.753 -0.3231 -0.0678  0.4955
 7301SOL    HW133362   3.798   2.181  11.743  1.3384  0.1596 -1.7834
 7301SOL    HW233363   3.772   2.056  11.679 -0.8850  0.8085  0.4969
 7302SOL     OW33364   4.075   2.656   5.718 -0.6573 -0.2216 -0.1465
 7302SOL    HW133365   4.092   2.562   5.723  0.6364 -0.0123 -0.5268
 7302SOL    HW233366   3.997   2.672   5.771 -0.5196 -0.4120  0.1141
 7303SOL     OW33367   4.417   4.161   6.556 -0.8693 -0.0238  0.0728
 7303SOL    HW133368   4.465   4.103   6.616  0.3773 -1.4892 -2.3448
 7303SOL    HW233369   4.405   4.232   6.618  0.8864  1.3540 -1.1489
 7304SOL     OW33370   2.554   2.559   6.107 -0.3307  0.1344 -0.2672
 7304SOL    HW133371   2.470   2.605   6.098 -0.5621 -0.4396 -1.0720
 7304SOL    HW233372   2.578   2.542   6.016 -0.1023  0.3923 -0.2538
 7305SOL     OW33373   1.014   4.563   8.595 -0.6515 -0.3451 -0.0665
 7305SOL    HW133374   1.032   4.634   8.535 -1.1958 -0.5177 -0.4279
 7305SOL    HW233375   1.009   4.493   8.530  1.3083  1.0926 -1.7781
 7306SOL     OW33376   4.006   0.228   7.788 -0.3097 -0.1246  0.1158
 7306SOL    HW133377   4.006   0.145   7.740  1.2635 -1.1469  1.9090
 7306SOL    HW233378   4.098   0.223   7.814  0.2600 -0.2369 -1.8905
 7307SOL     OW33379   3.425   0.024   3.378 -0.1688 -0.4389  0.3379
 7307SOL    HW133380   3.392   0.114   3.370  1.5769  0.1956  0.2246
 7307SOL    HW233381   3.474   0.039   3.459  2.5631 -2.2420 -0.9847
 7308SOL     OW33382   4.033   1.222  15.242 -0.3058 -0.0861  0.3181
 7308SOL    HW133383   3.991   1.191  15.161  0.8496 -0.0923 -0.2715
 7308SOL    HW233384   4.120   1.185  15.227 -1.0688 -1.3473 -0.9838
 7309SOL     OW33385   4.363   3.514  12.569  0.2143  0.4641 -0.1252
 7309SOL    HW133386   4.448   3.505  12.612  1.0800  2.4371 -1.4039
 7309SOL    HW233387   4.380   3.604  12.542 -0.5778  0.3779 -0.9005
 7310SOL     OW33388   0.018   0.141   7.897 -0.8936 -0.0271  0.6629
 7310SOL    HW133389   0.035   0.104   7.810  0.4290 -0.2575  1.0147
 7310SOL    HW233390   4.647   0.146   7.912 -0.9854 -0.2066  0.1466
 7311SOL     OW33391   0.263   1.378   6.416  0.1858  0.1329 -0.5539
 7311SOL    HW133392   0.354   1.408   6.422 -0.1103  0.4953  2.2717
 7311SOL    HW233393   0.262   1.322   6.493 -0.4231 -0.0102 -0.6724
 7312SOL     OW33394   3.400   0.228   7.860  0.8282 -0.4503 -0.7594
 7312SOL    HW133395   3.393   0.228   7.955 -0.7506  1.5007 -0.8891
 7312SOL    HW233396   3.333   0.162   7.841 -0.5813  1.5721 -2.8215
 7313SOL     OW33397   0.723   1.833   8.175  0.2411 -0.2854 -0.0535
 7313SOL    HW133398   0.660   1.780   8.127  0.1157 -0.1608 -0.0265
 7313SOL    HW233399   0.672   1.866   8.249  1.7515 -1.2725  1.4286
 7314SOL     OW33400   0.380   1.069   7.397  0.0866  0.3004  0.4669
 7314SOL    HW133401   0.328   0.989   7.397  0.4921  0.0410  0.4139
 7314SOL    HW233402   0.343   1.121   7.326 -3.8732 -1.9229  0.8906
 7315SOL     OW33403   2.857   3.466   4.229  0.1805  0.3181  0.0061
 7315SOL    HW133404   2.917   3.402   4.190 -0.5613 -0.9659  0.9986
 7315SOL    HW233405   2.902   3.548   4.247 -0.2869  0.8119 -1.0798
 7316SOL     OW33406   4.614   3.061  10.724 -0.2004  0.1715 -0.4940
 7316SOL    HW133407   4.535   3.007  10.719 -1.1223  1.5825 -1.1794
 7316SOL    HW233408   4.618   3.110  10.642 -0.4999 -3.5734 -2.7282
 7317SOL     OW33409   3.333   4.154  14.055 -0.1131  0.5059 -0.3789
 7317SOL    HW133410   3.308   4.193  14.138 -0.4531 -0.4510 -0.0317
 7317SOL    HW233411   3.366   4.070  14.087 -0.7152 -0.0278 -1.1404
 7318SOL     OW33412   2.101   2.813  12.567  0.2174 -0.0117  0.1905
 7318SOL    HW133413   2.184   2.823  12.613  1.2395 -0.8625 -1.4819
 7318SOL    HW233414   2.073   2.732  12.609 -0.9760  0.0936 -0.4124
 7319SOL     OW33415   2.625   2.900  17.204  0.1556 -0.3327  0.2112
 7319SOL    HW133416   2.680   2.822  17.194 -2.2844 -2.0615  0.2692
 7319SOL    HW233417   2.542   2.864  17.236 -0.2866  0.6338  0.1536
 7320SOL     OW33418   3.020   3.428   9.253 -0.1175 -0.4349 -0.0527
 7320SOL    HW133419   2.930   3.443   9.224  0.7191 -0.8008 -2.8735
 7320SOL    HW233420   3.037   3.339   9.221 -3.1202 -1.4148  1.0219
 7321SOL     OW33421   1.176   4.527   2.339  0.4055  0.0409 -0.2854
 7321SOL    HW133422   1.202   4.437   2.321 -2.3313 -0.7050 -0.5493
 7321SOL    HW233423   1.215   4.536   2.426  1.2804 -0.6818 -0.6144
 7322SOL     OW33424   0.809   2.091   2.546 -0.5066 -0.5892 -0.5434
 7322SOL    HW133425   0.881   2.099   2.608 -0.5928 -0.2001 -0.4925
 7322SOL    HW233426   0.743   2.098   2.616 -0.2185 -0.2194 -0.3137
 7323SOL     OW33427   1.042   1.428   7.373  0.0409 -0.2582  0.2058
 7323SOL    HW133428   1.009   1.380   7.298  1.2936  0.1799 -0.6194
 7323SOL    HW233429   1.127   1.447   7.333 -0.1568 -0.4415 -0.2888
 7324SOL     OW33430   3.625   3.426   5.901  0.2973  0.0635 -0.0106
 7324SOL    HW133431   3.666   3.499   5.854  0.0372  0.4266  0.3191
 7324SOL    HW233432   3.606   3.453   5.991  0.1326 -1.3362  0.3640
 7325SOL     OW33433   4.195   2.864   9.123  0.3414  0.0466  0.5114
 7325SOL    HW133434   4.194   2.923   9.198 -3.0844 -0.7598  1.0680
 7325SOL    HW233435   4.105   2.832   9.121  0.3624  0.1109 -1.7070
 7326SOL     OW33436   0.641   0.408   1.610 -0.1574 -0.2346 -0.3732
 7326SOL    HW133437   0.653   0.496   1.575  0.1672 -0.5943 -1.1560
 7326SOL    HW233438   0.728   0.380   1.641 -0.2449  0.4201  0.4467
 7327SOL     OW33439   3.770   1.897   0.877  0.5145 -0.5903 -0.7892
 7327SOL    HW133440   3.803   1.935   0.958 -2.1383 -1.0445  0.5129
 7327SOL    HW233441   3.824   1.819   0.866 -0.2374 -1.5311  2.0286
 7328SOL     OW33442   3.773   3.648   4.105 -0.1577 -0.0917  0.0361
 7328SOL    HW133443   3.698   3.629   4.162 -0.0826  0.3555  0.2899
 7328SOL    HW233444   3.850   3.637   4.161 -0.6066 -1.7496  0.3267
 7329SOL     OW33445   2.736   4.345   8.250 -0.3540 -0.1846  0.6245
 7329SOL    HW133446   2.684   4.285   8.304 -0.4280 -1.4822 -0.9142
 7329SOL    HW233447   2.748   4.414   8.316 -2.1420  2.1925 -1.5330
 7330SOL     OW33448   0.644   1.825   1.688 -0.0566 -0.2240 -0.7004
 7330SOL    HW133449   0.618   1.739   1.654  0.9207 -1.2069  1.0686
 7330SOL    HW233450   0.560   1.871   1.691 -1.7828 -3.4263  0.6493
 7331SOL     OW33451   4.009   1.576   2.945  0.0732  0.6336 -0.1831
 7331SOL    HW133452   4.080   1.531   2.990 -1.4247 -1.1645  0.4202
 7331SOL    HW233453   4.006   1.543   2.855 -2.0838 -1.5149  0.6722
 7332SOL     OW33454   3.847   0.836   2.023 -0.3044 -0.2052  0.0581
 7332SOL    HW133455   3.894   0.865   2.102  0.6440 -1.9222  0.1242
 7332SOL    HW233456   3.905   0.877   1.958  0.2237 -2.6622 -0.9943
 7333SOL     OW33457   0.405   2.955   5.090  0.2838  0.1595  0.4773
 7333SOL    HW133458   0.331   2.998   5.046  1.8380  2.2038 -0.1246
 7333SOL    HW233459   0.432   3.022   5.152  0.8365 -1.0784  1.5754
 7334SOL     OW33460   4.211   2.163  14.969  0.2762  0.1351  0.1513
 7334SOL    HW133461   4.134   2.181  15.023  0.5312  1.4106  0.0749
 7334SOL    HW233462   4.288   2.155  15.027 -0.9144 -1.1531  1.5731
 7335SOL     OW33463   3.417   1.821   8.100  0.0759  0.0016 -0.4324
 7335SOL    HW133464   3.361   1.765   8.046  0.2240  0.6762 -1.2971
 7335SOL    HW233465   3.361   1.898   8.103  0.5790  0.3599 -0.2941
 7336SOL     OW33466   2.084   3.698  11.268  0.3445 -0.2929  0.3232
 7336SOL    HW133467   2.063   3.746  11.188  2.2511  1.5233  0.9055
 7336SOL    HW233468   2.158   3.640  11.248  0.5489  0.4582 -1.1067
 7337SOL     OW33469   0.657   3.285   4.081  0.2268 -0.0150 -0.2659
 7337SOL    HW133470   0.600   3.223   4.037 -2.5755  2.8660 -0.6979
 7337SOL    HW233471   0.721   3.224   4.117 -0.4346  0.1122  1.1049
 7338SOL     OW33472   0.418   4.211   5.732 -0.4047  0.1755 -0.1700
 7338SOL    HW133473   0.510   4.230   5.712 -0.9080 -0.1238 -2.7173
 7338SOL    HW233474   0.421   4.116   5.726  1.3242  0.2905 -1.0113
 7339SOL     OW33475   1.736   3.388  12.241  1.0702 -0.3436 -0.1808
 7339SOL    HW133476   1.645   3.362  12.255  0.1688  2.1836 -1.3836
 7339SOL    HW233477   1.788   3.309  12.252 -2.8138 -2.9034  0.0980
 7340SOL     OW33478   4.495   3.739   0.627 -0.5125  0.4677 -0.1909
 7340SOL    HW133479   4.464   3.717   0.539 -2.3694 -2.0408  1.1008
 7340SOL    HW233480   4.420   3.717   0.682 -1.5526  0.0904 -1.7518
 7341SOL     OW33481   2.777   0.631  14.414  0.3472  0.5283  0.2771
 7341SOL    HW133482   2.684   0.645  14.396  0.6835  0.0318 -1.8735
 7341SOL    HW233483   2.800   0.596  14.328  2.9858 -0.5333  1.4363
 7342SOL     OW33484   4.248   2.164   7.556 -0.2384  0.0800 -0.1733
 7342SOL    HW133485   4.227   2.071   7.559 -0.1952  0.2124  3.6056
 7342SOL    HW233486   4.189   2.193   7.625 -0.7515  0.2433 -0.6755
 7343SOL     OW33487   1.998   2.216   5.464 -0.5043  0.3663  0.4206
 7343SOL    HW133488   2.015   2.126   5.492 -1.1730  0.2323  0.3963
 7343SOL    HW233489   1.984   2.268   5.543  0.4642  0.9124  0.2322
 7344SOL     OW33490   1.243   0.594  15.095  0.0855  0.1010 -0.4068
 7344SOL    HW133491   1.217   0.502  15.095  1.1361 -0.1893 -2.2737
 7344SOL    HW233492   1.175   0.639  15.145 -2.0299 -2.2746 -1.1141
 7345SOL     OW33493   0.068   0.294   4.456  0.6390 -0.0177 -0.2432
 7345SOL    HW133494   0.100   0.242   4.382  2.1808 -0.9304  1.0612
 7345SOL    HW233495   0.141   0.349   4.485  0.7008  0.8134 -1.9789
 7346SOL     OW33496   2.329   1.566   2.484  0.3698  0.3130 -0.3310
 7346SOL    HW133497   2.417   1.604   2.485  1.0345 -1.1345 -2.8609
 7346SOL    HW233498   2.346   1.472   2.484  1.4966  0.5262 -1.1230
 7347SOL     OW33499   0.925   4.396   4.564  0.4613 -0.1696 -0.4914
 7347SOL    HW133500   0.899   4.483   4.594 -2.0211 -0.9467 -0.4014
 7347SOL    HW233501   0.982   4.350   4.626  0.7244  0.0933 -0.5389
 7348SOL     OW33502   0.612   1.525  12.403  0.0269 -0.2170 -0.1564
 7348SOL    HW133503   0.688   1.581  12.420  0.5757 -1.2619  0.8845
 7348SOL    HW233504   0.552   1.575  12.347 -1.4160  0.0407  1.6078
 7349SOL     OW33505   1.075   4.333   0.861  0.1277 -0.3355 -0.5902
 7349SOL    HW133506   1.164   4.303   0.881  0.0491 -0.9921 -1.2371
 7349SOL    HW233507   1.036   4.255   0.821 -2.6722  0.3916  0.7217
 7350SOL     OW33508   1.621   1.014   3.712 -0.1517 -0.5024  0.0639
 7350SOL    HW133509   1.612   0.919   3.716  0.5390 -0.5769 -0.1073
 7350SOL    HW233510   1.620   1.042   3.803  1.8287  1.6033 -0.5677
 7351SOL     OW33511   1.550   1.179   2.357 -0.1182 -0.1766  0.5184
 7351SOL    HW133512   1.604   1.168   2.436  0.6786  0.5632  0.0746
 7351SOL    HW233513   1.511   1.092   2.362  0.0877 -0.1844  1.9275
 7352SOL     OW33514   2.139   2.397   0.758  0.0447  0.0282 -0.0244
 7352SOL    HW133515   2.219   2.448   0.760  0.2870 -0.3797  0.6354
 7352SOL    HW233516   2.106   2.414   0.846 -2.1288  0.4644 -0.9266
 7353SOL     OW33517   2.339   0.816   6.868  0.6460 -0.6817 -0.0884
 7353SOL    HW133518   2.405   0.854   6.810 -1.9900  1.7766 -1.4750
 7353SOL    HW233519   2.261   0.856   6.829  0.8128 -1.6608 -1.4045
 7354SOL     OW33520   0.745   3.495   2.872 -0.3105 -0.4067 -0.5461
 7354SOL    HW133521   0.721   3.514   2.963  1.4005 -3.0263  0.4462
 7354SOL    HW233522   0.739   3.584   2.838  0.0907 -0.3433 -0.4478
 7355SOL     OW33523   2.415   4.673   7.790 -0.0204  0.0159  0.9569
 7355SOL    HW133524   2.409   4.579   7.808 -0.4535 -0.0663  0.3637
 7355SOL    HW233525   2.400   4.681   7.696  0.1001 -1.3272  0.8327
 7356SOL     OW33526   3.891   2.707   2.783 -0.3575 -0.5217 -0.3048
 7356SOL    HW133527   3.888   2.719   2.878  0.8090  3.8020 -0.8024
 7356SOL    HW233528   3.811   2.656   2.770 -1.5290  1.0978  0.5557
 7357SOL     OW33529   1.214   4.428   7.938 -0.8756 -0.4177 -0.1978
 7357SOL    HW133530   1.211   4.337   7.965  0.2283 -0.1971  0.6788
 7357SOL    HW233531   1.191   4.481   8.015 -0.1827  0.4629 -0.5952
 7358SOL     OW33532   0.965   3.393   3.164  0.1534  0.0489 -0.1519
 7358SOL    HW133533   1.059   3.393   3.143 -0.0244 -1.7876 -0.9904
 7358SOL    HW233534   0.947   3.480   3.199  4.0689 -0.5009  3.2267
 7359SOL     OW33535   4.023   3.046  11.172  0.5988 -0.7391  0.4029
 7359SOL    HW133536   3.983   3.102  11.238 -0.3642 -2.2241  1.0997
 7359SOL    HW233537   4.116   3.067  11.169 -0.0002  1.8683  0.0284
 7360SOL     OW33538   1.041   4.546   1.597  0.1969 -0.3404 -0.3413
 7360SOL    HW133539   1.021   4.481   1.665 -1.6196 -1.1417 -1.6492
 7360SOL    HW233540   0.978   4.614   1.622  2.1459  1.7613 -1.1619
 7361SOL     OW33541   1.344   2.706   2.617  0.0152  0.5621  0.1565
 7361SOL    HW133542   1.366   2.691   2.709  2.8251 -0.0202 -0.6103
 7361SOL    HW233543   1.431   2.707   2.577 -0.8476  2.3347 -1.6960
 7362SOL     OW33544   1.961   0.316   6.354  0.2926  0.3737 -0.2972
 7362SOL    HW133545   2.054   0.317   6.331  1.0149 -0.1455  2.5649
 7362SOL    HW233546   1.966   0.229   6.395 -0.6894  0.4522 -0.0291
 7363SOL     OW33547   0.899   4.329   3.602  0.4645 -0.2978  0.3929
 7363SOL    HW133548   0.973   4.275   3.629  0.0956 -0.2938  1.3959
 7363SOL    HW233549   0.834   4.284   3.656 -1.2851  0.8352 -0.7826
 7364SOL     OW33550   3.402   1.883   3.730 -0.9709 -0.3223  0.5033
 7364SOL    HW133551   3.433   1.817   3.668  0.6420  0.6980  0.2165
 7364SOL    HW233552   3.411   1.960   3.673  0.9528 -0.7489  0.2285
 7365SOL     OW33553   4.594   2.452   2.980 -0.2006 -0.0782  0.1913
 7365SOL    HW133554   4.562   2.474   2.893 -0.7677  1.4950  0.8112
 7365SOL    HW233555   4.582   2.534   3.027 -1.7486 -0.4468  0.4152
 7366SOL     OW33556   3.473   1.633  16.291 -0.2711  0.2339 -0.2651
 7366SOL    HW133557   3.433   1.716  16.319 -0.1305  0.3201 -0.3227
 7366SOL    HW233558   3.411   1.570  16.327  0.8766 -1.9287 -2.0733
 7367SOL     OW33559   0.360   4.271   4.989 -0.5631  0.4835 -0.2098
 7367SOL    HW133560   0.410   4.309   4.917 -1.1118  1.5965 -0.0056
 7367SOL    HW233561   0.361   4.355   5.036  2.1709  0.0421  0.5170
 7368SOL     OW33562   2.233   2.763  15.338 -0.6175 -0.1796  0.4200
 7368SOL    HW133563   2.250   2.825  15.268 -1.7935  0.1444  0.4165
 7368SOL    HW233564   2.139   2.749  15.330 -0.6802  0.3468  0.2323
 7369SOL     OW33565   3.339   3.720   8.851  0.6867 -0.0163  0.2867
 7369SOL    HW133566   3.365   3.678   8.933  2.8315 -1.9305 -1.3614
 7369SOL    HW233567   3.419   3.767   8.826 -0.8021  2.7570  0.7350
 7370SOL     OW33568   0.756   1.585  14.573  0.7638  0.0803  0.2574
 7370SOL    HW133569   0.661   1.586  14.579  0.7028 -0.7354 -0.6053
 7370SOL    HW233570   0.782   1.560  14.662 -0.5516  0.4628  0.7499
 7371SOL     OW33571   4.572   4.104   4.055 -0.3593 -0.2770  0.1163
 7371SOL    HW133572   4.593   4.036   3.991  0.9326  0.9877 -0.8022
 7371SOL    HW233573   4.529   4.174   4.006  0.0328  0.4481  0.7995
 7372SOL     OW33574   0.384   2.901   1.815 -0.0435 -0.7746  0.9177
 7372SOL    HW133575   0.350   2.985   1.785 -1.7277 -1.6991  0.2179
 7372SOL    HW233576   0.479   2.907   1.826 -0.1204 -0.1718  1.2364
 7373SOL     OW33577   0.676   4.141  11.975  0.4025  0.2119  0.2354
 7373SOL    HW133578   0.676   4.082  11.899  0.1691 -0.2567  0.5965
 7373SOL    HW233579   0.617   4.212  11.950  1.4866  1.4813  1.2825
 7374SOL     OW33580   1.201   1.250  15.825 -0.1402  0.0883 -0.2072
 7374SOL    HW133581   1.200   1.181  15.759 -1.1315  1.4333 -1.5875
 7374SOL    HW233582   1.269   1.299  15.779 -0.1286 -0.1928 -0.4884
 7375SOL     OW33583   3.092   4.198   6.539 -0.2087  0.3535  0.2811
 7375SOL    HW133584   3.066   4.225   6.451 -0.3706 -1.5005 -0.2380
 7375SOL    HW233585   3.175   4.155   6.520 -0.8486  0.0360 -1.7394
 7376SOL     OW33586   0.106   2.201   3.252  0.3438 -0.1541 -0.0221
 7376SOL    HW133587   0.172   2.194   3.321 -1.0640 -1.0952  1.2556
 7376SOL    HW233588   0.045   2.131   3.280 -1.4104  1.7799  0.9979
 7377SOL     OW33589   2.598   4.087   3.668  0.7125  0.1313  0.9205
 7377SOL    HW133590   2.606   4.178   3.699  0.4279 -0.2616  2.1467
 7377SOL    HW233591   2.572   4.045   3.750 -0.2711  2.2845  1.7152
 7378SOL     OW33592   3.962   2.453  12.398  0.0363 -0.1241  0.7332
 7378SOL    HW133593   4.050   2.474  12.366 -0.6943  1.2748 -0.3397
 7378SOL    HW233594   3.982   2.388  12.465  2.7581  0.6663  0.7033
 7379SOL     OW33595   3.227   2.368   3.751 -0.1579  0.8486 -0.1857
 7379SOL    HW133596   3.307   2.330   3.786  0.6312  1.8209 -0.9277
 7379SOL    HW233597   3.193   2.297   3.696  2.1160  0.4651 -1.1157
 7380SOL     OW33598   2.066   4.262   3.583  0.5049  0.0490  0.1166
 7380SOL    HW133599   2.103   4.315   3.653  1.3952 -1.1882  0.5859
 7380SOL    HW233600   1.977   4.299   3.583  0.5348  0.1256 -0.3039
 7381SOL     OW33601   3.837   3.417   5.114  0.1596 -0.0835 -0.7965
 7381SOL    HW133602   3.864   3.507   5.130 -0.1066  0.2289 -2.1370
 7381SOL    HW233603   3.758   3.444   5.067 -0.8705 -2.3818 -0.3878
 7382SOL     OW33604   0.344   0.857  15.660 -0.1885 -0.5260  0.4700
 7382SOL    HW133605   0.437   0.855  15.637 -0.7511  0.5968 -1.8638
 7382SOL    HW233606   0.307   0.802  15.590  0.3803 -1.8528  1.2059
 7383SOL     OW33607   2.705   0.956   7.532 -0.0018  0.3038 -0.1516
 7383SOL    HW133608   2.617   0.990   7.515  0.4229  1.0327 -0.8553
 7383SOL    HW233609   2.737   1.008   7.606 -0.9766 -1.3302  1.4198
 7384SOL     OW33610   1.375   4.626   6.280  0.6126 -0.2351  0.1796
 7384SOL    HW133611   1.409   4.715   6.292 -2.3213  1.0962 -1.4116
 7384SOL    HW233612   1.461   4.583   6.288  1.1185  0.4460 -1.7029
 7385SOL     OW33613   3.346   4.519   6.559 -0.1474  0.5940  0.2974
 7385SOL    HW133614   3.263   4.564   6.543 -1.5048 -1.8698  0.3873
 7385SOL    HW233615   3.311   4.471   6.634  0.8832  1.0875  1.0959
 7386SOL     OW33616   0.360   4.568   3.362  0.0232  0.1737  0.2094
 7386SOL    HW133617   0.390   4.617   3.439 -0.3524 -0.0435  0.4910
 7386SOL    HW233618   0.267   4.583   3.379  0.2200  1.0084  0.5706
 7387SOL     OW33619   0.307   1.269   9.011  0.5219  0.5230  0.0648
 7387SOL    HW133620   0.381   1.223   8.971 -0.0160  0.2824 -0.6514
 7387SOL    HW233621   0.292   1.352   8.965 -0.7025  0.6398  0.6747
 7388SOL     OW33622   2.000   1.293   3.567  0.4513  0.3574 -0.3285
 7388SOL    HW133623   1.967   1.294   3.657 -2.7397  1.3441 -1.5106
 7388SOL    HW233624   2.083   1.340   3.577 -0.0098  0.8332  1.2734
 7389SOL     OW33625   2.337   1.992   5.702 -0.6404 -0.1728  0.1910
 7389SOL    HW133626   2.404   2.046   5.745 -2.9781  2.8774 -0.0159
 7389SOL    HW233627   2.296   1.965   5.784 -0.8379 -0.1965  0.0852
 7390SOL     OW33628   0.572   2.635  12.938 -0.7954 -0.1319 -0.2002
 7390SOL    HW133629   0.651   2.613  12.987  0.3708  1.6222 -1.3148
 7390SOL    HW233630   0.516   2.558  12.950  2.2144 -1.9466  2.2968
 7391SOL     OW33631   3.438   3.865  15.105  0.4844 -0.5669 -0.1222
 7391SOL    HW133632   3.433   3.956  15.074 -0.7497 -0.8466 -0.7607
 7391SOL    HW233633   3.404   3.808  15.036  1.8568  0.1792 -1.3898
 7392SOL     OW33634   4.623   3.799   4.644 -0.3035  0.4136 -0.2213
 7392SOL    HW133635   4.658   3.878   4.604 -0.0494  0.3556 -0.1150
 7392SOL    HW233636   4.574   3.834   4.719  1.0392 -1.9777  1.7809
 7393SOL     OW33637   3.585   4.318   9.970 -0.3858 -0.2292  0.2845
 7393SOL    HW133638   3.565   4.407   9.941  0.1044  0.2244  1.3210
 7393SOL    HW233639   3.639   4.337  10.046  0.7887  1.8599 -1.0979
 7394SOL     OW33640   0.769   4.049   2.654 -0.1646  0.3500  0.4146
 7394SOL    HW133641   0.734   4.006   2.576  2.1604 -0.7188 -0.0446
 7394SOL    HW233642   0.713   4.029   2.729 -1.2400 -1.2764 -0.8347
 7395SOL     OW33643   3.928   2.644  12.767  0.9162 -0.1763 -0.1601
 7395SOL    HW133644   3.864   2.619  12.701 -0.7376  0.5045  1.1927
 7395SOL    HW233645   3.868   2.709  12.802  1.9674  0.4904  0.4140
 7396SOL     OW33646   4.573   4.227  16.059  0.4369 -0.3564 -0.1920
 7396SOL    HW133647   4.628   4.298  16.093  0.5754 -0.9586  0.8756
 7396SOL    HW233648   4.533   4.193  16.139  2.0704 -0.4168  0.6133
 7397SOL     OW33649   1.678   3.892   3.134  0.0969 -0.4462  0.4323
 7397SOL    HW133650   1.706   3.978   3.166  1.0865 -0.4268 -0.4980
 7397SOL    HW233651   1.740   3.825   3.161  0.1048 -0.0531  1.3900
 7398SOL     OW33652   4.065   1.778   1.855 -0.1149 -0.3492 -0.1305
 7398SOL    HW133653   4.157   1.807   1.851 -0.1692 -0.3389 -1.1490
 7398SOL    HW233654   4.048   1.736   1.771 -0.3533  1.3577 -0.9363
 7399SOL     OW33655   4.293   0.011   4.031 -0.3275 -0.2958  0.2607
 7399SOL    HW133656   4.225   0.076   4.045 -1.5082 -1.6968  1.0350
 7399SOL    HW233657   4.347   0.049   3.963 -0.6276  2.8896  1.7968
 7400SOL     OW33658   1.797   2.033  11.931 -0.5049 -0.1241  0.1615
 7400SOL    HW133659   1.718   2.078  11.961  0.8054  2.1519  0.2167
 7400SOL    HW233660   1.837   2.098  11.873  0.8485  0.3542  1.6418
 7401SOL     OW33661   4.261   0.766   0.914 -0.4652  0.2289  0.8789
 7401SOL    HW133662   4.192   0.774   0.848  0.6109 -1.4989 -0.4354
 7401SOL    HW233663   4.210   0.804   0.985 -1.6103  0.4490 -0.0659
 7402SOL     OW33664   0.592   4.451   8.715  0.5281 -0.0687  0.4246
 7402SOL    HW133665   0.526   4.513   8.746 -1.0386 -0.6751 -1.7112
 7402SOL    HW233666   0.675   4.497   8.720  0.1125  0.6666  0.6273
 7403SOL     OW33667   3.480   2.353  10.892 -0.6587 -0.4784  0.2078
 7403SOL    HW133668   3.497   2.373  10.800 -0.1010  1.4844  0.7547
 7403SOL    HW233669   3.385   2.354  10.905 -0.4377  1.6191  1.5997
 7404SOL     OW33670   0.164   0.732  15.891  0.1962 -0.0246  0.3173
 7404SOL    HW133671   0.225   0.690  15.830 -0.8670 -2.4762  0.9912
 7404SOL    HW233672   0.102   0.771  15.829  3.4432  1.5644 -1.9453
 7405SOL     OW33673   3.354   3.022   9.924 -0.5523  0.0617 -0.4372
 7405SOL    HW133674   3.282   2.978   9.879 -1.1726  2.1934 -1.5182
 7405SOL    HW233675   3.304   3.071   9.990  1.9034  0.3542  1.2153
 7406SOL     OW33676   4.005   2.812   9.593 -0.4311 -0.3480 -0.5630
 7406SOL    HW133677   4.005   2.740   9.529 -0.2599  1.1480 -2.2536
 7406SOL    HW233678   4.063   2.878   9.557 -0.7834 -0.0880 -0.6479
 7407SOL     OW33679   0.582   3.187   8.158  0.3061 -0.2098  0.4619
 7407SOL    HW133680   0.667   3.167   8.120  0.7136  0.8771  0.8098
 7407SOL    HW233681   0.571   3.111   8.215 -1.5846 -0.7812 -0.6561
 7408SOL     OW33682   3.643   4.437  10.518  0.1292  0.1212  0.8027
 7408SOL    HW133683   3.595   4.502  10.467 -0.4037  0.0304  1.1903
 7408SOL    HW233684   3.582   4.364  10.531 -2.5869  2.2715  0.1632
 7409SOL     OW33685   1.307   1.012  16.587  0.2162  0.2985 -0.0845
 7409SOL    HW133686   1.384   1.069  16.595  1.1718 -1.0200  0.1748
 7409SOL    HW233687   1.238   1.068  16.622 -0.6011 -1.9390  1.9269
 7410SOL     OW33688   2.320   2.204   2.929  0.0325  0.2443  0.1942
 7410SOL    HW133689   2.243   2.252   2.959 -0.3647  0.3437 -0.9696
 7410SOL    HW233690   2.395   2.244   2.972 -0.4960 -0.6474  1.9833
 7411SOL     OW33691   3.246   0.311   2.071  0.4666 -0.3239 -0.0148
 7411SOL    HW133692   3.199   0.244   2.020 -0.8053  0.4143  0.1997
 7411SOL    HW233693   3.224   0.387   2.017  0.1609 -1.2269 -1.1800
 7412SOL     OW33694   2.664   0.928  11.198  0.1452 -0.4264  0.0012
 7412SOL    HW133695   2.748   0.893  11.168 -1.0214 -0.8846 -2.7181
 7412SOL    HW233696   2.695   0.989  11.266  0.1056 -2.0734  1.4851
 7413SOL     OW33697   0.584   3.655  11.391 -0.1690  0.3185  0.1744
 7413SOL    HW133698   0.610   3.604  11.468  0.1555 -0.5494 -0.5038
 7413SOL    HW233699   0.640   3.609  11.329  0.4765  1.2101  0.0979
 7414SOL     OW33700   0.339   0.144   3.005 -0.4505  0.7072 -0.1822
 7414SOL    HW133701   0.420   0.195   3.001  0.5692 -0.9710 -0.7341
 7414SOL    HW233702   0.367   0.067   3.054 -0.0956  1.1672  0.3304
 7415SOL     OW33703   0.011   2.361  10.406 -0.1178 -0.4134  0.1209
 7415SOL    HW133704   0.042   2.298  10.341  1.7610  0.2226  0.4126
 7415SOL    HW233705   0.073   2.338  10.476 -0.8418 -2.7678 -0.0066
 7416SOL     OW33706   4.130   4.496  12.053 -0.0221  0.5937 -0.3982
 7416SOL    HW133707   4.178   4.531  11.978  1.4234 -1.7294 -0.5401
 7416SOL    HW233708   4.182   4.548  12.115 -1.3291  1.1654  0.2167
 7417SOL     OW33709   4.132   3.549   2.897 -0.6304 -0.6285 -0.4435
 7417SOL    HW133710   4.157   3.461   2.927 -3.6680 -1.4192 -0.2353
 7417SOL    HW233711   4.128   3.531   2.804  2.6715  1.9868 -1.0846
 7418SOL     OW33712   3.889   0.153   9.341 -0.3613  0.2905  0.0184
 7418SOL    HW133713   3.985   0.147   9.341 -0.3636  0.2084 -0.8075
 7418SOL    HW233714   3.873   0.165   9.435  0.6390 -0.7249  0.3244
 7419SOL     OW33715   1.211   2.085   7.851 -0.3852 -0.0621 -0.0375
 7419SOL    HW133716   1.266   2.162   7.867 -0.3840 -0.0669 -0.0177
 7419SOL    HW233717   1.216   2.052   7.941  0.7711 -0.0847 -0.1038
 7420SOL     OW33718   2.176   4.437  16.444  0.0003  0.2486 -0.6687
 7420SOL    HW133719   2.205   4.509  16.388 -0.1454 -0.2124 -1.3219
 7420SOL    HW233720   2.172   4.380  16.368  1.2379  2.8346 -2.6729
 7421SOL     OW33721   4.321   4.693   4.343  0.0051  0.1462  0.3550
 7421SOL    HW133722   4.397   4.640   4.370  0.4898  1.1120  0.9040
 7421SOL    HW233723   4.364   0.014   4.270 -1.5513 -1.4520 -1.5268
 7422SOL     OW33724   1.906   2.974   3.128  0.9028  0.1017  0.5574
 7422SOL    HW133725   1.928   3.043   3.065 -0.5820  0.7483  0.7699
 7422SOL    HW233726   1.839   2.926   3.080  1.1090  0.1301  0.2363
 7423SOL     OW33727   0.462   0.819   4.719 -0.3047 -0.2470 -0.0696
 7423SOL    HW133728   0.542   0.775   4.748 -0.8817  0.2845  2.2761
 7423SOL    HW233729   0.402   0.744   4.711 -0.2974 -0.4446  1.7492
 7424SOL     OW33730   1.895   2.466   7.039 -0.7607 -0.0467  0.1653
 7424SOL    HW133731   1.938   2.429   7.116  0.6022  0.0180 -0.5704
 7424SOL    HW233732   1.803   2.454   7.061 -0.4376  0.0088  1.5316
 7425SOL     OW33733   4.529   2.909  11.707  0.4002  0.3402  0.2380
 7425SOL    HW133734   4.551   2.825  11.667  2.1315  1.3581 -0.9410
 7425SOL    HW233735   4.615   2.940  11.735 -0.7484  1.6779  2.2902
 7426SOL     OW33736   4.314   1.186   4.076 -0.0522 -0.2306  0.4544
 7426SOL    HW133737   4.300   1.232   4.159 -0.7270 -0.7492  0.6309
 7426SOL    HW233738   4.358   1.257   4.028 -0.5132  0.3548  0.8914
 7427SOL     OW33739   3.011   0.120   4.879  0.3181  0.4280  0.4863
 7427SOL    HW133740   3.092   0.068   4.885  0.0865 -0.3297 -3.2336
 7427SOL    HW233741   2.986   0.100   4.789 -1.4543  3.5722  0.2962
 7428SOL     OW33742   0.966   2.893  10.232 -0.0398 -0.6795 -0.0700
 7428SOL    HW133743   0.912   2.948  10.176  1.2657 -0.0444 -0.6950
 7428SOL    HW233744   1.014   2.963  10.276  3.0510 -2.0554 -1.2553
 7429SOL     OW33745   0.843   1.699  12.940 -0.4927  0.0701  0.0343
 7429SOL    HW133746   0.883   1.659  12.863 -0.2189 -0.9550  0.7095
 7429SOL    HW233747   0.752   1.672  12.928 -0.3147 -0.4192 -0.1992
 7430SOL     OW33748   3.084   2.937   4.886  0.1304  0.1581  0.0899
 7430SOL    HW133749   2.995   2.971   4.890 -0.0106 -0.3327  1.1655
 7430SOL    HW233750   3.129   2.996   4.826  0.2432  0.2424  0.2563
 7431SOL     OW33751   3.503   0.582   9.344 -0.2026 -0.3949  0.5515
 7431SOL    HW133752   3.508   0.660   9.290 -0.5854 -0.3166  0.6290
 7431SOL    HW233753   3.562   0.528   9.292 -1.1778  0.9562 -1.9298
 7432SOL     OW33754   2.480   0.333  10.735  0.3223 -0.0653 -0.0335
 7432SOL    HW133755   2.414   0.400  10.717 -0.9302 -0.6430  2.4192
 7432SOL    HW233756   2.468   0.269  10.665 -1.5017  0.0628  0.1688
 7433SOL     OW33757   2.769   3.751  15.042  0.2451  0.1831  0.3204
 7433SOL    HW133758   2.750   3.750  15.136 -0.6224 -0.4917  0.1423
 7433SOL    HW233759   2.693   3.704  15.007  1.2503 -2.4253  1.5649
 7434SOL     OW33760   3.855   2.203   7.135  0.5657 -0.1222  0.4697
 7434SOL    HW133761   3.900   2.225   7.217  0.6349 -1.1233  0.7015
 7434SOL    HW233762   3.933   2.165   7.096  3.4271  0.5138  5.5732
 7435SOL     OW33763   2.091   2.170   4.481  0.2089  0.7366 -0.4458
 7435SOL    HW133764   1.996   2.179   4.484  0.0608 -1.0680  0.6959
 7435SOL    HW233765   2.104   2.098   4.542  1.4442  3.0689  2.0183
 7436SOL     OW33766   0.244   3.966   8.720  0.2753  0.1399 -0.1635
 7436SOL    HW133767   0.299   3.892   8.745  1.0717  0.2923 -1.4996
 7436SOL    HW233768   0.238   3.941   8.628 -1.3032  0.8346 -0.2507
 7437SOL     OW33769   1.376   1.032   0.208  0.2247 -0.1457 -0.2492
 7437SOL    HW133770   1.328   1.091   0.266 -1.1668 -0.9182 -0.6227
 7437SOL    HW233771   1.467   1.057   0.222  0.2196 -0.1442 -0.2187
 7438SOL     OW33772   2.437   3.786   4.087  0.0293  0.3279 -0.5323
 7438SOL    HW133773   2.375   3.725   4.047 -0.4120  1.5227 -1.6499
 7438SOL    HW233774   2.512   3.733   4.115 -0.6217 -1.2077 -1.7134
 7439SOL     OW33775   3.231   3.931   6.630 -0.3324  0.5659 -0.8983
 7439SOL    HW133776   3.160   3.916   6.567 -0.6719  1.2428 -0.6665
 7439SOL    HW233777   3.245   3.841   6.661 -0.0978  0.2272 -1.9712
 7440SOL     OW33778   3.987   3.122   6.117  0.1162 -0.0840  0.1551
 7440SOL    HW133779   3.929   3.131   6.041 -0.1472 -2.6933  0.0699
 7440SOL    HW233780   3.961   3.038   6.155 -1.4275  0.3485  0.0685
 7441SOL     OW33781   2.826   1.272  13.397 -0.3829  0.2134  0.5984
 7441SOL    HW133782   2.805   1.326  13.320 -0.0264 -0.2369  0.1874
 7441SOL    HW233783   2.787   1.188  13.372  0.0011  0.1459  0.2326
 7442SOL     OW33784   3.404   0.583   4.659 -0.2396  0.4992  0.1173
 7442SOL    HW133785   3.463   0.513   4.631  1.2395  1.8050  0.0002
 7442SOL    HW233786   3.471   0.651   4.664 -2.2122  2.4833 -0.1669
 7443SOL     OW33787   2.841   0.282  11.460 -0.4166  0.0607  0.3257
 7443SOL    HW133788   2.800   0.358  11.501  0.8838  0.6896  0.4775
 7443SOL    HW233789   2.914   0.327  11.416  0.1676 -0.1670  1.0604
 7444SOL     OW33790   1.511   1.258   6.530 -0.1956 -0.4597 -0.1895
 7444SOL    HW133791   1.485   1.350   6.524 -0.4199 -0.6274 -1.8019
 7444SOL    HW233792   1.432   1.217   6.495  0.1278 -1.0094 -0.2833
 7445SOL     OW33793   4.230   4.595   1.584 -0.3293 -0.0608 -0.0614
 7445SOL    HW133794   4.179   4.643   1.649  0.6500  1.2486 -0.2456
 7445SOL    HW233795   4.222   4.652   1.507 -0.7905 -1.0767 -0.7689
 7446SOL     OW33796   2.464   3.625   3.010  0.9793  0.3456 -0.0689
 7446SOL    HW133797   2.517   3.639   2.932 -0.2301 -0.2779 -1.0136
 7446SOL    HW233798   2.436   3.534   3.001 -0.4598  0.8334 -0.6237
 7447SOL     OW33799   2.719   2.759   2.169 -0.3032 -0.1081  0.0675
 7447SOL    HW133800   2.715   2.664   2.160 -0.1736 -0.1738  0.7361
 7447SOL    HW233801   2.630   2.785   2.195  0.7013  3.0852  0.2491
 7448SOL     OW33802   0.536   4.352   2.776 -0.4039 -0.5224 -0.7349
 7448SOL    HW133803   0.632   4.353   2.766 -0.3074 -1.4412  0.1002
 7448SOL    HW233804   0.520   4.437   2.816  0.8869  0.3068 -1.9476
 7449SOL     OW33805   2.624   1.138   1.868  0.0235 -0.1136  0.4118
 7449SOL    HW133806   2.666   1.214   1.909 -1.2015 -0.2517  1.9265
 7449SOL    HW233807   2.614   1.086   1.948 -1.2836 -0.2251  0.1730
 7450SOL     OW33808   2.602   3.254   2.296  0.2518  0.0478  0.0925
 7450SOL    HW133809   2.683   3.232   2.250 -0.1371 -0.3392 -0.4050
 7450SOL    HW233810   2.571   3.331   2.250  0.3954 -1.0716 -1.8514
 7451SOL     OW33811   3.132   0.430   3.729  0.5603 -0.2401  0.5610
 7451SOL    HW133812   3.097   0.515   3.703 -1.9527 -1.2896  0.4719
 7451SOL    HW233813   3.127   0.444   3.824 -1.4799 -0.9529  0.5725
 7452SOL     OW33814   4.096   0.581   2.350 -0.1470 -0.3012 -0.5488
 7452SOL    HW133815   4.079   0.505   2.295  0.6237 -1.4394  0.7821
 7452SOL    HW233816   4.188   0.594   2.327  0.4630 -1.2686  1.3184
 7453SOL     OW33817   0.762   3.431   5.998 -0.2617 -0.4132 -0.3984
 7453SOL    HW133818   0.667   3.445   5.993 -0.3612 -1.1870 -0.7598
 7453SOL    HW233819   0.785   3.349   6.041 -0.2637 -1.2531 -2.0114
 7454SOL     OW33820   0.722   4.400  14.739  0.8160  0.0360 -0.3214
 7454SOL    HW133821   0.708   4.305  14.734 -2.4402  0.5547 -1.2757
 7454SOL    HW233822   0.797   4.416  14.681  0.2481 -1.4310 -1.4578
 7455SOL     OW33823   1.526   1.220   4.980 -0.0129 -0.1969  0.1695
 7455SOL    HW133824   1.576   1.299   4.959  1.4207 -0.7282  1.5971
 7455SOL    HW233825   1.591   1.150   4.981  0.6201  0.3738 -0.6134
 7456SOL     OW33826   3.226   4.263   4.909  0.4583  0.6435  0.7058
 7456SOL    HW133827   3.280   4.231   4.837  0.2813 -2.8841  2.1413
 7456SOL    HW233828   3.277   4.342   4.930  1.0106  0.9130 -1.6607
 7457SOL     OW33829   0.517   3.491   5.597 -0.1696 -0.2007  0.3212
 7457SOL    HW133830   0.484   3.576   5.629  0.7335 -0.4549  1.9656
 7457SOL    HW233831   0.597   3.483   5.649 -1.8901  0.2556  3.0777
 7458SOL     OW33832   3.679   3.945  11.157  0.4324 -0.3366  0.0013
 7458SOL    HW133833   3.663   3.918  11.248 -0.4655  1.2620  0.3098
 7458SOL    HW233834   3.738   4.017  11.180 -1.8652  1.8438 -0.8859
 7459SOL     OW33835   1.683   1.529   3.996  0.2386  0.1727 -0.1211
 7459SOL    HW133836   1.616   1.552   3.931 -0.5585  0.0469  0.6546
 7459SOL    HW233837   1.753   1.507   3.934  1.7858  1.1372  1.3007
 7460SOL     OW33838   3.974   3.120   2.532 -0.1833 -0.5381  0.4010
 7460SOL    HW133839   3.933   3.205   2.549 -0.7101 -0.2326 -2.3814
 7460SOL    HW233840   3.960   3.124   2.437  1.0011  0.2101  0.2549
 7461SOL     OW33841   2.164   1.957   4.623  0.1900  0.2733  0.2354
 7461SOL    HW133842   2.250   1.994   4.601  0.6981 -1.9774 -1.6997
 7461SOL    HW233843   2.197   1.874   4.657 -1.8548 -0.5552  0.1984
 7462SOL     OW33844   4.475   1.298   5.710 -0.0412 -0.6017 -0.5308
 7462SOL    HW133845   4.501   1.381   5.750  1.0809 -2.0011  1.6644
 7462SOL    HW233846   4.426   1.260   5.783  0.0870 -0.2245 -0.2443
 7463SOL     OW33847   0.636   2.820  10.296  0.7034 -0.3590  0.3161
 7463SOL    HW133848   0.656   2.902  10.342 -2.2912  1.3310 -1.3517
 7463SOL    HW233849   0.545   2.816  10.328  0.8524 -1.7175  0.5772
 7464SOL     OW33850   1.198   1.358   6.286 -0.0823 -0.3167 -0.0606
 7464SOL    HW133851   1.262   1.374   6.217 -0.4838 -1.9527 -0.8168
 7464SOL    HW233852   1.255   1.309   6.346 -0.0431  0.5379  0.5914
 7465SOL     OW33853   1.873   3.089   2.275 -0.8119  0.0273 -0.2009
 7465SOL    HW133854   1.921   3.134   2.345  0.1155  0.7176 -1.2853
 7465SOL    HW233855   1.817   3.158   2.238 -1.0307 -0.5425 -0.9193
 7466SOL     OW33856   2.689   4.340   3.750 -0.0341 -0.2591  0.3126
 7466SOL    HW133857   2.772   4.306   3.786 -1.2325 -1.4586  1.9563
 7466SOL    HW233858   2.719   4.386   3.672 -1.1007  1.1059  0.6994
 7467SOL     OW33859   1.179   0.099   6.846 -0.1088  0.1621 -0.0053
 7467SOL    HW133860   1.159   0.089   6.753 -0.8321  3.6223 -0.2018
 7467SOL    HW233861   1.190   0.194   6.853 -0.7115  0.3836 -1.8622
 7468SOL     OW33862   1.690   2.804   2.206  0.0043 -0.3477 -0.7526
 7468SOL    HW133863   1.717   2.721   2.168  0.3469 -1.1559  1.2457
 7468SOL    HW233864   1.594   2.802   2.206 -0.0215  0.9489 -2.2353
 7469SOL     OW33865   4.590   1.683   8.256 -0.2914 -0.8178  0.2996
 7469SOL    HW133866   4.647   1.712   8.327 -1.2032  2.0273 -0.1361
 7469SOL    HW233867   4.634   1.603   8.226  0.3048 -0.7425  0.9840
 7470SOL     OW33868   2.845   4.157   0.928  0.3271  0.0604 -0.1779
 7470SOL    HW133869   2.931   4.122   0.952  0.0449 -0.6373 -0.1923
 7470SOL    HW233870   2.800   4.073   0.918 -1.5966  1.1827 -0.8653
 7471SOL     OW33871   0.035   3.743   2.691  0.1158  0.1454 -0.5274
 7471SOL    HW133872   4.722   3.785   2.614  1.1038  2.3759  0.2366
 7471SOL    HW233873   0.046   3.656   2.652  1.3642 -0.3023  0.8016
 7472SOL     OW33874   3.824   2.519  10.424 -0.1662  0.0859  0.3208
 7472SOL    HW133875   3.865   2.518  10.338 -2.3873 -0.5524 -0.7431
 7472SOL    HW233876   3.878   2.586  10.467 -0.6992  0.1678  0.8667
 7473SOL     OW33877   1.952   3.797  11.072 -0.6680 -0.0951 -0.6225
 7473SOL    HW133878   1.941   3.891  11.088  1.6434  0.0051  0.4925
 7473SOL    HW233879   1.974   3.790  10.979 -0.4441 -0.1405 -0.5663
 7474SOL     OW33880   0.864   1.746   2.231  0.1838 -0.3643 -0.2018
 7474SOL    HW133881   0.774   1.732   2.204 -0.5467  1.2430  1.3436
 7474SOL    HW233882   0.901   1.658   2.229  0.5232 -0.1986 -1.1579
 7475SOL     OW33883   1.576   1.188  15.166 -0.0146  0.5267 -0.0621
 7475SOL    HW133884   1.624   1.175  15.084  1.1649  0.1668  0.6914
 7475SOL    HW233885   1.649   1.229  15.212 -0.1630  2.0691 -1.1884
 7476SOL     OW33886   4.678   0.719   5.870 -0.0356  0.0868 -0.3738
 7476SOL    HW133887   0.031   0.711   5.927  0.4973 -0.3393 -1.1351
 7476SOL    HW233888   4.680   0.639   5.817 -0.3987 -0.5863  0.6435
 7477SOL     OW33889   1.347   0.536   0.100 -0.3301  0.0674  0.2952
 7477SOL    HW133890   1.346   0.450   0.059  0.1592  0.5198 -0.6445
 7477SOL    HW233891   1.304   0.579   0.026 -0.8407  1.3255  1.3204
 7478SOL     OW33892   4.360   4.239   3.189  0.5700 -0.0096  0.1062
 7478SOL    HW133893   4.279   4.189   3.199  0.7877 -0.0354  1.6889
 7478SOL    HW233894   4.329   4.322   3.152 -1.5930 -1.1576 -0.6682
 7479SOL     OW33895   3.757   3.920   8.005  0.5062  0.0192  0.8733
 7479SOL    HW133896   3.673   3.957   7.979  1.1030 -0.5242 -1.7773
 7479SOL    HW233897   3.729   3.828   8.007  1.9683 -0.4241  0.6109
 7480SOL     OW33898   0.752   3.234  12.885 -0.9324  0.4194 -0.1027
 7480SOL    HW133899   0.807   3.257  12.960  0.0706  0.1933 -0.7629
 7480SOL    HW233900   0.670   3.212  12.928 -0.3871  0.4431  0.9407
 7481SOL     OW33901   1.359   1.281  15.384  0.4431  0.0048 -0.8045
 7481SOL    HW133902   1.374   1.325  15.301  0.2731 -0.8118 -1.2653
 7481SOL    HW233903   1.447   1.274  15.421  0.5786 -2.3062 -1.5997
 7482SOL     OW33904   1.120   4.025   7.493  0.1639  0.0553 -0.3710
 7482SOL    HW133905   1.116   3.932   7.515 -0.6008 -0.6440 -3.4971
 7482SOL    HW233906   1.039   4.047   7.449 -0.1602  0.9697  0.6749
 7483SOL     OW33907   3.636   1.109   6.793 -0.0325 -0.4992 -0.2624
 7483SOL    HW133908   3.705   1.150   6.741  1.5693  0.3474  2.5331
 7483SOL    HW233909   3.662   1.112   6.885 -2.5404 -0.8774  0.4584
 7484SOL     OW33910   3.794   4.556   9.262  0.0059 -0.2558 -0.1928
 7484SOL    HW133911   3.705   4.587   9.280 -0.8178 -1.2336 -2.5435
 7484SOL    HW233912   3.839   4.626   9.309  0.4779 -1.0875  0.5972
 7485SOL     OW33913   2.472   4.580   3.494 -0.0008  0.3540  0.2273
 7485SOL    HW133914   2.506   4.664   3.463 -1.3922  0.7198 -0.3343
 7485SOL    HW233915   2.378   4.599   3.495 -0.8493 -3.9244  1.8036
 7486SOL     OW33916   1.705   4.224   4.076 -0.4278  0.5809 -0.0987
 7486SOL    HW133917   1.665   4.140   4.054 -0.1697 -0.1675  2.3647
 7486SOL    HW233918   1.778   4.180   4.120 -1.0927  0.6631  1.0607
 7487SOL     OW33919   1.557   3.107  16.452 -0.0580  0.1410 -0.5263
 7487SOL    HW133920   1.553   3.140  16.362 -0.1978 -0.9092 -0.9108
 7487SOL    HW233921   1.480   3.152  16.486  0.7480  0.3022  1.0641
 7488SOL     OW33922   2.959   0.748   5.738 -0.3411  0.2244  0.0983
 7488SOL    HW133923   2.949   0.694   5.816  0.0847  1.6358  1.1294
 7488SOL    HW233924   3.038   0.801   5.750  0.1471 -0.5553  0.3435
 7489SOL     OW33925   1.679   3.318   1.160 -0.5339  0.0257 -0.1391
 7489SOL    HW133926   1.747   3.381   1.184  0.8233 -2.5892  3.0005
 7489SOL    HW233927   1.718   3.282   1.081  2.2575  1.1999  0.7028
 7490SOL     OW33928   0.712   2.145   4.289 -0.1205 -0.5243  0.4802
 7490SOL    HW133929   0.762   2.226   4.297 -0.2464 -0.1356 -2.6357
 7490SOL    HW233930   0.695   2.118   4.380 -3.0179  2.4914  0.8530
 7491SOL     OW33931   1.148   4.153   7.215 -0.4154  0.6467 -0.5034
 7491SOL    HW133932   1.055   4.136   7.232 -0.3124 -1.4246 -1.9116
 7491SOL    HW233933   1.145   4.137   7.120 -1.5999 -1.0126 -0.2022
 7492SOL     OW33934   2.697   2.710   4.969 -0.2413 -0.6255  0.0857
 7492SOL    HW133935   2.734   2.676   5.050 -0.3280  0.5322  0.6079
 7492SOL    HW233936   2.771   2.702   4.908  0.9659  2.0647  1.2022
 7493SOL     OW33937   2.555   4.005   8.113 -0.1380  0.1927 -0.1587
 7493SOL    HW133938   2.634   4.042   8.075 -1.3692  2.6265 -0.4070
 7493SOL    HW233939   2.571   4.044   8.199 -1.8727  2.5619 -0.8945
 7494SOL     OW33940   3.937   3.093   3.029  0.7560 -0.2109  0.4383
 7494SOL    HW133941   3.926   3.000   3.013  0.5100 -0.4748  2.1570
 7494SOL    HW233942   3.992   3.110   2.953  1.2397  2.6806  1.4197
 7495SOL     OW33943   1.136   3.524   7.854 -0.2479  0.2419  0.1110
 7495SOL    HW133944   1.137   3.496   7.945  1.3525  0.7934  0.2518
 7495SOL    HW233945   1.160   3.615   7.869 -0.6415  0.0288  2.0670
 7496SOL     OW33946   1.169   2.011  15.742  0.3421 -0.2511  0.0344
 7496SOL    HW133947   1.257   1.982  15.768  1.4888  2.4330 -0.8595
 7496SOL    HW233948   1.164   1.967  15.657  3.9945  0.5447 -0.6255
 7497SOL     OW33949   2.099   4.380   3.827 -0.1319 -0.1848  0.5160
 7497SOL    HW133950   2.087   4.322   3.902 -0.1550 -0.2530  0.4591
 7497SOL    HW233951   2.018   4.430   3.837  0.4525  0.7309  0.6842
 7498SOL     OW33952   3.898   4.436   7.640 -0.6557  0.3371  0.5220
 7498SOL    HW133953   3.828   4.425   7.576  1.2618 -0.3784 -1.4840
 7498SOL    HW233954   3.949   4.354   7.640 -0.2455  0.5906 -0.0017
 7499SOL     OW33955   4.191   0.444   3.661 -0.6078 -0.2766 -0.3322
 7499SOL    HW133956   4.148   0.443   3.575 -2.5258 -0.3080  0.6199
 7499SOL    HW233957   4.274   0.489   3.645 -0.1885 -1.0678 -0.4089
 7500SOL     OW33958   2.968   0.144   6.038  0.6859 -0.5111  0.2353
 7500SOL    HW133959   2.995   0.136   5.946  0.9597 -1.3472  0.3888
 7500SOL    HW233960   2.890   0.198   6.024  1.7933  1.2580  0.8987
 7501SOL     OW33961   1.589   2.246   4.647 -0.6501  0.1253  0.4538
 7501SOL    HW133962   1.544   2.239   4.731 -3.2051  1.3290 -0.8271
 7501SOL    HW233963   1.562   2.165   4.603  0.2132  0.4637 -0.6945
 7502SOL     OW33964   4.263   2.029   6.053 -0.1757  0.0175 -0.6171
 7502SOL    HW133965   4.321   2.050   6.126 -1.4530  0.5530  0.2452
 7502SOL    HW233966   4.292   2.104   6.001 -0.1155  1.4014  1.4029
 7503SOL     OW33967   4.558   1.883  12.949 -0.3328  0.1136  0.7143
 7503SOL    HW133968   4.508   1.954  12.989 -0.8645  0.8479 -1.2315
 7503SOL    HW233969   4.644   1.922  12.935 -0.3938  0.7026  2.0242
 7504SOL     OW33970   1.595   4.604   6.633 -0.3730 -0.6162  0.2375
 7504SOL    HW133971   1.501   4.593   6.621 -0.2727 -2.4987  1.3403
 7504SOL    HW233972   1.611   4.597   6.727  0.9565  2.6257  0.2604
 7505SOL     OW33973   3.913   1.357   8.109  0.0831 -0.2607  0.3563
 7505SOL    HW133974   3.994   1.342   8.060 -0.0862 -2.6796  0.7954
 7505SOL    HW233975   3.952   1.380   8.193  2.5275 -1.1040 -0.5361
 7506SOL     OW33976   1.287   3.726   8.919  0.0862  0.2535  0.0023
 7506SOL    HW133977   1.196   3.710   8.892 -0.3453  1.5625  0.7108
 7506SOL    HW233978   1.293   3.650   8.977 -0.9030  0.5718  0.5344
 7507SOL     OW33979   0.975   0.053   1.968  0.3600  0.1012 -0.1655
 7507SOL    HW133980   1.044   4.712   1.983 -1.2102 -1.8780 -1.4643
 7507SOL    HW233981   0.933   0.028   2.050  0.2655  1.5329  0.2082
 7508SOL     OW33982   0.757   3.059   8.568  0.0683  0.2624 -0.1593
 7508SOL    HW133983   0.782   3.129   8.508 -2.4643  1.1159 -0.2321
 7508SOL    HW233984   0.679   3.031   8.520 -0.2707 -1.4732  1.4331
 7509SOL     OW33985   1.543   0.859   1.972 -0.2554 -0.0055  0.1527
 7509SOL    HW133986   1.455   0.835   2.001  0.2132 -2.5107 -0.5042
 7509SOL    HW233987   1.539   0.806   1.893  0.9790  0.2129 -0.0508
 7510SOL     OW33988   2.357   2.956   2.473  0.0730  0.0335 -0.4198
 7510SOL    HW133989   2.263   2.946   2.488  0.0705 -1.2639 -1.2320
 7510SOL    HW233990   2.379   3.028   2.532 -2.4491  0.8914 -0.5490
 7511SOL     OW33991   1.723   3.819  17.590 -0.3978 -0.7076  0.1395
 7511SOL    HW133992   1.729   3.846  17.498  0.1985 -1.9508 -0.1808
 7511SOL    HW233993   1.802   3.858  17.628 -0.1262 -1.7186  0.6141
 7512SOL     OW33994   0.933   3.703   1.501 -0.6324 -0.0492 -0.2391
 7512SOL    HW133995   0.990   3.635   1.464  2.4805  2.1244  0.6201
 7512SOL    HW233996   0.875   3.728   1.429  0.2664  0.8009 -0.6610
 7513SOL     OW33997   2.107   1.698   3.812  0.0648 -0.1364  0.2147
 7513SOL    HW133998   2.078   1.641   3.884  1.0833 -0.6893  0.1883
 7513SOL    HW233999   2.039   1.688   3.745  0.5701 -1.5811 -0.0713
 7514SOL     OW34000   4.656   3.653  16.912  0.3545 -0.1916  0.1467
 7514SOL    HW134001   4.661   3.654  16.816 -2.0145 -1.1486  0.0278
 7514SOL    HW234002   4.723   3.588  16.933  0.5206  0.8296  2.7584
 7515SOL     OW34003   1.460   2.179  12.816  0.7091 -0.1403 -0.7834
 7515SOL    HW134004   1.526   2.248  12.807 -1.4588  2.0851  0.3619
 7515SOL    HW234005   1.419   2.231  12.885 -0.5144 -0.3628 -1.3618
 7516SOL     OW34006   4.621   0.829   1.192  0.1508 -0.3473  0.5668
 7516SOL    HW134007   4.711   0.842   1.161  0.8590 -3.7305  1.2071
 7516SOL    HW234008   4.582   0.916   1.182  1.5523 -0.1453 -2.9707
 7517SOL     OW34009   1.359   2.337  13.028  0.1295  0.0657  0.8848
 7517SOL    HW134010   1.308   2.274  13.079 -1.2566 -0.4826 -1.1348
 7517SOL    HW234011   1.440   2.335  13.079  0.1396 -0.2807  0.8570
 7518SOL     OW34012   0.871   3.317   5.032  1.2232 -0.0130  0.3136
 7518SOL    HW134013   0.964   3.340   5.026  1.4840 -0.6039  2.0601
 7518SOL    HW234014   0.849   3.318   4.939  3.2642 -2.5586 -0.1984
 7519SOL     OW34015   2.852   0.674  10.238  0.3579 -0.0924 -0.2384
 7519SOL    HW134016   2.882   0.610  10.302  1.8407  0.4284 -0.4308
 7519SOL    HW234017   2.820   0.742  10.296  0.9314  1.0859 -1.2946
 7520SOL     OW34018   2.564   1.709   0.464  0.5329  0.2907  0.2847
 7520SOL    HW134019   2.581   1.620   0.434 -0.8330 -0.0069  0.4142
 7520SOL    HW234020   2.568   1.713   0.560  1.1561  1.5870  0.1956
 7521SOL     OW34021   0.119   1.197  13.007  0.0358  0.0887 -0.0166
 7521SOL    HW134022   0.205   1.215  13.045  0.9392 -1.1534 -1.4631
 7521SOL    HW234023   0.147   1.179  12.917  1.7114  3.3092 -0.1568
 7522SOL     OW34024   3.420   4.111   4.706  0.0021 -0.3025  0.1642
 7522SOL    HW134025   3.515   4.099   4.712  0.1937  0.8347 -0.6730
 7522SOL    HW234026   3.417   4.161   4.625  0.4647  0.6040  0.6962
 7523SOL     OW34027   0.503   2.006   0.690  0.0751 -0.2676 -0.4906
 7523SOL    HW134028   0.576   2.067   0.678 -0.4166  0.6289  1.1771
 7523SOL    HW234029   0.551   1.936   0.735 -1.4707 -0.0403  1.4959
 7524SOL     OW34030   0.444   2.166   2.406  0.0413  0.7939  0.1700
 7524SOL    HW134031   0.359   2.182   2.365 -1.3137 -1.5655  2.0976
 7524SOL    HW234032   0.437   2.230   2.478 -0.6530  1.6426 -0.6468
 7525SOL     OW34033   2.127   2.141  11.067  0.1244 -0.0354 -0.0567
 7525SOL    HW134034   2.158   2.198  11.138 -1.8628 -0.4393  1.1343
 7525SOL    HW234035   2.035   2.125  11.087 -0.0479 -0.0899 -0.9189
 7526SOL     OW34036   2.489   3.193   2.543 -0.3937  0.0759 -0.1505
 7526SOL    HW134037   2.515   3.213   2.453 -1.3817  2.1339  0.0061
 7526SOL    HW234038   2.477   3.283   2.575 -0.8148  0.2117 -0.6884
 7527SOL     OW34039   2.944   0.465   6.228  0.0673 -0.0800 -0.1359
 7527SOL    HW134040   3.038   0.465   6.212  0.3953  2.7088  1.8812
 7527SOL    HW234041   2.940   0.538   6.289 -0.7366 -1.2060  1.1548
 7528SOL     OW34042   0.622   0.937   7.627  0.4592  0.4143  0.3420
 7528SOL    HW134043   0.540   0.891   7.610  0.6849  0.7733 -1.8042
 7528SOL    HW234044   0.640   0.942   7.533  0.0715 -1.9194  0.1563
 7529SOL     OW34045   2.030   1.208   3.865 -0.2445 -0.1570 -0.7759
 7529SOL    HW134046   2.086   1.201   3.942 -0.7325  0.0187 -0.4006
 7529SOL    HW234047   1.950   1.242   3.906 -0.3875 -2.6546  1.0393
 7530SOL     OW34048   2.773   1.121  11.340 -0.0328 -0.0089 -0.2680
 7530SOL    HW134049   2.865   1.138  11.322  0.3305 -0.3820  1.2031
 7530SOL    HW234050   2.741   1.196  11.390  0.2986  0.6294 -1.0155
 7531SOL     OW34051   0.003   3.521   5.022 -0.1225  0.1552 -0.3230
 7531SOL    HW134052   0.048   3.507   5.105 -0.9040  1.2643  0.2903
 7531SOL    HW234053   0.058   3.585   4.977 -1.9938  2.5321  0.7207
 7532SOL     OW34054   0.802   0.074   2.204  0.1207  0.0005 -0.0378
 7532SOL    HW134055   0.773   0.165   2.213 -2.2745 -0.8616  1.1683
 7532SOL    HW234056   0.716   0.033   2.196 -0.1354  0.4462  0.4529
 7533SOL     OW34057   3.061   3.769  14.930 -0.2614  0.7179  0.0844
 7533SOL    HW134058   3.122   3.752  15.002 -0.2672 -0.0617 -0.0910
 7533SOL    HW234059   2.976   3.785  14.972 -0.3574 -2.0271  0.9308
 7534SOL     OW34060   3.196   2.044  11.629  0.0539  0.4685  0.1344
 7534SOL    HW134061   3.162   2.110  11.570 -0.4893 -0.1817 -0.2787
 7534SOL    HW234062   3.262   2.093  11.679  0.1375 -1.1589  1.6656
 7535SOL     OW34063   3.110   0.922   7.593 -0.2593 -0.0736  0.3297
 7535SOL    HW134064   3.174   0.993   7.585  0.1181 -0.4121  0.3379
 7535SOL    HW234065   3.087   0.911   7.500 -2.2641 -2.1604  1.0775
 7536SOL     OW34066   4.202   1.268   1.204  0.0865 -0.3168  0.4381
 7536SOL    HW134067   4.248   1.234   1.281  2.3334 -0.7080 -1.0871
 7536SOL    HW234068   4.130   1.204   1.198 -1.2234  1.4912 -3.0271
 7537SOL     OW34069   4.260   3.069  14.282  0.4652 -0.1757  0.2684
 7537SOL    HW134070   4.227   2.987  14.245 -0.8144 -0.2065  1.4786
 7537SOL    HW234071   4.206   3.123  14.225  2.4913  0.2204 -1.2722
 7538SOL     OW34072   4.479   1.501   4.996  1.1659  0.2646 -0.6991
 7538SOL    HW134073   4.454   1.413   4.968  2.2688  0.1326 -1.2651
 7538SOL    HW234074   4.533   1.523   4.921 -0.6603 -0.3991 -2.2017
 7539SOL     OW34075   2.669   3.753   7.130  0.1233  0.5760 -0.1936
 7539SOL    HW134076   2.664   3.848   7.114 -1.0992  0.6327  0.4858
 7539SOL    HW234077   2.597   3.711   7.083 -0.4563 -0.0992  1.2974
 7540SOL     OW34078   0.723   0.561   2.848 -0.2392 -0.1911 -0.1232
 7540SOL    HW134079   0.679   0.623   2.790 -1.5627 -2.1770 -1.2554
 7540SOL    HW234080   0.816   0.570   2.825  0.4375 -0.6910  2.4558
 7541SOL     OW34081   2.859   2.507   8.348 -0.1518 -0.4976  0.1225
 7541SOL    HW134082   2.784   2.448   8.348  0.3767 -1.1688 -0.8691
 7541SOL    HW234083   2.906   2.486   8.429  0.2505  0.1789  0.0713
 7542SOL     OW34084   1.262   4.090   3.624  0.1014  0.4536 -0.7201
 7542SOL    HW134085   1.323   4.098   3.698 -3.6508  0.6891  2.3318
 7542SOL    HW234086   1.185   4.068   3.677 -1.6053  0.0968 -3.3484
 7543SOL     OW34087   3.651   1.959   8.405 -0.5833 -0.6631 -0.3184
 7543SOL    HW134088   3.723   1.905   8.439  0.9409  1.1396 -0.6427
 7543SOL    HW234089   3.697   2.013   8.341  0.1586 -0.7371  0.1416
 7544SOL     OW34090   0.607   1.949   3.311  0.2962  0.2152 -0.4443
 7544SOL    HW134091   0.541   2.018   3.306  1.7520  1.7265  1.1509
 7544SOL    HW234092   0.629   1.950   3.404  2.7131 -1.3493 -0.9898
 7545SOL     OW34093   0.761   2.132  11.167  0.2765 -0.2282 -0.1853
 7545SOL    HW134094   0.704   2.199  11.129 -1.3500 -1.2932  0.3804
 7545SOL    HW234095   0.763   2.073  11.092  1.6790  2.0325 -1.9341
 7546SOL     OW34096   1.795   3.066   4.160  0.4948 -0.3112  0.0419
 7546SOL    HW134097   1.766   3.154   4.138  0.4582 -0.6025 -1.0565
 7546SOL    HW234098   1.887   3.086   4.177  0.8581 -0.2461 -2.0708
 7547SOL     OW34099   2.970   3.614   6.494  0.3732  0.0598 -0.1368
 7547SOL    HW134100   2.943   3.534   6.539 -0.1753  2.2317  3.4171
 7547SOL    HW234101   2.944   3.683   6.556 -2.2635  0.2906 -1.4933
 7548SOL     OW34102   1.301   1.005   8.127  0.1587  0.6471  0.2089
 7548SOL    HW134103   1.265   1.079   8.176 -0.6843  1.2118 -1.2716
 7548SOL    HW234104   1.394   1.025   8.140  0.5655 -1.6432  0.7014
 7549SOL     OW34105   1.127   4.674   4.373  0.0909 -0.2810  0.2816
 7549SOL    HW134106   1.111   4.614   4.300 -1.3947 -0.3057  0.6200
 7549SOL    HW234107   1.173   0.023   4.333 -2.5921  2.0964  1.4542
 7550SOL     OW34108   1.804   0.901   4.736 -0.7590  0.1634 -0.1743
 7550SOL    HW134109   1.735   0.968   4.740  0.1876  1.2619 -2.1311
 7550SOL    HW234110   1.878   0.944   4.692 -1.4284  1.5968  0.0968
 7551SOL     OW34111   1.923   3.246  17.070  0.1867 -0.2331 -0.1899
 7551SOL    HW134112   1.866   3.179  17.032  0.3545 -0.9616  0.8607
 7551SOL    HW234113   1.926   3.226  17.164 -0.3845  1.3208  0.1596
 7552SOL     OW34114   1.490   0.722   3.256  0.0768 -0.2283 -0.1268
 7552SOL    HW134115   1.577   0.757   3.238 -0.0127  1.6870  3.1372
 7552SOL    HW234116   1.517   0.646   3.307 -1.9567 -0.4027  0.6919
 7553SOL     OW34117   4.042   1.818   9.283 -0.0041 -0.2943 -0.2811
 7553SOL    HW134118   4.101   1.823   9.358 -1.0202  1.0073  0.4426
 7553SOL    HW234119   3.971   1.763   9.317  2.6602 -1.4972  3.3661
 7554SOL     OW34120   2.088   4.608   7.957  0.4037 -0.2845  0.1889
 7554SOL    HW134121   2.068   4.702   7.955  1.3353  0.0118  4.5633
 7554SOL    HW234122   2.012   4.577   8.006 -0.6703  1.4026 -0.3963
 7555SOL     OW34123   2.755   2.360   4.670  0.2570 -0.1897  0.6078
 7555SOL    HW134124   2.800   2.377   4.587  1.3109 -0.3231  1.1476
 7555SOL    HW234125   2.670   2.400   4.652 -0.4933 -2.2456 -0.2864
 7556SOL     OW34126   2.283   3.222   4.178  0.4061  0.1366 -0.0373
 7556SOL    HW134127   2.378   3.235   4.178  0.4158  0.0568 -1.2899
 7556SOL    HW234128   2.257   3.261   4.095  0.1934  0.6282  0.2614
 7557SOL     OW34129   2.741   1.380   8.611 -0.3802  0.1652  0.6021
 7557SOL    HW134130   2.778   1.441   8.674  1.4567 -0.9565  0.5878
 7557SOL    HW234131   2.792   1.410   8.536 -1.6902 -2.3382 -1.3058
 7558SOL     OW34132   3.186   0.668   8.218  0.0313  0.3205  0.4747
 7558SOL    HW134133   3.197   0.646   8.310 -0.5292  0.6229  0.6159
 7558SOL    HW234134   3.276   0.651   8.191 -0.0070 -1.3867  1.4181
 7559SOL     OW34135   3.774   4.550   0.457 -0.3722 -0.1158 -0.0073
 7559SOL    HW134136   3.744   4.493   0.386  0.9797 -0.0456 -0.6306
 7559SOL    HW234137   3.772   4.638   0.420 -2.7106 -0.3181 -0.3890
 7560SOL     OW34138   1.747   1.474   7.927 -0.0255 -0.5265  0.1634
 7560SOL    HW134139   1.663   1.454   7.887  1.1327 -0.9860 -2.0557
 7560SOL    HW234140   1.725   1.444   8.016  0.0303  0.9691  0.6761
 7561SOL     OW34141   1.144   2.273   4.551 -0.3188  0.2051  0.4137
 7561SOL    HW134142   1.155   2.215   4.627  3.2594 -0.5693 -0.6949
 7561SOL    HW234143   1.052   2.261   4.528  0.6352 -2.1066 -2.2149
 7562SOL     OW34144   0.792   3.640   8.504  0.0082 -0.0997  0.4241
 7562SOL    HW134145   0.755   3.699   8.438  0.3701 -0.2114  0.1194
 7562SOL    HW234146   0.862   3.694   8.542  0.4084  0.4988 -1.1284
 7563SOL     OW34147   1.230   4.126   8.068 -0.2792 -0.6686 -0.0092
 7563SOL    HW134148   1.146   4.153   8.104 -0.1185  0.6005 -0.5883
 7563SOL    HW234149   1.253   4.062   8.135  2.8425  0.4440 -0.0537
 7564SOL     OW34150   0.740   2.856   0.154  0.5322 -0.0880  0.2724
 7564SOL    HW134151   0.755   2.762   0.141  0.2324 -0.1427  0.3315
 7564SOL    HW234152   0.827   2.886   0.129  0.6931  1.1285  2.3564
 7565SOL     OW34153   1.151   2.371   4.110  0.1826  0.4456  0.1774
 7565SOL    HW134154   1.220   2.368   4.176  1.1970 -1.7831 -1.0105
 7565SOL    HW234155   1.197   2.421   4.042 -1.8014  0.0190 -1.4610
 7566SOL     OW34156   3.834   4.695   7.411  0.0317  0.7889  0.2503
 7566SOL    HW134157   3.778   4.671   7.484  1.6788  1.6395  1.7963
 7566SOL    HW234158   3.854   4.610   7.371  0.8289  0.5380  1.1897
 7567SOL     OW34159   3.762   3.374   8.651  0.1772  0.6784  0.0379
 7567SOL    HW134160   3.836   3.335   8.698  0.7923  0.1722 -1.3523
 7567SOL    HW234161   3.791   3.437   8.585  0.4934  1.9998  1.4495
 7568SOL     OW34162   0.304   1.166  15.964 -0.0249 -0.0706 -0.8222
 7568SOL    HW134163   0.328   1.226  16.035  1.5384 -2.8818  1.0278
 7568SOL    HW234164   0.347   1.083  15.982 -0.9963 -0.3215  0.3362
 7569SOL     OW34165   1.562   3.213   2.085  0.4321  0.3755  0.5287
 7569SOL    HW134166   1.469   3.227   2.068  0.5550  0.4366 -0.1079
 7569SOL    HW234167   1.561   3.170   2.171 -0.5757  0.3790  0.5157
 7570SOL     OW34168   3.033   4.297   2.373 -0.4435  0.3089 -0.3926
 7570SOL    HW134169   3.061   4.214   2.335 -0.7631 -0.7141  1.6102
 7570SOL    HW234170   2.949   4.300   2.328 -1.1713 -1.5999  0.8249
 7571SOL     OW34171   3.062   1.840   4.100  0.4630 -0.5006  0.3222
 7571SOL    HW134172   3.027   1.751   4.107  2.3073 -1.1391  1.4474
 7571SOL    HW234173   3.144   1.812   4.060  0.7181  0.8919 -0.1483
 7572SOL     OW34174   2.990   1.031   5.532  0.5179  0.6673  0.0764
 7572SOL    HW134175   2.941   0.981   5.597  2.1923 -0.7544  0.2660
 7572SOL    HW234176   3.076   0.987   5.533  0.1184 -0.1049  0.4348
 7573SOL     OW34177   0.177   0.152   4.227  0.0537  0.4429  0.6064
 7573SOL    HW134178   0.228   0.072   4.238 -0.7970 -0.1456  0.2021
 7573SOL    HW234179   0.204   0.172   4.137 -0.5880 -0.7461  0.1535
 7574SOL     OW34180   1.295   3.242   5.701  0.3613  0.0405  0.2794
 7574SOL    HW134181   1.306   3.319   5.646 -0.4992 -0.9077 -1.2209
 7574SOL    HW234182   1.341   3.268   5.780 -0.4768  2.6422 -0.0938
 7575SOL     OW34183   0.038   3.079  11.850  0.1002  0.2267  0.2777
 7575SOL    HW134184   0.099   3.149  11.870  0.8513 -0.0959 -0.8818
 7575SOL    HW234185   0.058   3.065  11.757 -0.5221  1.2518 -0.0119
 7576SOL     OW34186   2.041   2.320   7.986 -0.1234 -0.4010  0.2557
 7576SOL    HW134187   1.947   2.304   7.995 -0.2483  1.7653  2.6713
 7576SOL    HW234188   2.078   2.258   8.049 -0.2397 -0.7314  0.0030
 7577SOL     OW34189   4.053   4.469   2.728  0.1806  0.2086  0.0820
 7577SOL    HW134190   4.129   4.411   2.737  1.8853  2.2235 -1.1065
 7577SOL    HW234191   4.086   4.552   2.692  1.2062  0.9197  2.6624
 7578SOL     OW34192   2.884   2.404  15.842  0.3558  0.2761 -0.6777
 7578SOL    HW134193   2.810   2.407  15.902  0.9408  1.4446 -0.0142
 7578SOL    HW234194   2.949   2.373  15.904 -1.4177 -0.4664  0.7850
 7579SOL     OW34195   3.771   1.213   4.140 -0.1843  0.0147 -0.2599
 7579SOL    HW134196   3.762   1.267   4.219  3.2487 -0.3022  0.3578
 7579SOL    HW234197   3.758   1.123   4.172 -0.8973  0.2063  0.0061
 7580SOL     OW34198   2.400   0.718   5.523 -0.5020  0.1057  0.6566
 7580SOL    HW134199   2.467   0.651   5.533 -0.9361 -0.4192  0.1160
 7580SOL    HW234200   2.425   0.752   5.437  0.8201 -0.8050  0.6858
 7581SOL     OW34201   3.508   4.545   2.577  0.4234 -0.0000  0.6665
 7581SOL    HW134202   3.413   4.541   2.563  0.8969  0.0594 -2.4967
 7581SOL    HW234203   3.540   4.580   2.494 -0.0542  0.0853  0.5210
 7582SOL     OW34204   4.478   3.395   6.910 -0.0746 -0.3214  0.0348
 7582SOL    HW134205   4.554   3.424   6.859  0.9436  1.6846  2.6710
 7582SOL    HW234206   4.402   3.429   6.863  1.2885 -0.4134 -2.2212
 7583SOL     OW34207   3.022   4.218  16.007 -0.1131  0.1039 -0.3832
 7583SOL    HW134208   3.049   4.236  15.917  0.3745  2.4570  0.2461
 7583SOL    HW234209   3.098   4.256  16.050  0.1794 -0.3007 -0.5399
 7584SOL     OW34210   0.726   4.133  10.064  0.1048 -0.6776  0.2049
 7584SOL    HW134211   0.699   4.103  10.151 -0.6208 -1.8089 -0.4190
 7584SOL    HW234212   0.692   4.060  10.014  2.8864 -0.4155 -2.1026
 7585SOL     OW34213   1.791   3.648  11.258  0.0046 -0.1603 -0.4891
 7585SOL    HW134214   1.828   3.656  11.170 -4.4252  2.1293 -2.1658
 7585SOL    HW234215   1.865   3.598  11.292  0.2995  0.7105  0.1279
 7586SOL     OW34216   2.908   4.669   3.807  0.0582  0.4033  0.1854
 7586SOL    HW134217   2.843   4.621   3.756  0.2851  1.4477 -1.0760
 7586SOL    HW234218   2.860   0.025   3.832  1.5354  1.4622 -0.3326
 7587SOL     OW34219   0.009   1.197   9.466 -0.3300  0.3970  0.0937
 7587SOL    HW134220   0.091   1.219   9.421 -2.1302  3.2628 -1.7894
 7587SOL    HW234221   0.026   1.114   9.512  1.4102 -0.4389 -2.0366
 7588SOL     OW34222   4.721   3.895   3.136 -0.4799 -0.1039  0.0167
 7588SOL    HW134223   0.050   3.930   3.064  0.9517 -0.7161  0.7620
 7588SOL    HW234224   4.667   3.971   3.160  1.0106  0.4433  1.6369
 7589SOL     OW34225   4.550   1.542   6.586  0.0426 -0.0162  0.7085
 7589SOL    HW134226   4.468   1.534   6.636  2.0651 -0.1004  4.0007
 7589SOL    HW234227   4.540   1.468   6.526 -1.2082 -1.0590  2.1976
 7590SOL     OW34228   2.984   0.705   0.381 -0.5530  0.1790  0.1678
 7590SOL    HW134229   2.914   0.677   0.322 -0.3300  3.4289 -1.6232
 7590SOL    HW234230   2.945   0.763   0.448 -1.3844 -2.8631  2.3016
 7591SOL     OW34231   1.938   4.061   1.492 -0.1510 -0.1683  0.2857
 7591SOL    HW134232   2.005   4.089   1.431 -1.2499 -2.5145 -1.9983
 7591SOL    HW234233   1.936   3.967   1.475 -0.4610  0.3512 -2.4804
 7592SOL     OW34234   0.736   4.123   9.531 -0.1074 -0.3362 -0.3089
 7592SOL    HW134235   0.811   4.126   9.590 -0.4513 -1.3618  0.1699
 7592SOL    HW234236   0.771   4.176   9.459 -1.6016 -0.6544 -1.2748
 7593SOL     OW34237   0.355   0.229   3.362  0.5122  0.6141  0.2372
 7593SOL    HW134238   0.376   0.303   3.419  0.0799  1.3147 -0.5159
 7593SOL    HW234239   0.407   0.248   3.284  2.6858 -0.4923  1.3965
 7594SOL     OW34240   2.534   1.426   8.016 -0.3293  0.1477 -0.1929
 7594SOL    HW134241   2.491   1.341   8.024 -1.4966  0.5294 -2.7159
 7594SOL    HW234242   2.571   1.429   8.105 -0.8164 -0.2953  0.0278
 7595SOL     OW34243   0.019   0.155   7.015  0.1902  0.0214  0.2985
 7595SOL    HW134244   0.094   0.101   6.988  1.0700  0.8861  0.9895
 7595SOL    HW234245   0.027   0.141   7.110  2.1322 -0.2962  0.1037
 7596SOL     OW34246   1.731   2.516   9.583  0.0625  0.4013 -0.6487
 7596SOL    HW134247   1.807   2.465   9.613 -1.0972 -0.5535  0.7323
 7596SOL    HW234248   1.706   2.470   9.503 -0.8542  0.0259 -0.1565
 7597SOL     OW34249   2.652   0.238   5.282 -0.2946  0.1220 -0.3369
 7597SOL    HW134250   2.565   0.260   5.248 -0.3149 -1.0773 -1.0675
 7597SOL    HW234251   2.691   0.176   5.220 -0.6243 -0.9190  0.4919
 7598SOL     OW34252   4.252   3.432  15.451  0.0065  0.1303 -0.5750
 7598SOL    HW134253   4.247   3.360  15.388  0.8032 -0.3210 -0.1177
 7598SOL    HW234254   4.172   3.414  15.499  0.3873 -1.5293 -0.5801
 7599SOL     OW34255   4.354   0.604   9.470  0.1036  0.1824 -0.4207
 7599SOL    HW134256   4.263   0.578   9.484 -0.1318  0.5788 -1.2242
 7599SOL    HW234257   4.357   0.670   9.539 -1.5449 -0.1170 -0.0537
 7600SOL     OW34258   0.188   1.491   1.359  0.3299  0.2819 -0.2572
 7600SOL    HW134259   0.111   1.540   1.388 -0.1411 -1.9983  2.3335
 7600SOL    HW234260   0.244   1.562   1.326 -0.4951  0.7127 -0.7087
 7601SOL     OW34261   2.073   3.583  17.117 -0.7423 -0.1860  0.0223
 7601SOL    HW134262   2.051   3.587  17.210 -0.6501 -1.1179  0.0865
 7601SOL    HW234263   2.162   3.615  17.132 -1.4081  1.9212 -0.5276
 7602SOL     OW34264   2.128   4.174   4.008  0.7901  0.2087  0.0494
 7602SOL    HW134265   2.181   4.107   4.052 -1.5204 -1.1541  0.7565
 7602SOL    HW234266   2.139   4.149   3.916 -2.3419 -2.0791  0.2927
 7603SOL     OW34267   2.132   2.653   7.292 -0.4760  0.3596  0.0224
 7603SOL    HW134268   2.076   2.674   7.366  0.3187 -0.7244  0.9363
 7603SOL    HW234269   2.201   2.719   7.305  2.4711 -2.6198 -0.3241
 7604SOL     OW34270   0.819   3.198   6.869  0.1425 -0.2522 -0.4533
 7604SOL    HW134271   0.739   3.215   6.918  0.0490 -0.1140 -0.6536
 7604SOL    HW234272   0.795   3.254   6.795 -1.7631  0.1357  0.4827
 7605SOL     OW34273   0.981   2.137   8.347 -0.7809  0.6490 -0.1594
 7605SOL    HW134274   0.936   2.093   8.419 -0.1067 -2.0958 -1.3960
 7605SOL    HW234275   1.004   2.224   8.379  0.0350  1.1569 -2.0864
 7606SOL     OW34276   2.837   4.012   7.419  0.7251 -0.6347 -0.2786
 7606SOL    HW134277   2.808   4.095   7.456 -1.1061 -1.2347 -0.3251
 7606SOL    HW234278   2.929   4.032   7.405  0.7561 -0.3114  0.3876
 7607SOL     OW34279   1.078   4.601   0.933 -0.3536  0.5160  0.5009
 7607SOL    HW134280   1.159   4.651   0.922 -1.5606  2.1935 -0.7262
 7607SOL    HW234281   1.108   4.512   0.950 -3.0646 -0.3650  0.7387
 7608SOL     OW34282   2.336   2.776  13.828  0.0871  0.3443 -0.4515
 7608SOL    HW134283   2.302   2.862  13.853  0.6144  0.3178  0.3340
 7608SOL    HW234284   2.425   2.785  13.861  0.5372 -2.5931 -0.9267
 7609SOL     OW34285   1.404   0.413  14.689  0.0914 -0.2311 -0.7733
 7609SOL    HW134286   1.419   0.499  14.729  0.9087 -1.1219  0.8489
 7609SOL    HW234287   1.411   0.356  14.766 -0.5481 -1.2489 -1.4707
 7610SOL     OW34288   2.160   2.353  12.646 -0.1055  0.0647  0.6241
 7610SOL    HW134289   2.177   2.357  12.740 -1.3164  0.7079  0.8145
 7610SOL    HW234290   2.249   2.366  12.613  0.3007 -0.4103  1.5315
 7611SOL     OW34291   2.145   0.663   0.107 -0.1902 -0.4971  0.2637
 7611SOL    HW134292   2.100   0.652   0.023  0.8126  1.1087 -0.4846
 7611SOL    HW234293   2.092   0.598   0.154 -0.3178 -2.3463 -2.4154
 7612SOL     OW34294   3.548   2.946   9.714 -0.1300 -0.2936 -0.3906
 7612SOL    HW134295   3.567   2.853   9.700 -0.4699 -0.0356 -2.5477
 7612SOL    HW234296   3.499   2.953   9.796  0.7159  1.1174 -0.0067
 7613SOL     OW34297   0.120   3.707   8.242  0.5897 -0.9026  0.0607
 7613SOL    HW134298   0.149   3.750   8.161 -1.2782 -2.0108 -1.1835
 7613SOL    HW234299   0.121   3.617   8.210  0.3807 -1.8747  2.8420
 7614SOL     OW34300   1.773   2.023   9.640  0.1248 -0.0065  0.2221
 7614SOL    HW134301   1.781   2.006   9.733 -0.0069 -0.3204  0.1769
 7614SOL    HW234302   1.865   2.043   9.623  0.4609 -0.6148  1.3423
 7615SOL     OW34303   0.004   1.533  16.096 -0.1750 -0.8637 -0.5422
 7615SOL    HW134304   0.060   1.605  16.066 -2.2550  1.1024  0.2634
 7615SOL    HW234305   4.656   1.526  16.033  0.0480 -0.3923 -0.8437
 7616SOL     OW34306   3.387   0.611   7.529  0.2729 -0.5247 -0.0262
 7616SOL    HW134307   3.297   0.585   7.550  0.0384  1.1267  1.0345
 7616SOL    HW234308   3.407   0.670   7.601 -0.0617 -2.0015  1.2827
 7617SOL     OW34309   1.435   4.343   6.499 -0.2925  1.0185  0.0381
 7617SOL    HW134310   1.517   4.328   6.547 -0.6784  0.1581  0.4415
 7617SOL    HW234311   1.403   4.425   6.537  2.7417  2.1977  0.0215
 7618SOL     OW34312   3.828   1.037   0.153 -0.0025  0.6409 -0.6745
 7618SOL    HW134313   3.746   0.988   0.139  0.9742 -1.3707  0.6597
 7618SOL    HW234314   3.821   1.057   0.246  1.4543  0.4967 -0.5411
 7619SOL     OW34315   4.106   4.669   5.972 -0.0968 -0.1173 -0.1720
 7619SOL    HW134316   4.163   4.597   5.946  1.1968  0.4684  0.9659
 7619SOL    HW234317   4.045   4.620   6.027 -1.0062  1.2512  0.0339
 7620SOL     OW34318   2.339   2.706   6.094 -0.1959 -0.6817 -0.1501
 7620SOL    HW134319   2.296   2.727   6.177 -2.1100  0.0646 -1.3579
 7620SOL    HW234320   2.304   2.766   6.028  0.5465  0.0443  0.1111
 7621SOL     OW34321   2.733   1.097   7.765  0.5148 -0.8924 -0.2878
 7621SOL    HW134322   2.751   1.027   7.828 -2.1686 -0.8085  0.5821
 7621SOL    HW234323   2.640   1.116   7.778  1.0159  2.2790 -1.2663
 7622SOL     OW34324   0.163   2.572  10.728 -0.2759  0.7586  0.3416
 7622SOL    HW134325   0.117   2.489  10.720 -0.2663  0.8461 -0.5887
 7622SOL    HW234326   0.244   2.567  10.676 -0.1093 -0.8850  0.7684
 7623SOL     OW34327   0.357   3.443  12.497  0.0871  0.2909  0.2890
 7623SOL    HW134328   0.315   3.459  12.413 -0.8591 -1.5399  0.4139
 7623SOL    HW234329   0.430   3.383  12.480 -1.7866 -1.4314 -1.6037
 7624SOL     OW34330   2.936   4.420  12.364  0.1758 -0.1386  0.0926
 7624SOL    HW134331   2.953   4.326  12.374  1.6032 -0.0355 -1.2132
 7624SOL    HW234332   3.007   4.453  12.419  0.5984 -2.0441  0.7116
 7625SOL     OW34333   4.408   0.612  12.623  0.9831 -0.0419  0.8675
 7625SOL    HW134334   4.343   0.590  12.690  0.8931 -2.2461  0.0508
 7625SOL    HW234335   4.480   0.553  12.646  0.9564  0.4605  2.2781
 7626SOL     OW34336   0.159   4.535   6.188  0.2452 -0.1124  0.3868
 7626SOL    HW134337   0.254   4.540   6.202  0.5521 -0.4055 -1.5557
 7626SOL    HW234338   0.129   4.497   6.271  3.3425  1.2667  2.1497
 7627SOL     OW34339   2.474   3.830   5.945 -0.3449  0.0133  0.0278
 7627SOL    HW134340   2.489   3.845   6.039 -1.3229  0.3930  0.1260
 7627SOL    HW234341   2.398   3.887   5.929 -0.9724 -0.5759  0.8962
 7628SOL     OW34342   2.623   3.271  15.559  0.1121 -0.3999  0.2516
 7628SOL    HW134343   2.659   3.330  15.493 -1.6934  1.2207  0.7288
 7628SOL    HW234344   2.679   3.286  15.635  1.3261  2.6720 -1.2911
 7629SOL     OW34345   3.668   2.037   3.486 -0.1296 -0.7661  0.6260
 7629SOL    HW134346   3.697   1.947   3.475 -2.6909 -1.5727  0.3358
 7629SOL    HW234347   3.740   2.085   3.446 -1.2890  0.7486  0.3842
 7630SOL     OW34348   4.649   0.752   9.816  0.0838  0.0879 -0.3310
 7630SOL    HW134349   0.017   0.729   9.799  0.4432  1.0154  0.3297
 7630SOL    HW234350   4.641   0.731   9.909 -1.0579 -1.0634 -0.6849
 7631SOL     OW34351   3.061   2.445   5.712  0.7979  0.1647 -0.0419
 7631SOL    HW134352   3.086   2.467   5.802  1.3802 -1.7916  0.2749
 7631SOL    HW234353   3.091   2.354   5.710  1.0235  0.2019  1.1828
 7632SOL     OW34354   2.286   4.054  11.860 -0.3251 -0.3058 -0.4557
 7632SOL    HW134355   2.309   4.126  11.919  0.3735 -1.1854  0.3512
 7632SOL    HW234356   2.255   4.098  11.781 -0.8221  0.4254  0.1429
 7633SOL     OW34357   2.212   3.866   5.265 -0.8010 -0.1998 -0.4884
 7633SOL    HW134358   2.274   3.803   5.231  3.9628  2.1124  3.9378
 7633SOL    HW234359   2.161   3.809   5.323  0.7946 -0.6170  0.4952
 7634SOL     OW34360   0.330   3.153   9.828 -0.2286 -0.0865  0.3857
 7634SOL    HW134361   0.407   3.206   9.848 -1.4444  2.0785 -0.7284
 7634SOL    HW234362   0.323   3.082   9.893 -0.0572  1.7122  2.3556
 7635SOL     OW34363   2.568   3.893   2.592  0.0940 -0.1065 -0.1636
 7635SOL    HW134364   2.604   3.874   2.679 -1.1001  0.8766  0.5381
 7635SOL    HW234365   2.538   3.979   2.618 -2.8369 -1.4396  0.9154
 7636SOL     OW34366   2.123   4.357   5.475 -0.2694 -0.2646  0.2714
 7636SOL    HW134367   2.036   4.397   5.475  0.2655  0.8817  0.8712
 7636SOL    HW234368   2.165   4.416   5.537 -0.2482  0.4059 -0.3921
 7637SOL     OW34369   0.628   2.946  10.039  0.0095 -0.2230  0.0429
 7637SOL    HW134370   0.548   2.995  10.056  1.4769  1.9758  0.5290
 7637SOL    HW234371   0.634   2.910  10.128 -0.0507 -0.0148  0.1312
 7638SOL     OW34372   4.418   0.070   1.955  0.5090  0.4179  0.6080
 7638SOL    HW134373   4.454   0.073   2.044 -2.5277 -1.2183  1.8980
 7638SOL    HW234374   4.372   4.710   1.953 -0.2233  0.7326  3.3962
 7639SOL     OW34375   4.507   0.054  11.454 -0.1584 -0.6933  0.1303
 7639SOL    HW134376   4.444   0.057  11.382 -1.4315  0.4984  1.3072
 7639SOL    HW234377   4.552   0.137  11.441  0.0669 -1.3034 -3.0536
 7640SOL     OW34378   1.576   0.068  17.238 -0.2179  0.0900  0.6526
 7640SOL    HW134379   1.603   0.054  17.147  0.7254  2.6677  0.5424
 7640SOL    HW234380   1.616   0.151  17.263 -1.5856  0.2225  2.3912
 7641SOL     OW34381   2.723   0.318  16.503 -0.2562 -0.1613  0.5043
 7641SOL    HW134382   2.702   0.226  16.484  0.0795 -0.0394 -0.4881
 7641SOL    HW234383   2.776   0.330  16.424  0.3513 -1.5680  0.6905
 7642SOL     OW34384   2.156   2.959   2.243  0.4750 -0.2110 -0.3705
 7642SOL    HW134385   2.186   3.024   2.306  2.5051 -1.2183 -0.3023
 7642SOL    HW234386   2.138   3.000   2.159  0.4729 -1.1795 -0.8497
 7643SOL     OW34387   3.245   3.895   9.302  0.5361 -0.1301 -0.3288
 7643SOL    HW134388   3.331   3.854   9.317 -0.1358 -2.2414 -2.1893
 7643SOL    HW234389   3.197   3.813   9.317  0.5540  0.1633  1.2830
 7644SOL     OW34390   1.200   2.320   6.685  0.2930  0.1480  0.0032
 7644SOL    HW134391   1.237   2.282   6.606 -1.9101  0.9265 -1.3981
 7644SOL    HW234392   1.191   2.407   6.647  0.6899  0.5098  0.7232
 7645SOL     OW34393   1.205   4.027   8.968  0.3953  0.1735  0.1968
 7645SOL    HW134394   1.212   3.936   8.941 -4.4035 -0.0713 -0.1792
 7645SOL    HW234395   1.207   4.021   9.063 -1.3537 -0.8957  0.1545
 7646SOL     OW34396   3.363   0.220   5.714  0.0887 -0.3590 -0.4160
 7646SOL    HW134397   3.333   0.310   5.725  2.2204  0.3037  0.0687
 7646SOL    HW234398   3.290   0.167   5.747  0.7992  0.2629  2.1333
 7647SOL     OW34399   0.957   1.517   5.808 -0.5458 -0.1198  0.4912
 7647SOL    HW134400   1.041   1.543   5.770 -0.2847  0.6592  1.5998
 7647SOL    HW234401   0.966   1.518   5.903  1.5484 -0.8278  0.3085
 7648SOL     OW34402   0.993   3.822  15.418 -0.3426  0.1411  0.3467
 7648SOL    HW134403   0.996   3.914  15.393  0.7490 -0.0028 -0.0460
 7648SOL    HW234404   0.980   3.783  15.331  0.3940  0.3222  0.1629
 7649SOL     OW34405   1.834   3.910   9.179  0.8058  0.1182  0.1484
 7649SOL    HW134406   1.892   3.935   9.251  1.0989 -0.2151  0.0286
 7649SOL    HW234407   1.772   3.852   9.222 -0.3802  0.1253 -1.5433
 7650SOL     OW34408   3.536   2.169  17.135 -0.2953  0.5265  0.2466
 7650SOL    HW134409   3.583   2.145  17.215  0.3366 -0.9021 -0.5552
 7650SOL    HW234410   3.449   2.137  17.162  0.1671 -1.4334 -0.6006
 7651SOL     OW34411   4.470   1.452  15.775 -0.3602 -0.2211 -0.0048
 7651SOL    HW134412   4.519   1.519  15.823  0.5855 -1.4074  0.6833
 7651SOL    HW234413   4.382   1.489  15.780  0.3049  1.7120 -2.7483
 7652SOL     OW34414   2.637   4.432   2.048 -0.2855  0.1600 -0.3709
 7652SOL    HW134415   2.679   4.402   1.967 -0.6707  1.1382 -0.9390
 7652SOL    HW234416   2.551   4.391   2.043  0.7445 -1.9385 -0.8127
 7653SOL     OW34417   3.122   2.502   9.601 -0.4726  0.0125  0.7722
 7653SOL    HW134418   3.039   2.545   9.580  0.9345  1.9549 -0.7570
 7653SOL    HW234419   3.095   2.411   9.617  0.7653 -0.2448  1.3750
 7654SOL     OW34420   0.946   3.648   2.534 -0.7367 -0.7476  0.0865
 7654SOL    HW134421   0.920   3.676   2.621 -2.2499  0.1807 -0.6712
 7654SOL    HW234422   0.984   3.562   2.551 -0.8912 -0.6808  0.7481
 7655SOL     OW34423   3.093   0.027   4.580 -0.2092 -0.1610  0.0686
 7655SOL    HW134424   3.134   4.676   4.536 -1.7070  0.3877 -2.2472
 7655SOL    HW234425   3.004   0.021   4.547 -0.9875  0.2921  2.0375
 7656SOL     OW34426   4.565   2.739   3.124  0.0237 -0.3818  0.4670
 7656SOL    HW134427   4.619   2.817   3.137 -0.4033  0.3869 -2.3417
 7656SOL    HW234428   4.572   2.698   3.211  1.5956 -1.2392 -0.0568
 7657SOL     OW34429   1.398   4.536   5.464  0.0760  0.1017  0.5219
 7657SOL    HW134430   1.380   4.630   5.467  0.8744  0.2427  1.0494
 7657SOL    HW234431   1.436   4.531   5.376  3.0317 -0.1349  1.7989
 7658SOL     OW34432   0.590   0.224   6.561 -0.0761  0.0181 -0.0783
 7658SOL    HW134433   0.544   0.237   6.645  3.5055  2.3042  1.5110
 7658SOL    HW234434   0.673   0.188   6.590  0.5865 -2.4007 -5.0414
 7659SOL     OW34435   4.432   2.028  12.161  0.0722 -0.3985 -0.0177
 7659SOL    HW134436   4.389   1.954  12.118 -0.6782  0.1010 -0.1397
 7659SOL    HW234437   4.523   2.023  12.134 -0.1528  4.4158 -1.7054
 7660SOL     OW34438   0.316   2.684   8.052  0.0655 -0.9363 -0.4966
 7660SOL    HW134439   0.363   2.602   8.067  1.0256 -0.6176 -1.7367
 7660SOL    HW234440   0.240   2.648   8.006 -0.3003  0.1695 -0.7727
 7661SOL     OW34441   3.146   0.130   3.885  0.5348  0.2795  0.0709
 7661SOL    HW134442   3.078   0.187   3.921  0.0866 -0.6346  0.7017
 7661SOL    HW234443   3.093   0.052   3.866 -0.2761  0.4324  1.6786
 7662SOL     OW34444   1.804   2.442   4.842  0.0219 -0.2126 -0.1977
 7662SOL    HW134445   1.788   2.399   4.926 -1.7969  1.6805  0.4350
 7662SOL    HW234446   1.714   2.473   4.833 -0.4292 -1.8657 -1.2297
 7663SOL     OW34447   3.015   2.783   5.237 -0.3776 -0.1451  0.4767
 7663SOL    HW134448   2.953   2.715   5.209 -0.5998 -0.7734  2.4298
 7663SOL    HW234449   2.957   2.858   5.225  0.8611  0.8926  1.0612
 7664SOL     OW34450   0.627   3.117   2.283  0.5876  0.2684  0.3141
 7664SOL    HW134451   0.577   3.036   2.276  2.6479 -0.8482 -1.3001
 7664SOL    HW234452   0.626   3.128   2.379  2.9265  0.2239  0.3423
 7665SOL     OW34453   1.834   2.610   2.069  0.9920 -0.2953  0.0931
 7665SOL    HW134454   1.895   2.570   2.131  0.4630  0.7269  1.2769
 7665SOL    HW234455   1.853   2.558   1.991 -2.6053 -1.4863  0.0418
 7666SOL     OW34456   4.558   1.372   2.023 -0.0836  0.1896 -0.4183
 7666SOL    HW134457   4.589   1.281   2.027  1.2588  0.6151 -1.1896
 7666SOL    HW234458   4.519   1.381   2.110 -1.9816  0.0385 -1.2581
 7667SOL     OW34459   2.819   1.735  11.175 -0.8701 -0.5798 -0.1206
 7667SOL    HW134460   2.790   1.659  11.125  0.5065 -1.2664  0.1279
 7667SOL    HW234461   2.908   1.703  11.190 -0.1069  1.1929 -0.9290
 7668SOL     OW34462   1.693   4.488   7.437  0.4569  0.0643 -0.2376
 7668SOL    HW134463   1.704   4.465   7.529 -3.4385  0.5564  0.3438
 7668SOL    HW234464   1.685   4.404   7.391 -0.4275 -0.1768  0.3714
 7669SOL     OW34465   2.385   4.261  15.069  0.3228 -0.3487  0.4184
 7669SOL    HW134466   2.436   4.223  14.997  1.9876  2.4101  0.1221
 7669SOL    HW234467   2.452   4.282  15.134 -0.6987 -3.2977  2.3853
 7670SOL     OW34468   3.319   0.074   1.019 -0.0059  0.0568  0.1104
 7670SOL    HW134469   3.347   0.129   1.092 -1.0162  0.9168 -0.1529
 7670SOL    HW234470   3.273   0.133   0.959 -1.4676 -0.4493  0.7203
 7671SOL     OW34471   1.528   3.624   9.822 -0.3559  0.0803 -0.0441
 7671SOL    HW134472   1.506   3.686   9.891  1.9774 -0.1285  0.8665
 7671SOL    HW234473   1.600   3.575   9.863 -0.3041  0.1871 -0.0062
 7672SOL     OW34474   2.757   3.683   4.995 -0.1435  0.0109 -0.1275
 7672SOL    HW134475   2.730   3.768   4.960 -0.4817  0.4002  1.0950
 7672SOL    HW234476   2.850   3.671   4.972 -0.2199 -2.3059  0.7996
 7673SOL     OW34477   0.692   0.913   1.678  0.0955 -0.3091  0.1044
 7673SOL    HW134478   0.738   0.920   1.595 -0.7530  0.2101 -0.3240
 7673SOL    HW234479   0.604   0.944   1.658 -0.9097 -2.7285  0.7346
 7674SOL     OW34480   1.319   4.005   2.662 -0.6180 -0.5915  0.6403
 7674SOL    HW134481   1.306   3.979   2.753 -1.4094 -0.1654  0.6503
 7674SOL    HW234482   1.271   3.934   2.619  1.1568 -1.3124 -0.1467
 7675SOL     OW34483   0.714   3.302   8.417 -0.3988  0.0321  0.6609
 7675SOL    HW134484   0.717   3.395   8.443  0.6117  0.3308 -0.5308
 7675SOL    HW234485   0.670   3.304   8.332 -0.6921  0.8069  0.8243
 7676SOL     OW34486   1.197   0.849   9.402  0.3000  0.4788 -0.0342
 7676SOL    HW134487   1.197   0.816   9.312  1.8178 -0.0327  0.1540
 7676SOL    HW234488   1.154   0.777   9.448 -0.2913 -0.2721 -1.7697
 7677SOL     OW34489   2.061   2.164   6.579 -0.2031  0.1409  0.1737
 7677SOL    HW134490   2.136   2.144   6.523  0.0384 -0.2226  0.6269
 7677SOL    HW234491   2.030   2.252   6.556  1.2737  0.7072  0.3635
 7678SOL     OW34492   3.680   4.416   7.470 -0.2455 -0.0158 -0.4549
 7678SOL    HW134493   3.670   4.321   7.466  0.8778 -0.1535 -0.0366
 7678SOL    HW234494   3.599   4.447   7.510  0.4548 -0.6925  1.5154
 7679SOL     OW34495   1.298   3.967   2.933  0.2316 -0.1956  0.3505
 7679SOL    HW134496   1.222   3.952   2.988 -1.2952 -2.0336 -2.2844
 7679SOL    HW234497   1.325   4.050   2.974  1.3699  0.4323 -1.6632
 7680SOL     OW34498   3.917   1.581   4.445 -0.4078 -0.2743 -0.0152
 7680SOL    HW134499   3.945   1.590   4.536  3.4498  2.1532 -1.4337
 7680SOL    HW234500   3.999   1.612   4.407  1.2158 -0.8683  2.9054
 7681SOL     OW34501   1.635   2.415   2.483 -0.5473  0.1685  0.0167
 7681SOL    HW134502   1.702   2.378   2.425 -0.2067 -0.4781  0.8263
 7681SOL    HW234503   1.584   2.336   2.502 -1.6838  0.6418 -1.0974
 7682SOL     OW34504   3.426   0.562   8.143  0.2001 -0.1186  0.0660
 7682SOL    HW134505   3.506   0.577   8.193 -0.6740  0.2158  1.3716
 7682SOL    HW234506   3.421   0.474   8.106  0.6368  0.0463 -0.3888
 7683SOL     OW34507   0.102   2.907   8.416 -0.4697 -0.3337  0.1209
 7683SOL    HW134508   0.158   2.850   8.363  3.3932  1.2008  2.5523
 7683SOL    HW234509   0.016   2.900   8.375  0.5394  0.6213 -2.1338
 7684SOL     OW34510   2.174   1.104  16.888  0.5475 -0.4426 -0.2897
 7684SOL    HW134511   2.186   1.195  16.914 -1.0738  0.2489 -1.9513
 7684SOL    HW234512   2.186   1.047  16.964  1.2622  0.5862  0.3623
 7685SOL     OW34513   3.132   0.189   6.831 -0.1708  0.0257  0.5232
 7685SOL    HW134514   3.102   0.156   6.916 -0.8932 -0.1041  0.2168
 7685SOL    HW234515   3.221   0.155   6.841  0.7542  2.0854 -0.6846
 7686SOL     OW34516   1.292   3.279   2.022 -0.1162  0.2632  0.6008
 7686SOL    HW134517   1.236   3.344   2.065 -1.8905  1.0638 -2.8824
 7686SOL    HW234518   1.246   3.196   2.033  0.4275 -0.4753 -2.6769
 7687SOL     OW34519   1.326   0.467   9.498  0.4841  0.1864  0.2875
 7687SOL    HW134520   1.395   0.424   9.549 -1.0363 -2.0743  0.3986
 7687SOL    HW234521   1.308   0.407   9.426  0.8240  0.3808  0.0380
 7688SOL     OW34522   4.697   3.356   5.326 -0.2380 -0.2268  0.0979
 7688SOL    HW134523   4.626   3.375   5.264 -0.9625  0.6981  1.2133
 7688SOL    HW234524   4.653   3.361   5.411 -0.1730 -0.6708  0.1542
 7689SOL     OW34525   2.109   3.634   1.011  0.3385 -0.0428  0.3371
 7689SOL    HW134526   2.035   3.615   0.954  1.1699  1.6967 -1.3181
 7689SOL    HW234527   2.115   3.556   1.066  2.9220  0.1009  0.2574
 7690SOL     OW34528   3.251   3.084   4.720  0.3266  0.1605  0.2607
 7690SOL    HW134529   3.299   3.123   4.793  2.0563 -0.3947 -0.5827
 7690SOL    HW234530   3.325   3.041   4.677  0.7991  1.2263  0.0044
 7691SOL     OW34531   3.397   0.398   0.828  0.3682  0.4298 -0.2999
 7691SOL    HW134532   3.365   0.453   0.756  0.0231 -0.2100 -0.6377
 7691SOL    HW234533   3.332   0.327   0.825  0.5049  0.2635  0.5683
 7692SOL     OW34534   2.896   1.731   6.175 -0.3124 -0.3796  0.2143
 7692SOL    HW134535   2.859   1.794   6.237 -0.5597 -1.6866  1.3994
 7692SOL    HW234536   2.959   1.786   6.129 -0.4378  0.5094  1.1014
 7693SOL     OW34537   2.641   4.372  10.083 -0.5854  0.3054 -0.1827
 7693SOL    HW134538   2.727   4.335  10.065 -0.3963  0.5937  0.1327
 7693SOL    HW234539   2.662   4.427  10.159 -0.6285  0.9105 -0.6068
 7694SOL     OW34540   0.259   0.425   7.295  0.0583  0.4137  0.2303
 7694SOL    HW134541   0.232   0.506   7.252 -2.1946  0.3417  1.5406
 7694SOL    HW234542   0.332   0.454   7.350 -0.1559  1.8450 -0.2364
 7695SOL     OW34543   3.111   0.026   2.506  0.3070 -0.3247 -0.0438
 7695SOL    HW134544   3.153   0.078   2.438  1.4918 -0.7665  0.3440
 7695SOL    HW234545   3.023   0.028   2.469  0.0735 -1.6799  0.4353
 7696SOL     OW34546   2.458   1.579   4.561 -0.3410  0.0674  0.4028
 7696SOL    HW134547   2.401   1.524   4.615  0.1768 -1.3995 -0.5409
 7696SOL    HW234548   2.539   1.528   4.551 -0.9254 -0.6106 -0.8948
 7697SOL     OW34549   4.360   1.272   4.932 -0.0023  0.3852  0.4272
 7697SOL    HW134550   4.382   1.238   4.846  1.2187  0.6386  0.6466
 7697SOL    HW234551   4.342   1.192   4.982  1.1752 -1.1295 -1.5622
 7698SOL     OW34552   0.919   3.113   6.502 -0.4569 -0.0365  0.2359
 7698SOL    HW134553   0.839   3.149   6.539  0.1130  1.5239 -0.0433
 7698SOL    HW234554   0.980   3.160   6.559  0.6443  0.5513 -1.4266
 7699SOL     OW34555   3.957   0.036   6.706 -0.1852  0.4881 -0.0221
 7699SOL    HW134556   3.974   0.126   6.735 -3.9607  1.3141 -0.3938
 7699SOL    HW234557   3.989   0.040   6.616  0.0236 -1.1554 -0.0091
 7700SOL     OW34558   2.370   4.282  13.838 -0.1184 -0.0240 -0.0752
 7700SOL    HW134559   2.296   4.304  13.781  0.5872  1.8644 -0.2539
 7700SOL    HW234560   2.332   4.232  13.910  3.3855  1.3410  2.7233
 7701SOL     OW34561   4.290   2.193   5.465 -0.3619 -0.1119  0.7666
 7701SOL    HW134562   4.308   2.287   5.472  0.1614 -0.1277 -0.2494
 7701SOL    HW234563   4.211   2.197   5.411  0.0696 -1.1759  0.0599
 7702SOL     OW34564   2.722   1.960   2.036 -0.5903  0.2936  0.4080
 7702SOL    HW134565   2.652   2.020   2.011  0.9107  1.5148 -0.8470
 7702SOL    HW234566   2.759   1.953   1.948 -1.5358  0.3266  0.0112
 7703SOL     OW34567   3.369   2.467   1.769  0.0343  0.0455 -0.4121
 7703SOL    HW134568   3.349   2.534   1.703  0.3984 -0.0832 -0.6545
 7703SOL    HW234569   3.310   2.403   1.730 -2.0733  2.7858 -1.7415
 7704SOL     OW34570   1.786   4.393   7.720  0.2273  0.0400  0.3173
 7704SOL    HW134571   1.814   4.478   7.754 -0.0737 -0.5128  1.9596
 7704SOL    HW234572   1.712   4.373   7.777 -0.0084 -0.4261 -0.1548
 7705SOL     OW34573   3.435   3.667   2.893 -0.6444  0.1077 -0.4287
 7705SOL    HW134574   3.396   3.746   2.930  1.8796  0.8853  0.5344
 7705SOL    HW234575   3.504   3.702   2.836  1.7327 -1.0062  1.7554
 7706SOL     OW34576   1.902   0.925   4.129 -0.2681 -0.8550  0.3801
 7706SOL    HW134577   1.984   0.891   4.095 -0.2088 -0.2957 -0.0449
 7706SOL    HW234578   1.855   0.842   4.140 -1.5479 -0.1355  0.4067
 7707SOL     OW34579   1.094   1.368  15.414 -0.2433 -0.4098  0.0678
 7707SOL    HW134580   1.088   1.289  15.360  2.4829  0.6015 -1.6930
 7707SOL    HW234581   1.188   1.371  15.429 -0.5306 -1.0074  1.9785
 7708SOL     OW34582   2.579   2.121   2.539 -0.5868  0.0709  0.0261
 7708SOL    HW134583   2.616   2.208   2.528  3.1580 -1.0776  3.2418
 7708SOL    HW234584   2.492   2.130   2.578  0.8171  0.7706  2.9984
 7709SOL     OW34585   4.629   2.923   4.268 -0.2475 -0.1256  0.0808
 7709SOL    HW134586   4.635   3.015   4.243  0.8315 -0.3090 -0.3555
 7709SOL    HW234587   4.641   2.924   4.363  1.3817  0.0375 -0.1283
 7710SOL     OW34588   1.494   3.393   7.224 -0.3431  0.4783 -0.0094
 7710SOL    HW134589   1.521   3.445   7.300 -1.8422 -1.4884  1.8562
 7710SOL    HW234590   1.411   3.439   7.215 -0.2565  0.6668  0.1594
 7711SOL     OW34591   3.561   4.150  12.048  0.2783  0.0559 -0.5969
 7711SOL    HW134592   3.478   4.176  12.008  0.0386 -1.6247 -1.1854
 7711SOL    HW234593   3.622   4.214  12.011 -0.4870  0.5448 -1.0158
 7712SOL     OW34594   0.449   1.267   4.599  0.0210 -0.8202 -0.1568
 7712SOL    HW134595   0.517   1.334   4.590 -1.9599  1.0704 -0.9394
 7712SOL    HW234596   0.509   1.192   4.590 -0.9026 -1.5467 -0.2233
 7713SOL     OW34597   0.873   2.802   1.857 -0.0908 -0.0635  0.7972
 7713SOL    HW134598   0.796   2.769   1.811  0.8088  0.9328 -1.4038
 7713SOL    HW234599   0.817   2.840   1.926 -0.6198  1.0684 -0.2597
 7714SOL     OW34600   0.438   1.801   6.762 -0.9215 -0.3507  0.0574
 7714SOL    HW134601   0.452   1.830   6.852  4.1325 -1.6239 -0.3418
 7714SOL    HW234602   0.503   1.850   6.714 -0.2481 -0.4234  0.8975
 7715SOL     OW34603   1.068   3.892  14.434  0.1635  0.0706  0.3247
 7715SOL    HW134604   0.975   3.898  14.454  0.1605 -1.3215  0.7145
 7715SOL    HW234605   1.081   3.968  14.377  1.4924 -0.8422 -0.5974
 7716SOL     OW34606   2.748   3.973   4.908  0.0948  0.1819  0.4034
 7716SOL    HW134607   2.769   4.060   4.875  0.7195 -0.9046 -2.0559
 7716SOL    HW234608   2.817   3.961   4.973 -0.3849  1.8338  1.2262
 7717SOL     OW34609   1.220   2.662  11.696 -0.3958 -0.0706  0.2713
 7717SOL    HW134610   1.215   2.716  11.774  0.0041 -0.9927  0.9252
 7717SOL    HW234611   1.292   2.602  11.715 -2.0471 -1.1955  2.9164
 7718SOL     OW34612   3.421   3.429   2.531 -0.1521  0.4662 -0.2822
 7718SOL    HW134613   3.378   3.494   2.475 -0.3514  2.9034  2.7159
 7718SOL    HW234614   3.357   3.436   2.601 -1.8033 -0.8258 -1.6726
 7719SOL     OW34615   2.038   0.031   6.205  0.5317 -0.7144  0.0612
 7719SOL    HW134616   2.100   4.682   6.207 -0.8918 -1.9303  0.6096
 7719SOL    HW234617   2.026   0.039   6.300 -0.1098 -1.4903  0.0470
 7720SOL     OW34618   3.004   1.966   2.418  0.1089  0.3197 -0.2497
 7720SOL    HW134619   3.061   1.892   2.399  1.6863  1.7541 -1.1132
 7720SOL    HW234620   2.966   1.986   2.332 -1.4440  0.8274  0.5568
 7721SOL     OW34621   2.787   3.084   2.924 -0.6777 -0.3365 -0.4417
 7721SOL    HW134622   2.804   3.178   2.917 -1.0104 -0.1735  0.9176
 7721SOL    HW234623   2.767   3.063   3.016  1.5049  1.2039  0.3855
 7722SOL     OW34624   2.798   3.922   4.034 -0.2047  0.6382  0.1660
 7722SOL    HW134625   2.755   3.837   4.037 -0.5434  0.7479 -1.4833
 7722SOL    HW234626   2.785   3.948   4.126 -0.2457 -1.1681  0.6772
 7723SOL     OW34627   1.335   2.744  15.301  0.0310  0.1149 -0.2747
 7723SOL    HW134628   1.377   2.766  15.384 -1.3427  1.2571  0.1078
 7723SOL    HW234629   1.334   2.832  15.261 -0.8463 -0.6447 -1.9291
 7724SOL     OW34630   0.811   0.733   5.299 -0.0664 -0.4527 -0.2554
 7724SOL    HW134631   0.799   0.800   5.232 -1.2547  0.1347  0.5479
 7724SOL    HW234632   0.883   0.787   5.332  0.0156 -2.5575  3.0418
 7725SOL     OW34633   3.992   0.059   3.846  0.7604 -0.0064  0.1022
 7725SOL    HW134634   3.915   0.094   3.890  1.2310  0.0106  0.9190
 7725SOL    HW234635   3.950   0.014   3.773  0.0120 -0.5059  0.8431
 7726SOL     OW34636   2.396   4.408   7.920 -0.2663 -0.2402  0.6677
 7726SOL    HW134637   2.360   4.365   7.997  0.4539 -0.9889  0.5856
 7726SOL    HW234638   2.491   4.396   7.931  0.1038  0.6292 -1.4263
 7727SOL     OW34639   1.246   0.884   7.462 -0.3804 -0.8605  0.5083
 7727SOL    HW134640   1.206   0.799   7.448 -2.0897 -0.2450  1.6930
 7727SOL    HW234641   1.204   0.927   7.537  1.4143 -0.2309  1.1619
 7728SOL     OW34642   0.870   3.971  11.263 -0.2541  0.5445 -0.1383
 7728SOL    HW134643   0.859   3.917  11.185  2.0565  1.3612 -1.0023
 7728SOL    HW234644   0.965   3.983  11.258 -0.4900  1.4545 -2.2900
 7729SOL     OW34645   3.241   2.152  16.016 -0.0153 -0.0101 -0.1098
 7729SOL    HW134646   3.163   2.109  15.981 -0.4352  0.8149 -0.2060
 7729SOL    HW234647   3.235   2.226  15.954  1.1600  0.7208  0.6585
 7730SOL     OW34648   0.191   2.735   6.939  0.1130  0.4230 -0.5310
 7730SOL    HW134649   0.098   2.713   6.927  0.1158  0.4426 -0.5889
 7730SOL    HW234650   0.188   2.821   6.981 -0.5803  0.0824  0.1193
 7731SOL     OW34651   1.889   1.522   5.570 -0.2829  0.0411 -0.3961
 7731SOL    HW134652   1.833   1.599   5.580  0.3730  0.7172 -1.9026
 7731SOL    HW234653   1.958   1.539   5.635 -0.2998  1.1241 -0.6633
 7732SOL     OW34654   4.191   1.734   2.262  0.2862  0.0042  0.4128
 7732SOL    HW134655   4.234   1.815   2.234  0.2955 -0.3280 -0.5216
 7732SOL    HW234656   4.118   1.729   2.201  1.5275  0.3752 -1.1159
 7733SOL     OW34657   1.838   0.390  17.132  0.1178 -0.6285  0.7436
 7733SOL    HW134658   1.820   0.318  17.072 -0.1411  0.9080 -1.0270
 7733SOL    HW234659   1.754   0.387  17.177  0.4973  0.1830  1.5073
 7734SOL     OW34660   2.666   0.373  11.698 -0.0744  0.2147 -0.5839
 7734SOL    HW134661   2.649   0.325  11.779 -2.8936 -0.1446 -1.4063
 7734SOL    HW234662   2.624   0.325  11.627 -0.5206 -0.6849  0.2913
 7735SOL     OW34663   1.310   2.586   1.989 -0.0720  0.2471  0.4816
 7735SOL    HW134664   1.309   2.490   1.982 -1.7456  0.2476  0.7153
 7735SOL    HW234665   1.237   2.601   1.928 -2.1680  0.1693  2.9840
 7736SOL     OW34666   4.115   0.002   2.552  0.5459 -0.2632 -0.1409
 7736SOL    HW134667   4.044   4.715   2.490  0.4115 -0.9789  0.1406
 7736SOL    HW234668   4.192   0.027   2.501 -0.7330 -0.5986 -2.2008
 7737SOL     OW34669   0.075   0.204   7.283  0.3886  0.1173  0.6792
 7737SOL    HW134670   0.030   0.194   7.367 -2.0010  0.4675 -0.5611
 7737SOL    HW234671   0.140   0.273   7.297  1.0518 -0.0635 -1.6273
 7738SOL     OW34672   4.718   3.026  11.102  0.1988  0.1282 -0.7162
 7738SOL    HW134673   0.054   3.008  11.174 -3.2668 -1.9977  1.6679
 7738SOL    HW234674   4.709   3.119  11.120 -1.8497 -0.7567  2.8771
 7739SOL     OW34675   2.091   4.233   4.417  0.3855 -0.0403 -0.2034
 7739SOL    HW134676   2.185   4.216   4.415  0.0847 -2.1614  3.5201
 7739SOL    HW234677   2.058   4.176   4.486  0.7234  1.7387  1.4343
 7740SOL     OW34678   1.135   2.111   8.125  0.1175  0.3186 -0.0646
 7740SOL    HW134679   1.067   2.145   8.183  0.2702 -0.8003  0.7763
 7740SOL    HW234680   1.168   2.038   8.178 -3.3235 -1.8043 -0.8210
 7741SOL     OW34681   3.155   1.030   8.974  0.0429 -0.0438  0.0822
 7741SOL    HW134682   3.148   0.934   8.977  1.6485 -0.1692 -0.4926
 7741SOL    HW234683   3.079   1.045   8.919 -1.4088 -2.5035  1.3909
 7742SOL     OW34684   0.601   4.716  10.891 -0.0809 -0.3560  0.5754
 7742SOL    HW134685   0.615   0.060  10.957  0.1282  0.1339  0.0354
 7742SOL    HW234686   0.685   4.671  10.880  2.0587  3.1968  2.5321
 7743SOL     OW34687   0.186   4.672   0.046 -0.0031  0.0974 -0.5321
 7743SOL    HW134688   0.102   4.694   0.088 -0.0519 -0.1842 -0.4829
 7743SOL    HW234689   0.191   4.577   0.031  2.3192 -0.5128  4.0774
 7744SOL     OW34690   1.700   3.914   8.589 -0.5869 -0.1259 -0.3983
 7744SOL    HW134691   1.768   3.950   8.533 -2.7569  0.1755 -2.8691
 7744SOL    HW234692   1.741   3.894   8.673 -0.8463 -0.3643 -0.3266
 7745SOL     OW34693   0.352   0.088  10.844 -0.1436 -0.4186 -0.0075
 7745SOL    HW134694   0.436   0.055  10.874 -0.1735 -1.1694 -0.7345
 7745SOL    HW234695   0.390   0.171  10.818 -0.2932 -1.1027 -2.4317
 7746SOL     OW34696   1.379   3.669   3.890  0.4021 -0.2265 -0.1265
 7746SOL    HW134697   1.364   3.737   3.956  2.2809  1.3156 -1.2650
 7746SOL    HW234698   1.406   3.727   3.818 -0.4670 -1.0813 -1.1427
 7747SOL     OW34699   3.803   1.161   2.242  0.5364 -0.0283 -0.2491
 7747SOL    HW134700   3.841   1.081   2.279  2.5312  1.4650  0.9401
 7747SOL    HW234701   3.865   1.183   2.172 -0.0706  0.0652 -0.7520
 7748SOL     OW34702   2.995   4.373   5.924  0.4218  0.3885 -0.7851
 7748SOL    HW134703   3.066   4.309   5.925  0.7426  0.7627  0.3144
 7748SOL    HW234704   2.939   4.333   5.857  0.7291  1.0923 -1.4567
 7749SOL     OW34705   4.051   0.020   5.064  0.2865 -0.9252 -0.0874
 7749SOL    HW134706   3.982   0.003   5.128  0.4518 -0.3042  0.2516
 7749SOL    HW234707   4.067   4.662   5.016  1.5349 -1.1260  0.6894
 7750SOL     OW34708   1.114   0.583   4.179  0.0265 -0.3646  0.3936
 7750SOL    HW134709   1.170   0.618   4.110 -0.1081  1.9904  1.4824
 7750SOL    HW234710   1.109   0.653   4.245 -1.5431 -2.7795  2.8310
 7751SOL     OW34711   4.223   2.064   9.881  0.2223  0.2637 -0.9135
 7751SOL    HW134712   4.153   1.999   9.891  0.9191 -0.4839 -0.8095
 7751SOL    HW234713   4.299   2.007   9.894 -1.0685 -0.9979  1.1437
 7752SOL     OW34714   2.614   2.651   3.148  0.0849 -0.0746 -0.5999
 7752SOL    HW134715   2.538   2.654   3.090 -1.2274 -0.5102  1.0997
 7752SOL    HW234716   2.621   2.562   3.181 -1.4726  0.3103  0.7772
 7753SOL     OW34717   3.442   1.425   1.822 -0.3352 -0.0174 -0.1015
 7753SOL    HW134718   3.348   1.408   1.827 -0.1372 -0.7707  1.1777
 7753SOL    HW234719   3.440   1.507   1.872  0.3333 -0.8388  1.2692
 7754SOL     OW34720   4.507   2.324   9.380 -0.0436 -0.2747  0.2819
 7754SOL    HW134721   4.484   2.260   9.448 -1.1763 -0.1017  0.0649
 7754SOL    HW234722   4.593   2.345   9.416 -0.5033  2.1502 -0.0329
 7755SOL     OW34723   1.263   4.188   4.156  0.0779 -0.1231  0.5279
 7755SOL    HW134724   1.174   4.194   4.189 -0.5335  0.7912 -1.3009
 7755SOL    HW234725   1.314   4.179   4.237 -0.1859 -0.5759  0.6412
 7756SOL     OW34726   0.525   3.386   4.303 -0.3725  0.0569  0.0043
 7756SOL    HW134727   0.544   3.463   4.356 -2.8711  0.4944  0.2439
 7756SOL    HW234728   0.596   3.382   4.238 -1.7793  1.0556 -1.5875
 7757SOL     OW34729   1.579   2.936   2.546 -0.2504 -0.5047  0.1622
 7757SOL    HW134730   1.574   2.841   2.530 -0.9914 -0.4002 -0.2625
 7757SOL    HW234731   1.662   2.935   2.593  1.0569  1.3725 -2.1186
 7758SOL     OW34732   2.720   2.404   2.443 -0.3082  0.3599 -0.5351
 7758SOL    HW134733   2.770   2.485   2.430 -1.5956  1.3199  0.5372
 7758SOL    HW234734   2.659   2.400   2.370  0.8502  3.0516 -1.6309
 7759SOL     OW34735   4.297   1.211   8.204  0.4655 -0.1436  0.3946
 7759SOL    HW134736   4.225   1.195   8.265  0.5400  0.0151  0.5225
 7759SOL    HW234737   4.253   1.268   8.140 -0.0277 -1.6840 -0.6615
 7760SOL     OW34738   4.242   1.173  14.023 -0.5173  0.3795 -0.4072
 7760SOL    HW134739   4.312   1.153  13.961  2.0339  2.3702  1.8137
 7760SOL    HW234740   4.287   1.247  14.064  0.3111  0.0879 -0.7784
 7761SOL     OW34741   0.494   0.264   6.825 -0.1404  0.2044  0.5422
 7761SOL    HW134742   0.586   0.267   6.850  0.3331 -1.4536 -0.9539
 7761SOL    HW234743   0.456   0.327   6.886  0.7060  0.5277  0.7257
 7762SOL     OW34744   1.195   0.518  17.269  0.3934 -0.6837  0.0300
 7762SOL    HW134745   1.128   0.526  17.202 -0.1640 -1.4512  0.4990
 7762SOL    HW234746   1.153   0.521  17.355  0.9258  1.6206  0.2055
 7763SOL     OW34747   2.589   0.348   7.536 -0.1058  0.4654  0.0342
 7763SOL    HW134748   2.575   0.344   7.442  0.8189 -0.0979 -0.0742
 7763SOL    HW234749   2.502   0.327   7.571  0.0807 -2.2148 -1.1777
 7764SOL     OW34750   2.775   1.507   1.720  0.2859 -0.6024 -0.2525
 7764SOL    HW134751   2.799   1.492   1.628  2.1696 -2.8342  0.6223
 7764SOL    HW234752   2.860   1.539   1.751  1.1613 -1.3778 -1.8475
 7765SOL     OW34753   3.794   0.543  16.399 -0.2759  0.0646  0.2304
 7765SOL    HW134754   3.801   0.451  16.424  0.0082  0.7907  2.8492
 7765SOL    HW234755   3.864   0.557  16.335 -0.5225 -1.0220 -0.2604
 7766SOL     OW34756   2.636   4.316   6.486  0.4843 -0.0832  0.3550
 7766SOL    HW134757   2.672   4.405   6.488  0.1768  0.0831 -1.2944
 7766SOL    HW234758   2.545   4.334   6.511 -0.2028 -1.2204 -1.3328
 7767SOL     OW34759   3.932   1.335   8.544 -0.2108 -0.5402 -0.5569
 7767SOL    HW134760   3.857   1.285   8.576 -0.5460  0.1198 -0.3213
 7767SOL    HW234761   3.887   1.419   8.532 -2.1635 -1.3033  1.4918
 7768SOL     OW34762   1.759   2.196   4.274  0.2733 -0.3178 -0.6403
 7768SOL    HW134763   1.789   2.111   4.305 -0.4571 -0.7268 -1.0447
 7768SOL    HW234764   1.840   2.246   4.285 -0.1374 -0.1577  1.6280
 7769SOL     OW34765   4.491   3.478   7.603 -0.1997  0.1640  0.1279
 7769SOL    HW134766   4.427   3.426   7.555 -0.7846  0.2029  0.8683
 7769SOL    HW234767   4.570   3.467   7.551 -1.4066  1.9115 -2.1162
 7770SOL     OW34768   3.180   4.214  16.546 -0.5122 -0.1697  0.4550
 7770SOL    HW134769   3.211   4.152  16.611 -0.1367 -1.4419 -0.9228
 7770SOL    HW234770   3.258   4.269  16.545  0.5901 -1.7277  1.4994
 7771SOL     OW34771   2.907   1.993   4.300 -0.3925  0.2242  0.1384
 7771SOL    HW134772   2.953   2.077   4.294 -0.0589 -0.0957 -1.5977
 7771SOL    HW234773   2.912   1.969   4.208  2.3689  0.0387  0.3557
 7772SOL     OW34774   4.041   3.422   5.571 -0.0562  0.0755 -0.1280
 7772SOL    HW134775   3.975   3.385   5.511 -0.3257  0.1955  0.0992
 7772SOL    HW234776   4.101   3.347   5.567  1.8475  1.6093 -0.2351
 7773SOL     OW34777   0.514   3.117  12.489 -0.1478 -0.5069 -0.0714
 7773SOL    HW134778   0.558   3.201  12.499 -2.8567  0.9612 -0.2944
 7773SOL    HW234779   0.572   3.056  12.534 -2.1099 -3.9075 -2.1241
 7774SOL     OW34780   1.190   0.197   4.846 -0.4235  0.2217 -0.4891
 7774SOL    HW134781   1.266   0.253   4.828  0.1751  0.2101  2.1112
 7774SOL    HW234782   1.191   0.147   4.764  0.3304 -0.7380  0.1165
 7775SOL     OW34783   2.507   0.103   4.346 -0.3857 -0.1347  0.3955
 7775SOL    HW134784   2.576   0.135   4.287 -0.2851 -1.5721 -0.2738
 7775SOL    HW234785   2.550   0.087   4.430  0.3592 -1.2313 -0.1851
 7776SOL     OW34786   2.089   1.164   5.241 -0.0896  0.5446 -0.0831
 7776SOL    HW134787   2.020   1.105   5.272  0.4387 -0.5463 -0.9822
 7776SOL    HW234788   2.063   1.244   5.287  1.4442  0.8641  0.2088
 7777SOL     OW34789   1.859   3.788   5.706  0.1462 -0.4683  0.3304
 7777SOL    HW134790   1.947   3.776   5.672 -0.5210 -1.9240 -0.8687
 7777SOL    HW234791   1.866   3.756   5.796  2.1779  1.2020  0.7551
 7778SOL     OW34792   1.620   2.952   7.585 -0.0534  0.0562 -0.0753
 7778SOL    HW134793   1.640   2.932   7.493 -0.4928  1.4044 -0.4620
 7778SOL    HW234794   1.608   3.046   7.574 -0.8264  0.0861  1.0182
 7779SOL     OW34795   1.447   4.576  14.058  0.1926 -1.0926 -1.0906
 7779SOL    HW134796   1.352   4.589  14.055  0.2521 -0.6937 -1.2982
 7779SOL    HW234797   1.462   4.563  13.964 -2.5632 -2.8480 -1.2934
 7780SOL     OW34798   2.009   2.457   3.675 -0.4058 -0.1213 -0.4338
 7780SOL    HW134799   1.996   2.461   3.580 -1.7899  0.7681 -0.2026
 7780SOL    HW234800   1.958   2.378   3.694  0.2609 -0.3953  0.2377
 7781SOL     OW34801   4.223   1.313   5.197 -0.1978  0.3887  0.1496
 7781SOL    HW134802   4.271   1.347   5.121 -1.0963 -0.3973 -0.7796
 7781SOL    HW234803   4.287   1.250   5.229  1.1683  1.0212 -1.3445
 7782SOL     OW34804   3.692   1.824   8.059  0.7100 -0.2644  0.3772
 7782SOL    HW134805   3.698   1.755   7.994  2.2989 -1.2563  1.5762
 7782SOL    HW234806   3.598   1.838   8.069  0.6097  0.2691 -1.3564
 7783SOL     OW34807   1.377   2.605   9.287 -0.2129  0.2284  0.1040
 7783SOL    HW134808   1.368   2.700   9.292  0.0767  0.4243 -2.7814
 7783SOL    HW234809   1.399   2.580   9.377 -2.4686  2.8637  1.3901
 7784SOL     OW34810   3.678   1.303   2.620  0.7275  0.1674  0.8627
 7784SOL    HW134811   3.603   1.291   2.679 -0.4525  1.0514 -0.4485
 7784SOL    HW234812   3.644   1.384   2.581 -1.6799 -2.1686 -1.9290
 7785SOL     OW34813   0.973   3.321  13.058 -0.5317  0.5455  0.2448
 7785SOL    HW134814   1.042   3.331  12.992  0.4506  1.1549  1.3720
 7785SOL    HW234815   1.023   3.270  13.122 -0.7273 -1.1611 -0.9578
 7786SOL     OW34816   1.793   4.170  11.781 -0.1272 -0.0318 -0.0933
 7786SOL    HW134817   1.878   4.131  11.762 -0.7521 -0.9673 -0.9573
 7786SOL    HW234818   1.812   4.254  11.823  1.8936 -0.9423  0.8378
 7787SOL     OW34819   1.997   1.373   6.352  0.0164 -0.1400 -0.1485
 7787SOL    HW134820   1.922   1.352   6.408 -0.7506  1.6771 -0.4922
 7787SOL    HW234821   2.036   1.445   6.402  0.8883  0.0498 -1.1151
 7788SOL     OW34822   3.077   2.232   6.203 -0.3780 -0.3003  0.2568
 7788SOL    HW134823   3.086   2.227   6.298  0.6702  2.2666  0.2952
 7788SOL    HW234824   2.983   2.222   6.186 -0.8391 -0.4780  2.9653
 7789SOL     OW34825   1.235   1.522   5.789 -0.1381  0.0476 -0.1632
 7789SOL    HW134826   1.241   1.517   5.884 -1.1385  2.2192  0.0082
 7789SOL    HW234827   1.287   1.447   5.760 -0.9622 -0.9134  0.8529
 7790SOL     OW34828   0.367   1.207   2.354 -0.1862 -0.7980 -0.1344
 7790SOL    HW134829   0.425   1.157   2.296 -0.4342  1.1522 -2.0935
 7790SOL    HW234830   0.375   1.162   2.438 -2.4388  2.8873  2.0418
 7791SOL     OW34831   1.036   0.970   7.655  0.2339 -0.0525 -0.3608
 7791SOL    HW134832   0.983   0.997   7.730  0.0098  0.0677 -0.5617
 7791SOL    HW234833   1.100   0.920   7.706 -0.7550  0.0268  0.9663
 7792SOL     OW34834   4.501   0.788   6.735 -0.4573  0.2892  0.0934
 7792SOL    HW134835   4.448   0.725   6.784  1.7203 -0.7981  1.0381
 7792SOL    HW234836   4.542   0.730   6.671 -0.6987 -0.6020  0.7404
 7793SOL     OW34837   3.449   2.795  15.563 -0.3456 -0.3402 -0.3754
 7793SOL    HW134838   3.508   2.817  15.492  1.8338 -2.4403  0.7675
 7793SOL    HW234839   3.508   2.768  15.634 -1.1210  0.4882  0.5976
 7794SOL     OW34840   4.339   4.705   6.805 -0.4270 -0.1589  0.3596
 7794SOL    HW134841   4.366   0.073   6.795 -0.1364 -0.6740 -3.3249
 7794SOL    HW234842   4.265   4.719   6.865 -0.1929  0.6474  0.4566
 7795SOL     OW34843   0.532   0.958  15.350 -0.1518  0.0172  0.0323
 7795SOL    HW134844   0.537   0.909  15.433 -1.7862  1.5085  1.0039
 7795SOL    HW234845   0.556   1.041  15.392 -1.5978  0.4950 -0.0948
 7796SOL     OW34846   3.109   0.804  14.831  0.3155  0.7298  0.1649
 7796SOL    HW134847   3.041   0.753  14.875  0.8203 -0.0531  0.0396
 7796SOL    HW234848   3.120   0.761  14.746  2.0677  0.2829  0.6234
 7797SOL     OW34849   1.692   1.087  16.357 -0.2182 -1.0324  0.4355
 7797SOL    HW134850   1.732   1.004  16.384 -0.6429 -1.9307 -1.7210
 7797SOL    HW234851   1.663   1.059  16.270 -0.4488 -0.4232  0.3181
 7798SOL     OW34852   2.635   1.623  16.156  0.0425  0.3193  0.4839
 7798SOL    HW134853   2.679   1.628  16.071  1.2653  0.6355  1.1370
 7798SOL    HW234854   2.543   1.643  16.137 -0.3346  0.2795  2.2939
 7799SOL     OW34855   4.652   3.849  13.920  0.1620  0.4217  0.0524
 7799SOL    HW134856   4.620   3.865  14.009  0.5866  2.4515 -0.1568
 7799SOL    HW234857   4.621   3.931  13.880  1.6938  0.9354 -0.0703
 7800SOL     OW34858   1.006   0.949   1.138 -0.1405 -0.4321 -0.5769
 7800SOL    HW134859   1.018   1.012   1.209 -0.3521 -2.2524  1.0709
 7800SOL    HW234860   1.002   0.868   1.190  1.6614  0.5037  1.0125
 7801SOL     OW34861   1.030   1.438   6.049 -0.4011 -0.2045  0.1238
 7801SOL    HW134862   1.092   1.429   6.121  0.9634  2.1948 -0.7754
 7801SOL    HW234863   1.057   1.369   5.987 -1.8312 -0.7964  0.1635
 7802SOL     OW34864   0.310   1.020   9.781 -0.4984  0.0510  0.2669
 7802SOL    HW134865   0.237   0.998   9.839 -0.5138 -1.0468 -0.1739
 7802SOL    HW234866   0.277   0.990   9.696  0.2612 -2.7329  0.9787
 7803SOL     OW34867   3.488   3.026   3.082 -0.2111 -0.5690  0.6949
 7803SOL    HW134868   3.469   2.984   2.998 -0.9055  0.8919  0.1236
 7803SOL    HW234869   3.453   2.954   3.135  1.1557 -1.7544 -0.0139
 7804SOL     OW34870   2.952   1.572  14.542 -0.0747  0.3608  0.1949
 7804SOL    HW134871   2.887   1.609  14.482 -1.2227 -0.5690  0.8694
 7804SOL    HW234872   3.026   1.569  14.481 -1.4397  1.7637 -1.5506
 7805SOL     OW34873   1.364   1.528   6.524 -0.3769 -0.0425 -0.2093
 7805SOL    HW134874   1.279   1.570   6.534 -0.2573 -0.1796  1.3563
 7805SOL    HW234875   1.415   1.607   6.542  0.7724 -0.5523 -1.2146
 7806SOL     OW34876   2.009   0.597   6.637 -0.3747  0.5146  0.3793
 7806SOL    HW134877   1.974   0.647   6.710 -1.4528  0.0128  0.1983
 7806SOL    HW234878   1.924   0.587   6.595  0.6835 -0.0892 -1.5930
 7807SOL     OW34879   2.783   1.123   8.608 -0.4695  0.2305  0.1004
 7807SOL    HW134880   2.766   1.215   8.628  1.7305  0.6669 -0.0480
 7807SOL    HW234881   2.701   1.089   8.574 -1.6277  1.0830  2.0258
 7808SOL     OW34882   3.157   3.561   0.939 -0.3298  0.1529 -0.5636
 7808SOL    HW134883   3.106   3.621   0.886 -2.7411 -1.3276  0.0658
 7808SOL    HW234884   3.129   3.580   1.029 -2.2143 -1.2047 -0.8626
 7809SOL     OW34885   0.639   0.887   7.359 -0.2496  0.2868 -0.1375
 7809SOL    HW134886   0.582   0.932   7.297  0.6104  1.8762  0.2261
 7809SOL    HW234887   0.699   0.845   7.298 -2.4990 -0.2830 -1.9708
 7810SOL     OW34888   2.202   4.174  11.635  0.0772  0.2465 -0.2125
 7810SOL    HW134889   2.160   4.228  11.569  1.9836 -1.4830 -2.8343
 7810SOL    HW234890   2.130   4.117  11.661  0.5262  1.1108  2.9328
 7811SOL     OW34891   1.611   3.457   1.743 -0.1342 -0.5784  0.6462
 7811SOL    HW134892   1.610   3.372   1.786 -0.5886  1.0769  3.9246
 7811SOL    HW234893   1.521   3.486   1.762 -1.1647 -2.2930 -1.5402
 7812SOL     OW34894   4.222   2.257   9.699 -0.3210  0.6350 -0.4499
 7812SOL    HW134895   4.177   2.189   9.749  1.6965  0.6364  1.3977
 7812SOL    HW234896   4.284   2.199   9.655  0.1351 -0.0368  1.0560
 7813SOL     OW34897   3.988   1.712   5.980  0.4167 -0.1132 -0.8588
 7813SOL    HW134898   4.071   1.760   5.978  0.2276  0.2510  0.0384
 7813SOL    HW234899   3.999   1.651   5.906 -0.2307 -2.6016  1.0782
 7814SOL     OW34900   1.923   4.403   5.977 -0.7930 -1.3080  0.3819
 7814SOL    HW134901   2.004   4.454   5.969 -1.6100  0.0977  1.1340
 7814SOL    HW234902   1.869   4.481   5.983 -0.7512 -1.3175  0.8594
 7815SOL     OW34903   0.707   1.991   7.739  0.0204  0.3774 -0.1889
 7815SOL    HW134904   0.746   1.913   7.778 -0.8356 -0.2006 -0.5014
 7815SOL    HW234905   0.766   2.055   7.778  0.1188 -0.4273  0.9681
 7816SOL     OW34906   3.164   2.317   9.365 -0.2230 -0.1312 -0.2118
 7816SOL    HW134907   3.194   2.257   9.297  0.0004 -1.9433  1.5228
 7816SOL    HW234908   3.169   2.397   9.311  1.1255 -0.2532 -0.2502
 7817SOL     OW34909   3.345   3.859  13.858 -0.0134 -0.3749 -0.0786
 7817SOL    HW134910   3.264   3.870  13.908 -1.5022  0.8766 -2.7326
 7817SOL    HW234911   3.320   3.892  13.772  4.5919  0.5948 -1.0412
 7818SOL     OW34912   0.521   0.101   8.319  0.0670 -0.1423 -0.4125
 7818SOL    HW134913   0.462   0.156   8.370  0.2105  0.8085 -1.2861
 7818SOL    HW234914   0.597   0.100   8.377  0.5622  2.2078 -1.0239
 7819SOL     OW34915   0.203   0.697   9.826 -0.1098  0.0660  0.5616
 7819SOL    HW134916   0.257   0.628   9.866 -1.2755 -1.3624 -0.3262
 7819SOL    HW234917   0.225   0.767   9.888 -3.9474  1.1196  0.7168
 7820SOL     OW34918   2.646   4.175   4.129 -0.2684  0.0762 -0.0316
 7820SOL    HW134919   2.665   4.269   4.131  0.6657 -0.1179  0.6055
 7820SOL    HW234920   2.639   4.162   4.035  1.4603 -0.5889 -0.0765
 7821SOL     OW34921   4.036   3.554  11.816 -0.1590  0.4145 -0.1116
 7821SOL    HW134922   3.980   3.559  11.893  0.7447 -1.8495  0.6998
 7821SOL    HW234923   3.969   3.517  11.759  0.6829  1.6116 -1.8632
 7822SOL     OW34924   1.926   0.143   4.525  0.0374 -0.2100 -0.5150
 7822SOL    HW134925   1.956   0.054   4.545 -0.5589 -0.5694 -1.2617
 7822SOL    HW234926   1.986   0.173   4.458  0.7645 -1.6581 -0.5221
 7823SOL     OW34927   0.666   2.560   8.775 -0.3579 -0.5223  0.1110
 7823SOL    HW134928   0.748   2.596   8.810 -0.7950 -0.0073  0.6000
 7823SOL    HW234929   0.611   2.632   8.804  1.2839 -0.4179  2.9946
 7824SOL     OW34930   1.096   4.028   3.168  0.3040  0.3474 -0.4817
 7824SOL    HW134931   1.083   4.122   3.183 -1.2329 -0.4269  2.9650
 7824SOL    HW234932   1.039   4.017   3.092 -2.6114  2.0712  1.4458
 7825SOL     OW34933   2.108   3.852   3.056 -0.6405  0.4374 -0.1827
 7825SOL    HW134934   2.100   3.905   3.135 -1.6803  1.1050 -0.7284
 7825SOL    HW234935   2.097   3.920   2.989  1.0210  0.5995 -0.2795
 7826SOL     OW34936   2.161   2.017   7.062  0.4558  0.1508 -0.6211
 7826SOL    HW134937   2.215   2.038   6.986 -1.5903 -2.2800 -2.7531
 7826SOL    HW234938   2.072   2.000   7.032 -0.2667  0.8003  1.1793
 7827SOL     OW34939   2.900   1.286   5.505 -0.3520 -0.0381  0.2247
 7827SOL    HW134940   2.928   1.196   5.520  1.7585  0.7512  0.9316
 7827SOL    HW234941   2.938   1.309   5.421 -2.1128  2.7847  0.2084
 7828SOL     OW34942   0.340   1.386   3.453  0.0605 -0.0087  0.1313
 7828SOL    HW134943   0.393   1.310   3.431 -1.0587 -0.0759 -2.3162
 7828SOL    HW234944   0.381   1.450   3.394  0.3071 -1.1881 -0.9826
 7829SOL     OW34945   2.896   2.425   1.457  0.1733 -0.2921  0.7182
 7829SOL    HW134946   2.803   2.446   1.459  0.2418  0.1926 -1.1066
 7829SOL    HW234947   2.932   2.492   1.516 -0.1551 -0.2338  0.8499
 7830SOL     OW34948   2.499   4.357  14.632  0.6180 -0.0733 -0.3449
 7830SOL    HW134949   2.502   4.377  14.725  2.8908  0.6814 -0.5673
 7830SOL    HW234950   2.533   4.267  14.632  1.6621  0.3139  0.5966
 7831SOL     OW34951   2.466   2.624  10.003  0.0133 -0.3021  0.3021
 7831SOL    HW134952   2.482   2.572   9.924 -1.6157 -1.6466  0.8542
 7831SOL    HW234953   2.523   2.579  10.065 -0.3257  0.8941  1.4846
 7832SOL     OW34954   0.776   0.716   4.740  0.4421  0.4794  0.2878
 7832SOL    HW134955   0.830   0.753   4.670 -0.2664  0.6443 -0.1813
 7832SOL    HW234956   0.760   0.789   4.800 -0.6413 -0.7644  1.5007
 7833SOL     OW34957   0.081   1.714  15.142  0.5910  0.1046  0.4217
 7833SOL    HW134958   0.006   1.762  15.178  0.6350  0.0346  0.6047
 7833SOL    HW234959   0.093   1.761  15.060  1.2712 -1.9748 -0.6511
 7834SOL     OW34960   4.026   4.525  12.366 -0.2374  0.5629 -0.2131
 7834SOL    HW134961   4.107   4.534  12.315 -0.3495 -1.1422 -0.6777
 7834SOL    HW234962   4.012   4.431  12.371 -0.4221  0.5008 -1.7731
 7835SOL     OW34963   2.216   0.654   3.485  0.2780  0.3117 -0.5263
 7835SOL    HW134964   2.284   0.600   3.446  0.4577 -2.4191  3.5329
 7835SOL    HW234965   2.276   0.725   3.512  2.5092 -2.2029  1.0997
 7836SOL     OW34966   4.331   3.426   2.314  0.2256 -0.1338  0.0952
 7836SOL    HW134967   4.269   3.484   2.270 -2.7067 -3.9694 -0.8357
 7836SOL    HW234968   4.268   3.360   2.342  1.9431 -1.5619  0.5584
 7837SOL     OW34969   2.094   1.407   4.424 -0.6652 -0.3767 -0.4897
 7837SOL    HW134970   2.163   1.410   4.358  1.0747  2.5925  1.4736
 7837SOL    HW234971   2.119   1.325   4.467 -1.2941  0.5940  1.7331
 7838SOL     OW34972   3.406   1.085   1.728 -0.6312  0.0597 -0.2684
 7838SOL    HW134973   3.384   1.100   1.820 -1.2167 -1.0359 -0.2309
 7838SOL    HW234974   3.421   1.178   1.712  1.3548 -0.4197 -1.0767
 7839SOL     OW34975   0.454   3.895   6.719 -0.3311  0.7867 -0.2224
 7839SOL    HW134976   0.488   3.813   6.754  0.1564  0.6928 -0.9312
 7839SOL    HW234977   0.459   3.961   6.789  3.5671  0.6708 -0.3730
 7840SOL     OW34978   2.271   0.584   5.233  0.3285 -0.0748  0.4113
 7840SOL    HW134979   2.237   0.589   5.144  2.2331  1.5703 -0.2201
 7840SOL    HW234980   2.269   0.675   5.262  1.5389 -0.0774  0.4921
 7841SOL     OW34981   4.206   4.236   3.768  0.4738 -0.1290 -0.2229
 7841SOL    HW134982   4.148   4.170   3.807 -1.9082  1.8970 -0.2873
 7841SOL    HW234983   4.149   4.308   3.740  0.9035  0.2536 -0.1092
 7842SOL     OW34984   0.439   1.513   5.342 -0.0621 -0.3062  0.5866
 7842SOL    HW134985   0.382   1.487   5.269 -0.7706 -0.0593  1.0492
 7842SOL    HW234986   0.372   1.560   5.392 -0.3845 -0.0069 -0.1293
 7843SOL     OW34987   4.067   2.272   7.740 -0.0704 -0.2579  0.3301
 7843SOL    HW134988   4.100   2.328   7.810 -2.5115  1.5448 -0.0033
 7843SOL    HW234989   3.995   2.229   7.787 -0.2013  0.6474  0.9487
 7844SOL     OW34990   0.622   0.814   9.619 -0.1345  0.3542  0.0744
 7844SOL    HW134991   0.690   0.753   9.647 -0.3830  0.4287  0.8377
 7844SOL    HW234992   0.570   0.823   9.699 -0.9419 -0.3853 -0.3668
 7845SOL     OW34993   2.453   0.713  14.394  0.0431  0.0825 -0.2554
 7845SOL    HW134994   2.424   0.641  14.338  0.1054  1.7792 -2.4529
 7845SOL    HW234995   2.376   0.708  14.450 -0.2453 -0.7045 -0.7108
 7846SOL     OW34996   1.993   2.621   8.252 -0.1283  0.4272 -0.0591
 7846SOL    HW134997   1.956   2.709   8.259 -2.1213 -0.4439  0.2731
 7846SOL    HW234998   2.033   2.623   8.165 -2.1343 -2.0059 -1.0295
 7847SOL     OW34999   1.142   1.721   3.734  0.0599  0.0416  0.5858
 7847SOL    HW135000   1.171   1.632   3.750  1.2703  0.7030  2.0310
 7847SOL    HW235001   1.072   1.719   3.799 -1.8788  2.0862 -1.4288
 7848SOL     OW35002   1.125   3.225  13.301  0.4034 -0.0874 -0.3106
 7848SOL    HW135003   1.132   3.132  13.283 -0.6093 -0.3400  0.6434
 7848SOL    HW235004   1.192   3.261  13.242 -0.6904  2.4628 -0.0089
 7849SOL     OW35005   0.218   1.455  16.885  0.6106 -0.4585  0.0561
 7849SOL    HW135006   0.238   1.414  16.969 -1.9778  0.1872  0.9927
 7849SOL    HW235007   0.185   1.380  16.835 -1.9216  0.2295  0.6971
 7850SOL     OW35008   3.976   3.761   2.888 -0.0456  0.2746  0.6509
 7850SOL    HW135009   4.030   3.685   2.911 -1.3879 -0.5639  1.0239
 7850SOL    HW235010   4.033   3.838   2.888 -0.2853  0.4309 -3.2115
 7851SOL     OW35011   4.489   3.736   8.955 -0.1908  0.1377 -0.2757
 7851SOL    HW135012   4.535   3.720   9.038  0.9226 -0.4901 -1.0291
 7851SOL    HW235013   4.446   3.651   8.950 -0.9763  0.5115  0.0073
 7852SOL     OW35014   3.811   0.935  11.169  0.0466 -0.4024 -0.1289
 7852SOL    HW135015   3.760   0.961  11.246  1.1852  1.0865  0.1333
 7852SOL    HW235016   3.891   0.988  11.170  0.2875 -0.6778 -2.7235
 7853SOL     OW35017   2.654   4.348   5.290  0.0873 -0.0544  0.3146
 7853SOL    HW135018   2.682   4.291   5.362  1.5774  2.1551  1.4918
 7853SOL    HW235019   2.585   4.297   5.247 -0.3192 -0.2933  1.2438
 7854SOL     OW35020   0.385   1.211  14.574  0.2136  0.2035  0.2120
 7854SOL    HW135021   0.362   1.124  14.542 -0.9385  1.2065 -1.7273
 7854SOL    HW235022   0.363   1.191  14.665 -2.0884 -0.4973 -0.4891
 7855SOL     OW35023   1.158   0.369   6.903 -0.1915 -0.3312  0.6195
 7855SOL    HW135024   1.064   0.376   6.886 -0.0051  0.2229 -0.1654
 7855SOL    HW235025   1.187   0.446   6.854 -2.9473  1.1440  1.3227
 7856SOL     OW35026   4.122   2.732   3.393  0.1808 -0.9603 -0.2380
 7856SOL    HW135027   4.051   2.788   3.361  1.6841  1.5093  0.6796
 7856SOL    HW235028   4.084   2.645   3.384 -2.4708  0.3053 -1.3333
 7857SOL     OW35029   2.326   1.473   2.077  0.0159  0.0014  0.4868
 7857SOL    HW135030   2.386   1.545   2.059 -1.3528  0.3761 -2.6899
 7857SOL    HW235031   2.247   1.506   2.033  1.2885 -0.9409 -2.4733
 7858SOL     OW35032   0.705   0.049   3.352 -0.2927  0.0709  0.1199
 7858SOL    HW135033   0.698   0.128   3.407 -1.4849  0.2198 -0.2535
 7858SOL    HW235034   0.743   4.710   3.413 -0.3351 -0.3897 -0.3286
 7859SOL     OW35035   3.658   1.396   4.689  0.4315 -0.4075 -0.1585
 7859SOL    HW135036   3.650   1.472   4.746 -0.9868  0.6687 -1.7620
 7859SOL    HW235037   3.594   1.339   4.732  1.8198  0.1246  2.5896
 7860SOL     OW35038   3.782   0.097   9.579 -0.0446  0.7267  0.1772
 7860SOL    HW135039   3.826   0.142   9.652 -0.0911  1.3170 -0.1613
 7860SOL    HW235040   3.742   0.025   9.628 -1.0295  2.1617  1.5097
 7861SOL     OW35041   2.695   3.651   4.071  0.3136 -0.1424  0.3028
 7861SOL    HW135042   2.664   3.594   4.000  0.1465 -0.1196  0.3569
 7861SOL    HW235043   2.764   3.600   4.113  0.5102  0.3732  0.6157
 7862SOL     OW35044   0.372   4.242   1.996 -0.0627 -0.3261  0.1126
 7862SOL    HW135045   0.292   4.294   1.987 -0.6994 -0.8758  2.5882
 7862SOL    HW235046   0.414   4.281   2.073 -1.5689  4.2259 -1.4260
 7863SOL     OW35047   0.863   0.209   6.660  0.1399 -0.8600  0.4445
 7863SOL    HW135048   0.924   0.164   6.602 -0.2123 -0.1525 -0.4623
 7863SOL    HW235049   0.857   0.150   6.735 -0.9176 -1.1770  0.1116
 7864SOL     OW35050   2.908   1.066   0.313 -0.1372 -0.5631 -0.6812
 7864SOL    HW135051   2.814   1.065   0.330  0.1507  0.4400  0.9206
 7864SOL    HW235052   2.951   1.036   0.394  2.2727  2.6663 -0.7747
 7865SOL     OW35053   2.878   2.111  13.219 -0.0708 -0.1483 -0.6899
 7865SOL    HW135054   2.953   2.164  13.191 -0.7137  2.0271  1.7723
 7865SOL    HW235055   2.810   2.178  13.228 -0.3000 -0.2728 -1.4224
 7866SOL     OW35056   2.507   4.664  14.938 -0.2755 -0.2904  0.8054
 7866SOL    HW135057   2.504   4.703  15.025  0.3736 -0.7829  1.0414
 7866SOL    HW235058   2.540   4.575  14.951  0.1484  0.0645  2.1079
 7867SOL     OW35059   3.427   1.055   8.577  0.3189 -0.1474  0.4977
 7867SOL    HW135060   3.473   1.068   8.660  0.2337  0.3962  0.4607
 7867SOL    HW235061   3.496   1.059   8.510  0.1294 -0.1989  0.2994
 7868SOL     OW35062   1.985   0.696   4.354  0.6757  0.2475 -0.2279
 7868SOL    HW135063   1.990   0.611   4.396 -0.8961  0.0287 -0.4782
 7868SOL    HW235064   2.008   0.675   4.263 -1.7438  0.2453 -0.8505
 7869SOL     OW35065   3.754   1.797   2.791  0.6218 -0.2947 -0.5367
 7869SOL    HW135066   3.833   1.830   2.749  1.7328 -1.6111  0.5287
 7869SOL    HW235067   3.719   1.737   2.725 -1.1379  0.0434  0.0891
 7870SOL     OW35068   4.165   0.730   6.176  0.0531  0.1345  0.3562
 7870SOL    HW135069   4.179   0.637   6.154 -0.6619 -0.5248  2.6504
 7870SOL    HW235070   4.080   0.720   6.218  0.0681  1.4889  0.6920
 7871SOL     OW35071   1.869   3.509  10.360 -0.3296  0.2153  0.5418
 7871SOL    HW135072   1.881   3.499  10.266 -1.2958 -1.7456  0.6385
 7871SOL    HW235073   1.828   3.424  10.376  0.8126 -0.1307  1.6840
 7872SOL     OW35074   2.379   3.796   3.291  0.3659 -0.0123 -0.9203
 7872SOL    HW135075   2.438   3.754   3.228  1.7339 -0.0686  0.4170
 7872SOL    HW235076   2.302   3.806   3.234  0.1746 -1.1843 -0.8661
 7873SOL     OW35077   3.296   3.359   8.102  0.1580 -1.0586 -0.6256
 7873SOL    HW135078   3.242   3.409   8.163  0.7979 -0.7564 -0.3145
 7873SOL    HW235079   3.239   3.302   8.049  2.2654 -1.0885 -2.8377
 7874SOL     OW35080   1.211   1.320   2.926  0.4980 -0.0526 -0.3701
 7874SOL    HW135081   1.182   1.284   3.010  0.1576  0.7968 -0.1253
 7874SOL    HW235082   1.194   1.255   2.858  0.8122 -1.2348  0.6942
 7875SOL     OW35083   3.014   2.585   8.095 -0.8456 -0.6977 -0.3986
 7875SOL    HW135084   3.063   2.520   8.045  1.7606  1.0987 -0.2042
 7875SOL    HW235085   2.935   2.540   8.124 -0.3624 -1.1421  0.2108
 7876SOL     OW35086   1.495   0.334   9.639 -0.0369 -0.1329 -0.0911
 7876SOL    HW135087   1.531   0.247   9.657  2.1582  1.2409  2.1466
 7876SOL    HW235088   1.574   0.386   9.657  1.2922 -0.9545 -3.5632
 7877SOL     OW35089   2.122   3.087  15.555 -0.3197 -0.2321 -0.6182
 7877SOL    HW135090   2.150   2.996  15.567  2.6125  0.6886 -0.4217
 7877SOL    HW235091   2.201   3.141  15.565 -0.5951  0.5190 -2.4532
 7878SOL     OW35092   2.713   2.447  15.444  0.1341  0.6095 -0.1447
 7878SOL    HW135093   2.673   2.364  15.419 -1.8243  1.5907 -0.2823
 7878SOL    HW235094   2.719   2.496  15.362 -2.1032 -0.2656 -0.8496
 7879SOL     OW35095   1.929   4.006   3.529  0.4011 -0.0202 -0.2367
 7879SOL    HW135096   1.978   3.933   3.568 -1.0391 -0.4463  0.7590
 7879SOL    HW235097   1.957   4.079   3.585  0.4240  0.1491 -0.4680
 7880SOL     OW35098   4.039   4.534   9.710  0.1717  0.4560 -0.6094
 7880SOL    HW135099   3.963   4.552   9.764  0.9125  0.0808  0.5653
 7880SOL    HW235100   4.003   4.472   9.647 -0.3454  1.7333 -1.5640
 7881SOL     OW35101   1.975   2.147   0.777 -0.0320  0.5559 -0.1003
 7881SOL    HW135102   1.896   2.198   0.795 -0.1440 -0.1291  1.3785
 7881SOL    HW235103   2.040   2.210   0.807 -0.8404  1.4341 -0.1923
 7882SOL     OW35104   4.431   0.999   0.939  0.2796  0.3337 -0.5233
 7882SOL    HW135105   4.381   0.919   0.923  1.1224 -0.1998 -0.4682
 7882SOL    HW235106   4.404   1.067   0.877  1.9204 -0.3190 -1.9471
 7883SOL     OW35107   4.707   4.000   8.333  0.6371  0.3487  0.7477
 7883SOL    HW135108   4.625   3.950   8.339  1.1611 -0.6644 -0.4107
 7883SOL    HW235109   4.669   4.088   8.331 -0.9729 -0.3644 -0.7481
 7884SOL     OW35110   4.651   2.729   3.801 -0.2731  0.2823  0.1936
 7884SOL    HW135111   4.646   2.784   3.879  0.4621 -0.0676  0.4821
 7884SOL    HW235112   4.597   2.785   3.746 -1.9716  1.7666  3.4210
 7885SOL     OW35113   0.056   1.316   4.725  0.0820  0.0206  0.2141
 7885SOL    HW135114   0.005   1.391   4.755  0.4557  0.4268 -0.1692
 7885SOL    HW235115   4.719   1.244   4.744 -0.5183 -0.3177 -2.9899
 7886SOL     OW35116   1.519   2.777   8.562 -0.5804 -0.3167  0.9342
 7886SOL    HW135117   1.425   2.782   8.547 -0.6841  1.1236  2.0886
 7886SOL    HW235118   1.518   2.834   8.638 -5.3480 -0.8749  1.3122
 7887SOL     OW35119   0.487   2.171  17.438  0.2473 -0.5379 -0.3448
 7887SOL    HW135120   0.459   2.093  17.391 -3.2265 -0.0541  0.9794
 7887SOL    HW235121   0.534   2.138  17.515 -3.0844 -0.6267  1.6184
 7888SOL     OW35122   0.754   2.354   2.457 -0.2473 -0.1293 -0.0516
 7888SOL    HW135123   0.695   2.283   2.484  0.9996 -0.9525  0.5381
 7888SOL    HW235124   0.827   2.315   2.410 -0.3682  0.5303 -0.7711
 7889SOL     OW35125   3.185   4.169   5.920  0.0675  0.6228  0.1545
 7889SOL    HW135126   3.129   4.092   5.924  0.3470  0.4221  0.2252
 7889SOL    HW235127   3.259   4.135   5.970  0.5449 -0.2917 -1.1778
 7890SOL     OW35128   1.609   3.362   0.301 -0.2103  0.3184  0.1293
 7890SOL    HW135129   1.601   3.268   0.316  1.3745  0.6086  2.9070
 7890SOL    HW235130   1.679   3.369   0.366 -0.5670 -1.1822  0.6898
 7891SOL     OW35131   1.067   1.837  15.487 -0.2655  0.8766  0.1467
 7891SOL    HW135132   1.058   1.742  15.492 -0.1131  0.7675 -1.9008
 7891SOL    HW235133   1.027   1.865  15.405  2.2518 -0.2148 -1.4493
 7892SOL     OW35134   0.543   2.602   4.718 -0.0518 -0.0453  0.0395
 7892SOL    HW135135   0.540   2.675   4.657  0.3805  0.8033  1.0182
 7892SOL    HW235136   0.454   2.568   4.731 -0.6124  0.5660 -2.1849
 7893SOL     OW35137   0.420   0.007   3.595  0.1084 -0.8802 -0.5158
 7893SOL    HW135138   0.419   0.072   3.525 -2.0882 -0.6213 -0.2232
 7893SOL    HW235139   0.352   0.034   3.656  0.5215 -0.8059 -0.0888
 7894SOL     OW35140   0.669   1.635   2.798 -0.3787 -0.2590 -0.4483
 7894SOL    HW135141   0.755   1.607   2.828  0.4919  3.7798  0.8309
 7894SOL    HW235142   0.688   1.728   2.785  0.9202 -0.2093  1.7456
 7895SOL     OW35143   0.087   3.468  15.574 -0.0532 -0.0149 -0.8901
 7895SOL    HW135144   4.723   3.488  15.540 -0.3257 -0.3324 -0.3804
 7895SOL    HW235145   0.110   3.384  15.533 -4.1061 -0.7280 -1.7655
 7896SOL     OW35146   4.348   4.472   3.006  0.1398  0.0983 -0.5651
 7896SOL    HW135147   4.293   4.534   3.055  1.2590  1.6185 -1.2147
 7896SOL    HW235148   4.413   4.524   2.958 -0.2035  0.0569 -1.0723
 7897SOL     OW35149   0.111   3.758   7.954  0.5019  0.1791  0.7136
 7897SOL    HW135150   0.174   3.699   7.996 -0.4071 -1.1666  0.1929
 7897SOL    HW235151   0.089   3.706   7.877 -0.2675 -0.3042  1.2625
 7898SOL     OW35152   1.611   4.315   1.249 -0.0100  0.2912  0.1865
 7898SOL    HW135153   1.552   4.260   1.299  1.2211  2.3871  3.9450
 7898SOL    HW235154   1.636   4.261   1.174  1.1640 -1.4889  1.8857
 7899SOL     OW35155   1.648   0.269  15.319 -0.3861  0.0488  0.4795
 7899SOL    HW135156   1.693   0.206  15.376 -0.1213  0.6390  0.9305
 7899SOL    HW235157   1.711   0.292  15.251 -0.8783  2.6944  0.9014
 7900SOL     OW35158   3.622   0.933   5.584 -0.1187  0.0254 -0.0547
 7900SOL    HW135159   3.568   0.936   5.505 -0.5421  1.2607  0.2814
 7900SOL    HW235160   3.604   1.014   5.631 -0.3063 -0.5462  0.8533
 7901SOL     OW35161   2.508   0.358   1.381 -0.1648  0.8485 -0.3637
 7901SOL    HW135162   2.514   0.443   1.337 -0.1279  1.5168  0.9603
 7901SOL    HW235163   2.586   0.355   1.436 -0.1658  2.0855 -0.2954
 7902SOL     OW35164   0.397   3.754   5.661 -0.3017  0.2093 -0.3326
 7902SOL    HW135165   0.352   3.710   5.733 -2.1589 -0.3972 -1.8821
 7902SOL    HW235166   0.320   3.767   5.605  0.0696  1.0768 -0.6434
 7903SOL     OW35167   1.350   0.228  15.287 -0.7173 -0.3997  0.2215
 7903SOL    HW135168   1.442   0.252  15.302 -0.0974 -1.1088 -2.5638
 7903SOL    HW235169   1.333   0.188  15.372  0.6238  2.0460  1.6554
 7904SOL     OW35170   0.268   0.159   2.433  0.3945  0.0297 -0.4203
 7904SOL    HW135171   0.341   0.221   2.425 -0.7203  1.7217  2.5410
 7904SOL    HW235172   0.266   0.150   2.528 -0.3854 -0.8528 -0.5208
 7905SOL     OW35173   1.769   2.477   5.832  0.4162 -0.1358  0.2482
 7905SOL    HW135174   1.679   2.506   5.816  0.2945  1.0254  3.0279
 7905SOL    HW235175   1.791   2.525   5.912  0.0158 -1.1291  0.9604
 7906SOL     OW35176   1.772   3.570   5.400  0.3616 -0.3712  0.0832
 7906SOL    HW135177   1.850   3.625   5.399 -0.6637  1.0545 -1.5884
 7906SOL    HW235178   1.802   3.514   5.329 -0.1749  0.0442 -0.4753
 7907SOL     OW35179   4.492   2.978   5.859 -0.3281  0.3484 -0.1456
 7907SOL    HW135180   4.502   3.068   5.888 -0.9353  0.7451 -1.1417
 7907SOL    HW235181   4.396   2.973   5.848 -0.3345  0.4152 -0.1153
 7908SOL     OW35182   4.324   4.428   6.001  0.0767 -0.8390  0.1460
 7908SOL    HW135183   4.267   4.354   6.019  0.6059 -1.4318 -0.6321
 7908SOL    HW235184   4.356   4.443   6.090  0.7453 -3.0528  0.2724
 7909SOL     OW35185   0.884   1.341   3.946 -0.1893  0.2507 -0.5685
 7909SOL    HW135186   0.790   1.324   3.949 -0.1656  0.2230 -0.0272
 7909SOL    HW235187   0.897   1.403   4.018 -2.6340  1.0804 -0.8331
 7910SOL     OW35188   2.292   1.358   5.044  0.1321 -0.1699 -0.2858
 7910SOL    HW135189   2.323   1.386   5.130  0.6389 -1.4109 -0.0594
 7910SOL    HW235190   2.246   1.277   5.064 -1.8711  1.2665  0.9042
 7911SOL     OW35191   4.714   4.440   2.810  0.2274 -0.4478 -0.6788
 7911SOL    HW135192   4.649   4.385   2.855 -1.9847  1.5697 -1.4346
 7911SOL    HW235193   4.669   4.524   2.817  0.4118 -0.1884 -2.6600
 7912SOL     OW35194   2.295   0.172   8.180  0.6237 -0.2664  0.0416
 7912SOL    HW135195   2.294   0.078   8.199 -0.9264 -0.5532 -1.4468
 7912SOL    HW235196   2.219   0.164   8.121  0.2568  0.8132  0.3795
 7913SOL     OW35197   0.127   2.037   4.251  0.1745 -0.2334 -0.5115
 7913SOL    HW135198   0.080   2.103   4.199  0.6978 -1.0556 -2.0450
 7913SOL    HW235199   0.205   2.020   4.197 -1.2920 -1.9963 -2.0723
 7914SOL     OW35200   0.189   4.605  16.647 -0.0012  0.0522  0.4230
 7914SOL    HW135201   0.217   4.693  16.673 -2.4046  0.7287  0.7375
 7914SOL    HW235202   0.151   4.623  16.561 -1.3299 -2.6655  0.4339
 7915SOL     OW35203   1.584   2.652   0.974  0.5625 -0.0667  0.1492
 7915SOL    HW135204   1.666   2.634   0.929 -0.4608  0.4022 -1.8991
 7915SOL    HW235205   1.518   2.628   0.909  1.8521  2.8697 -2.2240
 7916SOL     OW35206   2.690   1.803   7.207  0.7079  0.1416 -0.1910
 7916SOL    HW135207   2.756   1.830   7.142 -1.3043  0.4323 -2.1375
 7916SOL    HW235208   2.703   1.866   7.278  0.2670  0.8449 -0.7380
 7917SOL     OW35209   0.782   4.417   0.457  0.2072 -0.3261 -0.1384
 7917SOL    HW135210   0.718   4.346   0.451  1.2949 -1.2557 -0.7362
 7917SOL    HW235211   0.832   4.406   0.537  1.5230  0.0541 -0.9083
 7918SOL     OW35212   2.873   4.264   4.269  0.0912 -0.0569  0.3199
 7918SOL    HW135213   2.859   4.180   4.226 -0.2581 -0.0064  0.3344
 7918SOL    HW235214   2.902   4.319   4.196 -2.4458  0.6350 -0.1663
 7919SOL     OW35215   3.797   1.691   5.733 -0.0536 -0.1115 -0.4788
 7919SOL    HW135216   3.802   1.759   5.801  1.4874 -1.7558  1.0575
 7919SOL    HW235217   3.886   1.689   5.700  0.2737 -0.2659  0.4201
 7920SOL     OW35218   4.710   1.898  15.453  0.2489  0.0462  0.0603
 7920SOL    HW135219   0.034   1.976  15.427  1.9547 -0.5799  1.3095
 7920SOL    HW235220   4.675   1.877  15.366 -2.7756  0.9095  1.0436
 7921SOL     OW35221   2.147   4.452  10.772  0.1106  0.4903 -0.2494
 7921SOL    HW135222   2.198   4.381  10.734  1.7436 -0.1885  3.2565
 7921SOL    HW235223   2.090   4.464  10.696  1.7408  1.6954 -1.2778
 7922SOL     OW35224   4.041   3.312   4.965  0.5020 -0.6851 -0.0327
 7922SOL    HW135225   4.065   3.226   5.000  0.7499 -0.8886 -0.6995
 7922SOL    HW235226   3.996   3.357   5.036 -0.0471 -0.8374 -0.2851
 7923SOL     OW35227   2.342   0.437   8.120  1.2678  0.4260 -0.6863
 7923SOL    HW135228   2.345   0.343   8.138 -0.0438  0.7952  1.5173
 7923SOL    HW235229   2.298   0.442   8.035  0.5229 -1.4044 -0.4064
 7924SOL     OW35230   1.146   1.754   2.041  0.9726 -0.1140 -0.3414
 7924SOL    HW135231   1.089   1.695   1.992 -1.8200  1.6379  0.7801
 7924SOL    HW235232   1.089   1.783   2.112  0.6328 -2.6649  0.4181
 7925SOL     OW35233   1.659   2.446  17.460 -0.7649 -0.4600  0.6891
 7925SOL    HW135234   1.686   2.527  17.504  0.5735 -1.1316  1.1218
 7925SOL    HW235235   1.571   2.477  17.441 -1.9494 -3.3065  1.6907
 7926SOL     OW35236   0.860   2.005   5.015  0.4262 -0.1052  0.0672
 7926SOL    HW135237   0.878   2.029   5.106 -2.4804 -2.9322  1.3855
 7926SOL    HW235238   0.769   2.034   5.017 -0.5290 -3.2055  1.7665
 7927SOL     OW35239   1.069   3.925   6.011  0.0976 -0.2696  0.3496
 7927SOL    HW135240   0.973   3.924   6.011  0.0864  2.7956  1.3210
 7927SOL    HW235241   1.093   3.851   6.066 -2.8311 -1.3333  0.1661
 7928SOL     OW35242   0.053   3.867   2.077 -0.3857 -0.1064  0.7213
 7928SOL    HW135243   0.141   3.899   2.098  0.3830 -1.3779 -0.5422
 7928SOL    HW235244   0.048   3.884   1.983  0.8139  2.8146  1.1597
 7929SOL     OW35245   1.564   3.121   7.256 -0.0315 -0.0429 -0.0686
 7929SOL    HW135246   1.480   3.074   7.258  0.3976 -0.8065  0.3615
 7929SOL    HW235247   1.543   3.214   7.251  1.0630  0.2680  0.9915
 7930SOL     OW35248   1.403   0.407   7.022 -0.5696 -0.0122  0.0264
 7930SOL    HW135249   1.394   0.503   7.021 -1.6396 -0.0825  3.3551
 7930SOL    HW235250   1.331   0.387   6.962 -2.4544 -0.8025  2.5860
 7931SOL     OW35251   3.681   1.360   1.938  0.0673 -1.0800  0.2688
 7931SOL    HW135252   3.612   1.373   1.873  0.3000 -1.0841  0.0187
 7931SOL    HW235253   3.637   1.319   2.012  0.9963 -0.0377  1.3959
 7932SOL     OW35254   3.899   1.370  11.348 -0.3472  0.0715  0.6788
 7932SOL    HW135255   3.905   1.450  11.400  0.2469  0.1287  0.5257
 7932SOL    HW235256   3.829   1.325  11.395  0.1630 -2.3764 -0.9052
 7933SOL     OW35257   0.102   1.609   0.874  0.0447 -0.1532 -0.1167
 7933SOL    HW135258   0.024   1.588   0.823  1.3796 -0.2408 -2.1206
 7933SOL    HW235259   0.140   1.667   0.809  0.9048  0.5841  1.0370
 7934SOL     OW35260   1.385   2.803   7.859 -0.2380  0.1017  0.4052
 7934SOL    HW135261   1.309   2.832   7.809  1.5358  4.2679  0.1045
 7934SOL    HW235262   1.431   2.887   7.869  0.0655 -0.0662  0.4132
 7935SOL     OW35263   2.070   2.757   6.586 -0.2216 -0.3699 -0.0405
 7935SOL    HW135264   2.166   2.765   6.583 -0.3798  1.7372  0.5243
 7935SOL    HW235265   2.071   2.684   6.647  0.7929  0.3050  0.7467
 7936SOL     OW35266   2.844   0.511   7.044  0.5792  0.1089  0.2442
 7936SOL    HW135267   2.926   0.514   7.093  0.3626 -1.0393  0.6859
 7936SOL    HW235268   2.873   0.542   6.959 -2.4969 -0.2587 -0.9410
 7937SOL     OW35269   2.859   2.914  10.255  0.0312 -0.4796 -0.5173
 7937SOL    HW135270   2.824   2.825  10.252  0.3315 -0.5805 -1.0934
 7937SOL    HW235271   2.952   2.901  10.237  0.2078 -1.1098  0.9022
 7938SOL     OW35272   3.656   3.835   4.906  0.1490 -0.2925  0.1346
 7938SOL    HW135273   3.648   3.846   4.811  3.3160  1.6512  0.1214
 7938SOL    HW235274   3.708   3.912   4.924  1.7487 -1.0145 -1.3862
 7939SOL     OW35275   2.221   4.507  15.398 -0.6173 -0.0225  0.0383
 7939SOL    HW135276   2.311   4.500  15.366  0.2547  0.3279  2.4078
 7939SOL    HW235277   2.229   4.536  15.489  1.3740 -0.8548  0.1320
 7940SOL     OW35278   4.260   0.239   5.642 -0.5373 -0.1638  0.4133
 7940SOL    HW135279   4.337   0.192   5.675 -2.0591 -3.2403 -0.3909
 7940SOL    HW235280   4.289   0.310   5.586 -0.3517 -0.7066 -0.1795
 7941SOL     OW35281   1.035   3.010   0.692  0.8622 -0.1482  0.3715
 7941SOL    HW135282   1.063   3.101   0.685 -0.3981  0.1640 -0.5812
 7941SOL    HW235283   0.942   3.028   0.706  0.7560 -0.1522 -0.3403
 7942SOL     OW35284   0.352   0.784  14.806  0.5900 -0.1515  0.6472
 7942SOL    HW135285   0.370   0.813  14.716 -1.5810 -1.9767 -0.3789
 7942SOL    HW235286   0.435   0.737  14.821  1.7566  1.6082 -0.2385
 7943SOL     OW35287   0.447   3.556   6.302  0.6684  0.0504 -0.8197
 7943SOL    HW135288   0.417   3.511   6.381  0.3786  2.9727  0.7596
 7943SOL    HW235289   0.366   3.582   6.259  1.1100  0.5911 -1.3296
 7944SOL     OW35290   0.972   3.679   5.549  0.0408 -0.1518  0.1398
 7944SOL    HW135291   0.929   3.663   5.465  0.9304 -0.6567 -0.2185
 7944SOL    HW235292   0.901   3.659   5.610  2.5525  0.6251  3.3385
 7945SOL     OW35293   2.609   3.712   8.173  0.1230 -0.5879  0.2922
 7945SOL    HW135294   2.641   3.802   8.173  0.5432 -0.7276 -1.0390
 7945SOL    HW235295   2.558   3.704   8.093 -1.0588  1.1073  0.8920
 7946SOL     OW35296   3.235   3.971  13.616 -0.0006  0.5833 -0.2525
 7946SOL    HW135297   3.184   3.960  13.535 -0.0333 -0.5535 -0.0813
 7946SOL    HW235298   3.173   4.027  13.663  1.1219  1.8456 -0.2626
 7947SOL     OW35299   0.258   1.524   5.129  0.8592 -0.1371  0.3504
 7947SOL    HW135300   0.267   1.519   5.034 -0.1501  0.1926  0.2457
 7947SOL    HW235301   0.172   1.486   5.150  1.0536  0.4626  2.2326
 7948SOL     OW35302   1.620   4.692   2.838 -0.1772  0.1422  0.6588
 7948SOL    HW135303   1.714   4.706   2.848 -0.6435  2.6988  1.5883
 7948SOL    HW235304   1.587   0.055   2.813  1.0762  0.4674  0.1242
 7949SOL     OW35305   2.892   0.926  14.660  0.0388  0.3862  0.1653
 7949SOL    HW135306   2.879   0.850  14.603  3.0899 -1.6799  2.2593
 7949SOL    HW235307   2.987   0.934  14.646 -0.1167 -0.0918 -1.1803
 7950SOL     OW35308   2.124   0.952   6.829 -0.3104  0.0015 -0.3230
 7950SOL    HW135309   2.102   1.031   6.877 -0.5452 -0.0606 -0.3270
 7950SOL    HW235310   2.095   0.983   6.743 -0.7499 -0.7084 -0.4345
 7951SOL     OW35311   3.436   4.685   7.999  0.1475  0.0078  0.6535
 7951SOL    HW135312   3.341   4.681   8.000  0.2766 -3.1340 -1.2033
 7951SOL    HW235313   3.447   0.001   7.913 -0.4113  1.3595  1.2023
 7952SOL     OW35314   0.202   1.621   2.594  0.0078 -0.1363 -0.5835
 7952SOL    HW135315   0.251   1.693   2.554  1.4439 -1.0286 -0.4114
 7952SOL    HW235316   0.159   1.585   2.516  0.2968 -1.9831  0.1201
 7953SOL     OW35317   4.502   0.009   3.428 -0.0345 -0.3115 -0.2106
 7953SOL    HW135318   4.560   4.662   3.459 -0.5249 -1.3036 -1.5300
 7953SOL    HW235319   4.417   4.703   3.461 -0.6584 -1.2358 -2.6660
 7954SOL     OW35320   0.893   0.307   5.563 -0.2119 -0.1327  0.4893
 7954SOL    HW135321   0.911   0.297   5.470 -2.5231  1.1296 -0.0785
 7954SOL    HW235322   0.942   0.228   5.589 -0.0057 -0.4227 -0.7824
 7955SOL     OW35323   4.579   0.426   9.503 -0.4961  0.1328  1.0012
 7955SOL    HW135324   4.575   0.423   9.598  1.4342 -0.3426  1.0577
 7955SOL    HW235325   4.514   0.496   9.490 -0.3528  0.3339  1.3825
 7956SOL     OW35326   0.141   2.666   8.261 -0.0724 -0.1727 -0.0862
 7956SOL    HW135327   0.105   2.587   8.221 -1.3626  0.2663  0.1948
 7956SOL    HW235328   0.201   2.691   8.191  0.7579 -1.4169  0.1801
 7957SOL     OW35329   3.450   0.754   8.831  0.1183  0.1541  0.2999
 7957SOL    HW135330   3.432   0.725   8.921  1.1681 -0.9813  0.1399
 7957SOL    HW235331   3.405   0.684   8.786 -0.3185 -0.1704  1.2340
 7958SOL     OW35332   0.962   1.675  16.404  0.6845 -0.3474 -0.2963
 7958SOL    HW135333   0.892   1.613  16.383  0.6095 -0.3837  0.0683
 7958SOL    HW235334   0.966   1.703  16.312 -1.3268  0.2364 -0.2025
 7959SOL     OW35335   0.923   4.487  11.743 -0.2122 -0.0766 -0.4918
 7959SOL    HW135336   0.941   4.393  11.748  0.0009  0.1217  2.4932
 7959SOL    HW235337   0.905   4.511  11.834 -0.8696 -0.3758 -0.5387
 7960SOL     OW35338   3.375   1.016   0.273 -0.9304  0.4229 -0.2727
 7960SOL    HW135339   3.396   1.100   0.312 -3.0429  0.0222  1.6953
 7960SOL    HW235340   3.280   1.024   0.278 -0.9001 -0.2250  1.1810
 7961SOL     OW35341   4.234   4.606   1.987  0.0316  0.3561 -0.6775
 7961SOL    HW135342   4.222   4.519   1.949  2.3471 -1.2574  2.2480
 7961SOL    HW235343   4.180   4.602   2.065 -0.9570  0.1461 -1.3780
 7962SOL     OW35344   1.129   3.542   1.392  0.5124  0.4430  0.3696
 7962SOL    HW135345   1.202   3.481   1.380 -0.0673 -0.3530  0.8365
 7962SOL    HW235346   1.176   3.624   1.376  0.3686  0.5512  0.4983
 7963SOL     OW35347   2.752   3.637  12.370  0.2213 -0.1877 -0.8329
 7963SOL    HW135348   2.679   3.591  12.411  1.9330 -0.2077  2.1732
 7963SOL    HW235349   2.752   3.601  12.281  0.6051 -1.5124 -0.2954
 7964SOL     OW35350   4.039   4.377   5.255  0.6887  0.0151 -0.5916
 7964SOL    HW135351   4.080   4.436   5.319 -0.7695 -0.2141  0.5399
 7964SOL    HW235352   3.958   4.424   5.234  0.5431  0.1561  0.2886
 7965SOL     OW35353   4.316   3.242   6.665 -0.0399 -0.5885  0.0410
 7965SOL    HW135354   4.345   3.233   6.574  1.7451 -0.4538  0.6061
 7965SOL    HW235355   4.329   3.335   6.684  1.8960 -0.8661  0.0968
 7966SOL     OW35356   1.849   0.441   5.403 -0.7339 -0.2215  0.2389
 7966SOL    HW135357   1.762   0.458   5.368 -0.0805 -0.7119 -1.5866
 7966SOL    HW235358   1.886   0.529   5.411 -1.9970  0.4741 -1.9751
 7967SOL     OW35359   2.155   3.811   3.609 -0.2444 -0.2890  0.0402
 7967SOL    HW135360   2.194   3.734   3.568  1.2044  0.1699  0.5897
 7967SOL    HW235361   2.226   3.871   3.591 -0.5923 -0.3039 -1.3539
 7968SOL     OW35362   4.262   1.610   0.064 -0.6610 -0.1883  0.1280
 7968SOL    HW135363   4.289   1.599  17.668  0.0112 -1.0100  0.4135
 7968SOL    HW235364   4.170   1.585   0.059 -0.8008 -0.3384  3.4248
 7969SOL     OW35365   2.249   1.657   6.943 -0.5965 -0.0394  0.3696
 7969SOL    HW135366   2.320   1.722   6.943 -0.5364 -0.1156  1.2075
 7969SOL    HW235367   2.230   1.669   7.036 -0.5596 -0.6736  0.4614
 7970SOL     OW35368   1.406   3.663  13.541 -0.5046  0.3750  0.4851
 7970SOL    HW135369   1.379   3.597  13.605  2.3196 -0.1225  1.1880
 7970SOL    HW235370   1.398   3.744  13.591 -1.1929  1.6435 -1.6648
 7971SOL     OW35371   3.013   2.817   7.530 -0.2231  0.3367 -0.0644
 7971SOL    HW135372   2.973   2.735   7.559  2.0334 -1.0956 -1.0039
 7971SOL    HW235373   2.939   2.873   7.507  1.0884  1.6743 -1.0315
 7972SOL     OW35374   1.268   0.493   5.755 -0.2914 -0.0398  0.1550
 7972SOL    HW135375   1.234   0.568   5.706 -2.0558  0.3529  1.9473
 7972SOL    HW235376   1.195   0.432   5.750 -1.9529  1.8691  1.0955
 7973SOL     OW35377   4.056   3.861   2.340  0.0108  0.0593 -0.8608
 7973SOL    HW135378   3.986   3.814   2.294  0.6883  0.2982 -2.1554
 7973SOL    HW235379   4.057   3.832   2.431 -2.3895 -0.0286 -0.8631
 7974SOL     OW35380   3.643   1.080  13.167 -0.3960  0.2081 -0.0938
 7974SOL    HW135381   3.676   1.144  13.105  0.7731  0.8853  1.2247
 7974SOL    HW235382   3.566   1.059  13.115 -0.7622  0.5047  0.3267
 7975SOL     OW35383   3.778   1.026   0.869  0.3076 -0.0636  0.0060
 7975SOL    HW135384   3.785   1.027   0.964  2.2297  2.4015 -0.1666
 7975SOL    HW235385   3.692   0.983   0.861  1.1372 -1.4712 -1.3371
 7976SOL     OW35386   0.909   2.575   2.207 -0.3983 -0.0676 -0.4317
 7976SOL    HW135387   0.998   2.541   2.210 -0.4176 -0.0467  0.2596
 7976SOL    HW235388   0.857   2.506   2.165  0.2886 -0.2109 -1.0436
 7977SOL     OW35389   1.580   0.428   5.280 -0.2246 -0.2196 -0.1502
 7977SOL    HW135390   1.599   0.488   5.208  0.5372 -2.0818 -1.5127
 7977SOL    HW235391   1.489   0.446   5.301 -0.4121  0.8005 -1.8724
 7978SOL     OW35392   4.289   1.736   5.250 -0.3466 -0.7938  0.3899
 7978SOL    HW135393   4.327   1.689   5.176 -2.2049  1.1121 -1.7778
 7978SOL    HW235394   4.359   1.781   5.298 -1.0816 -0.2289  0.9367
 7979SOL     OW35395   0.710   4.079   9.122  0.1827 -0.0747  0.3405
 7979SOL    HW135396   0.662   4.160   9.106 -0.9900 -0.6655  0.9039
 7979SOL    HW235397   0.791   4.116   9.159 -0.2435  0.0080  1.1913
 7980SOL     OW35398   1.106   4.269   4.989  0.4622  0.1135  0.2393
 7980SOL    HW135399   1.167   4.303   5.055  0.6246  0.6440 -0.1843
 7980SOL    HW235400   1.024   4.256   5.037  0.2438 -0.5867 -0.3270
 7981SOL     OW35401   4.689   3.607  14.774 -0.1893  0.9589  0.1767
 7981SOL    HW135402   0.048   3.574  14.810  0.7805 -1.2759 -4.1943
 7981SOL    HW235403   4.704   3.696  14.742  0.9820  0.5003 -0.5441
 7982SOL     OW35404   0.666   3.247   7.726  0.5054  0.0523  0.2840
 7982SOL    HW135405   0.572   3.235   7.715  0.6769 -0.6191 -0.5563
 7982SOL    HW235406   0.689   3.280   7.639 -1.9057 -0.0690 -0.3989
 7983SOL     OW35407   1.717   0.696   4.511  0.3226  0.0973 -0.0356
 7983SOL    HW135408   1.803   0.670   4.477  1.1977  0.6036  1.7768
 7983SOL    HW235409   1.740   0.765   4.574 -0.3241 -1.5363  1.9904
 7984SOL     OW35410   3.556   3.812  10.952  0.1550 -0.1715 -0.0868
 7984SOL    HW135411   3.475   3.789  10.997  1.2611 -1.0960  1.4589
 7984SOL    HW235412   3.604   3.856  11.023 -0.9992  0.3867  0.3428
 7985SOL     OW35413   1.962   3.081   3.798 -0.5202 -0.2020 -0.3100
 7985SOL    HW135414   1.883   3.121   3.763  0.0069  1.5446  0.4741
 7985SOL    HW235415   2.012   3.162   3.810 -1.0804  0.1318 -0.2065
 7986SOL     OW35416   1.207   4.262   0.568 -0.2507  0.2447  0.0982
 7986SOL    HW135417   1.235   4.171   0.567 -0.4735  0.1727  0.4388
 7986SOL    HW235418   1.123   4.244   0.610 -0.3355  0.3236 -0.0376
 7987SOL     OW35419   4.563   2.760   7.355  0.1955  0.2074  0.2129
 7987SOL    HW135420   4.473   2.776   7.326 -0.3600  1.4264  2.5668
 7987SOL    HW235421   4.566   2.802   7.441  2.8682  0.8600 -0.1956
 7988SOL     OW35422   0.734   4.198   5.334  0.2021 -0.2596  0.2381
 7988SOL    HW135423   0.724   4.291   5.314 -2.1637 -0.3362  1.1000
 7988SOL    HW235424   0.808   4.175   5.278  0.0364  1.4365 -0.6793
 7989SOL     OW35425   0.961   4.080   4.754  0.3117 -0.4466 -0.3644
 7989SOL    HW135426   0.904   4.105   4.827 -1.3448  0.8324 -2.1120
 7989SOL    HW235427   1.051   4.090   4.783  0.3213  3.5735 -1.7777
 7990SOL     OW35428   4.271   2.780   8.606 -0.0827 -0.3850 -0.0724
 7990SOL    HW135429   4.356   2.750   8.574 -0.5650 -2.8084  0.9085
 7990SOL    HW235430   4.281   2.783   8.701  0.4560 -0.2230 -0.1340
 7991SOL     OW35431   1.190   2.982   3.806 -0.0003 -0.2955  0.3527
 7991SOL    HW135432   1.157   3.062   3.846  0.1498  0.1540 -0.4213
 7991SOL    HW235433   1.118   2.941   3.758 -2.2584  2.1157  1.7285
 7992SOL     OW35434   0.292   0.416  16.626  0.1714 -0.1375  0.5261
 7992SOL    HW135435   0.237   0.426  16.704 -0.2928  1.7573 -0.0347
 7992SOL    HW235436   0.248   0.479  16.569  0.6284  0.0733  0.4090
 7993SOL     OW35437   0.532   3.167   2.600  0.5318  0.1334 -0.4329
 7993SOL    HW135438   0.498   3.078   2.590  2.7626 -0.7170 -0.4778
 7993SOL    HW235439   0.580   3.159   2.682  1.1108 -0.4588 -0.8328
 7994SOL     OW35440   2.222   4.157  12.644 -0.1046 -0.6387 -0.0991
 7994SOL    HW135441   2.253   4.246  12.662  2.7533 -1.8002  0.6842
 7994SOL    HW235442   2.187   4.173  12.557 -0.5153  2.1584  0.5650
 7995SOL     OW35443   3.943   4.705   4.135 -0.2235 -0.3314 -0.0088
 7995SOL    HW135444   3.999   0.059   4.135  1.6718 -1.6898  1.0907
 7995SOL    HW235445   3.862   0.011   4.094 -1.6273 -2.6271  1.0798
 7996SOL     OW35446   0.165   1.882   8.966 -0.2090  0.2487  0.2261
 7996SOL    HW135447   0.193   1.961   8.918  1.4064 -0.1487  0.5175
 7996SOL    HW235448   0.119   1.841   8.892 -0.4063  0.8549  0.0126
 7997SOL     OW35449   2.556   1.770  16.457  0.1319 -0.8426 -0.2539
 7997SOL    HW135450   2.649   1.792  16.454  0.0159 -0.3206  0.0872
 7997SOL    HW235451   2.530   1.818  16.535 -1.8171  0.4406 -1.6915
 7998SOL     OW35452   2.688   1.809   4.496 -0.3335 -0.4215 -0.6320
 7998SOL    HW135453   2.782   1.796   4.485 -0.2380  0.2542 -0.6399
 7998SOL    HW235454   2.678   1.740   4.562  1.1649 -1.3147 -1.3375
 7999SOL     OW35455   2.785   0.439   3.474 -0.5266  0.2767 -0.1375
 7999SOL    HW135456   2.813   0.422   3.384 -0.2829 -0.8064  0.1478
 7999SOL    HW235457   2.822   0.357   3.506 -1.6349 -0.1892 -0.0483
 8000SOL     OW35458   0.309   2.143   8.037  0.2911 -0.3267 -0.2321
 8000SOL    HW135459   0.235   2.095   8.073 -0.8927  1.0635 -0.8105
 8000SOL    HW235460   0.349   2.176   8.117 -1.3174 -0.6553  0.6999
 8001SOL     OW35461   2.513   2.904   6.614  0.0223 -0.2319 -0.0627
 8001SOL    HW135462   2.494   2.952   6.694 -0.4351 -1.2421  0.4301
 8001SOL    HW235463   2.462   2.824   6.628  1.8566 -0.9557  2.3236
 8002SOL     OW35464   3.631   4.431   2.186  0.4783 -0.1054 -0.4217
 8002SOL    HW135465   3.675   4.354   2.223  2.2679  0.8864 -0.4972
 8002SOL    HW235466   3.569   4.400   2.120  1.6132 -1.3057 -0.9498
 8003SOL     OW35467   3.539   0.323   5.363 -0.1277  0.5496  0.0984
 8003SOL    HW135468   3.561   0.394   5.423 -1.3727 -1.3538  2.7888
 8003SOL    HW235469   3.446   0.342   5.349 -0.4178  0.4348  1.8398
 8004SOL     OW35470   3.635   4.613   1.883  0.0853  0.4619 -0.2454
 8004SOL    HW135471   3.637   4.525   1.846  0.8955  0.2154  0.3790
 8004SOL    HW235472   3.541   4.630   1.875 -0.3875 -2.4452 -0.8064
 8005SOL     OW35473   1.220   4.030   4.843  0.0392 -0.7017 -0.0507
 8005SOL    HW135474   1.241   4.011   4.935 -0.6480 -1.4745 -0.0538
 8005SOL    HW235475   1.308   4.011   4.809  0.9246 -0.1127  1.8984
 8006SOL     OW35476   4.106   0.368   2.571  0.1526  0.3371 -0.2377
 8006SOL    HW135477   4.016   0.361   2.539  0.5954  0.7600 -1.5753
 8006SOL    HW235478   4.154   0.416   2.504  0.6727 -0.9415 -0.7756
 8007SOL     OW35479   3.361   0.774   4.150  0.3802 -0.1845  0.0233
 8007SOL    HW135480   3.269   0.782   4.177  0.6010  1.5162  0.3042
 8007SOL    HW235481   3.376   0.690   4.191  0.2833 -1.3680 -2.3724
 8008SOL     OW35482   2.960   2.121   7.436 -0.2986 -0.0039 -0.7096
 8008SOL    HW135483   2.976   2.170   7.517  0.5980  0.4267 -1.1451
 8008SOL    HW235484   3.007   2.173   7.371  0.1283  1.6275  0.8996
 8009SOL     OW35485   2.401   4.502  17.322 -0.2778 -0.7484  0.0390
 8009SOL    HW135486   2.449   4.517  17.241 -0.6651  1.9131  0.3053
 8009SOL    HW235487   2.479   4.505  17.377 -1.3066  0.7782  1.4070
 8010SOL     OW35488   0.120   4.421   7.876 -0.6190  0.3425 -0.1598
 8010SOL    HW135489   0.106   4.468   7.794 -2.3472  0.2123  0.0594
 8010SOL    HW235490   0.077   4.472   7.944  0.6659 -1.7496  2.2178
 8011SOL     OW35491   2.027   3.444   6.562 -0.0779  0.0627 -0.2589
 8011SOL    HW135492   2.070   3.361   6.542  0.8834  0.5886 -0.3639
 8011SOL    HW235493   1.970   3.468   6.489  1.3929  3.0850 -0.3982
 8012SOL     OW35494   1.475   3.842   8.419  0.3419  0.4256  0.6937
 8012SOL    HW135495   1.518   3.915   8.375  0.4461  0.3365  0.6493
 8012SOL    HW235496   1.506   3.852   8.509  0.7253 -0.3548  0.6421
 8013SOL     OW35497   0.975   4.159   8.883  0.4434 -0.4856 -0.0355
 8013SOL    HW135498   1.060   4.124   8.907  0.1426 -0.4441  1.1038
 8013SOL    HW235499   0.974   4.153   8.787  1.7696 -0.2865 -0.0646
 8014SOL     OW35500   0.408   2.449  10.729 -0.3181 -0.6272  0.8015
 8014SOL    HW135501   0.503   2.460  10.719 -0.6561  2.0512  0.3995
 8014SOL    HW235502   0.374   2.402  10.653  1.0027  2.9687 -1.9891
 8015SOL     OW35503   2.478   3.775  16.997 -0.2248 -0.0215  0.5562
 8015SOL    HW135504   2.560   3.778  17.047  1.4298  0.2902 -2.1679
 8015SOL    HW235505   2.487   3.849  16.938 -0.2286 -0.2692  0.2431
 8016SOL     OW35506   1.510   2.577   4.436 -0.7330  0.0015 -0.1706
 8016SOL    HW135507   1.448   2.505   4.426  0.3960 -1.2039  1.4726
 8016SOL    HW235508   1.561   2.575   4.355 -0.5436  2.5077 -0.1224
 8017SOL     OW35509   0.032   1.783   4.809  0.3066  0.0584 -0.3301
 8017SOL    HW135510   0.051   1.767   4.716  0.4691 -0.4412 -0.2082
 8017SOL    HW235511   0.050   1.877   4.822 -0.2414  0.2970 -1.2722
 8018SOL     OW35512   0.086   1.708   4.533  0.5000 -0.0184  0.6608
 8018SOL    HW135513   0.162   1.747   4.489 -0.6155 -0.4436 -1.6443
 8018SOL    HW235514   0.053   1.642   4.472  0.9799  1.1462 -0.8569
 8019SOL     OW35515   3.725   4.209   4.183 -0.4582 -0.0923 -0.4460
 8019SOL    HW135516   3.772   4.291   4.202 -0.2426 -0.9683  2.7943
 8019SOL    HW235517   3.665   4.244   4.117 -0.2000 -1.2236 -1.2898
 8020SOL     OW35518   4.315   0.869   8.961  0.3148  0.1249  0.7872
 8020SOL    HW135519   4.240   0.875   9.019 -0.3307 -0.0206 -0.0405
 8020SOL    HW235520   4.378   0.846   9.029  1.0976 -1.0386 -0.3304
 8021SOL     OW35521   0.240   3.397   5.546 -0.3473  0.3945 -0.1209
 8021SOL    HW135522   0.316   3.434   5.590 -0.7177  0.3704  0.5322
 8021SOL    HW235523   0.191   3.358   5.618  0.6886  1.4398  1.1418
 8022SOL     OW35524   3.980   1.604   6.262 -0.1834 -0.6277  0.6796
 8022SOL    HW135525   3.974   1.597   6.167  0.6893  0.1449  0.5687
 8022SOL    HW235526   4.075   1.613   6.264 -0.1928 -0.2776 -0.5201
 8023SOL     OW35527   1.455   1.860  10.371 -0.1660  0.3928  0.3217
 8023SOL    HW135528   1.494   1.777  10.401 -1.2523  1.0759  3.6477
 8023SOL    HW235529   1.500   1.929  10.419  1.6080 -0.7046  0.2291
 8024SOL     OW35530   1.307   4.545   2.598 -0.2678 -0.4293  0.6145
 8024SOL    HW135531   1.241   4.559   2.667  0.6338 -1.7469  1.7483
 8024SOL    HW235532   1.384   4.549   2.654 -1.1174 -2.2548  1.9101
 8025SOL     OW35533   2.984   2.897   8.495  0.0428  0.1500  0.3675
 8025SOL    HW135534   3.033   2.861   8.569 -0.0576 -0.4255  0.1553
 8025SOL    HW235535   3.054   2.944   8.452 -0.6366  1.7850  1.0490
 8026SOL     OW35536   0.387   1.563   3.251  0.3537 -0.0998  0.0134
 8026SOL    HW135537   0.333   1.642   3.243  1.5652  0.3053 -4.0493
 8026SOL    HW235538   0.473   1.596   3.226 -0.0819 -1.4651 -3.3043
 8027SOL     OW35539   2.464   4.294   6.823  0.3541 -0.5735  0.1903
 8027SOL    HW135540   2.528   4.272   6.891  0.7310 -2.4216 -0.7838
 8027SOL    HW235541   2.405   4.325   6.892  0.4978  0.6011 -0.2215
 8028SOL     OW35542   0.310   3.277   0.636  0.5369 -0.3271  0.1909
 8028SOL    HW135543   0.328   3.368   0.610  1.7875  0.2492  3.1399
 8028SOL    HW235544   0.231   3.287   0.689 -0.4034  1.6462 -1.5753
 8029SOL     OW35545   2.525   2.272   4.230  0.3791  0.1817 -0.0179
 8029SOL    HW135546   2.573   2.206   4.280 -0.2969 -1.6808 -1.8283
 8029SOL    HW235547   2.471   2.208   4.184  1.7453  0.1233 -1.5286
 8030SOL     OW35548   2.479   2.118  15.151  0.0262 -0.1836 -0.1960
 8030SOL    HW135549   2.403   2.079  15.108  0.4341  0.0478 -1.1303
 8030SOL    HW235550   2.531   2.152  15.078 -0.7369 -1.0513 -1.1471
 8031SOL     OW35551   2.512   4.043  14.868 -0.0118  0.0541  0.2458
 8031SOL    HW135552   2.527   4.059  14.775 -0.6903 -0.6784  0.0098
 8031SOL    HW235553   2.598   4.067  14.903 -0.2564 -1.5970  1.9760
 8032SOL     OW35554   0.436   0.256   1.174 -0.1784 -0.2448 -0.0977
 8032SOL    HW135555   0.518   0.211   1.157 -0.5077 -0.8641 -0.0283
 8032SOL    HW235556   0.451   0.276   1.266  0.6924  0.4343 -0.3920
 8033SOL     OW35557   3.578   4.137   9.045  0.3993  0.5708 -0.0080
 8033SOL    HW135558   3.596   4.057   9.096 -0.7829 -0.4884 -1.2430
 8033SOL    HW235559   3.610   4.205   9.103 -1.1682  2.1833 -1.0362
 8034SOL     OW35560   2.056   1.740   8.593  0.3798  0.3686 -0.3740
 8034SOL    HW135561   2.048   1.663   8.649 -1.5007 -1.2062 -2.8380
 8034SOL    HW235562   2.147   1.768   8.606  0.5408 -0.8152  1.1590
 8035SOL     OW35563   2.763   4.597  15.172  0.0903  0.1318  0.4199
 8035SOL    HW135564   2.812   4.642  15.103 -1.3512  0.2925 -0.5139
 8035SOL    HW235565   2.696   4.662  15.193  0.7795  0.9840 -0.0190
 8036SOL     OW35566   1.217   2.608   7.523  0.2086 -0.3577 -0.1652
 8036SOL    HW135567   1.140   2.656   7.554  0.7211  0.5111 -0.2450
 8036SOL    HW235568   1.281   2.679   7.524  1.4361 -1.5193  1.8845
 8037SOL     OW35569   2.358   4.079  11.410 -0.4729 -1.3238 -0.4934
 8037SOL    HW135570   2.331   4.132  11.335  3.0839  0.1261 -0.7834
 8037SOL    HW235571   2.320   4.129  11.482 -0.9732 -1.5715 -0.5833
 8038SOL     OW35572   2.749   1.106   6.601  0.1145 -0.6954  0.5650
 8038SOL    HW135573   2.753   1.181   6.659  0.6697 -0.8555  0.7329
 8038SOL    HW235574   2.739   1.040   6.670  1.6305 -1.2414  0.2676
 8039SOL     OW35575   3.224   0.874   6.527  0.5576  0.5440  0.1885
 8039SOL    HW135576   3.243   0.793   6.575  0.4871  0.9281  0.8648
 8039SOL    HW235577   3.169   0.922   6.589  1.5346  1.5071  0.2947
 8040SOL     OW35578   4.565   3.780   5.946  1.0717 -0.4247 -0.0219
 8040SOL    HW135579   4.604   3.697   5.919  0.8621 -0.6219  0.2845
 8040SOL    HW235580   4.487   3.747   5.989 -0.0631  1.7381 -0.4399
 8041SOL     OW35581   3.539   0.935   0.044  0.4847  0.1685  0.0321
 8041SOL    HW135582   3.593   0.869   0.088 -1.6591 -0.2857  1.9807
 8041SOL    HW235583   3.502   0.969   0.126 -1.1106 -0.8284 -0.2795
 8042SOL     OW35584   4.408   0.922   8.686  0.1235  0.3614 -0.1549
 8042SOL    HW135585   4.359   0.935   8.768 -1.7686  1.1157 -1.4121
 8042SOL    HW235586   4.421   0.827   8.692 -0.7627  0.0674 -2.8371
 8043SOL     OW35587   4.122   3.101   5.139  0.3413 -0.5198  0.2005
 8043SOL    HW135588   4.114   3.184   5.186 -0.0630  0.7971 -2.1521
 8043SOL    HW235589   4.217   3.093   5.152  0.3578  0.6025  0.8078
 8044SOL     OW35590   3.322   2.811   7.448 -0.3185  0.4555  0.1002
 8044SOL    HW135591   3.376   2.796   7.526 -2.5796  0.6238  1.6772
 8044SOL    HW235592   3.241   2.776   7.483 -1.4119 -0.7589 -3.6892
 8045SOL     OW35593   1.971   0.589  17.307 -0.0108  0.4591 -0.1964
 8045SOL    HW135594   2.065   0.574  17.317  0.2294  2.1352  0.0509
 8045SOL    HW235595   1.943   0.509  17.262  0.4317  0.5782 -0.6846
 8046SOL     OW35596   0.958   1.138  12.549  0.2543 -0.1782  0.1539
 8046SOL    HW135597   0.907   1.070  12.594 -1.7466 -0.3074 -2.2895
 8046SOL    HW235598   0.888   1.155  12.486 -1.2120 -0.4564  1.6966
 8047SOL     OW35599   4.080   1.282   6.524  0.0067  0.0905  0.4404
 8047SOL    HW135600   4.079   1.376   6.504 -3.1441 -0.2845 -1.2193
 8047SOL    HW235601   4.054   1.241   6.442 -1.6197  0.8403  0.5705
 8048SOL     OW35602   0.339   2.690  12.147 -0.0052  0.0591 -0.3302
 8048SOL    HW135603   0.407   2.653  12.091 -0.3999 -0.8816 -0.1898
 8048SOL    HW235604   0.264   2.681  12.089 -0.0244  0.4756 -0.3704
 8049SOL     OW35605   1.493   3.205   0.987 -0.4075 -0.1077 -0.0147
 8049SOL    HW135606   1.552   3.229   1.059  1.2608  1.1637 -1.8141
 8049SOL    HW235607   1.556   3.152   0.938  2.1096 -0.2529  3.3159
 8050SOL     OW35608   1.190   4.591   3.831  0.6516 -0.3513  0.1973
 8050SOL    HW135609   1.222   4.506   3.861  1.3493 -1.0514 -2.4744
 8050SOL    HW235610   1.133   4.617   3.903  0.7134 -0.6390  0.3504
 8051SOL     OW35611   2.420   3.604   4.786  0.0828 -0.2184 -0.9771
 8051SOL    HW135612   2.473   3.525   4.799 -0.4634 -0.5486 -0.7503
 8051SOL    HW235613   2.449   3.642   4.703  1.2182  2.1934  0.5020
 8052SOL     OW35614   2.343   2.471  14.196 -0.0545 -0.6685  0.1002
 8052SOL    HW135615   2.337   2.489  14.102  1.0573 -0.3053  0.1034
 8052SOL    HW235616   2.353   2.557  14.238 -0.6085 -0.3076 -0.4982
 8053SOL     OW35617   3.686   1.292   8.663 -0.2562  0.5433  0.2826
 8053SOL    HW135618   3.640   1.354   8.720  0.1984  0.6820  0.4976
 8053SOL    HW235619   3.652   1.331   8.582  2.1136  2.2243  0.0797
 8054SOL     OW35620   0.313   2.161   5.834  0.4155  0.6914 -0.0310
 8054SOL    HW135621   0.243   2.112   5.877  2.0985 -1.4144  0.2608
 8054SOL    HW235622   0.312   2.249   5.873 -0.1667 -0.1433  1.8075
 8055SOL     OW35623   1.667   1.598   1.256  0.5865 -0.5254 -0.4646
 8055SOL    HW135624   1.611   1.630   1.186 -0.7483  1.2540  1.4197
 8055SOL    HW235625   1.605   1.559   1.317  1.7056 -2.7659 -0.7423
 8056SOL     OW35626   1.712   3.037  14.823  0.1886 -0.0805 -0.4219
 8056SOL    HW135627   1.750   3.047  14.736  0.5733 -0.8328 -0.3332
 8056SOL    HW235628   1.622   3.065  14.808  0.9416  2.0042 -1.0268
 8057SOL     OW35629   3.344   3.386   4.117  0.0888 -0.2350  0.6625
 8057SOL    HW135630   3.282   3.458   4.105 -2.7367 -2.7261  0.1990
 8057SOL    HW235631   3.396   3.398   4.038 -0.8570  0.8350  0.1916
 8058SOL     OW35632   0.425   4.641   7.133 -0.2157 -0.3883  0.3932
 8058SOL    HW135633   0.452   0.004   7.163  1.7064 -1.5209  1.9295
 8058SOL    HW235634   0.433   4.595   7.216 -1.4831  0.1497  0.8119
 8059SOL     OW35635   4.503   0.648   1.036 -0.7874 -0.0145 -0.2220
 8059SOL    HW135636   4.425   0.674   0.986 -0.5917 -4.6961 -2.9672
 8059SOL    HW235637   4.533   0.731   1.072 -2.0068  0.5738 -0.5531
 8060SOL     OW35638   3.329   1.193   4.472 -0.7269  0.2200  0.1213
 8060SOL    HW135639   3.348   1.228   4.385  0.2888  0.8312  0.5948
 8060SOL    HW235640   3.407   1.142   4.493 -0.8803  0.7018  1.9048
 8061SOL     OW35641   2.164   4.196  11.165  0.8965  0.6772 -0.4129
 8061SOL    HW135642   2.174   4.114  11.116  1.3340 -0.0417  0.8599
 8061SOL    HW235643   2.135   4.256  11.097 -0.2826  1.6664  0.9632
 8062SOL     OW35644   0.811   2.490   2.749  0.2546 -0.5778  0.4415
 8062SOL    HW135645   0.791   2.470   2.657  1.5839  2.6340 -0.5484
 8062SOL    HW235646   0.730   2.487   2.800 -1.5816 -0.0045 -2.4298
 8063SOL     OW35647   0.788   3.783   6.518 -0.2829 -0.2822 -0.6070
 8063SOL    HW135648   0.718   3.784   6.453 -0.7697 -2.8070 -0.1226
 8063SOL    HW235649   0.852   3.747   6.456  0.5812  0.9130 -0.4099
 8064SOL     OW35650   1.047   1.155  12.981  0.7220  0.2588 -0.2504
 8064SOL    HW135651   0.969   1.209  12.970 -0.1087 -0.9983 -0.5301
 8064SOL    HW235652   1.110   1.219  13.016 -0.9101  1.8754 -0.2577
 8065SOL     OW35653   1.565   4.394   9.252  0.3726 -0.1415  0.3560
 8065SOL    HW135654   1.623   4.356   9.187  0.0159 -0.3311  0.1482
 8065SOL    HW235655   1.505   4.320   9.266 -0.6151  1.0324  2.4015
 8066SOL     OW35656   2.328   3.870  14.933  0.2807  0.2292  0.3251
 8066SOL    HW135657   2.395   3.936  14.913 -1.4546  1.5105 -1.2305
 8066SOL    HW235658   2.242   3.913  14.939  0.9301  1.3909  1.5263
 8067SOL     OW35659   0.759   1.353  12.234 -0.3313 -0.0391  0.5355
 8067SOL    HW135660   0.758   1.269  12.279  0.8040  0.0540  0.7345
 8067SOL    HW235661   0.720   1.413  12.298 -1.8088 -0.4125 -0.0185
 8068SOL     OW35662   3.428   4.141   0.344 -0.1865 -0.1593 -1.1413
 8068SOL    HW135663   3.450   4.213   0.285  1.9647 -0.1945 -0.3759
 8068SOL    HW235664   3.493   4.078   0.314 -1.7140 -2.2345 -0.1680
 8069SOL     OW35665   2.400   0.197   7.292  0.5002 -0.2967 -0.2522
 8069SOL    HW135666   2.486   0.219   7.257 -0.2607  1.5337 -0.9940
 8069SOL    HW235667   2.346   0.235   7.223 -1.4782 -0.7305  1.0494
 8070SOL     OW35668   0.025   0.446  13.578 -0.2044 -0.3787  0.1914
 8070SOL    HW135669   0.089   0.375  13.586 -0.3528 -0.2011  2.9262
 8070SOL    HW235670   4.712   0.408  13.498  1.7930  2.0655 -1.9136
 8071SOL     OW35671   0.085   0.190   5.232 -0.2829  0.0218  0.0758
 8071SOL    HW135672   0.136   0.196   5.151 -0.0218  1.6990  0.3669
 8071SOL    HW235673   0.093   0.097   5.254 -0.3710  0.2945  1.2559
 8072SOL     OW35674   4.387   1.995  13.636 -0.1423  0.0155 -0.2439
 8072SOL    HW135675   4.304   2.019  13.678  0.5095 -1.4588  1.8762
 8072SOL    HW235676   4.427   1.921  13.681 -1.8031  0.1412  1.4591
 8073SOL     OW35677   0.194   2.415  12.595 -0.3377  0.3250  0.3247
 8073SOL    HW135678   0.220   2.431  12.504  0.2570 -1.2016  0.2145
 8073SOL    HW235679   0.211   2.321  12.607 -0.8886  0.6714  3.7718
 8074SOL     OW35680   4.693   3.309   2.335  0.1208  0.4643  0.2424
 8074SOL    HW135681   0.049   3.265   2.304 -0.3592 -0.1933 -0.0461
 8074SOL    HW235682   4.662   3.250   2.404 -0.0304  1.0199  0.6511
 8075SOL     OW35683   3.862   1.820  15.159  0.2039 -0.1922  0.0899
 8075SOL    HW135684   3.947   1.858  15.182  0.9465 -1.5585 -0.3726
 8075SOL    HW235685   3.894   1.778  15.078  0.3754  1.5448 -0.7361
 8076SOL     OW35686   1.010   0.084   9.921  0.1516 -0.8838 -0.3434
 8076SOL    HW135687   0.962   0.001   9.922 -2.6503  0.7555  0.2060
 8076SOL    HW235688   0.977   0.137   9.848  0.2023  0.2947  0.4871
 8077SOL     OW35689   2.036   1.385   0.798 -0.0937  0.3949 -0.1660
 8077SOL    HW135690   2.101   1.339   0.851 -3.2615 -2.7835  0.9302
 8077SOL    HW235691   2.050   1.478   0.818  0.5157  0.1992  0.2927
 8078SOL     OW35692   0.054   0.830   5.319  0.1433 -0.8302  0.0423
 8078SOL    HW135693   0.120   0.862   5.258  1.5736  0.2519  2.1757
 8078SOL    HW235694   0.072   0.737   5.304  1.7749 -0.6693  0.9652
 8079SOL     OW35695   0.133   2.737   6.493 -0.0837  0.3995  0.0287
 8079SOL    HW135696   0.213   2.735   6.545 -0.5023  0.9707  0.6968
 8079SOL    HW235697   0.081   2.686   6.554  0.2614 -0.4228 -0.3680
 8080SOL     OW35698   3.437   1.943   7.359  0.3551  0.4264 -0.1565
 8080SOL    HW135699   3.514   1.903   7.320 -0.3319 -0.1100 -0.9859
 8080SOL    HW235700   3.369   1.923   7.294  2.0930 -1.3982 -1.3851
 8081SOL     OW35701   3.138   2.103   3.580 -0.0777 -0.2448  0.1606
 8081SOL    HW135702   3.099   2.016   3.574  4.4798 -2.2887  0.4247
 8081SOL    HW235703   3.229   2.080   3.566 -0.2221 -0.3217 -0.6223
 8082SOL     OW35704   0.712   4.322   7.354  0.0542 -0.0682 -0.3214
 8082SOL    HW135705   0.653   4.306   7.281  2.1609  0.9302 -2.2464
 8082SOL    HW235706   0.655   4.302   7.429  0.8752  0.4647  0.4511
 8083SOL     OW35707   3.362   4.250   4.444 -0.3403 -0.2833  0.0542
 8083SOL    HW135708   3.300   4.308   4.488 -0.8659 -2.0645  1.6676
 8083SOL    HW235709   3.322   4.263   4.358  1.6629  0.6057 -0.7455
 8084SOL     OW35710   4.691   1.757   7.150  0.0790  0.3869 -0.2204
 8084SOL    HW135711   4.663   1.710   7.229 -1.0386  1.2382 -0.1184
 8084SOL    HW235712   0.021   1.826   7.190  0.6607  0.3548 -0.9403
 8085SOL     OW35713   1.372   0.083   5.380  0.0315 -0.4287 -0.2578
 8085SOL    HW135714   1.389   0.177   5.379 -0.0567 -0.4154 -0.6086
 8085SOL    HW235715   1.459   0.046   5.362 -0.3818 -1.9387  0.8020
 8086SOL     OW35716   0.215   0.995   7.089 -0.5619  0.0454  0.3993
 8086SOL    HW135717   0.211   1.089   7.107 -0.5170  0.0878  0.1933
 8086SOL    HW235718   0.302   0.996   7.048 -0.7749 -1.4241 -0.0819
 8087SOL     OW35719   3.103   1.369   5.832  0.2071  0.3180 -0.0893
 8087SOL    HW135720   3.026   1.426   5.824 -1.2719 -1.7262 -0.2176
 8087SOL    HW235721   3.146   1.411   5.907  1.6124 -0.3649 -0.4971
 8088SOL     OW35722   3.595   1.319   3.020 -1.0172  0.1386  0.2793
 8088SOL    HW135723   3.627   1.275   3.099 -0.8394 -0.7583 -0.2983
 8088SOL    HW235724   3.611   1.248   2.959 -0.2270  1.6464 -1.2728
 8089SOL     OW35725   3.500   4.328  12.517 -0.1574  0.4107 -0.7389
 8089SOL    HW135726   3.440   4.380  12.463 -0.2257  1.9085  0.7652
 8089SOL    HW235727   3.451   4.336  12.599 -0.3430  1.8042 -0.9952
 8090SOL     OW35728   1.926   3.243   7.967  0.1558 -0.2418  0.2044
 8090SOL    HW135729   1.948   3.274   8.055  1.6495  0.3490 -0.3816
 8090SOL    HW235730   1.848   3.297   7.953  0.1403 -0.2549  0.2409
 8091SOL     OW35731   3.557   2.067  14.920 -0.9117 -0.0354  0.5492
 8091SOL    HW135732   3.636   2.070  14.974  0.6065 -1.2819 -1.5744
 8091SOL    HW235733   3.520   1.991  14.964 -1.1030  0.0613  0.5554
 8092SOL     OW35734   1.736   2.616  15.981 -0.4048 -0.6685  0.1929
 8092SOL    HW135735   1.791   2.676  16.031 -0.7120  0.9259 -1.3733
 8092SOL    HW235736   1.654   2.619  16.030  0.5593  0.1731  1.7720
 8093SOL     OW35737   0.208   2.461  13.263  0.1840  0.3021 -0.1836
 8093SOL    HW135738   0.168   2.538  13.304  2.1703  1.0897  0.3064
 8093SOL    HW235739   0.136   2.398  13.271 -0.7348  1.2894 -0.6696
 8094SOL     OW35740   4.267   2.985  15.950  0.3893 -0.5837 -0.1524
 8094SOL    HW135741   4.270   2.991  16.046  3.8199 -1.1939 -0.2342
 8094SOL    HW235742   4.360   2.985  15.928  0.0112  1.0358 -1.6641
 8095SOL     OW35743   4.208   3.831   7.095 -0.5103 -0.1371  0.1811
 8095SOL    HW135744   4.300   3.848   7.120 -0.3878  1.3809 -1.3170
 8095SOL    HW235745   4.223   3.759   7.035  0.4215 -0.4872  0.8267
 8096SOL     OW35746   3.293   1.094  16.776  0.2796  0.5898  0.0620
 8096SOL    HW135747   3.315   1.004  16.798 -0.3703  0.1563 -1.0669
 8096SOL    HW235748   3.364   1.147  16.812  2.5935 -1.1755 -1.9119
 8097SOL     OW35749   4.389   2.807  13.052 -0.1139  0.3890  0.3868
 8097SOL    HW135750   4.404   2.901  13.040 -0.8329  0.3053 -1.2216
 8097SOL    HW235751   4.480   2.789  13.073  0.4011  1.3059 -1.0301
 8098SOL     OW35752   1.829   1.684   0.031 -0.1637 -0.0165 -0.2545
 8098SOL    HW135753   1.896   1.658  17.664  0.8674  0.5033  0.6421
 8098SOL    HW235754   1.834   1.779   0.021  0.8675 -0.0648 -0.1341
 8099SOL     OW35755   0.104   0.942  10.641 -0.4143  0.1515 -0.2046
 8099SOL    HW135756   0.046   0.972  10.571 -1.5635 -0.7387  0.3604
 8099SOL    HW235757   0.109   0.850  10.616 -0.4872  0.0184  0.2714
 8100SOL     OW35758   0.457   4.329   6.049  0.2624  0.3220 -0.1574
 8100SOL    HW135759   0.434   4.388   6.120  0.4242 -1.4045  1.3367
 8100SOL    HW235760   0.503   4.398   6.001 -0.3807  1.1033  0.3628
 8101SOL     OW35761   4.614   1.252  13.773 -0.1334 -0.0464  0.5075
 8101SOL    HW135762   4.690   1.309  13.784  1.2301 -1.7369 -0.1514
 8101SOL    HW235763   4.554   1.284  13.840 -1.8891  0.0211 -1.0766
 8102SOL     OW35764   1.951   4.413   8.547  0.2627  0.3816  0.7671
 8102SOL    HW135765   1.899   4.485   8.584 -0.6410 -1.2601  2.7307
 8102SOL    HW235766   1.906   4.343   8.593 -1.0644 -0.3109 -1.5928
 8103SOL     OW35767   3.954   1.319   2.428 -0.5432 -0.0534 -0.2301
 8103SOL    HW135768   4.004   1.391   2.389 -0.4555 -0.8001 -1.4750
 8103SOL    HW235769   3.894   1.295   2.358  1.0701 -3.1260 -0.5489
 8104SOL     OW35770   3.992   1.403   5.315  0.2455  0.1456  0.2514
 8104SOL    HW135771   3.967   1.321   5.355  1.1580 -0.8304 -1.1669
 8104SOL    HW235772   4.066   1.382   5.257  0.2847 -1.3500  0.8580
 8105SOL     OW35773   3.535   3.144  12.942 -0.0226  0.4965 -0.5693
 8105SOL    HW135774   3.516   3.135  13.036  1.0145 -0.1583 -0.4190
 8105SOL    HW235775   3.482   3.070  12.911  2.4824 -1.5774  0.0812
 8106SOL     OW35776   2.979   3.996   8.222 -0.5917 -0.4061 -0.8039
 8106SOL    HW135777   3.014   3.933   8.285  0.6265  2.4337  1.3526
 8106SOL    HW235778   3.063   4.018   8.182 -0.3279  0.0558  0.0167
 8107SOL     OW35779   2.870   2.255   2.644  0.3851 -0.5216 -0.3795
 8107SOL    HW135780   2.957   2.226   2.613  0.4368 -0.8432  0.0700
 8107SOL    HW235781   2.846   2.299   2.562  0.3827  0.6224  0.2427
 8108SOL     OW35782   2.740   1.374  10.231  0.2248  0.2060  0.2725
 8108SOL    HW135783   2.829   1.374  10.196  1.0637 -2.2996  2.5092
 8108SOL    HW235784   2.694   1.378  10.147  0.1137  1.7663  0.4082
 8109SOL     OW35785   1.593   3.913  13.463 -0.3166 -0.2688 -0.2737
 8109SOL    HW135786   1.610   3.831  13.508  2.1826  1.5085  2.0434
 8109SOL    HW235787   1.513   3.935  13.510  0.9390  0.1918  1.6684
 8110SOL     OW35788   0.636   3.825   7.941 -0.3001 -0.0858 -0.0472
 8110SOL    HW135789   0.552   3.792   7.911 -0.4389  0.3003 -0.0794
 8110SOL    HW235790   0.612   3.918   7.943  0.5344  0.2132 -2.7262
 8111SOL     OW35791   1.989   4.579   4.509  0.3345 -0.3173  0.3649
 8111SOL    HW135792   1.974   4.532   4.427  0.2162  1.5922 -0.7096
 8111SOL    HW235793   2.054   4.641   4.476 -0.9102  0.4056 -0.7274
 8112SOL     OW35794   2.256   3.821   2.708 -0.2773  0.1183  0.0696
 8112SOL    HW135795   2.275   3.809   2.615  2.2094 -0.8082  0.7001
 8112SOL    HW235796   2.309   3.900   2.716 -0.7066  0.3034  1.1879
 8113SOL     OW35797   0.559   4.275   1.740  0.3726  0.1273  0.1195
 8113SOL    HW135798   0.538   4.356   1.693  1.9929  0.6869  0.3697
 8113SOL    HW235799   0.477   4.263   1.787 -0.4199 -1.7387 -1.7259
 8114SOL     OW35800   0.553   4.172   7.563  0.6801 -0.0164 -0.4811
 8114SOL    HW135801   0.500   4.155   7.485  1.1522  0.8769 -0.9937
 8114SOL    HW235802   0.624   4.109   7.559  0.4987 -0.1673 -1.2257
 8115SOL     OW35803   0.393   0.559   6.263  0.0715 -0.2261  0.2790
 8115SOL    HW135804   0.467   0.502   6.284 -0.1147 -0.6246 -0.1497
 8115SOL    HW235805   0.329   0.537   6.331  0.0657 -1.8702 -0.2595
 8116SOL     OW35806   3.094   0.649   3.283  0.5440 -0.5785 -0.0474
 8116SOL    HW135807   3.178   0.609   3.304 -0.3275 -2.1311  0.4601
 8116SOL    HW235808   3.112   0.665   3.190 -0.9133  0.0984 -0.2245
 8117SOL     OW35809   2.426   2.863   3.145  0.2432 -0.6172 -0.4173
 8117SOL    HW135810   2.402   2.896   3.232 -1.7518 -0.9661 -0.8393
 8117SOL    HW235811   2.520   2.868   3.162 -0.3503  0.7860  2.4210
 8118SOL     OW35812   0.509   3.102   3.079  0.5168 -0.6503 -0.5342
 8118SOL    HW135813   0.506   3.092   2.984 -0.4575  2.0256 -0.7972
 8118SOL    HW235814   0.496   3.197   3.083 -1.4028 -0.8391 -2.1377
 8119SOL     OW35815   2.669   3.959   4.535 -0.5899  0.3316  0.0818
 8119SOL    HW135816   2.588   3.956   4.587 -0.9497  1.4292 -0.4245
 8119SOL    HW235817   2.719   4.020   4.589 -1.1763 -0.1657  1.2133
 8120SOL     OW35818   3.082   4.213  13.648 -0.0186  0.8077  0.1300
 8120SOL    HW135819   3.017   4.249  13.708 -0.5876  1.7958 -1.0686
 8120SOL    HW235820   3.045   4.223  13.560  0.3805  4.3115  0.3353
 8121SOL     OW35821   3.670   1.921  16.294 -0.4750  0.4185 -0.0468
 8121SOL    HW135822   3.753   1.950  16.333 -0.1199  0.6253 -0.9661
 8121SOL    HW235823   3.698   1.844  16.243 -1.6465 -0.8684  1.2618
 8122SOL     OW35824   4.660   3.203  15.944 -0.9932  0.0077  0.4239
 8122SOL    HW135825   4.634   3.234  15.858 -3.0808  1.0324  1.4140
 8122SOL    HW235826   4.689   3.112  15.939 -0.3851  0.3347 -1.7510
 8123SOL     OW35827   3.164   3.820  12.852 -0.1967 -0.2014  0.2769
 8123SOL    HW135828   3.153   3.727  12.832  2.1379  0.0122 -2.0698
 8123SOL    HW235829   3.185   3.855  12.765 -1.5133 -1.9582 -0.7387
 8124SOL     OW35830   4.276   4.456   4.078  0.1032  0.4961 -0.2806
 8124SOL    HW135831   4.305   4.547   4.076  1.2901  0.0727 -2.4201
 8124SOL    HW235832   4.201   4.454   4.018  1.3667  1.5980 -1.8854
 8125SOL     OW35833   1.076   3.421   2.592  0.0708 -0.0617  0.3337
 8125SOL    HW135834   1.159   3.438   2.547 -0.5596  2.5664  0.1717
 8125SOL    HW235835   1.050   3.336   2.557  0.9277  0.0273 -0.5174
 8126SOL     OW35836   2.764   2.715   7.656 -0.2363 -0.0636  0.2912
 8126SOL    HW135837   2.691   2.767   7.688 -1.4296 -0.1457 -2.2481
 8126SOL    HW235838   2.773   2.653   7.728  0.2443 -2.6009 -1.9086
 8127SOL     OW35839   1.749   1.893  11.607 -0.4512  0.4247 -0.2433
 8127SOL    HW135840   1.804   1.952  11.657 -2.0429 -0.2367  2.2877
 8127SOL    HW235841   1.792   1.810  11.629  0.9374  1.5613  1.3406
 8128SOL     OW35842   2.356   3.992   9.018 -0.2921  0.2606 -0.5122
 8128SOL    HW135843   2.372   4.087   9.013  0.3604  0.1788  0.0012
 8128SOL    HW235844   2.261   3.993   9.030 -0.0040  2.7052  1.5243
 8129SOL     OW35845   1.332   1.312   8.151  0.1444  0.4322  0.3383
 8129SOL    HW135846   1.303   1.308   8.243  0.2217 -0.6256  0.3161
 8129SOL    HW235847   1.253   1.340   8.104  0.8134  0.0751 -0.9763
 8130SOL     OW35848   0.566   2.705   7.005  0.4992 -0.0242  0.1953
 8130SOL    HW135849   0.501   2.709   6.935  0.8482  0.9498 -0.0789
 8130SOL    HW235850   0.533   2.777   7.059 -0.0561 -1.2893  1.5396
 8131SOL     OW35851   0.581   1.711   3.130  0.6904  0.2855 -0.3908
 8131SOL    HW135852   0.671   1.704   3.097  2.0634  2.8673  2.6640
 8131SOL    HW235853   0.588   1.781   3.196  0.4693 -1.3403  1.3673
 8132SOL     OW35854   0.995   4.632   4.024  0.1261 -0.2598  0.1429
 8132SOL    HW135855   0.906   4.603   4.004  0.6363  0.1486 -2.6784
 8132SOL    HW235856   1.018   4.567   4.089 -0.2135 -0.8294 -0.3067
 8133SOL     OW35857   2.784   2.409   9.837  0.5182  0.0892 -0.8932
 8133SOL    HW135858   2.805   2.382   9.927  0.9436 -1.2847 -1.4000
 8133SOL    HW235859   2.693   2.382   9.832  0.3788 -0.0606  2.2838
 8134SOL     OW35860   0.215   1.352   5.867 -0.2254  0.7847 -0.5325
 8134SOL    HW135861   0.131   1.307   5.872 -0.1312  0.2596 -3.4429
 8134SOL    HW235862   0.210   1.401   5.948  0.9405 -1.7058  1.0567
 8135SOL     OW35863   0.912   0.817  17.254 -0.0465  0.1928  0.0343
 8135SOL    HW135864   0.955   0.839  17.172  0.0579 -1.3137 -0.3003
 8135SOL    HW235865   0.831   0.777  17.222 -0.7029  0.9647  0.6933
 8136SOL     OW35866   3.594   1.171   5.745 -0.5503  0.1678  0.1660
 8136SOL    HW135867   3.584   1.167   5.840 -0.8488  0.2932  0.1423
 8136SOL    HW235868   3.641   1.254   5.734 -0.1774  0.0156  0.6215
 8137SOL     OW35869   3.298   4.132   8.439 -1.0379  0.6765 -0.0540
 8137SOL    HW135870   3.227   4.119   8.502 -0.7364  2.1148  0.5697
 8137SOL    HW235871   3.256   4.085   8.367 -0.6051 -2.4956  1.7333
 8138SOL     OW35872   4.481   3.315  12.408  0.0277 -0.4822 -0.2973
 8138SOL    HW135873   4.442   3.399  12.432  3.4914  1.0762 -0.1226
 8138SOL    HW235874   4.574   3.336  12.394 -0.1845  0.6295 -0.0268
 8139SOL     OW35875   1.830   2.759   4.481 -0.2046 -0.6432 -0.4367
 8139SOL    HW135876   1.774   2.751   4.559  0.9721 -0.6138  0.4169
 8139SOL    HW235877   1.761   2.764   4.416 -0.3072 -0.6417 -0.3283
 8140SOL     OW35878   0.754   0.608   9.119 -0.0241 -0.4253 -0.1890
 8140SOL    HW135879   0.842   0.577   9.137  1.3250  2.3990 -2.0237
 8140SOL    HW235880   0.763   0.654   9.035  2.0733  0.7634  0.7110
 8141SOL     OW35881   0.005   4.008   5.726  0.0485 -0.6371 -0.4258
 8141SOL    HW135882   0.032   4.010   5.635 -1.8433 -2.2850 -1.0391
 8141SOL    HW235883   4.633   4.000   5.733  0.0555 -0.3739 -0.0154
 8142SOL     OW35884   2.752   0.799   2.523 -0.2248  0.6574  0.0001
 8142SOL    HW135885   2.786   0.876   2.478 -0.2587  1.1445  0.8065
 8142SOL    HW235886   2.831   0.757   2.558 -1.0261 -0.5593  0.3753
 8143SOL     OW35887   1.562   1.906   4.346  0.2883 -0.0407  0.1628
 8143SOL    HW135888   1.545   1.823   4.303  1.5174 -1.3317  2.1526
 8143SOL    HW235889   1.651   1.895   4.380 -0.3618 -2.2955  1.1546
 8144SOL     OW35890   0.778   2.723   3.426 -0.7029  0.5256 -0.3872
 8144SOL    HW135891   0.850   2.733   3.363 -0.6825  3.0932  0.0582
 8144SOL    HW235892   0.773   2.627   3.433  1.8163  0.3977 -0.3987
 8145SOL     OW35893   2.807   4.425  12.120  0.1063  0.7464  0.4067
 8145SOL    HW135894   2.846   4.382  12.196 -0.3188  1.5336  1.0681
 8145SOL    HW235895   2.883   4.449  12.066  2.0293 -0.6321  2.4932
 8146SOL     OW35896   0.222   4.615   2.466 -0.5103 -0.0776 -0.0650
 8146SOL    HW135897   0.313   4.643   2.467 -0.3115 -0.7031 -0.3755
 8146SOL    HW235898   0.181   4.695   2.432  0.4651  0.6620  0.4988
 8147SOL     OW35899   4.304   2.833   8.877 -0.6141 -0.3220 -0.0330
 8147SOL    HW135900   4.351   2.915   8.891  1.3160 -1.4970  0.3370
 8147SOL    HW235901   4.272   2.822   8.966 -0.7130 -1.0164 -0.1573
 8148SOL     OW35902   0.563   0.308   4.106 -0.3540  0.2058  0.0943
 8148SOL    HW135903   0.650   0.269   4.116  0.4132  2.2307  1.3323
 8148SOL    HW235904   0.588   0.371   4.038  2.7278  0.4516  1.4767
 8149SOL     OW35905   0.661   2.499   4.105  0.2595  0.0396  0.3417
 8149SOL    HW135906   0.583   2.536   4.146 -0.1745 -1.4882  0.8838
 8149SOL    HW235907   0.719   2.572   4.125  1.6505 -1.1136  0.4838
 8150SOL     OW35908   3.682   1.074   6.293 -0.1127  0.0397 -0.1518
 8150SOL    HW135909   3.759   1.130   6.302 -0.3559  0.6056 -1.5107
 8150SOL    HW235910   3.668   1.063   6.199 -2.8517 -2.3969  0.5482
 8151SOL     OW35911   1.801   0.082  15.462 -0.2109  0.6398 -0.0470
 8151SOL    HW135912   1.773   4.722  15.424  0.6973  1.7230 -3.1234
 8151SOL    HW235913   1.870   0.039  15.512 -1.5388  0.9417  2.0346
 8152SOL     OW35914   2.322   2.526  15.492 -0.0530 -0.2172  0.2476
 8152SOL    HW135915   2.301   2.587  15.422  0.2098 -1.5576 -1.0063
 8152SOL    HW235916   2.365   2.459  15.438  0.2888  0.2125 -0.0151
 8153SOL     OW35917   0.156   0.594   3.417  0.7441  0.1659 -0.4768
 8153SOL    HW135918   0.069   0.555   3.423  0.1566  1.5841  0.2361
 8153SOL    HW235919   0.160   0.608   3.322 -0.4891  0.5174 -0.4734
 8154SOL     OW35920   1.520   1.809   9.341  0.1710 -0.3345 -0.1375
 8154SOL    HW135921   1.579   1.870   9.296 -2.0376  0.0666 -2.5102
 8154SOL    HW235922   1.563   1.795   9.425  0.9152 -2.6751 -0.8952
 8155SOL     OW35923   1.740   1.438   6.670  0.1085  0.5726 -0.3231
 8155SOL    HW135924   1.666   1.430   6.729  0.6117 -2.1105 -0.0538
 8155SOL    HW235925   1.792   1.491   6.731  1.1185 -0.9600  0.1490
 8156SOL     OW35926   3.507   3.014   7.408 -0.1697  0.3137  0.3213
 8156SOL    HW135927   3.498   2.979   7.497 -1.8887 -2.2075 -0.8485
 8156SOL    HW235928   3.423   2.983   7.374 -0.0957  1.5630 -0.9722
 8157SOL     OW35929   3.122   3.341   7.761 -0.4460 -0.8613 -0.1749
 8157SOL    HW135930   3.205   3.370   7.723 -1.3097  1.5129 -0.2520
 8157SOL    HW235931   3.089   3.293   7.685 -1.6025 -1.5009  0.7198
 8158SOL     OW35932   3.432   2.701   9.302  0.4340  0.1686 -0.0163
 8158SOL    HW135933   3.387   2.693   9.386  2.7260 -1.0497  1.1071
 8158SOL    HW235934   3.493   2.773   9.317  2.2375 -0.7664 -2.7562
 8159SOL     OW35935   1.942   4.307  14.056 -0.2705 -0.6362 -0.6176
 8159SOL    HW135936   1.874   4.319  13.989 -0.7975 -2.3722 -0.3970
 8159SOL    HW235937   1.922   4.220  14.091  1.8006 -1.5019 -1.6108
 8160SOL     OW35938   1.676   3.330   9.966  0.3083 -0.1495  0.1396
 8160SOL    HW135939   1.648   3.347  10.057  0.8497 -0.4992  0.3687
 8160SOL    HW235940   1.592   3.303   9.929  1.3289 -0.7315 -1.7368
 8161SOL     OW35941   4.386   1.550   8.003 -0.2845 -0.2733  0.3312
 8161SOL    HW135942   4.423   1.485   8.062 -0.2714 -0.2673  0.3295
 8161SOL    HW235943   4.317   1.496   7.967  1.0056 -0.3453 -2.0101
 8162SOL     OW35944   3.600   2.164   4.653  0.0525 -0.4329 -0.1249
 8162SOL    HW135945   3.648   2.223   4.595 -0.6201 -1.0600 -1.3243
 8162SOL    HW235946   3.625   2.190   4.742 -2.9103 -0.7879  0.8190
 8163SOL     OW35947   0.457   3.170   3.945  0.6022  0.1584 -0.0349
 8163SOL    HW135948   0.405   3.170   4.024 -0.8828  1.4522 -1.0147
 8163SOL    HW235949   0.412   3.231   3.886 -1.1369  0.1657  1.3143
 8164SOL     OW35950   3.973   2.653   3.963 -0.1466  0.8467 -0.1107
 8164SOL    HW135951   3.911   2.592   4.003  1.5986  0.6114  2.2792
 8164SOL    HW235952   3.911   2.725   3.977 -1.2851 -0.0245 -0.6336
 8165SOL     OW35953   0.109   3.925   5.945 -0.5096 -0.5183  0.1558
 8165SOL    HW135954   0.074   3.945   5.858 -1.5986  1.5150  1.0779
 8165SOL    HW235955   0.036   3.869   5.971 -1.9512  1.1403 -0.3820
 8166SOL     OW35956   4.620   0.794   2.786  0.2093 -1.0023 -0.3556
 8166SOL    HW135957   4.688   0.834   2.841  0.2080  1.1562 -1.9246
 8166SOL    HW235958   4.672   0.793   2.705  2.8443 -0.4645  1.3037
 8167SOL     OW35959   2.795   4.413   0.841  0.0162  0.3179 -0.2142
 8167SOL    HW135960   2.872   4.452   0.798  0.5878 -0.1566  0.3831
 8167SOL    HW235961   2.823   4.326   0.869 -0.1052 -0.6609 -3.1891
 8168SOL     OW35962   4.409   0.550  10.219  0.0657  0.1601  0.0425
 8168SOL    HW135963   4.366   0.503  10.291 -0.0524  1.0945  0.5798
 8168SOL    HW235964   4.417   0.639  10.252  2.1150 -0.4456  1.1503
 8169SOL     OW35965   1.567   1.592   7.344  0.4126  0.5132  0.4566
 8169SOL    HW135966   1.648   1.627   7.380  1.8946 -2.1577 -0.2901
 8169SOL    HW235967   1.510   1.669   7.336 -0.6822  0.0339  3.5664
 8170SOL     OW35968   1.181   3.556   8.583  0.2990 -0.0351 -0.3564
 8170SOL    HW135969   1.244   3.504   8.633  3.3412  1.5797 -2.4949
 8170SOL    HW235970   1.141   3.608   8.654  1.7948  0.4057  0.1603
 8171SOL     OW35971   3.504   4.143   3.651 -0.3085 -0.0084  0.3514
 8171SOL    HW135972   3.470   4.231   3.633 -1.6302 -0.1283  2.3232
 8171SOL    HW235973   3.444   4.085   3.605 -1.1958  2.1588 -1.2582
 8172SOL     OW35974   1.381   3.739   5.887  0.4470  0.0805  0.0283
 8172SOL    HW135975   1.389   3.817   5.832 -0.5219  1.4277  1.7719
 8172SOL    HW235976   1.302   3.713   5.842  0.1349  0.8315  0.1327
 8173SOL     OW35977   2.566   2.427  17.317 -0.2863  0.3633  0.5345
 8173SOL    HW135978   2.604   2.341  17.298 -1.7618 -0.3999  1.0654
 8173SOL    HW235979   2.492   2.399  17.371 -1.9073  0.7536 -1.4996
 8174SOL     OW35980   3.298   3.839   1.403  0.2598  0.5365 -0.2732
 8174SOL    HW135981   3.377   3.881   1.436  0.8225  0.0864 -1.0480
 8174SOL    HW235982   3.286   3.770   1.469 -2.1427 -0.0873 -1.3514
 8175SOL     OW35983   1.726   3.210   8.594  0.1124  0.4178  0.0674
 8175SOL    HW135984   1.814   3.246   8.594  0.6850 -0.9656  0.8927
 8175SOL    HW235985   1.705   3.208   8.687  0.7159 -1.6881  0.1509
 8176SOL     OW35986   3.145   3.998   4.597  0.7020 -0.3705 -0.0046
 8176SOL    HW135987   3.131   3.935   4.668 -2.8306  1.6449  1.0883
 8176SOL    HW235988   3.180   4.074   4.643 -1.1285  0.6195 -0.2359
 8177SOL     OW35989   0.886   0.067   1.002  0.0787  0.2865 -0.1477
 8177SOL    HW135990   0.948   4.721   1.027 -1.6554 -1.7283 -1.4473
 8177SOL    HW235991   0.937   0.122   0.943  0.9366 -0.1689  0.1644
 8178SOL     OW35992   2.110   2.681  15.010  0.1389  0.3663 -0.1074
 8178SOL    HW135993   2.057   2.748  14.966  0.1757  0.6326  0.2580
 8178SOL    HW235994   2.076   2.701  15.097  3.7616 -0.6214  1.5439
 8179SOL     OW35995   0.502   0.070  10.427  0.0660  0.3327 -0.0148
 8179SOL    HW135996   0.574   0.008  10.420  0.6753  1.0786 -0.3062
 8179SOL    HW235997   0.456   0.031  10.502  0.4740  0.9828  0.5778
 8180SOL     OW35998   3.201   2.042   1.539  0.1205  0.2485  0.2631
 8180SOL    HW135999   3.242   2.079   1.461  1.2465  1.1079  1.2701
 8180SOL    HW236000   3.133   1.998   1.488  1.0431 -0.9563  0.0798
 8181SOL     OW36001   2.989   2.344  15.602 -0.9925 -0.4347  0.4856
 8181SOL    HW136002   2.933   2.397  15.545  1.0944  0.2172 -0.9562
 8181SOL    HW236003   2.961   2.375  15.688  2.1887 -1.4681  1.9106
 8182SOL     OW36004   2.189   3.840   1.157  0.6663 -0.4221  0.0855
 8182SOL    HW136005   2.238   3.797   1.227  0.0061 -2.1993 -0.5512
 8182SOL    HW236006   2.169   3.773   1.092  0.6915  1.4640 -1.8705
 8183SOL     OW36007   1.794   1.766   1.961 -0.0844 -0.6049  0.3709
 8183SOL    HW136008   1.857   1.703   1.928  0.2455 -1.1268  2.0050
 8183SOL    HW236009   1.846   1.846   1.973 -0.1706 -0.5783  0.5641
 8184SOL     OW36010   0.714   4.444   7.737 -0.0414  0.2438  0.3005
 8184SOL    HW136011   0.758   4.360   7.727  0.0213  0.1095  1.7191
 8184SOL    HW236012   0.708   4.443   7.833 -0.3054  0.9651  0.2908
 8185SOL     OW36013   2.294   3.206  14.786 -0.2760 -0.0879 -0.6301
 8185SOL    HW136014   2.305   3.208  14.691  0.0514  2.5128 -0.5292
 8185SOL    HW236015   2.199   3.193  14.778 -0.3793  0.8595 -0.8995
 8186SOL     OW36016   1.961   0.488   5.682  0.2608  0.1799  0.5900
 8186SOL    HW136017   2.056   0.490   5.673  0.1393 -0.5306 -0.8656
 8186SOL    HW236018   1.929   0.505   5.594  0.9567  1.2933  0.5531
 8187SOL     OW36019   2.028   0.321  13.391 -0.3591 -0.3527 -0.1223
 8187SOL    HW136020   2.036   0.414  13.413 -0.1045 -0.8415  1.8887
 8187SOL    HW236021   1.950   0.305  13.444  0.1845  0.4441  0.9240
 8188SOL     OW36022   0.286   2.403   8.822  0.0716  0.1989 -0.2135
 8188SOL    HW136023   0.344   2.457   8.876 -2.6637  1.9052  1.0265
 8188SOL    HW236024   0.326   2.417   8.736 -0.5336 -0.6161 -0.6355
 8189SOL     OW36025   1.307   2.574  11.165 -0.2522  0.6149 -0.2293
 8189SOL    HW136026   1.239   2.565  11.232 -0.4284  0.2900 -0.4503
 8189SOL    HW236027   1.380   2.546  11.219 -0.7457  0.8493  0.5519
 8190SOL     OW36028   2.099   4.327  16.691 -0.2569 -0.1505 -0.1059
 8190SOL    HW136029   2.014   4.369  16.686 -0.7073 -1.1294 -0.6375
 8190SOL    HW236030   2.138   4.360  16.610 -2.9980  0.1213 -1.2828
 8191SOL     OW36031   3.749   1.159   8.949 -0.2208  0.6530  0.2159
 8191SOL    HW136032   3.707   1.157   8.863  2.0349  1.4430 -0.8909
 8191SOL    HW236033   3.678   1.188   9.007 -3.8370  0.2009 -4.0423
 8192SOL     OW36034   3.663   0.300   3.174 -0.2335 -0.3531  0.2237
 8192SOL    HW136035   3.725   0.234   3.146  1.3799  1.9012 -1.4932
 8192SOL    HW236036   3.727   0.356   3.218 -1.7033  0.1204  1.7924
 8193SOL     OW36037   2.139   2.558   2.760  0.9148  0.4499 -0.0136
 8193SOL    HW136038   2.215   2.503   2.736 -0.7792 -1.1922 -1.6145
 8193SOL    HW236039   2.141   2.625   2.692 -3.7066  3.3254  2.7146
 8194SOL     OW36040   1.703   3.496   3.625 -0.5836 -0.9073 -0.0588
 8194SOL    HW136041   1.665   3.486   3.713 -0.8107  0.3154 -0.0131
 8194SOL    HW236042   1.627   3.484   3.568 -0.9463 -2.2237  0.7020
 8195SOL     OW36043   0.776   4.377  12.617 -0.7161  0.2945  0.5296
 8195SOL    HW136044   0.854   4.339  12.577 -1.2779 -0.1640 -0.1494
 8195SOL    HW236045   0.809   4.408  12.701  0.7584 -1.3166  0.5386
 8196SOL     OW36046   4.466   0.953   4.146  0.0513  0.0208  0.9059
 8196SOL    HW136047   4.445   0.900   4.223  0.1160 -0.7629  0.3940
 8196SOL    HW236048   4.407   1.028   4.145 -0.9113 -0.7453  0.7794
 8197SOL     OW36049   3.080   1.044   4.500 -0.1826 -0.3421  0.5250
 8197SOL    HW136050   3.093   1.049   4.595 -1.2455  2.0084  0.5549
 8197SOL    HW236051   3.143   1.109   4.471 -0.6708 -0.6719 -1.3185
 8198SOL     OW36052   1.679   1.632   7.013 -0.2919 -0.3490 -0.0855
 8198SOL    HW136053   1.609   1.694   7.034  2.6640  2.2249  2.2666
 8198SOL    HW236054   1.629   1.569   6.961 -0.8345  0.0421 -0.0270
 8199SOL     OW36055   4.269   2.426   7.423 -0.1757  0.0277  0.3578
 8199SOL    HW136056   4.307   2.403   7.339  1.1127 -0.5990  1.1142
 8199SOL    HW236057   4.279   2.339   7.462  0.4081 -1.1303 -2.3847
 8200SOL     OW36058   1.728   3.721  10.834 -0.1435 -0.3870 -0.2086
 8200SOL    HW136059   1.738   3.757  10.746  1.6685 -1.3439 -0.3910
 8200SOL    HW236060   1.819   3.709  10.857 -0.2253 -0.6903 -0.0464
 8201SOL     OW36061   1.388   0.468   8.407 -0.2284 -0.3572  0.4464
 8201SOL    HW136062   1.382   0.425   8.492 -1.6231 -0.6790  0.1858
 8201SOL    HW236063   1.332   0.414   8.352  0.1693 -1.1736  0.8457
 8202SOL     OW36064   1.552   4.319   2.319  0.4537 -0.1467 -0.3103
 8202SOL    HW136065   1.530   4.330   2.411 -0.0789  3.3773 -0.8628
 8202SOL    HW236066   1.538   4.407   2.284  3.5570  0.4211 -0.1520
 8203SOL     OW36067   4.701   3.067   2.596 -0.3171 -0.5110 -0.0056
 8203SOL    HW136068   4.622   3.098   2.553 -0.7926 -0.3190  1.0035
 8203SOL    HW236069   0.023   3.152   2.597 -1.2992  0.0116 -0.3217
 8204SOL     OW36070   4.584   2.519  13.509 -0.0433 -0.3507 -0.6547
 8204SOL    HW136071   4.526   2.447  13.536  0.1808  0.3526  1.7506
 8204SOL    HW236072   4.538   2.550  13.431 -2.2102 -1.6282  0.1051
 8205SOL     OW36073   4.374   1.483   3.310  0.5142  0.1840 -0.0723
 8205SOL    HW136074   4.439   1.553   3.301  0.6368  0.3281  2.1216
 8205SOL    HW236075   4.307   1.542   3.344 -0.8767 -0.8381 -1.0242
 8206SOL     OW36076   1.856   1.446   1.996 -0.1269  0.1098  0.0302
 8206SOL    HW136077   1.782   1.403   2.038  0.3263  1.0961  1.8580
 8206SOL    HW236078   1.920   1.378   2.017 -0.7252 -0.5575 -0.3162
 8207SOL     OW36079   0.361   4.718   1.984  0.1705  0.2894  0.4497
 8207SOL    HW136080   0.378   4.645   1.924  1.3192  1.0839 -0.1897
 8207SOL    HW236081   0.325   4.672   2.060  1.5778 -1.9136 -0.2234
 8208SOL     OW36082   2.337   3.768   6.781 -0.6763 -0.7266  0.3797
 8208SOL    HW136083   2.254   3.808   6.806 -0.1587  0.6922 -0.2198
 8208SOL    HW236084   2.320   3.775   6.687  1.5452 -0.4638  0.0116
 8209SOL     OW36085   4.143   0.698   8.752 -0.2653 -0.7797  0.2437
 8209SOL    HW136086   4.073   0.688   8.688 -0.0479 -1.7552  0.1628
 8209SOL    HW236087   4.155   0.793   8.745  2.2720 -1.2063 -1.0816
 8210SOL     OW36088   3.417   1.882   4.183  0.1541  0.2815  0.6024
 8210SOL    HW136089   3.381   1.794   4.178 -0.7274  0.5940  1.4161
 8210SOL    HW236090   3.365   1.936   4.124 -1.0903 -0.6764  0.8187
 8211SOL     OW36091   3.986   2.018   1.516 -0.9150  0.5484 -0.4053
 8211SOL    HW136092   4.030   2.050   1.595  1.3556 -1.9572 -0.6408
 8211SOL    HW236093   4.052   1.973   1.464 -0.6764  0.6155 -0.1640
 8212SOL     OW36094   2.530   4.719  15.568  0.0547  0.1079  0.6856
 8212SOL    HW136095   2.498   0.076  15.608 -2.5814 -1.2860  1.3489
 8212SOL    HW236096   2.595   0.042  15.515 -1.0853  2.1085  1.0667
 8213SOL     OW36097   3.226   1.013   8.365 -0.1062 -0.1092 -0.4930
 8213SOL    HW136098   3.314   1.046   8.348 -0.2139 -0.2799 -1.3894
 8213SOL    HW236099   3.205   1.041   8.454  2.5557  0.6876 -0.1288
 8214SOL     OW36100   3.255   3.523   5.781 -0.2199 -0.2294  0.6536
 8214SOL    HW136101   3.172   3.541   5.824  0.7903 -0.7192  2.8350
 8214SOL    HW236102   3.306   3.594   5.820  0.6272  0.8408 -2.4088
 8215SOL     OW36103   2.743   0.325   1.556 -0.9044  0.7308  0.1734
 8215SOL    HW136104   2.683   0.265   1.602 -2.5586  1.5241 -0.9453
 8215SOL    HW236105   2.824   0.277   1.540 -1.2781  0.5109 -1.0613
 8216SOL     OW36106   1.590   4.551   1.508 -0.2337  0.4158 -0.0077
 8216SOL    HW136107   1.531   4.528   1.580  2.7978 -0.8465  2.0410
 8216SOL    HW236108   1.675   4.524   1.542 -0.6678 -1.7368 -0.6649
 8217SOL     OW36109   0.209   3.913  16.297 -0.4575 -0.8746 -0.1788
 8217SOL    HW136110   0.149   3.886  16.366 -1.4688 -0.3547 -0.8522
 8217SOL    HW236111   0.241   3.835  16.252  0.7786 -0.9760  0.8522
 8218SOL     OW36112   4.385   0.829   2.242 -0.3699  0.0089 -0.2932
 8218SOL    HW136113   4.386   0.881   2.322 -3.0100  0.3193 -0.4703
 8218SOL    HW236114   4.325   0.878   2.187 -1.4088 -0.9406 -0.0070
 8219SOL     OW36115   2.817   2.559   5.658  0.2036  0.4552  0.0873
 8219SOL    HW136116   2.841   2.644   5.696 -0.7862  0.9349 -0.3578
 8219SOL    HW236117   2.896   2.509   5.677  2.3555  2.6462 -3.0396
 8220SOL     OW36118   4.324   4.590  12.245 -0.3891  0.3363  0.4174
 8220SOL    HW136119   4.326   4.683  12.268 -0.6232  0.1983  1.0114
 8220SOL    HW236120   4.408   4.574  12.288  0.9098  1.6809 -1.5738
 8221SOL     OW36121   0.998   0.603   2.763 -0.1413 -0.3042 -0.3386
 8221SOL    HW136122   1.068   0.660   2.795 -0.5858 -0.5193  1.0179
 8221SOL    HW236123   1.041   0.521   2.787 -0.2909  0.3457  2.1793
 8222SOL     OW36124   2.738   2.984   4.598  0.3525  0.3939 -0.5235
 8222SOL    HW136125   2.768   3.056   4.543  2.2772  0.0725  0.1007
 8222SOL    HW236126   2.809   2.924   4.574 -0.0057 -0.1293 -0.2661
 8223SOL     OW36127   4.316   3.111   6.926  0.2253  0.0329  0.2519
 8223SOL    HW136128   4.317   3.134   6.833  1.3472  1.4225  0.6006
 8223SOL    HW236129   4.410   3.093   6.925  0.6474  2.2768 -0.2073
 8224SOL     OW36130   3.025   3.544  15.314  0.4401 -0.1557 -0.1105
 8224SOL    HW136131   3.078   3.581  15.384  0.4198 -1.5620  0.6377
 8224SOL    HW236132   3.087   3.549  15.242 -0.1057 -0.3667 -0.5969
 8225SOL     OW36133   1.776   0.540   4.204  0.2979  0.1944 -0.4496
 8225SOL    HW136134   1.745   0.483   4.275  0.8157  1.3446  0.6902
 8225SOL    HW236135   1.697   0.594   4.194  1.4690  1.9433 -0.1876
 8226SOL     OW36136   2.838   3.187   4.429  0.2257  0.1500 -0.0096
 8226SOL    HW136137   2.874   3.264   4.385  2.0638 -0.7867 -0.1453
 8226SOL    HW236138   2.904   3.122   4.405  0.4161 -0.2481  1.6029
 8227SOL     OW36139   2.148   4.716   9.608 -0.0267 -0.4029 -0.4987
 8227SOL    HW136140   2.053   4.713   9.597 -0.1511 -1.7980  0.8986
 8227SOL    HW236141   2.177   4.675   9.527 -1.4230 -0.6978 -0.8415
 8228SOL     OW36142   2.608   4.361  13.780  0.0893 -0.3501  0.0581
 8228SOL    HW136143   2.617   4.385  13.872 -2.1800 -3.2238  1.0299
 8228SOL    HW236144   2.515   4.342  13.793  0.1703 -0.8148 -0.0494
 8229SOL     OW36145   2.493   3.119   6.131 -0.5173 -0.2880 -0.5326
 8229SOL    HW136146   2.422   3.136   6.192  0.4560  1.4357  0.1348
 8229SOL    HW236147   2.526   3.207   6.113 -0.3868 -0.4509 -1.1016
 8230SOL     OW36148   4.358   4.375   5.538  0.4216 -0.3671 -0.1508
 8230SOL    HW136149   4.294   4.304   5.538 -0.8924  0.8194  1.4408
 8230SOL    HW236150   4.306   4.454   5.522 -0.9401 -1.0980  0.6929
 8231SOL     OW36151   1.723   2.504   3.001 -0.3738 -0.5054  0.2173
 8231SOL    HW136152   1.806   2.502   2.952 -1.0191  0.9190 -0.9313
 8231SOL    HW236153   1.714   2.408   2.996  0.4071 -0.4713 -2.0331
 8232SOL     OW36154   0.949   2.940   4.195  0.2851  0.7550  0.4113
 8232SOL    HW136155   0.886   3.008   4.221  0.3337  0.5457  1.0556
 8232SOL    HW236156   0.951   2.955   4.100 -0.1656 -0.1503  0.2587
 8233SOL     OW36157   2.470   2.678   6.994 -0.2166 -0.0940 -0.4690
 8233SOL    HW136158   2.544   2.698   6.937 -0.9012  1.8426 -0.6988
 8233SOL    HW236159   2.484   2.743   7.063  0.1403 -1.1421  0.4432
 8234SOL     OW36160   3.710   3.927   2.462 -0.1041  0.3269 -0.3338
 8234SOL    HW136161   3.626   3.919   2.416 -0.4935 -1.1921  0.6291
 8234SOL    HW236162   3.766   3.875   2.404  1.9978  0.2991  1.7582
 8235SOL     OW36163   1.358   2.127  13.999 -0.0907 -0.0247  0.3627
 8235SOL    HW136164   1.327   2.101  13.912  1.3208  1.2406 -0.5223
 8235SOL    HW236165   1.352   2.222  13.994 -2.4907 -0.2048 -0.0263
 8236SOL     OW36166   2.096   2.425   7.492  0.5825  0.5256 -0.3514
 8236SOL    HW136167   2.072   2.391   7.406  0.1877 -2.6190  1.0279
 8236SOL    HW236168   2.011   2.468   7.503 -0.2234 -0.7223 -1.6772
 8237SOL     OW36169   2.990   2.586   4.288 -0.4079  0.0055  0.6076
 8237SOL    HW136170   3.083   2.597   4.308 -0.8240  2.9838  0.9262
 8237SOL    HW236171   2.983   2.605   4.195  0.0935  1.2698  0.8183
 8238SOL     OW36172   1.015   2.443   0.056 -0.5115 -0.1249 -0.2506
 8238SOL    HW136173   1.081   2.424   0.123  0.0215 -2.1084 -1.3522
 8238SOL    HW236174   1.054   2.409  17.672 -2.6299  2.7349 -2.4732
 8239SOL     OW36175   4.253   1.701   3.400 -0.4524 -0.3482  0.3515
 8239SOL    HW136176   4.208   1.685   3.482  2.2491  0.2139  1.9449
 8239SOL    HW236177   4.194   1.762   3.356  0.1099 -2.0308 -2.7202
 8240SOL     OW36178   2.669   1.101  13.265  0.1168 -0.0370  0.0849
 8240SOL    HW136179   2.582   1.137  13.251  0.7460  1.7886  0.8624
 8240SOL    HW236180   2.650   1.033  13.330  1.0960  0.0152  0.4254
 8241SOL     OW36181   0.008   1.936   1.928  0.2202  0.1317 -0.9187
 8241SOL    HW136182   0.085   1.977   1.966  0.7651  0.6126 -2.5284
 8241SOL    HW236183   4.693   1.887   2.000  3.6559 -1.7787 -0.3941
 8242SOL     OW36184   3.234   2.187   7.002  0.0264  0.1888  0.8013
 8242SOL    HW136185   3.194   2.273   6.996 -0.6523 -0.2305 -0.7253
 8242SOL    HW236186   3.298   2.184   6.930 -0.0351 -1.5243  0.8251
 8243SOL     OW36187   2.831   4.140   9.736  0.2568 -0.0800 -0.2517
 8243SOL    HW136188   2.773   4.067   9.754  1.0383 -0.3829  1.0176
 8243SOL    HW236189   2.850   4.161   9.827  1.0003  0.8886 -0.6209
 8244SOL     OW36190   2.384   1.958   2.401 -0.3273  0.3391  0.3696
 8244SOL    HW136191   2.295   1.959   2.365  0.3162 -1.7888 -1.2848
 8244SOL    HW236192   2.365   1.908   2.480 -1.6658 -1.2565 -0.9359
 8245SOL     OW36193   0.903   3.153  13.997 -0.4458  0.2465  0.0408
 8245SOL    HW136194   0.814   3.190  14.004 -0.2264  0.9513 -0.9474
 8245SOL    HW236195   0.903   3.069  14.042 -2.2766 -0.1837 -0.7441
 8246SOL     OW36196   4.129   0.773  17.490 -0.5310 -0.3298 -0.1421
 8246SOL    HW136197   4.188   0.707  17.453 -2.3379 -2.1278  0.2160
 8246SOL    HW236198   4.158   0.763  17.581 -1.2464  0.0720  0.1266
 8247SOL     OW36199   4.530   3.229   5.520 -0.1061  0.1029 -0.0836
 8247SOL    HW136200   4.541   3.225   5.425 -0.5813  0.1746 -0.1414
 8247SOL    HW236201   4.553   3.137   5.536 -1.0423 -0.0934  0.1320
 8248SOL     OW36202   2.287   4.127   0.124  0.5568 -0.2866  0.0313
 8248SOL    HW136203   2.290   4.208   0.175  0.0550  0.7546 -1.6046
 8248SOL    HW236204   2.253   4.156   0.040  1.2812  0.2420 -0.0821
 8249SOL     OW36205   0.377   2.821   3.892  0.0978 -0.2412  0.1089
 8249SOL    HW136206   0.318   2.748   3.872 -0.2878  0.3334 -0.8340
 8249SOL    HW236207   0.318   2.892   3.917  0.9028 -0.3571  2.3357
 8250SOL     OW36208   3.524   3.146   2.307 -0.3587  0.9567  0.3401
 8250SOL    HW136209   3.526   3.136   2.402  3.4228  0.6229  0.2410
 8250SOL    HW236210   3.432   3.159   2.283 -0.7188 -0.3839  1.0033
 8251SOL     OW36211   3.117   3.752   8.445 -0.5420  0.6550  0.1495
 8251SOL    HW136212   3.067   3.711   8.374  0.7381  0.3401 -0.5662
 8251SOL    HW236213   3.199   3.704   8.439  0.9128  2.9254  1.9503
 8252SOL     OW36214   1.299   4.079   1.874  0.4106  0.2169  0.3612
 8252SOL    HW136215   1.219   4.123   1.902  1.1891  2.3458 -0.7044
 8252SOL    HW236216   1.274   4.028   1.797 -1.7939  0.4256  0.9342
 8253SOL     OW36217   2.588   4.399   6.099  0.6535 -0.1427 -0.4113
 8253SOL    HW136218   2.560   4.459   6.030  0.0741  0.2798  0.1946
 8253SOL    HW236219   2.507   4.393   6.149 -1.0254 -1.7315 -3.2875
 8254SOL     OW36220   1.912   1.158   4.833 -0.1684  0.6017  0.2778
 8254SOL    HW136221   1.879   1.132   4.920  1.0067 -2.7524 -0.2813
 8254SOL    HW236222   2.007   1.148   4.841 -0.4457 -1.0281  1.6148
 8255SOL     OW36223   0.516   3.116   0.279  0.2908 -0.4111  0.1286
 8255SOL    HW136224   0.602   3.152   0.300  0.8742 -1.7541  0.0914
 8255SOL    HW236225   0.534   3.022   0.276 -0.0801 -0.4144 -1.8319
 8256SOL     OW36226   4.339   0.514   7.805  0.0936 -0.9254  0.0951
 8256SOL    HW136227   4.246   0.533   7.819  0.3163  0.7159 -0.6094
 8256SOL    HW236228   4.342   0.419   7.816  3.4285 -0.8772 -0.3042
 8257SOL     OW36229   3.666   3.271  16.439 -0.1298 -0.0179  0.3452
 8257SOL    HW136230   3.732   3.258  16.507  0.1567  1.8458  0.4159
 8257SOL    HW236231   3.703   3.356  16.414  3.0588 -1.3875  0.3783
 8258SOL     OW36232   3.566   3.352   5.415 -0.5822 -0.3257  0.2277
 8258SOL    HW136233   3.560   3.340   5.510  1.5897  1.2237  0.5544
 8258SOL    HW236234   3.504   3.422   5.395  0.2762  0.0242 -1.2102
 8259SOL     OW36235   1.160   1.127   5.552 -0.2448  0.4325 -0.0986
 8259SOL    HW136236   1.075   1.165   5.574  0.4965  1.9438  0.1791
 8259SOL    HW236237   1.143   1.092   5.464 -1.8538  0.6428  0.1351
 8260SOL     OW36238   0.409   3.711   0.687  0.1932  0.2383  0.3325
 8260SOL    HW136239   0.498   3.745   0.684 -0.2234  1.4682  2.1064
 8260SOL    HW236240   0.380   3.706   0.595 -0.4373  0.0208  0.5431
 8261SOL     OW36241   2.070   0.473   4.463  0.2400  0.0058 -0.0906
 8261SOL    HW136242   2.159   0.447   4.484 -0.0344  0.2872  1.4064
 8261SOL    HW236243   2.018   0.394   4.448  2.0269 -0.8012 -1.9925
 8262SOL     OW36244   2.196   1.148   4.833 -0.4900 -0.1939 -0.6667
 8262SOL    HW136245   2.258   1.075   4.835  0.5983  0.7867  1.8549
 8262SOL    HW236246   2.261   1.218   4.830  1.6154 -2.1992 -1.8231
 8263SOL     OW36247   0.158   3.718   4.931 -0.2293 -0.4236 -0.4896
 8263SOL    HW136248   0.131   3.765   5.010  1.4292  3.4908 -2.2632
 8263SOL    HW236249   0.176   3.793   4.875  3.5423 -1.3485 -0.5037
 8264SOL     OW36250   1.222   2.007   7.594  0.0943 -0.2814 -0.7902
 8264SOL    HW136251   1.222   1.922   7.638 -2.3990 -0.0629 -0.3888
 8264SOL    HW236252   1.226   2.060   7.674  2.1359  0.7912 -1.5914
 8265SOL     OW36253   2.876   4.405   7.277 -0.0678  0.1844 -0.0984
 8265SOL    HW136254   2.788   4.367   7.278 -0.1006  0.2348 -1.2080
 8265SOL    HW236255   2.915   4.369   7.357  0.2116 -2.9773 -1.6656
 8266SOL     OW36256   4.465   2.191   8.590  0.3174 -0.4394  0.5208
 8266SOL    HW136257   4.421   2.142   8.659 -0.3022 -0.7329 -0.0789
 8266SOL    HW236258   4.488   2.275   8.629  1.1462 -0.0762 -0.7528
 8267SOL     OW36259   3.523   1.458   8.818 -0.5773 -0.2993 -0.0208
 8267SOL    HW136260   3.483   1.410   8.890 -3.6730 -0.1608 -1.6227
 8267SOL    HW236261   3.455   1.524   8.801  0.0616  0.5039  0.5553
 8268SOL     OW36262   1.944   4.501  11.054 -0.7075 -0.1757 -0.3261
 8268SOL    HW136263   2.039   4.513  11.061 -0.8325  2.1838 -2.4562
 8268SOL    HW236264   1.914   4.490  11.144  1.3070 -0.9793  0.2542
 8269SOL     OW36265   0.002   2.672   9.395  0.5313  0.5217  0.0258
 8269SOL    HW136266   4.716   2.751   9.343 -2.3061 -1.8307 -3.0841
 8269SOL    HW236267   4.632   2.662   9.414  1.0532 -0.8099  1.9436
 8270SOL     OW36268   1.914   3.481   8.815 -0.1488  0.0757 -0.1698
 8270SOL    HW136269   1.821   3.478   8.793 -0.7741 -0.5178  2.6131
 8270SOL    HW236270   1.905   3.550   8.881 -1.3756  0.9589 -1.2461
 8271SOL     OW36271   3.447   1.854   6.927 -0.5157  0.2892 -0.2486
 8271SOL    HW136272   3.531   1.899   6.930 -0.3930  0.1805 -1.8961
 8271SOL    HW236273   3.395   1.896   6.859 -0.7179 -0.2336 -0.4194
 8272SOL     OW36274   0.473   3.966   6.459 -0.2346 -0.4772  0.2865
 8272SOL    HW136275   0.488   3.967   6.554 -0.8779 -0.3166  0.3865
 8272SOL    HW236276   0.512   4.047   6.426  1.5263 -0.3840  2.6116
 8273SOL     OW36277   1.358   0.531   6.723 -0.6109  0.7355  0.0709
 8273SOL    HW136278   1.388   0.560   6.637  0.1551 -2.5488 -0.7544
 8273SOL    HW236279   1.339   0.621   6.752  1.2014  0.4955  2.0153
 8274SOL     OW36280   0.631   4.036   2.174 -0.4271  0.1834  0.4884
 8274SOL    HW136281   0.602   3.995   2.255 -0.8963 -0.0098  0.2150
 8274SOL    HW236282   0.554   4.089   2.152 -0.6592  0.0399  0.9647
 8275SOL     OW36283   2.383   4.386   7.080  0.6291  0.0482  1.5398
 8275SOL    HW136284   2.351   4.468   7.119 -0.9637  0.4155 -0.5525
 8275SOL    HW236285   2.468   4.390   7.123  0.9910 -0.4445  0.8528
 8276SOL     OW36286   3.832   3.697   6.325  0.4766 -0.7736  0.0719
 8276SOL    HW136287   3.860   3.703   6.234 -1.1032  0.2586 -0.3532
 8276SOL    HW236288   3.900   3.642   6.363  2.4624  0.8442 -1.1947
 8277SOL     OW36289   1.423   2.378   7.696  0.0323  0.1625  0.0696
 8277SOL    HW136290   1.419   2.361   7.790 -0.9847 -0.3399 -0.0757
 8277SOL    HW236291   1.491   2.446   7.701  0.1777  0.1136 -1.2474
 8278SOL     OW36292   2.794   2.980   2.032 -0.4042 -0.2870  0.1561
 8278SOL    HW136293   2.878   2.940   2.055 -0.0243  0.1426 -0.4897
 8278SOL    HW236294   2.740   2.902   2.049  1.6467 -1.7877 -0.2136
 8279SOL     OW36295   2.637   1.281  17.215 -0.6775  0.3560 -0.2427
 8279SOL    HW136296   2.614   1.204  17.163  0.2566 -0.7276  0.9298
 8279SOL    HW236297   2.710   1.314  17.164 -0.3911  0.3031  0.1301
 8280SOL     OW36298   2.671   1.089   4.905 -0.0607  0.5294 -0.0174
 8280SOL    HW136299   2.638   1.024   4.968 -0.7499  0.4396 -0.4743
 8280SOL    HW236300   2.613   1.163   4.922  0.7617  0.5369  2.7949
 8281SOL     OW36301   0.375   2.174  13.508  0.4685 -0.0380  0.5474
 8281SOL    HW136302   0.365   2.177  13.603  1.7440 -2.2032  0.7500
 8281SOL    HW236303   0.348   2.083  13.497  2.7720 -0.4564 -1.7029
 8282SOL     OW36304   4.473   2.113   4.696 -0.2772 -0.0837  0.3779
 8282SOL    HW136305   4.391   2.102   4.648  1.4030  0.7010 -2.6714
 8282SOL    HW236306   4.494   2.206   4.688  0.9256 -0.4096 -0.2729
 8283SOL     OW36307   0.938   0.497   5.160 -0.0750  0.0166 -0.9610
 8283SOL    HW136308   0.878   0.557   5.203  1.0920 -1.4630  2.7868
 8283SOL    HW236309   0.996   0.562   5.122 -0.4894 -0.5187 -2.5117
 8284SOL     OW36310   3.020   2.546   0.027 -0.1035 -0.2138  0.0354
 8284SOL    HW136311   3.026   2.522   0.119  1.2927 -0.1639 -0.0328
 8284SOL    HW236312   3.085   2.616   0.018  0.2256 -0.6557 -1.0154
 8285SOL     OW36313   3.369   3.999  16.443  0.3352 -0.5351  0.4064
 8285SOL    HW136314   3.333   3.911  16.454 -0.9095  0.0690  1.1692
 8285SOL    HW236315   3.457   3.970  16.467 -0.2053 -2.0747  0.5369
 8286SOL     OW36316   0.720   1.842   6.885  0.3453 -0.1433 -0.3009
 8286SOL    HW136317   0.695   1.787   6.959  0.2231 -0.3565 -0.5024
 8286SOL    HW236318   0.747   1.924   6.926  0.6448  0.3988 -1.5979
 8287SOL     OW36319   3.237   2.661   6.150  0.2892  0.3117  0.1170
 8287SOL    HW136320   3.327   2.687   6.170  0.2612  0.2185  0.3694
 8287SOL    HW236321   3.187   2.705   6.219 -1.2188 -0.6078 -0.3776
 8288SOL     OW36322   4.164   0.391   8.646 -0.3547 -0.3899  0.2112
 8288SOL    HW136323   4.220   0.405   8.722 -0.1153 -0.7000  0.0932
 8288SOL    HW236324   4.087   0.347   8.682  0.9823 -0.3522  3.1525
 8289SOL     OW36325   1.974   3.522  12.190  0.1966 -0.7882 -0.0137
 8289SOL    HW136326   1.894   3.470  12.190 -1.1285  1.2753 -2.2328
 8289SOL    HW236327   1.940   3.605  12.158 -0.6341 -1.1581 -0.0810
 8290SOL     OW36328   2.981   1.293  14.956 -0.1235  0.0880 -0.2694
 8290SOL    HW136329   2.934   1.375  14.941 -0.0917  0.4104  1.4058
 8290SOL    HW236330   2.957   1.244  14.877 -2.7002  2.2057 -0.8231
 8291SOL     OW36331   4.210   2.962   5.835  0.1150 -0.2417  0.2791
 8291SOL    HW136332   4.211   2.942   5.742 -0.7101 -2.9382  0.8430
 8291SOL    HW236333   4.130   2.917   5.863 -0.0583 -0.3418 -0.3911
 8292SOL     OW36334   1.801   4.702   5.159  0.4304  0.2083  0.1538
 8292SOL    HW136335   1.727   0.005   5.215  2.0268 -0.2292  2.4930
 8292SOL    HW236336   1.771   4.619   5.123 -1.2724 -0.5166  3.2346
 8293SOL     OW36337   3.860   3.488   6.952 -0.1159 -0.2451  0.2812
 8293SOL    HW136338   3.916   3.509   6.878  0.4786  0.4147  0.9203
 8293SOL    HW236339   3.813   3.412   6.917 -0.4700  0.4320 -0.7361
 8294SOL     OW36340   0.568   1.592  15.890 -0.2008 -0.0114  0.3066
 8294SOL    HW136341   0.565   1.571  15.797 -0.1236 -0.7174  0.4680
 8294SOL    HW236342   0.662   1.597  15.908  0.1363  1.5342 -1.8171
 8295SOL     OW36343   1.805   3.075  11.021 -0.1242  0.1913  0.5642
 8295SOL    HW136344   1.852   3.138  11.076 -0.8935  1.7499 -0.5791
 8295SOL    HW236345   1.720   3.075  11.065 -0.5003 -1.3006 -0.1454
 8296SOL     OW36346   4.321   1.879   4.226  0.6353  0.0494  1.1260
 8296SOL    HW136347   4.279   1.831   4.155  0.6801  0.0941  1.0697
 8296SOL    HW236348   4.309   1.967   4.192 -0.1134  0.2607  1.9527
 8297SOL     OW36349   0.073   3.503  16.337 -0.4759 -0.6700 -0.1977
 8297SOL    HW136350   0.005   3.437  16.325 -2.0714  0.5027  2.3641
 8297SOL    HW236351   0.126   3.479  16.261 -0.5859  2.9782 -1.4570
 8298SOL     OW36352   1.766   1.252   3.417  0.2576 -0.1615 -0.0272
 8298SOL    HW136353   1.715   1.297   3.484  0.5471 -2.0891  1.4886
 8298SOL    HW236354   1.850   1.242   3.461 -1.3665 -1.4245  2.7729
 8299SOL     OW36355   3.868   3.227  11.291  0.0895  0.0298 -0.0538
 8299SOL    HW136356   3.780   3.263  11.280  0.4064  0.3834 -1.4050
 8299SOL    HW236357   3.900   3.273  11.368  1.0325 -1.7339  0.6057
 8300SOL     OW36358   1.067   4.532  12.336 -0.1275  0.2534 -0.2127
 8300SOL    HW136359   1.141   4.581  12.301  1.5254 -0.5986  2.1233
 8300SOL    HW236360   0.998   4.598  12.336 -0.9140 -0.5540 -0.1745
 8301SOL     OW36361   3.881   0.771   7.923  0.2404  0.4094 -0.0772
 8301SOL    HW136362   3.803   0.716   7.916 -1.2852  2.2257  2.5028
 8301SOL    HW236363   3.864   0.826   8.000 -2.0063  0.1042 -0.3592
 8302SOL     OW36364   3.089   4.475   8.605 -0.2693  0.4745  0.3348
 8302SOL    HW136365   3.111   4.431   8.523  0.4920 -0.3083  0.9617
 8302SOL    HW236366   3.110   4.407   8.669 -1.4095 -0.4658 -0.2961
 8303SOL     OW36367   3.624   4.227  14.031 -0.0848  0.3833 -0.8576
 8303SOL    HW136368   3.678   4.150  14.012 -0.7113  0.0276 -1.2318
 8303SOL    HW236369   3.678   4.276  14.093 -1.0177  0.5989 -0.2072
 8304SOL     OW36370   0.163   0.982   2.040  0.2853  0.3090  0.6678
 8304SOL    HW136371   0.092   0.921   2.062  0.6025 -1.6330 -3.5778
 8304SOL    HW236372   0.117   1.066   2.044 -0.1823  0.1111 -0.4555
 8305SOL     OW36373   1.063   1.679  16.150  0.0903 -0.4383 -0.1437
 8305SOL    HW136374   1.085   1.588  16.169  2.5089 -0.0108 -0.8512
 8305SOL    HW236375   1.093   1.683  16.059 -1.8352  1.4988 -0.7002
 8306SOL     OW36376   0.485   3.451   6.047 -0.0526 -0.1386 -0.3621
 8306SOL    HW136377   0.444   3.497   6.120 -0.7280  0.1020 -0.8888
 8306SOL    HW236378   0.408   3.402   6.015 -1.2692  2.5920 -1.5539
 8307SOL     OW36379   3.551   2.618   6.948 -0.6022 -0.3448  0.4514
 8307SOL    HW136380   3.592   2.544   6.991  3.2873  1.2995 -0.4623
 8307SOL    HW236381   3.579   2.685   7.011  1.4144 -0.9458  0.1780
 8308SOL     OW36382   4.468   1.842   9.598  0.1249 -0.0245  0.2159
 8308SOL    HW136383   4.551   1.797   9.585 -0.6978 -1.3417 -0.4534
 8308SOL    HW236384   4.414   1.809   9.526 -1.0891  0.1223  1.0605
 8309SOL     OW36385   0.851   4.091   4.483  0.1206  0.1445 -0.1537
 8309SOL    HW136386   0.908   4.073   4.557  1.3446  1.0111 -0.8955
 8309SOL    HW236387   0.805   4.172   4.505 -1.4612 -1.1489  1.3372
 8310SOL     OW36388   1.000   1.848   5.921  0.0389 -0.3808 -0.0756
 8310SOL    HW136389   0.948   1.768   5.935  0.2855 -0.2955  1.2840
 8310SOL    HW236390   0.998   1.863   5.827  0.1840  1.1863  0.1716
 8311SOL     OW36391   0.596   4.003   0.013 -0.2263 -0.2301 -0.6620
 8311SOL    HW136392   0.675   3.953  17.690  0.9203  1.6204 -0.7491
 8311SOL    HW236393   0.640   4.087   0.027  1.2114 -0.7388 -2.1199
 8312SOL     OW36394   4.469   1.667   2.321  0.4026  0.0905  0.9493
 8312SOL    HW136395   4.476   1.575   2.297  0.6282  0.3935 -0.1509
 8312SOL    HW236396   4.375   1.672   2.305  0.7733  0.4251 -1.0734
 8313SOL     OW36397   4.081   3.605  14.016  0.0964 -0.2234 -0.2150
 8313SOL    HW136398   4.171   3.623  13.988  1.1292 -1.1154  2.5681
 8313SOL    HW236399   4.091   3.638  14.105  0.4173 -2.4623  0.5809
 8314SOL     OW36400   1.948   1.338   8.662 -0.0358  0.2536 -0.1003
 8314SOL    HW136401   1.998   1.327   8.742  2.2087 -0.8226 -1.6448
 8314SOL    HW236402   1.890   1.413   8.670 -2.2703 -1.5317  0.5461
 8315SOL     OW36403   3.807   1.672   7.770  0.0250 -0.0884  0.0697
 8315SOL    HW136404   3.800   1.641   7.680 -0.9602 -0.2237  0.1876
 8315SOL    HW236405   3.842   1.760   7.755 -3.0718  1.3809  1.3419
 8316SOL     OW36406   1.356   4.378   3.978  0.3957 -0.2159  0.4021
 8316SOL    HW136407   1.313   4.307   4.026  1.2173 -1.1756 -0.2749
 8316SOL    HW236408   1.389   4.431   4.050 -0.3022 -1.3662  1.5686
 8317SOL     OW36409   4.358   0.320   8.090 -0.2723  0.2437  0.3303
 8317SOL    HW136410   4.284   0.381   8.090 -0.4824  0.0017  2.1376
 8317SOL    HW236411   4.419   0.380   8.133 -0.0446  0.1234  0.1743
 8318SOL     OW36412   0.034   2.566   7.315  0.0435  0.3539 -0.0002
 8318SOL    HW136413   0.096   2.635   7.295 -0.5279  0.8904  0.0964
 8318SOL    HW236414   4.676   2.616   7.324 -1.2618 -1.4288 -1.5566
 8319SOL     OW36415   2.323   3.672  17.184  0.1707  0.5242  0.0889
 8319SOL    HW136416   2.386   3.687  17.114  1.0215 -3.2871  0.0141
 8319SOL    HW236417   2.302   3.762  17.208  0.8686  0.2950  1.5814
 8320SOL     OW36418   4.126   3.697   6.860 -0.5440  0.3346  0.0996
 8320SOL    HW136419   4.068   3.656   6.797 -0.3051 -0.6917  0.5557
 8320SOL    HW236420   4.149   3.778   6.815 -2.3291  1.5572  1.4042
 8321SOL     OW36421   2.804   0.270  16.816 -0.0434  0.1172 -0.0381
 8321SOL    HW136422   2.787   0.202  16.882  0.8294  0.1028  0.1702
 8321SOL    HW236423   2.896   0.252  16.796 -0.4346 -0.2773 -1.4911
 8322SOL     OW36424   1.408   0.280   4.695 -0.4457  0.1096  0.2792
 8322SOL    HW136425   1.377   0.273   4.605  0.3313 -0.2536  0.0451
 8322SOL    HW236426   1.502   0.266   4.688 -0.1993  2.1573 -0.8211
 8323SOL     OW36427   2.896   0.725   7.506  0.1206  0.4343 -0.1549
 8323SOL    HW136428   2.885   0.817   7.530 -0.2305  0.5930 -0.9208
 8323SOL    HW236429   2.805   0.697   7.492  0.4986 -1.1487  0.6049
 8324SOL     OW36430   3.974   2.820   3.008  0.0749  0.1943  0.3267
 8324SOL    HW136431   4.053   2.820   2.953 -1.6227 -0.4876 -2.1193
 8324SOL    HW236432   3.974   2.740   3.061 -1.6250  0.1302  0.2238
 8325SOL     OW36433   2.202   2.550   0.386 -0.1213 -0.4000  0.4410
 8325SOL    HW136434   2.212   2.455   0.386  0.5561 -0.3347  2.6341
 8325SOL    HW236435   2.253   2.579   0.310  1.7325 -1.4599  1.2657
 8326SOL     OW36436   4.464   2.586   4.047 -0.2148 -0.1784 -0.1072
 8326SOL    HW136437   4.496   2.565   3.959  1.4887  1.4504  0.1156
 8326SOL    HW236438   4.378   2.625   4.030  0.7000  2.5884  1.5163
 8327SOL     OW36439   1.463   4.041   6.265 -0.0581 -0.8423 -0.1170
 8327SOL    HW136440   1.499   4.128   6.246 -1.7738  0.2710  1.6960
 8327SOL    HW236441   1.389   4.048   6.206  0.1269  0.2296 -0.2211
 8328SOL     OW36442   2.256   4.436  14.876  0.7705  0.4207 -0.1639
 8328SOL    HW136443   2.226   4.491  14.948  1.1193 -1.0804  1.1407
 8328SOL    HW236444   2.282   4.358  14.925  0.4742  1.8987  2.3204
 8329SOL     OW36445   1.513   1.960   7.930 -0.5418 -0.2304  0.3119
 8329SOL    HW136446   1.573   2.021   7.888 -1.2146  0.1067 -0.1730
 8329SOL    HW236447   1.447   1.956   7.860  0.8771  2.1671 -1.1831
 8330SOL     OW36448   4.500   1.008   1.810 -0.1137 -0.3903  0.0159
 8330SOL    HW136449   4.590   1.010   1.843  0.2014 -0.0676 -0.8596
 8330SOL    HW236450   4.438   1.004   1.883  2.4190 -2.5394  2.0288
 8331SOL     OW36451   2.943   3.919   5.063  0.3239  0.5678  0.0398
 8331SOL    HW136452   2.933   3.865   5.142 -2.3061  1.3306  0.2096
 8331SOL    HW236453   3.026   3.964   5.082  0.7937 -1.3832  2.7866
 8332SOL     OW36454   0.771   4.464   6.942 -0.1845  0.1184 -0.2139
 8332SOL    HW136455   0.713   4.457   6.866  0.9857 -1.3219 -0.9651
 8332SOL    HW236456   0.733   4.540   6.987  0.4218  0.0001  0.4944
 8333SOL     OW36457   3.699   4.316  16.917  0.0696 -0.1429 -0.0806
 8333SOL    HW136458   3.627   4.376  16.898 -2.4022 -2.6239  1.5021
 8333SOL    HW236459   3.675   4.285  17.005  0.1354 -1.5566 -0.5629
 8334SOL     OW36460   1.828   2.355   1.324 -0.3266  0.5848  0.4397
 8334SOL    HW136461   1.880   2.432   1.348  1.9434 -1.0380  0.7597
 8334SOL    HW236462   1.757   2.405   1.285 -1.5646 -0.8487  0.8970
 8335SOL     OW36463   2.669   3.833   0.235  0.2055  0.4293 -0.6516
 8335SOL    HW136464   2.621   3.913   0.255  0.7001  0.2809  1.0933
 8335SOL    HW236465   2.753   3.867   0.206 -0.6817  1.3326 -2.1670
 8336SOL     OW36466   2.238   3.179   2.806 -0.2667 -0.0704  0.5075
 8336SOL    HW136467   2.327   3.145   2.805  0.2867  1.3644  0.7938
 8336SOL    HW236468   2.249   3.274   2.813  0.1459 -0.0453 -0.5193
 8337SOL     OW36469   2.206   3.974   0.309  0.2455 -0.9128  0.0787
 8337SOL    HW136470   2.206   4.043   0.375 -1.6732 -1.0522  0.2104
 8337SOL    HW236471   2.217   4.023   0.228  2.5368  0.4733  1.2300
 8338SOL     OW36472   2.334   2.788   6.387  0.8257  0.0307  0.1432
 8338SOL    HW136473   2.370   2.750   6.468 -0.1070 -2.8591 -0.7966
 8338SOL    HW236474   2.391   2.864   6.376  2.3811 -0.9472  1.3301
 8339SOL     OW36475   0.575   1.753   5.152  0.3524 -0.2245 -0.1701
 8339SOL    HW136476   0.524   1.724   5.228  1.8394  0.0750  0.9448
 8339SOL    HW236477   0.606   1.839   5.179 -0.5712  0.2605 -0.6500
 8340SOL     OW36478   3.953   4.354   7.052  0.1626 -0.3559  0.8812
 8340SOL    HW136479   3.984   4.439   7.022  0.2293 -0.6061  0.2614
 8340SOL    HW236480   3.895   4.330   6.980  1.7273  1.4015 -0.9363
 8341SOL     OW36481   0.092   2.561   7.955  0.0493 -0.0251  0.4746
 8341SOL    HW136482   0.097   2.565   7.860 -2.1611 -0.1663  0.3476
 8341SOL    HW236483   0.028   2.494   7.978 -1.7249  0.0710 -4.3096
 8342SOL     OW36484   1.234   4.403   2.067  0.5639  0.0250 -0.4093
 8342SOL    HW136485   1.250   4.345   2.141 -0.5564  1.7340  1.1534
 8342SOL    HW236486   1.155   4.361   2.031 -1.5100  1.8468  2.0030
 8343SOL     OW36487   4.644   2.867   7.655 -0.2362  0.3674 -0.2165
 8343SOL    HW136488   4.722   2.866   7.710  0.4515  0.0716 -1.1955
 8343SOL    HW236489   4.677   2.917   7.580  0.4108  0.9532  0.4646
 8344SOL     OW36490   0.692   3.202   2.833  0.0687 -0.9422 -0.1356
 8344SOL    HW136491   0.742   3.213   2.914  0.9724  2.7019 -1.1564
 8344SOL    HW236492   0.670   3.293   2.810 -0.3979 -0.6796  1.3279
 8345SOL     OW36493   0.783   3.732  12.259  0.3704 -0.6279  0.1282
 8345SOL    HW136494   0.864   3.783  12.261  0.3140 -0.4886 -0.7669
 8345SOL    HW236495   0.744   3.772  12.181  0.1333 -1.1305 -0.0127
 8346SOL     OW36496   0.791   0.619   3.136  0.3941  0.0818 -0.1912
 8346SOL    HW136497   0.778   0.586   3.047  0.1266  1.3505 -0.6203
 8346SOL    HW236498   0.795   0.713   3.118  0.3348  0.0557 -0.3384
 8347SOL     OW36499   2.546   0.805   3.283  0.1532 -0.3011  0.0387
 8347SOL    HW136500   2.571   0.850   3.202  0.1691  1.4257  0.9908
 8347SOL    HW236501   2.518   0.870   3.347  1.6607 -0.6625  1.0689
 8348SOL     OW36502   3.867   4.298   2.584  0.4809  0.0539  0.6378
 8348SOL    HW136503   3.934   4.340   2.638  1.1186  1.4909 -1.2871
 8348SOL    HW236504   3.824   4.238   2.645  0.9049  0.6609  1.5243
 8349SOL     OW36505   4.235   1.480  11.165 -0.0493  0.0849 -0.1625
 8349SOL    HW136506   4.165   1.452  11.107  0.0141  0.3866 -0.3827
 8349SOL    HW236507   4.315   1.506  11.119  0.8463 -1.6588  0.4240
 8350SOL     OW36508   4.256   3.178   8.804 -0.2285  0.3471 -0.1522
 8350SOL    HW136509   4.280   3.165   8.712  2.4432  1.2109  0.4309
 8350SOL    HW236510   4.197   3.253   8.795  2.1866  2.4963  1.9492
 8351SOL     OW36511   2.028   2.227   2.532  0.3681 -0.2108 -0.0932
 8351SOL    HW136512   2.052   2.225   2.439  1.4148  2.6353  0.1162
 8351SOL    HW236513   2.075   2.309   2.543  1.0892 -0.5887 -0.3278
 8352SOL     OW36514   4.226   0.934   5.019  0.0599 -0.4632 -0.3901
 8352SOL    HW136515   4.216   0.897   4.931  0.5648  0.5381 -0.8725
 8352SOL    HW236516   4.145   0.985   5.026  1.1074  1.3195 -1.3866
 8353SOL     OW36517   3.561   2.063  15.397 -0.1492  0.1273 -0.3118
 8353SOL    HW136518   3.483   2.093  15.350  0.2132  1.2474 -0.1880
 8353SOL    HW236519   3.525   1.989  15.445 -0.7554  0.2884 -0.5237
 8354SOL     OW36520   4.075   3.722   3.545 -0.3761 -0.5528  0.4639
 8354SOL    HW136521   4.052   3.737   3.453 -0.2261  1.5571  0.7725
 8354SOL    HW236522   4.083   3.627   3.552 -0.4386 -0.6195 -0.3051
 8355SOL     OW36523   1.336   0.270   1.028 -0.4861 -0.0773  0.2098
 8355SOL    HW136524   1.258   0.281   1.082  0.6116  4.0029  0.9613
 8355SOL    HW236525   1.398   0.330   1.069  0.2503 -1.0025  0.4771
 8356SOL     OW36526   4.676   3.647   9.204  0.0512  0.7310 -0.2118
 8356SOL    HW136527   4.675   3.711   9.275 -1.9787  0.0953  0.3378
 8356SOL    HW236528   4.661   3.568   9.256 -0.6493 -0.3729 -2.0833
 8357SOL     OW36529   4.482   3.979   3.519  1.0367  0.1869 -0.1141
 8357SOL    HW136530   4.386   3.985   3.517  1.0913  0.8051 -1.2175
 8357SOL    HW236531   4.503   3.927   3.441  1.6597 -1.0291  0.8742
 8358SOL     OW36532   1.743   4.247  11.376 -0.0563 -0.5302 -0.6565
 8358SOL    HW136533   1.790   4.257  11.459  0.7550  2.5453 -1.5100
 8358SOL    HW236534   1.769   4.316  11.316 -0.7936  1.2363  1.0239
 8359SOL     OW36535   4.177   0.934   1.535 -0.2612 -0.0660 -0.0111
 8359SOL    HW136536   4.235   0.869   1.574 -1.0661 -0.4037  0.6237
 8359SOL    HW236537   4.121   0.880   1.479 -1.4580  0.9743  0.1829
 8360SOL     OW36538   1.676   0.055  12.664  0.4707 -0.2069 -0.6501
 8360SOL    HW136539   1.684   0.148  12.641 -0.2155  0.2230  0.8312
 8360SOL    HW236540   1.744   0.041  12.729  0.8984  2.8526 -0.4391
 8361SOL     OW36541   3.498   2.497  13.000  0.6884 -0.2260  0.1981
 8361SOL    HW136542   3.532   2.524  13.085 -0.0557 -1.0491  0.7566
 8361SOL    HW236543   3.574   2.492  12.943  0.9843  1.8296  0.4396
 8362SOL     OW36544   3.443   0.727   8.464  0.1988 -0.1373 -0.0618
 8362SOL    HW136545   3.524   0.677   8.477 -0.2928 -0.0550  3.1992
 8362SOL    HW236546   3.482   0.811   8.438  0.0768 -0.5170 -1.4767
 8363SOL     OW36547   2.561   2.463  10.196 -0.4535  0.1824 -0.7108
 8363SOL    HW136548   2.634   2.401  10.201 -1.0804 -0.4737  0.3724
 8363SOL    HW236549   2.513   2.450  10.278  0.2912  0.4968 -0.2288
 8364SOL     OW36550   2.747   1.694   8.063 -0.1258 -0.3460 -0.5611
 8364SOL    HW136551   2.685   1.693   7.990  0.8320 -1.0215 -1.3665
 8364SOL    HW236552   2.684   1.673   8.132 -0.9862  2.3839 -0.5211
 8365SOL     OW36553   3.160   2.212   7.265  0.1017 -0.0659 -0.3219
 8365SOL    HW136554   3.246   2.215   7.308 -0.9570 -2.5877  2.0118
 8365SOL    HW236555   3.190   2.208   7.175  0.2764 -0.5841 -0.2403
 8366SOL     OW36556   3.234   1.144   2.290 -0.5468 -0.3364 -0.6110
 8366SOL    HW136557   3.308   1.165   2.348 -0.4951 -0.0732 -0.7765
 8366SOL    HW236558   3.183   1.080   2.341 -2.2865  2.6649  1.4516
 8367SOL     OW36559   0.189   3.884   6.651 -0.6686 -0.2991 -0.0383
 8367SOL    HW136560   0.260   3.855   6.593 -1.0351 -2.6903  0.7058
 8367SOL    HW236561   0.228   3.867   6.737  0.2358 -1.7977 -0.7383
 8368SOL     OW36562   2.875   2.360   5.229 -0.7466 -0.2351 -0.2157
 8368SOL    HW136563   2.914   2.318   5.305  0.1774 -0.5063 -0.8450
 8368SOL    HW236564   2.897   2.305   5.154 -1.2539  0.2290 -0.7047
 8369SOL     OW36565   4.151   0.860  10.860  0.0498 -0.2037 -0.2233
 8369SOL    HW136566   4.218   0.836  10.796 -2.0184 -2.5147 -1.5452
 8369SOL    HW236567   4.198   0.907  10.928 -0.9108 -0.4809  0.6223
 8370SOL     OW36568   3.896   1.686   8.183  0.0302  0.3195  0.4549
 8370SOL    HW136569   3.966   1.737   8.223 -1.2198  1.2702  1.4424
 8370SOL    HW236570   3.846   1.749   8.131 -1.5345 -1.2808 -0.0071
 8371SOL     OW36571   2.436   2.963   6.884  0.1618 -0.1270  0.5322
 8371SOL    HW136572   2.500   2.977   6.954  0.2635 -0.5117  0.5155
 8371SOL    HW236573   2.380   2.892   6.916 -1.2887  0.9264  0.3341
 8372SOL     OW36574   3.010   2.477   0.299 -0.2485 -0.1255  0.3448
 8372SOL    HW136575   2.985   2.537   0.369 -0.8596  0.3767 -0.3138
 8372SOL    HW236576   2.925   2.432   0.296 -0.0734 -0.2202 -2.8384
 8373SOL     OW36577   1.701   1.714   5.555  0.1043  0.2165  0.9738
 8373SOL    HW136578   1.654   1.797   5.568 -0.8207  0.0187 -1.0071
 8373SOL    HW236579   1.624   1.658   5.553 -1.2253  2.0027  1.8529
 8374SOL     OW36580   3.129   1.821   3.658 -0.0311  0.4903 -0.1134
 8374SOL    HW136581   3.083   1.791   3.736 -0.6222 -0.7479 -0.9325
 8374SOL    HW236582   3.216   1.830   3.698 -0.1568  1.0895  0.0183
 8375SOL     OW36583   3.376   1.704   5.617 -0.4471 -0.1477  0.0685
 8375SOL    HW136584   3.349   1.613   5.632 -0.7995 -0.0639 -0.0511
 8375SOL    HW236585   3.357   1.708   5.523 -1.3826  2.1981  0.3638
 8376SOL     OW36586   3.358   1.278   1.505  1.0486 -0.1669 -0.0293
 8376SOL    HW136587   3.315   1.243   1.426  1.5574  0.6542 -0.6627
 8376SOL    HW236588   3.312   1.360   1.521  2.9797  0.8278  0.3787
 8377SOL     OW36589   1.686   0.509  15.163  0.0900 -0.4613 -0.2950
 8377SOL    HW136590   1.615   0.561  15.124 -0.4980 -2.5055 -1.9143
 8377SOL    HW236591   1.635   0.450  15.218  0.0107  0.9375  1.1400
 8378SOL     OW36592   3.214   3.346   6.565  0.2358  0.4575  0.3361
 8378SOL    HW136593   3.163   3.299   6.499 -0.6109  1.2401  0.4475
 8378SOL    HW236594   3.185   3.319   6.652  0.1575 -0.3108  0.0745
 8379SOL     OW36595   0.370   4.328   0.729 -0.4145 -0.1650 -0.3784
 8379SOL    HW136596   0.337   4.418   0.723 -0.5578 -0.1868  0.0839
 8379SOL    HW236597   0.284   4.288   0.743 -0.9724  0.6875 -1.4193
 8380SOL     OW36598   1.468   2.557  11.554 -0.4476  0.0034 -0.2185
 8380SOL    HW136599   1.508   2.542  11.640  1.2297 -0.4992 -1.0847
 8380SOL    HW236600   1.469   2.653  11.551 -2.1271 -0.0123 -1.0047
 8381SOL     OW36601   3.407   1.299  15.727  0.3282 -0.2600 -0.2245
 8381SOL    HW136602   3.448   1.282  15.642  0.1456  0.7513 -0.5126
 8381SOL    HW236603   3.478   1.336  15.780  0.6524  0.5458 -1.2032
 8382SOL     OW36604   0.547   3.083  13.276  0.2806 -0.4082  0.0925
 8382SOL    HW136605   0.505   3.000  13.250  1.6871 -0.6648 -1.3124
 8382SOL    HW236606   0.512   3.146  13.213  0.4214  1.6206  2.0599
 8383SOL     OW36607   4.721   2.780   1.529  0.2630 -0.0794  0.1022
 8383SOL    HW136608   4.645   2.838   1.524  1.5950  1.7541  0.7497
 8383SOL    HW236609   4.682   2.698   1.500 -1.0509  0.7209 -0.3805
 8384SOL     OW36610   3.328   3.948   6.315  0.3873  0.2236 -0.4625
 8384SOL    HW136611   3.378   3.870   6.290 -2.2370 -2.2058  1.9143
 8384SOL    HW236612   3.243   3.912   6.340  0.3629  0.8018  0.2944
 8385SOL     OW36613   4.116   1.843   8.204 -0.0998  0.1949 -0.3248
 8385SOL    HW136614   4.119   1.822   8.110  1.1334 -2.3390  0.2671
 8385SOL    HW236615   4.210   1.852   8.218 -0.1433  2.3992 -1.3816
 8386SOL     OW36616   0.512   1.446   7.015  0.2667  0.4177 -0.3609
 8386SOL    HW136617   0.428   1.482   7.043  1.0928  2.5337 -0.5703
 8386SOL    HW236618   0.537   1.404   7.097 -0.7137  2.6926  1.1163
 8387SOL     OW36619   4.693   2.048   7.732 -0.5611  0.0087  0.0915
 8387SOL    HW136620   4.640   2.095   7.797 -2.6085  0.6074 -2.0161
 8387SOL    HW236621   4.650   2.069   7.649 -1.3506 -2.1578 -0.0576
 8388SOL     OW36622   2.275   2.174  14.685 -0.8953 -0.2350  0.8740
 8388SOL    HW136623   2.278   2.194  14.592 -1.8948 -1.9077  0.4856
 8388SOL    HW236624   2.184   2.190  14.710 -1.4246 -2.4081  0.4086
 8389SOL     OW36625   1.095   3.697  10.162 -0.7248  0.4898  0.3842
 8389SOL    HW136626   1.029   3.705  10.231  0.7427 -0.5328  1.9210
 8389SOL    HW236627   1.142   3.623  10.200 -0.6806  0.7576  0.8567
 8390SOL     OW36628   1.746   4.663   8.346  0.3383 -0.2931  0.5177
 8390SOL    HW136629   1.707   4.692   8.264 -0.5661 -0.7218  0.8019
 8390SOL    HW236630   1.832   4.636   8.314 -0.6495  0.5948 -2.9096
 8391SOL     OW36631   3.426   4.403   0.461 -0.0991 -0.8003 -0.3019
 8391SOL    HW136632   3.461   4.411   0.372  2.0761  0.8516  0.7021
 8391SOL    HW236633   3.407   4.309   0.456  1.4777 -1.0986 -0.8612
 8392SOL     OW36634   4.332   1.506   8.378 -0.5207  0.1038  0.3965
 8392SOL    HW136635   4.251   1.555   8.368 -0.0328  0.3222 -2.4452
 8392SOL    HW236636   4.403   1.564   8.351  2.3378 -1.7895  3.8804
 8393SOL     OW36637   4.370   0.168  12.827  0.1640 -0.1023  0.3230
 8393SOL    HW136638   4.403   0.090  12.782 -0.7099  0.1589 -0.7721
 8393SOL    HW236639   4.278   0.174  12.800  0.2431 -0.0927  0.0564
 8394SOL     OW36640   1.737   1.105   7.854  0.1768  0.0715  0.3358
 8394SOL    HW136641   1.784   1.178   7.813 -0.6414 -0.4132 -1.4843
 8394SOL    HW236642   1.646   1.124   7.832  0.1472 -0.0543  0.3522
 8395SOL     OW36643   2.633   4.612   5.308 -0.0936 -0.1597 -0.5511
 8395SOL    HW136644   2.633   4.519   5.290  3.5041 -0.1240 -0.7489
 8395SOL    HW236645   2.722   4.614   5.342 -0.0680  1.0438 -0.6909
 8396SOL     OW36646   2.662   4.411  14.044  0.1097  0.1289  0.1124
 8396SOL    HW136647   2.737   4.369  14.087  0.9386 -0.6982 -2.1306
 8396SOL    HW236648   2.634   4.472  14.112  1.5496 -0.2879  1.0931
 8397SOL     OW36649   0.060   0.027   3.180 -0.0131  0.2683 -0.0988
 8397SOL    HW136650   0.118   4.703   3.122 -1.6266  0.8040 -2.1805
 8397SOL    HW236651   4.716   4.683   3.170  0.8180 -0.5926  0.2064
 8398SOL     OW36652   3.564   2.288   1.819  0.1946  0.3290  0.2570
 8398SOL    HW136653   3.498   2.357   1.819  2.8018  2.8199 -0.3353
 8398SOL    HW236654   3.537   2.244   1.739  1.4600 -1.3299  0.7548
 8399SOL     OW36655   1.600   4.141  11.100  0.1508  0.1146  0.3939
 8399SOL    HW136656   1.596   4.065  11.042  1.1177 -0.9385  1.7038
 8399SOL    HW236657   1.607   4.217  11.042 -0.3865 -0.2883 -0.1888
 8400SOL     OW36658   3.626   2.871   9.414 -0.6087 -0.5238 -0.1916
 8400SOL    HW136659   3.711   2.908   9.390  0.3163 -2.6499 -0.1212
 8400SOL    HW236660   3.581   2.955   9.429  1.5551  0.4571  0.8948
 8401SOL     OW36661   2.089   1.132   6.158  0.3697 -0.6378 -0.0406
 8401SOL    HW136662   2.182   1.135   6.181  0.3629 -1.3889  0.0952
 8401SOL    HW236663   2.053   1.145   6.245  0.3806 -0.5131 -0.0544
 8402SOL     OW36664   3.089   2.853   9.469  0.1800 -0.0863 -0.5662
 8402SOL    HW136665   3.023   2.816   9.529  0.3893  1.1992  0.4631
 8402SOL    HW236666   3.161   2.791   9.469  0.0523 -0.2317 -1.5478
 8403SOL     OW36667   4.369   1.838   7.864  0.0208 -0.0632 -0.4730
 8403SOL    HW136668   4.285   1.808   7.898  0.1820  1.3029  1.1435
 8403SOL    HW236669   4.352   1.859   7.773 -1.5824 -0.0403 -0.1598
 8404SOL     OW36670   2.161   3.308   2.067 -0.2389  0.0131  0.1250
 8404SOL    HW136671   2.149   3.343   2.155 -3.3569  0.4520 -0.4877
 8404SOL    HW236672   2.112   3.368   2.010  1.7790  0.1233 -1.5040
 8405SOL     OW36673   0.550   0.056   4.563  0.0970 -0.3980  0.7406
 8405SOL    HW136674   0.456   0.049   4.580  0.3136 -1.4974  1.4683
 8405SOL    HW236675   0.575   0.138   4.604  0.0107  0.5924 -1.1987
 8406SOL     OW36676   2.437   3.186   3.801 -0.1999 -0.2715  0.4739
 8406SOL    HW136677   2.475   3.144   3.879  1.4532  3.6580  1.7805
 8406SOL    HW236678   2.504   3.186   3.732 -1.4441  0.7771 -0.7322
 8407SOL     OW36679   2.375   3.770   0.291  0.0292 -0.2109 -0.2443
 8407SOL    HW136680   2.306   3.837   0.298  1.2234  0.8809  1.1896
 8407SOL    HW236681   2.455   3.823   0.287 -0.3183  0.3159 -0.2324
 8408SOL     OW36682   3.764   0.533   5.268 -0.5799 -0.1109 -0.5438
 8408SOL    HW136683   3.823   0.465   5.301 -3.6436 -1.6965  1.6592
 8408SOL    HW236684   3.701   0.531   5.340 -0.7163  2.0470 -0.6082
 8409SOL     OW36685   1.123   2.648  16.392  0.0871  0.0587 -0.1415
 8409SOL    HW136686   1.206   2.618  16.429  0.4829 -1.2581 -2.1242
 8409SOL    HW236687   1.095   2.717  16.452 -0.5685 -0.5887  0.2947
 8410SOL     OW36688   2.690   4.457   5.028 -0.4532  0.3834 -0.1624
 8410SOL    HW136689   2.627   4.416   4.968 -2.9139  0.7021  2.2293
 8410SOL    HW236690   2.668   4.412   5.110 -1.0503  0.3677 -0.3342
 8411SOL     OW36691   0.757   3.383   7.515  0.4874  0.6240  0.1139
 8411SOL    HW136692   0.818   3.404   7.586  0.4087  1.0185  0.0667
 8411SOL    HW236693   0.810   3.419   7.443  0.9274  0.1699  0.2058
 8412SOL     OW36694   1.262   2.891   1.807 -0.0750  0.3949  0.0106
 8412SOL    HW136695   1.345   2.848   1.786 -0.6509 -1.3439  1.2981
 8412SOL    HW236696   1.206   2.815   1.791 -2.1861  1.9284  0.0898
 8413SOL     OW36697   0.854   1.221   1.695  0.7717  0.1960 -0.0971
 8413SOL    HW136698   0.940   1.230   1.653  0.7433 -0.3298 -0.2749
 8413SOL    HW236699   0.789   1.251   1.631 -0.2303  0.6491  1.1474
 8414SOL     OW36700   3.261   3.524   9.588 -0.3409 -0.7795 -0.6601
 8414SOL    HW136701   3.353   3.509   9.568 -0.8400 -1.5502 -2.4612
 8414SOL    HW236702   3.256   3.449   9.647  0.7858  0.2293  0.6939
 8415SOL     OW36703   3.552   3.476   0.873 -0.0420 -0.1420 -0.3767
 8415SOL    HW136704   3.485   3.462   0.939  0.4890  0.6278  0.3222
 8415SOL    HW236705   3.511   3.538   0.813  1.8713  0.2592 -1.2549
 8416SOL     OW36706   4.710   3.887   8.911  0.0281 -0.2318  0.4908
 8416SOL    HW136707   4.627   3.841   8.914 -0.2471  0.1343 -1.6886
 8416SOL    HW236708   0.045   3.825   8.956  0.8844 -2.1304 -3.2393
 8417SOL     OW36709   2.673   4.199  14.287 -0.2997  0.3381 -0.3651
 8417SOL    HW136710   2.580   4.177  14.275 -0.8562  2.0090  0.8136
 8417SOL    HW236711   2.703   4.183  14.198 -0.8945  0.6784 -0.6330
 8418SOL     OW36712   3.463   3.848   5.095 -0.3026  0.4763 -0.4631
 8418SOL    HW136713   3.454   3.758   5.129 -0.0708  0.0121 -1.6508
 8418SOL    HW236714   3.541   3.831   5.042  1.3430  1.4825  1.6297
 8419SOL     OW36715   1.580   0.190   9.998  0.2405  0.7878  0.2731
 8419SOL    HW136716   1.505   0.242   9.971  0.6946  0.7698 -1.0436
 8419SOL    HW236717   1.635   0.180   9.920  2.0208  3.1824  1.2452
 8420SOL     OW36718   4.632   2.329   9.929  0.0319  0.7862  0.6242
 8420SOL    HW136719   4.634   2.386  10.006 -1.4895  0.1809  1.1121
 8420SOL    HW236720   4.711   2.354   9.880  1.2354 -0.1064  2.1351
 8421SOL     OW36721   4.087   0.763   6.692  0.0983  0.1773 -0.1928
 8421SOL    HW136722   4.122   0.697   6.632  0.8881  1.8524 -1.5543
 8421SOL    HW236723   4.080   0.718   6.777 -2.4255 -1.6705 -1.3755
 8422SOL     OW36724   1.679   4.380   6.924  0.0304 -0.1388  0.0219
 8422SOL    HW136725   1.587   4.372   6.950 -0.1299  2.3202  0.2587
 8422SOL    HW236726   1.696   4.474   6.922  2.3511 -0.6130 -2.1984
 8423SOL     OW36727   2.133   4.671   6.956  0.6838  0.4750 -0.1346
 8423SOL    HW136728   2.119   4.593   6.901  2.1500  0.7952 -0.9620
 8423SOL    HW236729   2.043   4.695   6.975 -0.3566 -2.6622 -0.9745
 8424SOL     OW36730   3.150   2.792   0.027  0.1382  0.2954  0.1075
 8424SOL    HW136731   3.215   2.762  17.660 -0.6996  1.1977 -1.1960
 8424SOL    HW236732   3.183   2.882   0.031  1.2458 -0.0613 -1.0026
 8425SOL     OW36733   0.521   3.459   8.186  0.3575 -0.3545 -0.1084
 8425SOL    HW136734   0.605   3.483   8.146  0.2732  0.7477  0.3646
 8425SOL    HW236735   0.522   3.364   8.178 -1.4464 -0.2923 -1.1061
 8426SOL     OW36736   3.337   1.408   7.727 -0.0719  0.3904  0.0730
 8426SOL    HW136737   3.310   1.455   7.648  0.4320  0.7124  0.0985
 8426SOL    HW236738   3.415   1.375   7.683  0.7093  0.8319  1.1590
 8427SOL     OW36739   3.755   1.901  17.194 -0.2978 -0.0032  0.0030
 8427SOL    HW136740   3.692   1.867  17.131 -0.6505 -1.2671  1.0592
 8427SOL    HW236741   3.706   1.934  17.269  2.5830  1.4769  1.2556
 8428SOL     OW36742   1.702   1.067  11.724  0.2780  0.4846 -0.2966
 8428SOL    HW136743   1.649   1.128  11.774 -2.1111 -2.3182  0.6290
 8428SOL    HW236744   1.741   1.112  11.649 -1.9599  0.1608 -1.6653
 8429SOL     OW36745   3.612   4.195  16.549 -0.5976 -0.2231 -0.0306
 8429SOL    HW136746   3.550   4.261  16.518  0.5082  0.8421  0.0180
 8429SOL    HW236747   3.558   4.149  16.613  2.2701 -1.4530  1.5238
 8430SOL     OW36748   0.710   3.943  15.174  0.3544  0.0548  0.0528
 8430SOL    HW136749   0.719   3.855  15.212 -0.0595 -0.7570 -1.7250
 8430SOL    HW236750   0.776   3.982  15.231 -0.4245 -2.0471  2.3978
 8431SOL     OW36751   1.304   1.028   2.573 -0.0626 -0.3478  0.2836
 8431SOL    HW136752   1.281   1.106   2.523  0.7172  0.3824  1.0729
 8431SOL    HW236753   1.339   0.968   2.507  0.5379 -0.7640  0.9750
 8432SOL     OW36754   3.690   4.299   9.243 -0.3785  0.4885  0.2008
 8432SOL    HW136755   3.644   4.311   9.327  0.3473  1.3021  0.4850
 8432SOL    HW236756   3.746   4.376   9.247 -1.5654  1.3782 -0.3212
 8433SOL     OW36757   3.803   1.844   7.025 -0.4168  0.1744 -0.5463
 8433SOL    HW136758   3.837   1.766   6.981  0.6232  0.8482 -0.9444
 8433SOL    HW236759   3.806   1.913   6.958  0.1203  2.1599  1.5329
 8434SOL     OW36760   3.917   2.259  15.046 -0.0894  0.3628 -0.2979
 8434SOL    HW136761   3.921   2.310  15.127 -0.6310  0.5828 -0.4057
 8434SOL    HW236762   3.864   2.190  15.086  0.1756  1.5593  2.1160
 8435SOL     OW36763   2.091   4.366   0.382 -0.1212  0.5613 -0.0185
 8435SOL    HW136764   2.044   4.305   0.326 -0.7798 -0.5046  1.6911
 8435SOL    HW236765   2.052   4.449   0.356  0.4949  0.7701 -0.2778
 8436SOL     OW36766   2.971   4.585   8.837  0.2337  0.0057  0.0123
 8436SOL    HW136767   3.062   4.558   8.839  1.2479  3.7188  3.5523
 8436SOL    HW236768   2.969   4.602   8.743  1.6509 -0.1185 -0.0289
 8437SOL     OW36769   2.327   1.093   2.278  0.6031  0.0203 -0.3351
 8437SOL    HW136770   2.355   1.011   2.237  1.7747  0.9148 -1.3251
 8437SOL    HW236771   2.239   1.076   2.312  0.5744 -0.6345 -0.7434
 8438SOL     OW36772   2.337   0.007   6.581 -0.2332  0.2032 -0.1630
 8438SOL    HW136773   2.407   4.708   6.520  0.7717  3.2820 -0.1242
 8438SOL    HW236774   2.385   0.021   6.663 -0.2726  0.7504 -0.2345
 8439SOL     OW36775   3.239   2.922  17.189 -0.1984  0.1139  0.2625
 8439SOL    HW136776   3.286   2.902  17.108 -1.2794  1.3352 -0.6516
 8439SOL    HW236777   3.303   2.976  17.235  0.6661 -0.3571 -0.3845
 8440SOL     OW36778   0.125   1.228   3.755  0.1384 -0.2698  0.5744
 8440SOL    HW136779   0.104   1.258   3.843 -3.1711 -0.4679 -0.1583
 8440SOL    HW236780   0.220   1.240   3.746 -0.0984  0.3677 -0.9042
 8441SOL     OW36781   4.264   0.366   4.314  0.0043 -0.1416 -0.3384
 8441SOL    HW136782   4.329   0.298   4.332  0.3045 -0.1625 -1.4823
 8441SOL    HW236783   4.317   0.438   4.278 -0.4537 -0.0873 -0.9161
 8442SOL     OW36784   0.036   2.683  13.342  0.0730 -0.2519  0.3099
 8442SOL    HW136785   4.712   2.672  13.424  1.9489  0.7025  1.5346
 8442SOL    HW236786   4.692   2.714  13.281  0.9786  0.3537 -0.3912
 8443SOL     OW36787   1.232   0.230   9.682 -0.1968 -0.3188 -0.1628
 8443SOL    HW136788   1.326   0.237   9.668 -0.0626 -1.9254 -0.0224
 8443SOL    HW236789   1.226   0.158   9.745  0.0003  0.1259  0.3571
 8444SOL     OW36790   3.958   1.589   3.298 -0.2314  0.1515 -0.2985
 8444SOL    HW136791   3.864   1.597   3.280 -0.0854  0.6378 -0.8220
 8444SOL    HW236792   3.981   1.681   3.290 -1.3797  0.1856 -3.0444
 8445SOL     OW36793   3.266   0.863  17.665  0.5320 -0.1564 -0.4778
 8445SOL    HW136794   3.336   0.923  17.691  1.1109 -0.2861 -1.7373
 8445SOL    HW236795   3.278   0.883  17.572  0.2648 -0.3558 -0.5553
 8446SOL     OW36796   1.382   0.675   7.064  0.2329  0.1025 -0.1724
 8446SOL    HW136797   1.410   0.761   7.097 -1.6032  0.2858  0.9214
 8446SOL    HW236798   1.292   0.696   7.038 -0.4272 -1.8275  0.5649
 8447SOL     OW36799   0.084   0.724  13.496  0.3024  0.1468  0.4026
 8447SOL    HW136800   0.169   0.712  13.454 -0.2015  0.1248 -0.6053
 8447SOL    HW236801   0.056   0.634  13.510 -0.8083  0.5216  0.6161
 8448SOL     OW36802   2.006   0.054   2.518 -0.0235 -0.1998  0.6027
 8448SOL    HW136803   2.047   0.118   2.576  0.8342 -0.5420  0.3765
 8448SOL    HW236804   1.913   0.078   2.521 -0.0267 -0.4566  2.7625
 8449SOL     OW36805   4.409   3.284  12.978 -0.1023 -0.1706 -0.0224
 8449SOL    HW136806   4.373   3.354  13.033 -0.1454 -0.1473 -0.0809
 8449SOL    HW236807   4.362   3.299  12.896  0.3648 -0.6204 -0.3757
 8450SOL     OW36808   1.587   3.076   2.312 -0.5074  0.0652 -0.1133
 8450SOL    HW136809   1.578   3.027   2.394  1.3628  1.2169  0.7888
 8450SOL    HW236810   1.656   3.022   2.273 -0.9308 -0.7805  0.2868
 8451SOL     OW36811   1.899   1.224  16.745 -0.4858 -0.0855 -0.7917
 8451SOL    HW136812   1.959   1.217  16.818 -0.5827 -2.0184 -0.8993
 8451SOL    HW236813   1.823   1.175  16.777  0.1057  0.8347  1.9802
 8452SOL     OW36814   3.866   1.737   4.080 -0.4846  0.3308 -0.3673
 8452SOL    HW136815   3.787   1.700   4.041 -0.5794  2.6864 -2.3335
 8452SOL    HW236816   3.832   1.764   4.166  1.9508  1.1981  0.3430
 8453SOL     OW36817   0.431   0.683   1.577 -0.0835  0.7081  0.7632
 8453SOL    HW136818   0.389   0.745   1.518  0.8505  0.1459 -0.4781
 8453SOL    HW236819   0.514   0.675   1.530 -1.2168 -0.8480 -0.9676
 8454SOL     OW36820   3.120   3.903   3.633  0.5108  0.4395 -0.0129
 8454SOL    HW136821   3.111   3.849   3.554  0.6471  0.8270 -0.2946
 8454SOL    HW236822   3.174   3.976   3.603 -1.1653  1.6118 -0.1736
 8455SOL     OW36823   0.207   4.090   5.234  0.4688  0.5545  0.3289
 8455SOL    HW136824   0.222   4.173   5.279  2.8144  0.2313  0.1454
 8455SOL    HW236825   0.299   4.068   5.220 -0.3264 -1.1720 -2.2558
 8456SOL     OW36826   3.908   3.015  13.508  0.0907  0.7763  0.1701
 8456SOL    HW136827   3.891   2.982  13.420 -0.8288  0.9039  0.2988
 8456SOL    HW236828   3.967   3.089  13.491  0.2358  0.7623  0.6223
 8457SOL     OW36829   0.709   3.880   2.440  0.5588  0.4520 -0.0939
 8457SOL    HW136830   0.733   3.793   2.472  0.1308 -0.4146 -2.1317
 8457SOL    HW236831   0.797   3.909   2.414  1.7582 -3.7537 -0.8064
 8458SOL     OW36832   2.497   3.700   4.545  0.5553 -0.7866 -0.2236
 8458SOL    HW136833   2.525   3.630   4.486  0.5212 -1.2678  0.3326
 8458SOL    HW236834   2.422   3.744   4.507  1.1500  1.7889  1.6135
 8459SOL     OW36835   0.720   2.728   2.098  0.2044  0.1337  0.5033
 8459SOL    HW136836   0.708   2.796   2.163  0.1671  0.1011  0.5303
 8459SOL    HW236837   0.798   2.682   2.131  0.3900 -0.8175 -1.2579
 8460SOL     OW36838   2.717   4.598   2.519  0.0647  0.3573  0.3779
 8460SOL    HW136839   2.696   4.618   2.428 -0.4304  1.6265  0.7740
 8460SOL    HW236840   2.705   4.503   2.517 -2.0050  0.6000  0.7445
 8461SOL     OW36841   3.938   3.142   7.142 -0.2662  0.3948 -0.2243
 8461SOL    HW136842   3.936   3.108   7.231 -0.9739  2.2150  0.4411
 8461SOL    HW236843   3.958   3.234   7.160  1.9292 -0.3253  1.0249
 8462SOL     OW36844   4.118   4.349   6.681 -0.0306 -0.4960  0.1122
 8462SOL    HW136845   4.117   4.417   6.613  3.3291 -1.5765 -0.9876
 8462SOL    HW236846   4.124   4.395   6.765  1.9647 -1.4107  0.4619
 8463SOL     OW36847   1.708   3.523   4.788 -0.1468  0.6886 -0.3940
 8463SOL    HW136848   1.721   3.584   4.860  0.2055  1.2237 -0.9111
 8463SOL    HW236849   1.790   3.474   4.795 -2.0167 -2.4267 -0.4134
 8464SOL     OW36850   3.916   1.551   6.732  0.0520 -0.0150 -0.2410
 8464SOL    HW136851   3.915   1.646   6.720  0.5137  0.3208  2.3079
 8464SOL    HW236852   3.957   1.515   6.654 -0.2765  0.7018 -0.7448
 8465SOL     OW36853   2.828   4.596  16.422 -0.9177  0.0380 -0.0208
 8465SOL    HW136854   2.868   4.562  16.342 -2.5082  0.0196 -0.8218
 8465SOL    HW236855   2.773   4.521  16.443  1.0207 -1.0697  0.9926
 8466SOL     OW36856   3.975   2.948   3.589  0.5451 -0.0018 -0.3283
 8466SOL    HW136857   3.927   3.030   3.580 -0.5414 -0.7836 -1.5965
 8466SOL    HW236858   4.000   2.924   3.500 -1.0877 -4.0075  0.2812
 8467SOL     OW36859   2.563   2.166  15.897 -0.3288  0.8327  0.0612
 8467SOL    HW136860   2.569   2.080  15.939 -1.8059  0.4247 -0.5564
 8467SOL    HW236861   2.473   2.160  15.867 -0.8329 -0.3620  1.7793
 8468SOL     OW36862   1.562   0.071   6.969  0.0730 -0.3491  0.1837
 8468SOL    HW136863   1.507   0.125   6.912 -1.0442 -0.3377  1.2639
 8468SOL    HW236864   1.521   0.090   7.054  0.8368  1.2340  0.2114
 8469SOL     OW36865   4.198   1.400   9.674  0.2980 -0.3145 -0.2044
 8469SOL    HW136866   4.238   1.434   9.753  1.9061  0.1895 -1.2409
 8469SOL    HW236867   4.245   1.318   9.657  1.8501  0.6490 -0.5077
 8470SOL     OW36868   0.773   0.594  14.251  0.0291  0.5609  0.3719
 8470SOL    HW136869   0.787   0.556  14.164 -0.6801  0.8099  0.1483
 8470SOL    HW236870   0.682   0.618  14.233 -0.6945 -2.1997  0.2338
 8471SOL     OW36871   2.967   0.084   4.248  0.3836 -0.1504 -0.0177
 8471SOL    HW136872   2.909   0.043   4.313 -1.4857  0.9195 -1.0161
 8471SOL    HW236873   2.900   0.142   4.211 -1.6546 -2.2996  0.2959
 8472SOL     OW36874   2.398   4.318  16.687 -0.0505 -0.3678  0.3409
 8472SOL    HW136875   2.320   4.340  16.637  1.1755 -1.1083 -1.8947
 8472SOL    HW236876   2.402   4.223  16.685 -3.5440 -0.4955 -0.9198
 8473SOL     OW36877   2.828   1.669  12.916  0.2319  0.5484 -0.2023
 8473SOL    HW136878   2.793   1.757  12.906 -2.0609 -0.3713 -0.3198
 8473SOL    HW236879   2.900   1.686  12.977  0.1769 -0.1714  0.0690
 8474SOL     OW36880   2.584   3.610  15.480 -0.4665 -0.0125  0.5713
 8474SOL    HW136881   2.493   3.586  15.496 -0.5508 -1.3600 -1.9255
 8474SOL    HW236882   2.616   3.628  15.568  0.0714  1.3741  0.1002
 8475SOL     OW36883   1.545   4.355   8.178 -0.0732 -0.1627 -0.2579
 8475SOL    HW136884   1.598   4.375   8.255  1.1488 -1.3057 -0.7901
 8475SOL    HW236885   1.465   4.405   8.189 -0.5303 -0.7910 -0.7490
 8476SOL     OW36886   1.079   0.584   3.463  0.3286 -0.6015 -0.0797
 8476SOL    HW136887   1.084   0.493   3.432  1.3628 -0.7886  0.6235
 8476SOL    HW236888   1.133   0.624   3.394 -0.1112 -0.1317 -0.1491
 8477SOL     OW36889   4.638   1.867  12.070 -0.0299  0.4817  0.2922
 8477SOL    HW136890   4.662   1.863  11.978  0.1412 -0.0515  0.3563
 8477SOL    HW236891   4.628   1.773  12.089 -2.0628  0.7138  0.3662
 8478SOL     OW36892   0.721   3.449  10.703  0.1475  0.3871 -0.2811
 8478SOL    HW136893   0.742   3.514  10.636 -2.7594  0.9756 -0.6219
 8478SOL    HW236894   0.792   3.387  10.688 -1.8984 -1.5042 -2.1522
 8479SOL     OW36895   1.498   0.467  16.082  0.1294  0.0907 -0.4816
 8479SOL    HW136896   1.569   0.419  16.124  0.2083 -0.8324 -1.6786
 8479SOL    HW236897   1.438   0.396  16.056 -1.8622  0.5320  2.9642
 8480SOL     OW36898   4.495   3.162   2.480 -0.1071 -0.9968  0.3973
 8480SOL    HW136899   4.427   3.135   2.542 -0.0576 -1.2019  0.3608
 8480SOL    HW236900   4.443   3.182   2.403 -1.2073  0.1693  1.4375
 8481SOL     OW36901   0.838   1.008  10.919  0.1910  0.1835  0.2476
 8481SOL    HW136902   0.797   0.923  10.936 -1.0679  0.9763  1.1879
 8481SOL    HW236903   0.848   1.003  10.824  0.4943  1.6552  0.2055
 8482SOL     OW36904   4.548   0.022  11.007 -0.1409  0.0350  0.0788
 8482SOL    HW136905   4.578   0.104  11.047 -0.8261  1.1405 -1.6404
 8482SOL    HW236906   4.615   0.005  10.940  0.0868  2.9636 -0.4566
 8483SOL     OW36907   3.480   0.474   7.805 -0.7036 -0.2785 -0.0183
 8483SOL    HW136908   3.433   0.394   7.827  1.7477 -1.6540  0.2983
 8483SOL    HW236909   3.500   0.463   7.711 -1.3410  2.8176 -0.5016
 8484SOL     OW36910   2.113   4.034   7.153 -0.0057  0.1756 -0.3862
 8484SOL    HW136911   2.143   4.064   7.239  0.2441 -0.7198 -0.1659
 8484SOL    HW236912   2.090   4.117   7.110  0.2679 -0.3816 -1.6142
 8485SOL     OW36913   3.095   2.546   1.245  0.7157  0.5324 -0.1066
 8485SOL    HW136914   3.028   2.507   1.301  0.1254  0.4420 -0.8717
 8485SOL    HW236915   3.172   2.542   1.302  0.0330  0.8215  0.8161
 8486SOL     OW36916   0.201   3.018   8.766  0.0019 -0.1493 -0.1348
 8486SOL    HW136917   0.216   2.963   8.843  3.1411 -0.1572 -0.7719
 8486SOL    HW236918   0.136   3.075   8.807  0.5429 -0.5555  1.3216
 8487SOL     OW36919   0.476   0.142   7.282  0.2503 -0.9612 -0.0471
 8487SOL    HW136920   0.486   0.125   7.375  0.1836  3.0865  0.6742
 8487SOL    HW236921   0.471   0.237   7.287 -0.8281 -0.9915 -0.4130
 8488SOL     OW36922   0.727   2.072  10.080  0.1291 -0.5304  0.3818
 8488SOL    HW136923   0.796   2.023  10.125 -0.1817 -1.8632 -0.5929
 8488SOL    HW236924   0.738   2.157  10.124  0.2523  0.3827 -1.4032
 8489SOL     OW36925   0.632   3.353  12.596  0.4687  0.1476 -0.7442
 8489SOL    HW136926   0.722   3.343  12.566  0.2909 -2.9184 -0.2009
 8489SOL    HW236927   0.630   3.443  12.631  3.5202  0.6182 -1.7985
 8490SOL     OW36928   2.519   3.891  16.730  0.2548  0.3674  0.2278
 8490SOL    HW136929   2.503   3.837  16.652 -2.0915 -1.2928  1.8474
 8490SOL    HW236930   2.610   3.916  16.713  0.6431  0.2581  2.1697
 8491SOL     OW36931   1.517   0.544   1.456 -0.0207  0.1102 -0.2027
 8491SOL    HW136932   1.442   0.599   1.479  0.3186 -0.1121  1.4493
 8491SOL    HW236933   1.521   0.482   1.528 -0.0084 -0.5016 -0.7268
 8492SOL     OW36934   2.900   4.044   7.824 -0.3394  0.5137  0.3758
 8492SOL    HW136935   2.848   4.087   7.893 -1.6718  1.1143 -1.0121
 8492SOL    HW236936   2.844   3.975   7.789  1.1931  0.1848 -1.4131
 8493SOL     OW36937   0.429   0.476   3.503 -0.1422  0.3261 -0.2755
 8493SOL    HW136938   0.470   0.496   3.419  0.4682  0.3935  0.0409
 8493SOL    HW236939   0.348   0.525   3.489 -0.3819  0.8169  2.8639
 8494SOL     OW36940   0.694   1.856   0.501 -0.2612 -0.1989  0.3323
 8494SOL    HW136941   0.648   1.940   0.492  1.2211  0.4822 -0.8430
 8494SOL    HW236942   0.765   1.872   0.439 -0.1401  0.7267  0.7052
 8495SOL     OW36943   0.608   1.217  16.159 -0.3873 -0.0402 -0.0401
 8495SOL    HW136944   0.551   1.292  16.140 -0.8887 -0.9736 -2.2413
 8495SOL    HW236945   0.643   1.232  16.247 -0.2159  1.0798 -0.2901
 8496SOL     OW36946   1.095   1.328   4.453  0.7503 -0.2870  0.1670
 8496SOL    HW136947   1.178   1.362   4.419  0.3756  1.7246  1.2263
 8496SOL    HW236948   1.043   1.409   4.455  2.0611  0.5376  0.8724
 8497SOL     OW36949   2.829   4.401  14.390  0.4644  0.2080  0.1841
 8497SOL    HW136950   2.777   4.333  14.346  1.1205 -0.5637  0.5950
 8497SOL    HW236951   2.900   4.427  14.331  2.4058 -0.7824  2.0848
 8498SOL     OW36952   2.886   4.072   9.153 -0.2785  0.0643  0.0114
 8498SOL    HW136953   2.888   4.046   9.245 -0.1694  0.8933  0.2462
 8498SOL    HW236954   2.872   3.985   9.114 -2.0588  0.3594 -0.0215
 8499SOL     OW36955   3.349   4.388   6.245 -0.2319 -0.0468 -0.4031
 8499SOL    HW136956   3.380   4.397   6.335 -1.4746 -0.2714  0.0378
 8499SOL    HW236957   3.298   4.468   6.231 -2.0043 -1.1807 -0.4148
 8500SOL     OW36958   2.706   1.484   2.910 -0.4527 -0.0066 -0.2101
 8500SOL    HW136959   2.657   1.406   2.936 -1.7732  0.3472 -1.6276
 8500SOL    HW236960   2.633   1.534   2.873 -2.3085 -1.9637  0.8446
 8501SOL     OW36961   3.387   1.184   6.241  0.4811  0.0268  0.1579
 8501SOL    HW136962   3.295   1.199   6.220 -0.1601 -0.1489  2.8122
 8501SOL    HW236963   3.384   1.168   6.335  2.0649  1.0851  0.4016
 8502SOL     OW36964   4.255   2.025   9.277 -0.0583 -0.3715 -0.1314
 8502SOL    HW136965   4.316   1.954   9.258 -1.1994 -1.1692 -0.8072
 8502SOL    HW236966   4.217   2.027   9.189 -2.4943  0.9408  0.9686
 8503SOL     OW36967   3.336   2.180   8.657 -0.7785 -0.2330 -0.2876
 8503SOL    HW136968   3.359   2.246   8.591  1.4949 -0.0798  0.6504
 8503SOL    HW236969   3.374   2.099   8.622  0.1748  0.3650 -0.6287
 8504SOL     OW36970   0.345   2.772  15.744 -0.1964 -0.2132 -0.0473
 8504SOL    HW136971   0.403   2.731  15.680 -1.4094 -0.9044 -0.6940
 8504SOL    HW236972   0.407   2.806  15.810 -0.2638  0.4493 -0.3246
 8505SOL     OW36973   2.145   0.436  16.413 -0.5829  0.1457  0.1358
 8505SOL    HW136974   2.213   0.470  16.355 -1.1354 -0.8812 -1.0968
 8505SOL    HW236975   2.190   0.363  16.456  0.7472  1.0103  0.2176
 8506SOL     OW36976   2.234   4.252   8.973  0.5271 -0.0445 -0.0495
 8506SOL    HW136977   2.143   4.241   9.001  0.4648  0.3264 -0.1040
 8506SOL    HW236978   2.241   4.344   8.950  1.7427 -0.4676 -1.3471
 8507SOL     OW36979   3.968   3.426   3.204  0.2306 -0.3851  0.2680
 8507SOL    HW136980   4.009   3.492   3.148  1.7177 -0.7445  0.9570
 8507SOL    HW236981   4.003   3.356   3.149  0.8420 -0.7767  1.1625
 8508SOL     OW36982   3.525   0.811   7.681  0.0975  0.3066 -0.0295
 8508SOL    HW136983   3.466   0.887   7.680  0.7678  0.8603  2.0560
 8508SOL    HW236984   3.591   0.832   7.614  0.0730 -0.9152 -0.4348
 8509SOL     OW36985   3.735   3.366   6.390 -0.0732  0.6051 -0.1026
 8509SOL    HW136986   3.640   3.372   6.404  0.4752  4.5199  1.8970
 8509SOL    HW236987   3.751   3.320   6.472 -0.7977  2.9170  1.3360
 8510SOL     OW36988   1.810   3.389   6.843 -0.2100  0.2256  0.0173
 8510SOL    HW136989   1.824   3.434   6.927  3.1872  0.8137 -0.8703
 8510SOL    HW236990   1.772   3.461   6.792 -0.1926  0.7375  0.7239
 8511SOL     OW36991   2.575   4.591  14.241  0.1609 -0.1945 -0.0691
 8511SOL    HW136992   2.537   4.661  14.188 -1.7084 -1.2974 -0.1881
 8511SOL    HW236993   2.503   4.557  14.295  0.6949 -3.5276 -1.4458
 8512SOL     OW36994   0.552   0.822   9.895  0.7781 -0.4543  0.0818
 8512SOL    HW136995   0.477   0.785   9.941  0.7822 -2.6081 -1.6199
 8512SOL    HW236996   0.630   0.769   9.915  1.2015  1.3705  3.1247
 8513SOL     OW36997   0.846   4.502  10.949  0.3384 -0.6317 -0.0900
 8513SOL    HW136998   0.760   4.475  10.917  0.2762 -0.2179 -0.2732
 8513SOL    HW236999   0.837   4.499  11.044  0.0451  1.2964 -0.0591
 8514SOL     OW37000   3.642   0.624   3.249 -0.4732 -0.7739 -0.8149
 8514SOL    HW137001   3.700   0.565   3.296 -1.7442 -1.1901  0.2450
 8514SOL    HW237002   3.697   0.680   3.194 -1.4124  1.0783  0.1106
 8515SOL     OW37003   0.429   2.355  12.934  0.4130 -0.0855 -0.1893
 8515SOL    HW137004   0.457   2.384  12.847  0.3100 -1.6629 -0.7493
 8515SOL    HW237005   0.472   2.271  12.951 -0.5184  0.0831  2.9336
 8516SOL     OW37006   3.423   0.324   3.023  0.1388  0.2881  0.4809
 8516SOL    HW137007   3.501   0.307   3.076  0.8238  0.1114 -0.5978
 8516SOL    HW237008   3.368   0.248   3.040  0.5742 -0.2811 -0.7217
 8517SOL     OW37009   2.726   0.846   5.597  0.2205  0.1425  0.2778
 8517SOL    HW137010   2.670   0.883   5.666 -0.0017 -0.0777  0.2121
 8517SOL    HW237011   2.799   0.803   5.642  0.8617  0.4148 -0.4973
 8518SOL     OW37012   2.805   0.590   7.814  0.7139 -0.0420 -0.1648
 8518SOL    HW137013   2.828   0.569   7.904 -2.2944 -1.5035  0.2502
 8518SOL    HW237014   2.852   0.673   7.802  1.8392 -0.5737  0.6015
 8519SOL     OW37015   3.337   2.720   3.515 -0.5145 -0.0761  0.1079
 8519SOL    HW137016   3.360   2.810   3.493 -0.6852 -0.3588 -1.2242
 8519SOL    HW237017   3.408   2.679   3.563  1.0244  1.3435 -0.9576
 8520SOL     OW37018   4.599   3.386  16.576 -0.6237 -0.1387 -0.7807
 8520SOL    HW137019   4.508   3.367  16.553 -0.5143  1.3010 -2.4092
 8520SOL    HW237020   4.608   3.322  16.648  3.2679  0.3673 -0.8125
 8521SOL     OW37021   2.674   1.527   6.452  0.1287 -0.1091  0.9942
 8521SOL    HW137022   2.650   1.436   6.464 -2.7316  0.3105 -1.4639
 8521SOL    HW237023   2.679   1.520   6.357  0.2254  0.7947  0.9265
 8522SOL     OW37024   3.544   1.881   3.106  0.0518  0.4679 -0.2803
 8522SOL    HW137025   3.538   1.790   3.077  0.3431 -0.8764  3.9243
 8522SOL    HW237026   3.468   1.892   3.163  0.1791  0.8788 -0.1877
 8523SOL     OW37027   1.521   3.559   6.021  0.4600 -0.1793 -0.5092
 8523SOL    HW137028   1.469   3.592   5.948 -1.1264  1.6604  1.4325
 8523SOL    HW237029   1.569   3.638   6.048  0.5662 -1.1283  2.1049
 8524SOL     OW37030   4.624   4.206   4.297  0.0741  0.4389 -0.0118
 8524SOL    HW137031   4.693   4.146   4.323 -0.2737 -0.2238 -0.6070
 8524SOL    HW237032   4.630   4.183   4.204 -1.8585 -0.0759 -0.0053
 8525SOL     OW37033   2.378   4.682   7.525 -0.6323 -0.3440 -0.0859
 8525SOL    HW137034   2.295   4.635   7.522 -1.0428  0.3945 -0.2752
 8525SOL    HW237035   2.366   0.034   7.468 -0.3283 -0.5635 -0.4410
 8526SOL     OW37036   3.570   0.120   7.674  0.6655 -0.2528 -0.4755
 8526SOL    HW137037   3.657   0.137   7.709  1.2626 -2.4181 -0.9040
 8526SOL    HW237038   3.513   0.166   7.736  0.0659 -0.1282 -1.1208
 8527SOL     OW37039   0.107   3.776   3.360  0.5032 -0.2657  0.0237
 8527SOL    HW137040   0.182   3.792   3.302  2.2575  0.1670  2.4025
 8527SOL    HW237041   0.053   3.837   3.311 -0.5902  0.3230  1.9829
 8528SOL     OW37042   2.983   1.425  10.142  0.0392 -0.8203 -0.4215
 8528SOL    HW137043   2.939   1.465  10.068  0.7953  2.8036  1.1268
 8528SOL    HW237044   3.072   1.455  10.126 -1.4468  2.1140 -3.0329
 8529SOL     OW37045   1.752   3.622  17.236 -0.3563 -0.2014 -0.2312
 8529SOL    HW137046   1.769   3.583  17.150 -3.0231  1.2405 -1.4342
 8529SOL    HW237047   1.658   3.606  17.245 -0.1487 -2.1685 -1.5920
 8530SOL     OW37048   0.938   2.947   5.766 -0.0078 -0.0482  0.0236
 8530SOL    HW137049   1.021   2.948   5.719 -1.1945 -0.7269 -2.0647
 8530SOL    HW237050   0.893   2.889   5.705 -2.3101 -0.0029  1.6714
 8531SOL     OW37051   2.835   3.202   5.463 -0.4509  0.1116 -0.0248
 8531SOL    HW137052   2.818   3.146   5.387  0.7497  0.3007 -0.4357
 8531SOL    HW237053   2.872   3.146   5.531  1.1921 -2.0761 -2.7006
 8532SOL     OW37054   0.947   1.555   8.984 -0.2430  0.4450  0.4282
 8532SOL    HW137055   0.976   1.508   8.905  0.0118 -1.0103  1.3881
 8532SOL    HW237056   0.936   1.645   8.953 -1.4057 -0.0027 -0.4734
 8533SOL     OW37057   4.303   0.243   1.793 -0.2075  0.5709 -0.1739
 8533SOL    HW137058   4.273   0.302   1.863 -0.3843  0.7094 -0.3653
 8533SOL    HW237059   4.356   0.180   1.842  0.2190  1.4017  0.4443
 8534SOL     OW37060   0.705   4.396   6.558  0.8292 -0.3311  0.3760
 8534SOL    HW137061   0.686   4.489   6.566  0.2373 -0.5876  1.9398
 8534SOL    HW237062   0.628   4.359   6.602  0.3913 -0.3170 -0.3889
 8535SOL     OW37063   2.832   4.099   6.531 -0.2735 -0.2642  0.8681
 8535SOL    HW137064   2.924   4.118   6.547 -0.0672 -2.2060  2.0531
 8535SOL    HW237065   2.784   4.180   6.515 -0.6375 -0.4069  1.2356
 8536SOL     OW37066   3.787   0.521   2.193 -0.5721 -0.5135  0.1313
 8536SOL    HW137067   3.751   0.578   2.260  0.6555 -0.8299  1.0389
 8536SOL    HW237068   3.754   0.559   2.111  0.2980  0.0617  0.0588
 8537SOL     OW37069   4.505   0.040   7.713 -0.4776  0.5456 -0.9208
 8537SOL    HW137070   4.516   4.687   7.769 -2.4626  0.5224 -0.5514
 8537SOL    HW237071   4.456   4.723   7.641 -3.2077  0.9514  0.6964
 8538SOL     OW37072   0.257   0.647   8.018 -0.2440  0.2342 -0.2235
 8538SOL    HW137073   0.292   0.623   8.104  0.1568 -0.9929 -0.7369
 8538SOL    HW237074   0.163   0.657   8.034  0.3710  2.4438  2.1055
 8539SOL     OW37075   2.867   4.516   3.288 -0.5336 -0.4234  0.1731
 8539SOL    HW137076   2.876   4.611   3.299 -0.4684 -0.4627  0.4655
 8539SOL    HW237077   2.864   4.510   3.193  2.5070 -0.0241  0.0562
 8540SOL     OW37078   3.672   2.200  15.932 -0.6695  0.1126 -0.5145
 8540SOL    HW137079   3.764   2.222  15.948 -0.5889  2.1293 -3.8212
 8540SOL    HW237080   3.669   2.109  15.904  0.4363 -0.1016  0.0741
 8541SOL     OW37081   1.340   0.932  14.543  0.6688 -0.5783  0.4010
 8541SOL    HW137082   1.283   0.864  14.506 -1.6465  0.4773  2.0026
 8541SOL    HW237083   1.408   0.958  14.481  1.9828 -0.3477  1.9458
 8542SOL     OW37084   4.215   1.414   8.696 -0.3138  0.8765  0.1491
 8542SOL    HW137085   4.217   1.510   8.704 -1.8621  1.0668 -1.7526
 8542SOL    HW237086   4.125   1.396   8.669  0.7267 -3.0785 -0.6327
 8543SOL     OW37087   2.104   0.647   3.821 -0.3079  0.0188  0.0269
 8543SOL    HW137088   2.080   0.730   3.779  0.0707  1.3737  2.4497
 8543SOL    HW237089   2.198   0.643   3.806 -0.3312  1.6711 -0.5970
 8544SOL     OW37090   2.063   2.252   7.714  0.0813  0.3748 -0.0284
 8544SOL    HW137091   2.048   2.334   7.667  0.9334 -0.5121 -1.8643
 8544SOL    HW237092   2.043   2.276   7.805 -0.1240  0.1199 -0.0042
 8545SOL     OW37093   0.492   2.299  15.839 -0.5691  0.4203  0.6405
 8545SOL    HW137094   0.417   2.302  15.898 -0.0746  1.2707  1.2306
 8545SOL    HW237095   0.533   2.213  15.835 -0.1227  0.6485  0.2827
 8546SOL     OW37096   3.929   3.349  12.105 -0.0898 -0.1395 -0.2331
 8546SOL    HW137097   4.014   3.356  12.147 -0.2023  0.2834 -0.0707
 8546SOL    HW237098   3.906   3.440  12.085  1.1698  0.2620  0.1614
 8547SOL     OW37099   3.406   2.105   3.547  0.1021  0.6008  0.0099
 8547SOL    HW137100   3.420   2.191   3.508 -0.4672  1.5235  1.8786
 8547SOL    HW237101   3.494   2.069   3.532 -0.2245 -0.8487  1.6244
 8548SOL     OW37102   3.823   1.434  16.777  0.4377 -0.1817  0.3276
 8548SOL    HW137103   3.779   1.513  16.808 -0.1035 -0.7916  1.1218
 8548SOL    HW237104   3.863   1.473  16.699  0.7538  1.2083  1.1871
 8549SOL     OW37105   3.228   2.104   9.614 -0.4530  0.3708 -0.4751
 8549SOL    HW137106   3.265   2.087   9.527 -0.7999  0.7765 -0.7056
 8549SOL    HW237107   3.246   2.198   9.618 -0.2909  0.2813  0.8168
 8550SOL     OW37108   2.590   2.865   4.272  0.7104 -0.0971 -0.3950
 8550SOL    HW137109   2.584   2.788   4.216 -0.3036 -0.1942 -0.1503
 8550SOL    HW237110   2.678   2.856   4.309  0.5273  1.4442  0.4508
 8551SOL     OW37111   3.370   1.934   6.052  0.4682  0.6654  0.4162
 8551SOL    HW137112   3.352   2.011   6.106 -1.6560 -1.7393  3.1616
 8551SOL    HW237113   3.397   1.974   5.969  0.8050 -0.8646 -0.2095
 8552SOL     OW37114   4.626   3.016   3.892 -0.4552 -0.0960  0.4956
 8552SOL    HW137115   4.567   3.027   3.818  1.1361  1.2475 -0.5600
 8552SOL    HW237116   4.575   3.044   3.968  0.4950 -1.0063  1.4924
 8553SOL     OW37117   1.685   3.682   7.651  0.3119  0.3557 -0.1062
 8553SOL    HW137118   1.619   3.748   7.630  0.7572  0.7627 -0.2101
 8553SOL    HW237119   1.746   3.732   7.704  0.7599  1.6671 -1.8630
 8554SOL     OW37120   1.734   4.240   2.624  0.3460 -0.4915 -0.2092
 8554SOL    HW137121   1.776   4.250   2.538 -0.0803 -1.5638 -0.5345
 8554SOL    HW237122   1.715   4.329   2.651  0.1072 -1.2787  2.1543
 8555SOL     OW37123   1.573   3.481   3.858 -0.1086  0.1774  0.2765
 8555SOL    HW137124   1.513   3.553   3.875  0.3459  0.8291 -0.8992
 8555SOL    HW237125   1.516   3.403   3.855  0.3246 -0.1409  0.3359
 8556SOL     OW37126   3.329   3.810   9.635  0.0379 -0.2200  0.3801
 8556SOL    HW137127   3.285   3.725   9.628 -2.8606  1.2971  0.2729
 8556SOL    HW237128   3.251   3.861   9.656  0.1527  0.1947 -0.1702
 8557SOL     OW37129   0.704   2.927   9.035  0.6829 -0.2613 -0.0554
 8557SOL    HW137130   0.647   2.900   8.963 -1.9368 -1.7680  2.5461
 8557SOL    HW237131   0.745   3.000   8.988  0.3869 -1.1646 -1.6951
 8558SOL     OW37132   2.425   3.231   6.584  0.2330 -0.6030 -0.2888
 8558SOL    HW137133   2.500   3.250   6.641 -0.2041  0.1453  0.0424
 8558SOL    HW237134   2.363   3.198   6.649  1.7409 -0.4722  1.2283
 8559SOL     OW37135   2.450   3.144  13.715 -0.3528  0.5451 -0.1288
 8559SOL    HW137136   2.501   3.223  13.733 -2.7190  2.0735 -0.1847
 8559SOL    HW237137   2.438   3.116  13.806 -1.7162 -0.0071 -0.4770
 8560SOL     OW37138   3.772   0.836   3.983  0.2282 -0.1753 -0.7272
 8560SOL    HW137139   3.779   0.857   4.076  5.2210 -0.8515 -0.9403
 8560SOL    HW237140   3.680   0.810   3.982  0.2066 -0.0888 -0.9124
 8561SOL     OW37141   2.105   4.059   2.857 -0.2593  0.4441 -0.2444
 8561SOL    HW137142   2.166   3.993   2.824 -0.0374  0.5918 -0.1307
 8561SOL    HW237143   2.068   4.092   2.776  0.9694  0.3861 -0.8244
 8562SOL     OW37144   0.264   1.164  14.821  0.2509  0.0189 -0.0753
 8562SOL    HW137145   0.175   1.165  14.786  0.4777 -0.1428 -0.6712
 8562SOL    HW237146   0.258   1.241  14.877 -0.7220  0.6809 -1.0940
 8563SOL     OW37147   0.740   1.309  15.706  0.8990 -0.4049 -0.6677
 8563SOL    HW137148   0.687   1.389  15.699  0.8815 -0.3354  0.3662
 8563SOL    HW237149   0.697   1.261  15.635  0.9489  0.5098 -1.3323
 8564SOL     OW37150   4.322   0.572   9.175 -0.1025 -0.1568  0.3930
 8564SOL    HW137151   4.414   0.561   9.151  0.1796 -0.5976  1.7076
 8564SOL    HW237152   4.326   0.568   9.270 -1.7446 -0.7548  0.4363
 8565SOL     OW37153   0.289   2.180  14.573 -0.1355 -0.2670  0.3716
 8565SOL    HW137154   0.380   2.210  14.568 -0.6695  1.8718  3.3510
 8565SOL    HW237155   0.230   2.254  14.558 -0.9267 -0.9139  0.2543
 8566SOL     OW37156   0.016   2.286  13.273  0.7634 -0.7984 -0.0810
 8566SOL    HW137157   4.723   2.231  13.349  0.4924  1.1079  1.2274
 8566SOL    HW237158   4.657   2.277  13.225  0.3543  3.3567 -0.1511
 8567SOL     OW37159   1.973   4.599  16.216 -0.0539  0.1489 -0.1199
 8567SOL    HW137160   2.003   4.559  16.134  1.0621 -2.2607  1.4549
 8567SOL    HW237161   1.911   4.534  16.250 -1.8390  0.5251 -2.6201
 8568SOL     OW37162   4.073   1.053   5.353  0.0909 -0.4661 -0.3200
 8568SOL    HW137163   4.149   1.062   5.296  0.2609 -0.2502 -0.0576
 8568SOL    HW237164   4.007   1.023   5.290 -1.6103  1.2756  0.6424
 8569SOL     OW37165   1.959   3.066   5.388  0.0811  0.7111 -0.0871
 8569SOL    HW137166   1.935   2.975   5.371  1.8965 -0.0118  1.2600
 8569SOL    HW237167   1.966   3.099   5.298 -1.3749  1.9425  0.2374
 8570SOL     OW37168   3.301   2.110   5.377  0.8299  0.5746 -0.0040
 8570SOL    HW137169   3.361   2.176   5.412 -1.8833  3.0067  0.1184
 8570SOL    HW237170   3.355   2.036   5.404  0.5928  0.7677  1.0228
 8571SOL     OW37171   1.979   2.397   6.095 -0.9257  0.2072  0.0627
 8571SOL    HW137172   1.921   2.458   6.051 -0.3531  1.5043  1.1174
 8571SOL    HW237173   1.931   2.314   6.100  1.5453 -1.3422 -1.6346
 8572SOL     OW37174   2.976   0.223   3.170  0.1910  0.3530  0.1588
 8572SOL    HW137175   2.962   0.317   3.183 -0.2031  0.2948  0.1542
 8572SOL    HW237176   3.062   0.217   3.128  1.0744  0.7311  1.9010
 8573SOL     OW37177   1.553   0.150   1.313 -0.1514 -0.4760  0.5541
 8573SOL    HW137178   1.528   0.234   1.274 -1.8906 -0.1800  2.3133
 8573SOL    HW237179   1.517   0.081   1.256  1.0990 -0.4694 -0.2364
 8574SOL     OW37180   4.678   1.173  12.099 -0.3809  0.2166 -0.0304
 8574SOL    HW137181   0.002   1.242  12.053 -0.4026 -0.8970 -1.7072
 8574SOL    HW237182   4.686   1.099  12.039  3.6928  0.7567 -0.1075
 8575SOL     OW37183   0.915   1.445   6.829 -0.2086  0.0130  0.0183
 8575SOL    HW137184   0.824   1.474   6.830 -0.8052 -1.8847 -0.1921
 8575SOL    HW237185   0.932   1.469   6.737 -0.4288  0.1780  0.0217
 8576SOL     OW37186   0.681   4.556  10.429 -0.5523 -0.2643  0.4196
 8576SOL    HW137187   0.671   4.487  10.494  0.5758 -0.8519 -0.0325
 8576SOL    HW237188   0.769   4.583  10.454 -1.1062  1.1592  0.8044
 8577SOL     OW37189   0.713   2.623   2.404 -0.5208 -0.0108  0.2449
 8577SOL    HW137190   0.727   2.529   2.415  0.9276  0.3932  1.8462
 8577SOL    HW237191   0.783   2.630   2.339  0.0843 -0.3257  0.8696
 8578SOL     OW37192   2.327   0.582   5.858  0.2729  0.2028 -0.7138
 8578SOL    HW137193   2.326   0.611   5.767  0.8277 -0.3535 -0.9008
 8578SOL    HW237194   2.283   0.497   5.849 -2.0297  1.2363  0.9558
 8579SOL     OW37195   4.183   2.344  10.529  0.1189 -0.7388 -0.1274
 8579SOL    HW137196   4.248   2.280  10.500 -0.1955 -0.5355 -1.2975
 8579SOL    HW237197   4.195   2.422  10.474 -3.2132  0.3974  0.7502
 8580SOL     OW37198   3.657   2.681   9.635  0.0159  0.1262  0.2238
 8580SOL    HW137199   3.650   2.732   9.555  1.7409 -1.3028 -0.8204
 8580SOL    HW237200   3.672   2.595   9.595  0.3113  0.8453 -1.1961
 8581SOL     OW37201   0.962   1.802   2.811 -0.5588 -0.2764 -0.2738
 8581SOL    HW137202   1.005   1.825   2.893  1.0594 -0.6473 -1.0168
 8581SOL    HW237203   0.923   1.719   2.838 -1.9871 -0.4756 -2.8773
 8582SOL     OW37204   2.558   4.293   0.737 -0.3281 -0.6121  0.2181
 8582SOL    HW137205   2.640   4.323   0.774 -1.1029  0.9575  0.6363
 8582SOL    HW237206   2.581   4.207   0.702 -0.2967  0.1477 -1.6317
 8583SOL     OW37207   4.698   4.708   3.854 -0.2355 -0.0061 -0.2902
 8583SOL    HW137208   4.625   4.652   3.827 -1.8291  2.9585 -2.1660
 8583SOL    HW237209   4.654   0.070   3.858  3.1420  1.7031  0.1047
 8584SOL     OW37210   4.410   3.108   3.209  0.7592 -0.5718  0.3933
 8584SOL    HW137211   4.432   3.173   3.276 -0.0177  0.9809 -0.8760
 8584SOL    HW237212   4.471   3.145   3.145  0.3561 -0.4754  0.0706
 8585SOL     OW37213   3.700   3.663   5.780 -0.2923  0.4692  0.0139
 8585SOL    HW137214   3.766   3.732   5.781 -0.5900  0.7469  1.1255
 8585SOL    HW237215   3.636   3.705   5.723  0.5593 -0.2211 -1.4367
 8586SOL     OW37216   2.889   1.403   7.997 -0.2996 -0.1067  0.1235
 8586SOL    HW137217   2.902   1.323   8.047  0.6702  0.9924  1.6223
 8586SOL    HW237218   2.857   1.469   8.058 -0.6591 -1.5107  1.4361
 8587SOL     OW37219   1.901   4.496   5.510  0.1358 -0.1317  0.1865
 8587SOL    HW137220   1.828   4.439   5.534  0.1343  0.7541  2.2285
 8587SOL    HW237221   1.875   4.572   5.562  1.2143 -1.2419  2.3610
 8588SOL     OW37222   0.064   3.068   5.963 -0.0779  0.1499  0.5269
 8588SOL    HW137223   0.007   3.075   6.039 -2.7457 -0.8851 -1.4049
 8588SOL    HW237224   0.100   2.986   5.997  1.2442  0.7173  0.5157
 8589SOL     OW37225   1.899   4.651   7.417 -0.1888 -0.2330 -0.4301
 8589SOL    HW137226   1.847   4.573   7.395  0.7333 -1.8804  3.2995
 8589SOL    HW237227   1.838   4.704   7.468  0.7328  0.7725 -0.3673
 8590SOL     OW37228   3.773   3.058  12.826  0.4586 -0.1809  0.3134
 8590SOL    HW137229   3.831   3.111  12.881 -2.4646 -1.2888  4.5195
 8590SOL    HW237230   3.687   3.069  12.868  0.2609 -2.3953  0.4836
 8591SOL     OW37231   1.434   4.595   1.277 -0.7854 -0.0695 -0.1790
 8591SOL    HW137232   1.481   4.597   1.360  2.1776  3.2811 -1.9174
 8591SOL    HW237233   1.344   4.607   1.305 -0.9849  0.5242 -1.1025
 8592SOL     OW37234   0.171   0.007  13.716 -0.0222  0.5188 -0.1130
 8592SOL    HW137235   0.228   4.709  13.790  1.2598  1.0786 -0.9441
 8592SOL    HW237236   0.212   0.085  13.678 -0.3413 -0.0270 -1.5629
 8593SOL     OW37237   0.177   1.522   1.672 -0.2945 -0.2750  0.3082
 8593SOL    HW137238   0.142   1.476   1.749  1.7184 -1.1678  0.6976
 8593SOL    HW237239   0.132   1.606   1.682  0.0071 -0.0272 -0.4757
 8594SOL     OW37240   3.589   3.564  15.484  0.4303 -0.1403  0.2220
 8594SOL    HW137241   3.616   3.639  15.431  0.6439 -0.9845 -0.8889
 8594SOL    HW237242   3.523   3.589  15.548  1.1983  3.0922 -0.2549
 8595SOL     OW37243   2.170   2.601   5.694 -0.4204 -0.8461  0.1432
 8595SOL    HW137244   2.251   2.653   5.693  0.0306 -1.6085 -1.3587
 8595SOL    HW237245   2.116   2.669   5.734 -0.7785 -0.1419 -1.5744
 8596SOL     OW37246   0.417   4.265   3.127  0.1150 -0.0523 -0.8001
 8596SOL    HW137247   0.411   4.212   3.048  1.4863 -1.6399  0.1619
 8596SOL    HW237248   0.324   4.282   3.138  0.5571  0.9972  1.2472
 8597SOL     OW37249   2.623   0.140   7.983  0.4250 -0.0053 -0.2359
 8597SOL    HW137250   2.530   0.128   7.964 -0.0371 -0.2930  2.2267
 8597SOL    HW237251   2.642   0.220   7.934  1.3400  0.1895  0.4476
 8598SOL     OW37252   2.984   2.487   6.411  0.0528 -0.0561  0.5518
 8598SOL    HW137253   2.920   2.519   6.474  1.3091 -0.1922  1.9101
 8598SOL    HW237254   3.032   2.421   6.461  0.3152  1.5841  2.4650
 8599SOL     OW37255   3.487   1.235  16.879 -0.8120  0.7395  0.3443
 8599SOL    HW137256   3.559   1.181  16.914  0.4599  1.3184 -1.3720
 8599SOL    HW237257   3.528   1.257  16.796 -0.9178  2.7311  0.8319
 8600SOL     OW37258   4.656   0.602  15.700 -0.0672 -0.0748  0.0026
 8600SOL    HW137259   4.658   0.665  15.773 -1.1201 -1.0301  0.8553
 8600SOL    HW237260   0.021   0.567  15.685  0.3262  2.2268 -3.0821
 8601SOL     OW37261   0.980   3.808   8.571 -0.0677 -0.1999 -0.1018
 8601SOL    HW137262   1.030   3.790   8.651 -0.8501 -1.0762  0.1801
 8601SOL    HW237263   0.981   3.904   8.570  2.3377 -0.2164 -0.0178
 8602SOL     OW37264   4.351   1.439  12.801 -0.0748 -0.0280 -0.0710
 8602SOL    HW137265   4.409   1.477  12.867  1.6842 -1.8542 -0.5874
 8602SOL    HW237266   4.414   1.370  12.781 -1.0703 -0.6972 -0.9219
 8603SOL     OW37267   0.069   2.232  11.029  0.0125 -0.0909 -0.1416
 8603SOL    HW137268   0.077   2.323  11.059  2.1538 -0.3998  0.2156
 8603SOL    HW237269   0.108   2.243  10.942  3.3599 -1.9788  1.1499
 8604SOL     OW37270   2.179   2.023   8.434  0.2063  0.6267 -0.1757
 8604SOL    HW137271   2.181   2.090   8.501 -1.8548 -2.0262  2.5360
 8604SOL    HW237272   2.237   1.953   8.464  0.9381  1.8921  1.3161
 8605SOL     OW37273   1.625   2.887   4.289 -1.0839  0.2879  0.0971
 8605SOL    HW137274   1.614   2.848   4.203  0.0062  0.1208  0.0382
 8605SOL    HW237275   1.667   2.971   4.268 -1.1397  0.4629  0.6805
 8606SOL     OW37276   2.895   0.156  15.297  0.0529 -0.6831  0.1361
 8606SOL    HW137277   2.853   0.240  15.279 -0.2058 -0.3150  2.4873
 8606SOL    HW237278   2.962   0.156  15.228 -3.1265 -0.5334 -2.9323
 8607SOL     OW37279   1.898   2.870   3.978 -0.7722 -0.2614 -0.5040
 8607SOL    HW137280   1.851   2.929   4.037 -1.7454 -2.8392  1.3042
 8607SOL    HW237281   1.942   2.933   3.921  0.4918  0.0950  0.8843
 8608SOL     OW37282   4.312   2.942   8.178 -0.5290  0.2745 -0.1133
 8608SOL    HW137283   4.331   2.924   8.086  3.2606 -1.6290  1.0580
 8608SOL    HW237284   4.380   2.889   8.219 -0.7129  0.5040  0.4974
 8609SOL     OW37285   1.280   0.329   3.095  0.2013  0.4604  0.3516
 8609SOL    HW137286   1.257   0.284   3.177  0.9508 -1.3567 -0.4407
 8609SOL    HW237287   1.360   0.288   3.061  0.6524  1.4840  0.1886
 8610SOL     OW37288   3.065   1.913   7.784  0.0342  0.2832  0.1271
 8610SOL    HW137289   3.129   1.915   7.712  1.6163 -2.6851  1.4551
 8610SOL    HW237290   2.985   1.916   7.732  0.5416  0.5644 -0.6470
 8611SOL     OW37291   4.010   2.693   6.398 -0.2984  0.0181  0.1181
 8611SOL    HW137292   3.999   2.599   6.413 -1.4150 -0.0394 -1.0476
 8611SOL    HW237293   4.019   2.695   6.303  0.8950  0.5863  0.2489
 8612SOL     OW37294   0.910   4.565  15.284 -0.4947 -0.8600 -0.1401
 8612SOL    HW137295   0.925   4.659  15.299 -1.3879 -0.5041 -1.4742
 8612SOL    HW237296   0.880   4.571  15.193  0.6245 -1.7310 -0.5586
 8613SOL     OW37297   3.281   1.506   4.786  0.0306  0.3283 -0.1858
 8613SOL    HW137298   3.231   1.518   4.705  0.5795  1.5991 -0.3331
 8613SOL    HW237299   3.299   1.599   4.798  1.0809  0.1767 -0.6569
 8614SOL     OW37300   2.259   0.013  13.992 -0.5650  0.1523 -0.6393
 8614SOL    HW137301   2.314   0.068  14.048 -2.8778 -0.1398  1.9643
 8614SOL    HW237302   2.295   4.649  14.005 -2.9312 -0.6412  0.5894
 8615SOL     OW37303   3.998   1.657   4.725  0.3196  0.1131  0.3270
 8615SOL    HW137304   4.092   1.672   4.710  0.6954 -2.0305  0.6324
 8615SOL    HW237305   4.006   1.589   4.791 -1.9868  1.2626  1.7902
 8616SOL     OW37306   1.298   0.228  16.955  0.3813 -0.3606  0.0379
 8616SOL    HW137307   1.311   0.319  16.928 -0.7261 -0.2394 -0.0916
 8616SOL    HW237308   1.223   0.208  16.899 -0.3043 -0.0043  0.8367
 8617SOL     OW37309   1.047   2.608   9.280 -0.3271 -0.3100 -0.1658
 8617SOL    HW137310   1.126   2.644   9.320 -0.1608  1.0982 -1.8129
 8617SOL    HW237311   0.996   2.689   9.283  1.4785  0.7397  2.3507
 8618SOL     OW37312   1.167   3.309   1.188 -0.2096 -0.5741 -0.2084
 8618SOL    HW137313   1.187   3.233   1.242 -1.5674 -0.2527  0.7371
 8618SOL    HW237314   1.120   3.261   1.119 -0.7712 -0.5867  0.1783
 8619SOL     OW37315   4.035   1.085   3.146 -0.1260 -0.0675  0.0882
 8619SOL    HW137316   4.085   1.044   3.216  1.2242 -0.9217 -1.3827
 8619SOL    HW237317   3.944   1.059   3.159 -0.3317  0.5580 -0.0900
 8620SOL     OW37318   0.429   4.560   6.234 -0.1230  0.3206  0.0411
 8620SOL    HW137319   0.449   4.639   6.284  0.2444  0.0802  0.2690
 8620SOL    HW237320   0.491   4.560   6.162  0.1513 -1.8860  0.2662
 8621SOL     OW37321   2.573   3.704  16.047  0.0926  0.2447 -0.1212
 8621SOL    HW137322   2.657   3.685  16.007 -0.6675 -1.8664 -0.7530
 8621SOL    HW237323   2.555   3.626  16.101  0.1704  0.3736  0.0926
 8622SOL     OW37324   1.643   1.946   9.878 -0.2601  0.0774 -0.3685
 8622SOL    HW137325   1.687   1.993   9.949  3.1350 -2.8764 -0.4799
 8622SOL    HW237326   1.554   1.982   9.879 -0.3280 -0.0614 -1.6837
 8623SOL     OW37327   3.107   3.458   5.043  0.4489  0.6856 -0.6666
 8623SOL    HW137328   3.171   3.425   4.981 -0.7064  0.2778 -1.6376
 8623SOL    HW237329   3.126   3.399   5.116 -0.5067 -0.7852 -1.6000
 8624SOL     OW37330   0.087   2.629  15.556 -0.3675 -0.1691 -0.1881
 8624SOL    HW137331   0.094   2.697  15.489  0.3190 -0.5014 -0.4587
 8624SOL    HW237332   0.142   2.564  15.512  1.5819  0.3727  1.4505
 8625SOL     OW37333   0.238   4.124   7.704  0.7751  0.0162 -0.1023
 8625SOL    HW137334   0.293   4.063   7.655  0.2371 -0.6308  0.0955
 8625SOL    HW237335   0.287   4.107   7.784 -1.0427  0.6096  1.1493
 8626SOL     OW37336   1.996   2.053  14.951 -0.1060 -0.1229  0.2459
 8626SOL    HW137337   1.973   2.119  14.886  1.3690 -0.1723 -0.3315
 8626SOL    HW237338   2.091   2.059  14.944 -0.0352 -2.1423 -0.3007
 8627SOL     OW37339   1.970   1.209   2.098  0.0574 -0.4150  0.1655
 8627SOL    HW137340   2.046   1.194   2.154  0.9587  1.3543 -0.5839
 8627SOL    HW237341   1.987   1.138   2.036 -0.4438 -0.7359  0.3960
 8628SOL     OW37342   0.263   3.904  13.305 -0.2695 -0.4156 -0.3024
 8628SOL    HW137343   0.250   3.982  13.358 -1.1564  1.3213 -3.0579
 8628SOL    HW237344   0.294   3.952  13.228  0.2913 -2.4287 -1.3522
 8629SOL     OW37345   4.453   3.466   8.956  0.1560 -0.0625  0.1568
 8629SOL    HW137346   4.383   3.400   8.952 -0.4504  0.7299 -2.1240
 8629SOL    HW237347   4.520   3.407   8.990  0.8100  0.9681  0.6356
 8630SOL     OW37348   3.073   4.013   8.561 -0.7600  0.1734  0.2438
 8630SOL    HW137349   3.090   4.013   8.656  2.7210  0.1610 -0.3867
 8630SOL    HW237350   3.065   3.920   8.539  0.2633  0.3117 -0.7174
 8631SOL     OW37351   2.780   3.229   3.968  0.4311  0.3108  0.6006
 8631SOL    HW137352   2.734   3.297   3.920 -1.4556 -0.0750  1.8818
 8631SOL    HW237353   2.706   3.170   3.982 -2.2886  3.3879 -0.9587
 8632SOL     OW37354   2.393   2.538  11.410 -0.3486  0.0576 -0.3095
 8632SOL    HW137355   2.428   2.579  11.490  1.2095 -1.0429 -0.4522
 8632SOL    HW237356   2.476   2.505  11.378 -0.5280 -1.2406  0.5943
 8633SOL     OW37357   4.620   2.590  13.849  0.4426  0.4552 -0.1492
 8633SOL    HW137358   4.589   2.500  13.840  0.6329  0.0987  2.7664
 8633SOL    HW237359   4.651   2.602  13.759  1.6374 -2.8150 -0.1785
 8634SOL     OW37360   1.937   2.028   2.067  0.2288  0.2174  0.0643
 8634SOL    HW137361   2.009   2.067   2.018  0.2205 -0.5481 -0.5534
 8634SOL    HW237362   1.856   2.065   2.033  0.1721 -0.6038 -0.7047
 8635SOL     OW37363   1.886   4.432   3.345  0.2533 -0.5604  0.2110
 8635SOL    HW137364   1.867   4.396   3.432 -2.3210 -0.3254 -0.2568
 8635SOL    HW237365   1.811   4.485   3.316  1.6246 -0.6364 -3.5056
 8636SOL     OW37366   3.829   3.525   7.441 -0.0258  0.0995  0.1759
 8636SOL    HW137367   3.898   3.570   7.393 -0.1223  0.7030  0.6067
 8636SOL    HW237368   3.844   3.435   7.410 -0.4394 -0.1803  0.7806
 8637SOL     OW37369   3.225   2.021  14.842  0.7389 -0.0830  0.5984
 8637SOL    HW137370   3.141   1.987  14.813  1.5591  0.1048 -2.0009
 8637SOL    HW237371   3.244   1.972  14.922  1.1084 -1.9081 -0.6145
 8638SOL     OW37372   1.568   2.869  11.575  0.2951 -0.0044 -0.2421
 8638SOL    HW137373   1.633   2.847  11.507  0.5480 -1.8938  0.6106
 8638SOL    HW237374   1.545   2.956  11.542 -2.0967 -0.3706  0.5069
 8639SOL     OW37375   2.840   3.372  15.415  0.2132 -0.7432 -0.2065
 8639SOL    HW137376   2.833   3.418  15.499 -0.2668  1.8817 -1.6819
 8639SOL    HW237377   2.885   3.438  15.363  0.7153 -0.3317  0.7421
 8640SOL     OW37378   4.490   2.356  13.789  0.0593 -0.2099 -0.6404
 8640SOL    HW137379   4.510   2.274  13.833 -1.4739 -0.5148 -0.4868
 8640SOL    HW237380   4.455   2.329  13.704 -1.7720 -1.4197  0.5049
 8641SOL     OW37381   1.402   0.099   7.546  0.4353 -0.6125 -0.3266
 8641SOL    HW137382   1.360   0.149   7.475  0.0128 -0.0388  0.3178
 8641SOL    HW237383   1.398   0.006   7.525  0.0934 -0.7818  0.4799
 8642SOL     OW37384   3.305   1.885   3.226 -0.2019  0.6869  0.1570
 8642SOL    HW137385   3.266   1.970   3.244  0.9910  0.9572  1.4843
 8642SOL    HW237386   3.228   1.830   3.217  1.2255 -0.7901 -2.9066
 8643SOL     OW37387   1.532   0.639   2.328  0.0569 -0.2333 -0.1399
 8643SOL    HW137388   1.626   0.652   2.331 -0.1758  1.5373 -0.5196
 8643SOL    HW237389   1.523   0.545   2.346 -0.3056 -0.4849 -1.6296
 8644SOL     OW37390   0.798   3.203  16.127  0.0765 -0.8528  0.5274
 8644SOL    HW137391   0.725   3.234  16.180 -0.7205 -0.5759 -0.7442
 8644SOL    HW237392   0.797   3.115  16.165  1.5040 -1.5243 -1.0191
 8645SOL     OW37393   0.665   2.185   6.256  0.3140 -0.4196 -0.0749
 8645SOL    HW137394   0.589   2.225   6.213  1.6562 -0.4108 -2.4216
 8645SOL    HW237395   0.625   2.099   6.269 -0.2952 -0.3852 -1.7454
 8646SOL     OW37396   3.675   4.407   1.014  0.3814  0.1242  0.4155
 8646SOL    HW137397   3.618   4.441   1.083  0.9563 -1.5251  1.7002
 8646SOL    HW237398   3.764   4.413   1.047  0.7278 -1.7725 -0.1690
 8647SOL     OW37399   4.086   0.079  13.216 -0.0096 -0.1868 -0.2754
 8647SOL    HW137400   4.070   0.004  13.159  0.6017 -3.3161  3.7613
 8647SOL    HW237401   4.158   0.120  13.167 -0.1472 -1.7342 -1.7576
 8648SOL     OW37402   0.991   2.332   5.289 -0.1097  0.2896  0.0370
 8648SOL    HW137403   1.059   2.397   5.304  0.3540 -0.5932  1.6891
 8648SOL    HW237404   0.915   2.389   5.278  1.1878  2.4576  2.5240
 8649SOL     OW37405   3.205   2.923   5.107  0.2545  0.6244 -0.5626
 8649SOL    HW137406   3.169   2.915   5.019  0.0997  2.9425 -0.7032
 8649SOL    HW237407   3.148   2.865   5.158 -0.5669  2.8904  1.0633
 8650SOL     OW37408   4.461   1.317   3.503 -0.1910  0.7491  0.5032
 8650SOL    HW137409   4.400   1.252   3.538 -0.1125 -0.1920 -1.0994
 8650SOL    HW237410   4.416   1.372   3.439  1.0422  1.8675  0.5927
 8651SOL     OW37411   0.573   2.600   1.928  0.4585 -0.0634 -0.1171
 8651SOL    HW137412   0.503   2.604   1.992 -0.5960  1.7307 -1.3867
 8651SOL    HW237413   0.634   2.662   1.970  0.2900 -0.4536  0.6897
 8652SOL     OW37414   1.099   4.234   6.739  0.4238 -0.1171 -0.3724
 8652SOL    HW137415   1.034   4.239   6.668  1.3406 -0.4858 -1.2297
 8652SOL    HW237416   1.180   4.235   6.688  0.7832 -0.5965  0.2011
 8653SOL     OW37417   1.560   2.466   5.269 -0.1687  0.6750 -0.4027
 8653SOL    HW137418   1.561   2.557   5.240 -0.8490  0.1820 -1.9907
 8653SOL    HW237419   1.636   2.468   5.327 -1.1443  1.3642  0.8545
 8654SOL     OW37420   3.634   2.238   3.750  0.0237 -0.0966 -0.1210
 8654SOL    HW137421   3.689   2.295   3.697 -0.6710  2.2232  1.6547
 8654SOL    HW237422   3.654   2.153   3.710 -0.4939 -1.0481  1.6120
 8655SOL     OW37423   3.640   1.896   8.878  0.7945  0.0198  0.8884
 8655SOL    HW137424   3.669   1.819   8.830  0.2235 -0.9827  2.1571
 8655SOL    HW237425   3.721   1.948   8.872 -0.1818  1.4447  0.1213
 8656SOL     OW37426   3.808   0.967   3.219  0.2732  0.0848 -0.2106
 8656SOL    HW137427   3.785   0.901   3.154 -2.0188 -0.9306  1.6136
 8656SOL    HW237428   3.730   1.022   3.226 -0.1678 -0.3571 -1.6066
 8657SOL     OW37429   4.269   4.660  17.615  0.1447 -0.1651  1.2866
 8657SOL    HW137430   4.219   4.669  17.533  0.8140 -0.0323  0.8935
 8657SOL    HW237431   4.214   4.703  17.680 -0.5303  2.3052 -0.8766
 8658SOL     OW37432   0.994   4.183   4.281 -0.7200 -0.3776  0.2072
 8658SOL    HW137433   0.980   4.108   4.222  1.2486 -0.7176  0.1704
 8658SOL    HW237434   0.949   4.155   4.360 -1.6002  1.1264  0.2346
 8659SOL     OW37435   3.970   4.152  15.146 -0.0688  0.2084 -0.0304
 8659SOL    HW137436   4.055   4.129  15.108  0.9665  0.1473  2.3221
 8659SOL    HW237437   3.967   4.236  15.101  1.6451  0.5310  0.4584
 8660SOL     OW37438   1.898   1.420   2.380  0.0031  0.8102 -0.4441
 8660SOL    HW137439   1.864   1.395   2.466  3.4602  0.9817  0.9686
 8660SOL    HW237440   1.828   1.406   2.317  0.1888 -0.6061 -0.3438
 8661SOL     OW37441   2.830   4.676   7.948 -0.0652 -0.0253  0.6557
 8661SOL    HW137442   2.868   4.718   7.871 -1.8206 -1.9395 -1.2576
 8661SOL    HW237443   2.759   0.013   7.967  0.9508  1.7207 -1.0860
 8662SOL     OW37444   2.184   0.388   2.155 -0.0799 -0.5545 -0.1940
 8662SOL    HW137445   2.150   0.471   2.122  1.9957  0.1451 -0.5815
 8662SOL    HW237446   2.163   0.414   2.246  0.3177 -2.0730  0.3182
 8663SOL     OW37447   4.622   0.165  13.742 -0.2972 -0.3221  0.0123
 8663SOL    HW137448   4.709   0.156  13.703 -0.1864 -0.1174  0.2172
 8663SOL    HW237449   4.652   0.208  13.822  1.5158 -0.5737 -0.5126
 8664SOL     OW37450   1.132   3.381   5.049 -0.2592  0.0320  0.6519
 8664SOL    HW137451   1.174   3.465   5.069  0.0417 -0.5831  2.6226
 8664SOL    HW237452   1.212   3.328   5.054  0.2261  0.8683  1.8138
 8665SOL     OW37453   1.762   3.819  11.655  0.5284  0.1271  0.6106
 8665SOL    HW137454   1.726   3.731  11.668  2.4612 -0.8203 -0.5055
 8665SOL    HW237455   1.813   3.804  11.575 -2.0163 -0.0810 -0.9788
 8666SOL     OW37456   1.415   4.216   3.034 -0.3043  0.0965 -0.3386
 8666SOL    HW137457   1.501   4.209   2.991 -0.0101 -1.8533  0.5557
 8666SOL    HW237458   1.430   4.270   3.111  1.0638 -0.9348  0.1353
 8667SOL     OW37459   0.476   4.311  10.004 -0.3696 -0.7953  0.2168
 8667SOL    HW137460   0.539   4.371  10.045  0.5496 -1.2161 -0.5864
 8667SOL    HW237461   0.532   4.266   9.940 -0.1627  1.6328 -1.3017
 8668SOL     OW37462   3.563   4.679   6.491  0.2170  0.4519 -0.1046
 8668SOL    HW137463   3.498   4.611   6.511  0.7911  0.0100  0.2673
 8668SOL    HW237464   3.575   4.669   6.397 -0.4773  1.7154 -0.3213
 8669SOL     OW37465   3.829   0.421  17.550  0.8334  0.4023  0.1853
 8669SOL    HW137466   3.770   0.469  17.493 -0.0083 -0.2992  0.4683
 8669SOL    HW237467   3.789   0.334  17.554 -2.0216  1.6772 -1.3967
 8670SOL     OW37468   2.540   0.577   5.033 -0.1037 -0.0854 -0.5263
 8670SOL    HW137469   2.534   0.543   4.944  0.6665 -1.3208 -0.1104
 8670SOL    HW237470   2.450   0.576   5.065 -0.2201  1.4690 -0.8029
 8671SOL     OW37471   2.389   3.139   8.224 -0.2436  0.1468 -0.0271
 8671SOL    HW137472   2.378   3.213   8.163 -0.0645 -0.2424 -0.5336
 8671SOL    HW237473   2.300   3.105   8.235  0.2599 -1.0897  0.2106
 8672SOL     OW37474   1.984   4.524   2.987  0.5402  0.2393 -0.3805
 8672SOL    HW137475   1.986   4.516   2.892 -1.4206  0.1096 -0.4120
 8672SOL    HW237476   1.935   4.605   3.003 -0.8995 -0.8007  0.4747
 8673SOL     OW37477   0.922   3.095   7.448  0.3977 -0.1184  0.9184
 8673SOL    HW137478   0.840   3.135   7.478  1.2269  2.8523 -0.8346
 8673SOL    HW237479   0.939   3.138   7.365  0.9687 -1.7020  0.2048
 8674SOL     OW37480   0.056   3.871   5.161  0.0414 -0.0414 -0.4778
 8674SOL    HW137481   4.690   3.904   5.152  0.2575  0.7179  0.0911
 8674SOL    HW237482   0.105   3.953   5.167 -1.4070  0.8655 -0.9504
 8675SOL     OW37483   1.466   3.540   1.286  0.8993  0.1895  0.1282
 8675SOL    HW137484   1.484   3.581   1.370 -1.6539  0.2265  0.6298
 8675SOL    HW237485   1.427   3.457   1.312  3.8385 -0.6657  1.8787
 8676SOL     OW37486   1.484   3.287   5.952 -0.0067 -0.1484  0.3890
 8676SOL    HW137487   1.525   3.363   5.993  2.8101 -1.1040 -0.6378
 8676SOL    HW237488   1.560   3.231   5.936 -0.8955 -1.0994 -0.5340
 8677SOL     OW37489   0.774   0.815  15.233  0.2153 -0.8427  0.1923
 8677SOL    HW137490   0.806   0.821  15.324 -0.2206  2.4616  0.1567
 8677SOL    HW237491   0.684   0.847  15.242  0.4638 -0.8187  2.7942
 8678SOL     OW37492   0.996   4.547   7.081 -0.4792 -0.8015  0.1185
 8678SOL    HW137493   0.916   4.508   7.047  0.0399 -3.1281  1.6192
 8678SOL    HW237494   0.967   4.540   7.172  2.1474 -0.7879  0.9513
 8679SOL     OW37495   1.167   4.443   4.774  0.2887 -0.9392  0.1522
 8679SOL    HW137496   1.149   4.369   4.833  4.4441  0.1918  2.8320
 8679SOL    HW237497   1.262   4.439   4.780  0.4677  2.3876 -0.4758
 8680SOL     OW37498   0.846   0.648   9.701 -0.0109  0.1219  0.3405
 8680SOL    HW137499   0.888   0.582   9.755 -1.3207 -2.0953 -1.3113
 8680SOL    HW237500   0.905   0.655   9.625  2.1448 -2.8685  1.7498
 8681SOL     OW37501   2.438   0.004   2.711 -0.1971  0.2562 -0.0630
 8681SOL    HW137502   2.498   0.066   2.669 -2.2457  1.4547 -1.2139
 8681SOL    HW237503   2.420   4.661   2.645  2.2817 -0.7118  0.2188
 8682SOL     OW37504   1.017   0.134  11.032  0.1665 -0.3125  0.1875
 8682SOL    HW137505   0.993   0.114  10.942 -0.1245  1.9834 -0.2599
 8682SOL    HW237506   1.005   0.046  11.066  0.9804  0.6634  2.9865
 8683SOL     OW37507   2.547   3.440   5.165  0.3795  0.0783  0.1227
 8683SOL    HW137508   2.516   3.531   5.172  2.3633  0.5987  2.1199
 8683SOL    HW237509   2.480   3.411   5.103 -0.3778  0.0111  0.9720
 8684SOL     OW37510   1.018   0.091   3.572 -0.6681 -0.3803 -0.8135
 8684SOL    HW137511   0.954   0.020   3.564 -0.7817 -0.3802  0.0906
 8684SOL    HW237512   0.961   0.142   3.629  0.9178  1.3820 -0.8112
 8685SOL     OW37513   4.235   3.902   6.693  0.4051 -0.5554  0.5081
 8685SOL    HW137514   4.215   3.985   6.736  0.2812  0.1217 -0.8462
 8685SOL    HW237515   4.191   3.911   6.608  0.2174  0.5787  0.7279
 8686SOL     OW37516   0.690   3.782   9.661  0.0350  1.1435 -0.3333
 8686SOL    HW137517   0.675   3.699   9.616  1.9873  0.8572 -0.4258
 8686SOL    HW237518   0.775   3.810   9.627  1.1140 -0.2854  1.2102
 8687SOL     OW37519   1.588   3.560   2.846  0.1717 -0.3806  0.2244
 8687SOL    HW137520   1.658   3.625   2.839  1.4092 -1.7110  0.2698
 8687SOL    HW237521   1.638   3.481   2.867  2.9144  1.6563  1.3273
 8688SOL     OW37522   1.832   4.206  17.351  0.6899 -0.1568 -0.9686
 8688SOL    HW137523   1.915   4.184  17.308  1.0863 -0.9962  0.2163
 8688SOL    HW237524   1.798   4.272  17.291  1.3270  2.3693  1.4170
 8689SOL     OW37525   1.789   3.039   6.852 -0.1923  0.0731 -0.0880
 8689SOL    HW137526   1.700   3.073   6.851 -0.4290 -0.5774 -0.7132
 8689SOL    HW237527   1.836   3.116   6.820  1.1115  0.0275  1.7301
 8690SOL     OW37528   0.725   3.578   8.061  0.1852 -0.5232  0.1845
 8690SOL    HW137529   0.798   3.640   8.056 -0.0832 -0.1067  1.4909
 8690SOL    HW237530   0.725   3.538   7.974  1.5371  1.1497 -0.5965
 8691SOL     OW37531   2.531   3.982   3.909  0.0034 -0.2229  0.1721
 8691SOL    HW137532   2.479   3.912   3.948  0.2641  0.6473  2.0955
 8691SOL    HW237533   2.613   3.935   3.894 -0.4583 -0.9981  0.0639
 8692SOL     OW37534   4.692   3.833   6.520 -0.2523 -0.2725  0.2350
 8692SOL    HW137535   0.050   3.859   6.564  1.5119  0.3245 -3.4106
 8692SOL    HW237536   4.639   3.821   6.599 -1.6547 -1.5714 -0.9136
 8693SOL     OW37537   1.815   3.588  15.372 -0.3937 -0.3599  0.0684
 8693SOL    HW137538   1.785   3.597  15.282  1.2790 -0.5154 -0.4963
 8693SOL    HW237539   1.733   3.589  15.422 -1.2877 -1.6318 -1.3926
 8694SOL     OW37540   4.341   0.459   5.457  0.0215  0.2503  0.4604
 8694SOL    HW137541   4.339   0.525   5.387  0.4699 -0.5575 -0.3167
 8694SOL    HW237542   4.426   0.417   5.443  0.3773  1.3422 -0.6847
 8695SOL     OW37543   1.308   4.530   5.797 -0.1694 -0.1284 -0.0570
 8695SOL    HW137544   1.266   4.459   5.846  0.9361  0.0986  1.2187
 8695SOL    HW237545   1.356   4.570   5.869 -1.0451  0.4049  0.2299
 8696SOL     OW37546   1.883   3.913   0.702  0.2580 -0.1174 -0.1446
 8696SOL    HW137547   1.973   3.944   0.689 -1.2302  3.7384 -1.0018
 8696SOL    HW237548   1.840   3.998   0.709  1.8913  0.5923  1.2864
 8697SOL     OW37549   3.998   2.003   4.555  0.6006 -0.0497 -0.0716
 8697SOL    HW137550   3.927   2.047   4.601  0.9651 -1.0845  1.4870
 8697SOL    HW237551   3.968   1.913   4.566  2.1214 -0.3165  1.9457
 8698SOL     OW37552   0.428   2.662   8.436  0.9656 -0.7415 -0.0191
 8698SOL    HW137553   0.500   2.675   8.374 -0.2943  0.3032 -1.2668
 8698SOL    HW237554   0.427   2.734   8.498 -1.7632 -0.7493 -0.0433
 8699SOL     OW37555   2.311   4.463   5.069 -0.0208 -0.4403 -0.3377
 8699SOL    HW137556   2.270   4.473   4.984  0.5660  1.5096 -0.3766
 8699SOL    HW237557   2.238   4.503   5.116 -0.3085 -2.8479  1.2936
 8700SOL     OW37558   1.683   1.366   2.234 -0.3684 -0.3944  0.2454
 8700SOL    HW137559   1.643   1.291   2.277 -1.1144  1.1853  2.2938
 8700SOL    HW237560   1.607   1.385   2.180 -0.1227 -1.6087 -0.5195
 8701SOL     OW37561   4.334   3.498  13.145  0.2455 -0.1987 -0.2538
 8701SOL    HW137562   4.418   3.531  13.178 -0.0200 -1.2766  1.4839
 8701SOL    HW237563   4.273   3.556  13.189  0.5719 -1.9195  2.4305
 8702SOL     OW37564   1.351   3.304   9.584 -0.2107  0.4685 -0.2322
 8702SOL    HW137565   1.386   3.299   9.495 -1.7896 -1.2012 -0.7533
 8702SOL    HW237566   1.258   3.284   9.573 -0.3897  0.7453  0.7313
 8703SOL     OW37567   4.442   0.546   8.212 -0.0403 -0.4083 -0.3257
 8703SOL    HW137568   4.433   0.597   8.292  2.0195 -3.8740  2.0757
 8703SOL    HW237569   4.407   0.602   8.142  1.0822 -1.0979 -1.4377
 8704SOL     OW37570   3.853   4.109   6.796  0.3916  0.3764 -0.3713
 8704SOL    HW137571   3.827   4.191   6.838 -0.5311 -1.8343  3.3880
 8704SOL    HW237572   3.836   4.132   6.704  0.7919 -0.9581 -0.7737
 8705SOL     OW37573   1.848   2.842   7.675  0.4503 -0.1644  0.0961
 8705SOL    HW137574   1.893   2.899   7.737  1.4872 -2.5726  1.5511
 8705SOL    HW237575   1.777   2.904   7.656 -0.9534 -1.4398  1.2200
 8706SOL     OW37576   3.110   0.652   4.990  0.1121 -0.0226  0.0449
 8706SOL    HW137577   3.018   0.676   4.996  0.1869  0.3379 -0.2757
 8706SOL    HW237578   3.105   0.556   4.986  4.4586 -0.2619  0.7961
 8707SOL     OW37579   2.541   0.497  16.912 -0.4340 -0.6768 -0.0501
 8707SOL    HW137580   2.587   0.563  16.964  1.1957 -1.1479 -0.8964
 8707SOL    HW237581   2.455   0.536  16.922 -0.0848 -0.1043  0.7576
 8708SOL     OW37582   2.035   0.348   9.688  0.4335  0.0655 -0.4414
 8708SOL    HW137583   2.081   0.328   9.607 -0.9074 -0.4284 -1.0851
 8708SOL    HW237584   2.080   0.286   9.745  0.4174 -2.4827 -3.2187
 8709SOL     OW37585   3.517   4.074   3.933  0.6159  0.4286 -0.3120
 8709SOL    HW137586   3.536   4.090   3.841  1.7413  0.3716 -0.0823
 8709SOL    HW237587   3.424   4.051   3.924  1.0850 -2.0183  1.2514
 8710SOL     OW37588   2.405   3.980  15.656  0.0044 -0.1805 -0.1832
 8710SOL    HW137589   2.391   3.893  15.618  1.9848 -0.7839  0.4815
 8710SOL    HW237590   2.313   3.999  15.671  0.8910  2.2035  2.2825
 8711SOL     OW37591   1.552   2.443   7.278 -0.1920 -0.6217 -0.1449
 8711SOL    HW137592   1.484   2.413   7.339  0.7885 -1.4193  0.5444
 8711SOL    HW237593   1.588   2.524   7.315  0.9129 -0.8074 -0.8273
 8712SOL     OW37594   0.615   3.824   8.352  0.5876 -0.4179  0.6851
 8712SOL    HW137595   0.563   3.891   8.396  0.4603 -1.2014  1.7203
 8712SOL    HW237596   0.551   3.773   8.301 -0.4989  0.7445  0.8989
 8713SOL     OW37597   3.144   4.063  14.922  0.2656 -0.2414  0.2114
 8713SOL    HW137598   3.182   4.098  15.003  1.3961  1.7396 -1.1736
 8713SOL    HW237599   3.092   4.134  14.884  1.7676  1.2580  0.9308
 8714SOL     OW37600   3.783   0.628   0.929  0.5371 -0.5076 -0.3840
 8714SOL    HW137601   3.761   0.538   0.953 -2.1942  0.2569  0.0473
 8714SOL    HW237602   3.693   0.652   0.908  0.2153 -1.1289  0.2564
 8715SOL     OW37603   1.889   2.014   5.818 -0.2171 -0.1468  0.5952
 8715SOL    HW137604   1.805   2.058   5.804 -0.8007 -0.7149  2.3414
 8715SOL    HW237605   1.933   2.000   5.734 -0.6790 -2.7055  0.7661
 8716SOL     OW37606   0.815   4.672   0.415 -0.0295  0.2687  0.1627
 8716SOL    HW137607   0.799   4.581   0.440 -1.7563  0.6382  0.4494
 8716SOL    HW237608   0.860   4.660   0.331  1.4693 -0.3310  1.0756
 8717SOL     OW37609   1.133   3.586   3.018 -0.1946 -0.0700 -0.6812
 8717SOL    HW137610   1.049   3.595   2.973 -0.5662 -0.9638 -0.1515
 8717SOL    HW237611   1.192   3.579   2.942 -0.7430  0.9994 -1.2059
 8718SOL     OW37612   4.349   1.203  10.411  0.3665 -0.1861  0.0244
 8718SOL    HW137613   4.309   1.124  10.374  1.2080 -0.1547 -0.9643
 8718SOL    HW237614   4.374   1.182  10.501 -1.6563  2.0083  1.0773
 8719SOL     OW37615   3.972   3.563  16.904  0.1240 -0.0921  0.1146
 8719SOL    HW137616   3.930   3.517  16.977 -1.5925 -0.2439 -0.9765
 8719SOL    HW237617   4.064   3.551  16.926 -0.0901 -0.3848  0.8697
 8720SOL     OW37618   1.190   3.939   9.244 -0.3443  0.3832  0.6265
 8720SOL    HW137619   1.108   3.892   9.256 -0.2279  0.0340  0.0535
 8720SOL    HW237620   1.237   3.894   9.314  0.7147  0.0783 -0.2795
 8721SOL     OW37621   0.932   0.712   8.061  0.0502  0.1123 -0.5127
 8721SOL    HW137622   0.874   0.773   8.106  0.8347 -0.1978  0.8940
 8721SOL    HW237623   1.015   0.713   8.108  0.5217 -0.4032 -1.3323
 8722SOL     OW37624   1.408   0.934   6.256  1.5421 -0.0470  0.3557
 8722SOL    HW137625   1.336   0.926   6.319  0.0118  1.1153 -1.2799
 8722SOL    HW237626   1.428   0.842   6.239  1.7704 -0.1959  1.4240
 8723SOL     OW37627   3.923   4.427   4.119  0.5404 -0.1165  0.2124
 8723SOL    HW137628   3.921   4.522   4.135  0.0989 -0.1249  0.2215
 8723SOL    HW237629   3.914   4.415   4.024 -1.1379 -0.5562  0.4291
 8724SOL     OW37630   1.951   1.645   3.608  0.1201  0.0750 -0.3447
 8724SOL    HW137631   1.940   1.578   3.540 -2.1685 -0.1486  0.2603
 8724SOL    HW237632   1.978   1.721   3.556  1.1936  0.9266  1.4373
 8725SOL     OW37633   4.572   0.356   5.990  0.2221  0.2738 -0.1943
 8725SOL    HW137634   4.510   0.413   5.944  0.4671 -0.9756 -2.0717
 8725SOL    HW237635   4.517   0.303   6.046 -1.0051  0.8117 -0.8902
 8726SOL     OW37636   1.662   2.570   4.193  0.5420  0.1353 -0.5905
 8726SOL    HW137637   1.742   2.565   4.245  0.8035 -1.9586 -1.1786
 8726SOL    HW237638   1.692   2.605   4.109  0.3859 -0.7161 -1.0009
 8727SOL     OW37639   4.672   4.353  13.377  0.5861  0.1061 -0.9226
 8727SOL    HW137640   4.592   4.405  13.362 -1.1113 -2.1680  0.1643
 8727SOL    HW237641   4.649   4.313  13.461 -1.4090  0.1982 -1.4239
 8728SOL     OW37642   0.656   3.955   4.329 -0.0422  0.5278 -0.0279
 8728SOL    HW137643   0.745   3.981   4.354 -0.9578  2.2568  1.4663
 8728SOL    HW237644   0.616   3.976   4.413  1.3498 -0.5310  0.8986
 8729SOL     OW37645   3.237   0.000   7.806 -0.1041 -0.2195  0.4684
 8729SOL    HW137646   3.157   4.695   7.849  0.4442 -2.3800  0.0481
 8729SOL    HW237647   3.205   0.013   7.717 -0.5604 -2.4720  0.3029
 8730SOL     OW37648   0.150   4.460   5.531 -0.7448 -0.5300 -0.1261
 8730SOL    HW137649   0.176   4.423   5.615 -0.0248  0.0401 -0.0958
 8730SOL    HW237650   0.060   4.479   5.556 -0.0848 -1.5104  3.0010
 8731SOL     OW37651   3.299   3.174   7.560  0.4689  0.1124  0.2959
 8731SOL    HW137652   3.208   3.178   7.531  0.3709  1.2205  0.7682
 8731SOL    HW237653   3.349   3.213   7.489  1.3854  1.4595  1.6775
 8732SOL     OW37654   4.430   4.384   6.256 -0.0172  0.6520  0.3053
 8732SOL    HW137655   4.350   4.339   6.283  0.6499 -0.7718 -0.0690
 8732SOL    HW237656   4.487   4.309   6.239 -0.3533  0.5607 -0.4556
 8733SOL     OW37657   0.816   3.374   6.624  0.1600  0.6949 -0.0525
 8733SOL    HW137658   0.837   3.394   6.533  0.4894 -0.4142 -0.2201
 8733SOL    HW237659   0.873   3.437   6.669  1.6733 -0.9947  0.4133
 8734SOL     OW37660   1.255   2.355   9.362 -0.4756 -0.2257 -0.2722
 8734SOL    HW137661   1.290   2.438   9.329 -2.5710  1.6606  2.1933
 8734SOL    HW237662   1.336   2.305   9.370 -1.8617 -2.3919  0.1477
 8735SOL     OW37663   2.569   2.792   3.525  0.0124  0.0978  0.1723
 8735SOL    HW137664   2.482   2.816   3.493 -0.0137 -1.1364 -0.6594
 8735SOL    HW237665   2.575   2.698   3.512 -2.1657  0.1649 -1.2727
 8736SOL     OW37666   1.596   3.229   8.838 -0.5519 -0.5417 -0.2926
 8736SOL    HW137667   1.641   3.164   8.893  1.6328  0.4137 -0.9756
 8736SOL    HW237668   1.505   3.199   8.829 -0.1137 -1.5000 -1.5569
 8737SOL     OW37669   3.524   3.928  13.085 -0.0991 -0.0359 -0.1916
 8737SOL    HW137670   3.591   3.995  13.095  1.5871 -1.6641 -0.4387
 8737SOL    HW237671   3.574   3.867  13.031  0.9742  1.3008 -0.7086
 8738SOL     OW37672   3.684   1.676  16.792  0.2828 -0.2410  0.4972
 8738SOL    HW137673   3.725   1.761  16.807  0.1499 -0.1254  0.2207
 8738SOL    HW237674   3.632   1.684  16.711  0.1215 -0.3137  0.5923
 8739SOL     OW37675   2.159   4.326  16.187 -0.4970  0.0644 -0.5005
 8739SOL    HW137676   2.193   4.239  16.166 -0.8579 -0.2818  0.3692
 8739SOL    HW237677   2.129   4.351  16.099 -2.0023  2.4499  0.6995
 8740SOL     OW37678   1.709   3.948   2.091  0.0480  0.0267 -0.5963
 8740SOL    HW137679   1.631   3.965   2.037 -0.0077  0.7535 -0.2884
 8740SOL    HW237680   1.654   3.912   2.161  0.7071 -0.9647 -0.5900
 8741SOL     OW37681   1.814   0.142   1.711  0.3642  0.9262  0.3361
 8741SOL    HW137682   1.719   0.147   1.707  0.2684 -1.8254 -0.2860
 8741SOL    HW237683   1.838   0.119   1.622  2.4658 -1.1656  1.4428
 8742SOL     OW37684   4.214   0.417   2.004 -0.2097 -0.1137  0.2468
 8742SOL    HW137685   4.204   0.509   1.983  0.4859  0.1549  1.1191
 8742SOL    HW237686   4.124   0.386   1.995  0.5923 -2.2821 -0.3361
 8743SOL     OW37687   3.466   4.515  14.004 -0.1873  0.0532 -0.6683
 8743SOL    HW137688   3.561   4.517  14.019 -0.7321 -0.0488  2.8369
 8743SOL    HW237689   3.467   4.571  13.926 -3.5114 -1.0940 -1.5074
 8744SOL     OW37690   3.510   0.513   1.983 -0.0278  0.1800 -0.4073
 8744SOL    HW137691   3.537   0.424   2.005  1.2816  0.0969 -2.2807
 8744SOL    HW237692   3.593   0.553   1.956 -0.0105  0.7328  0.4724
 8745SOL     OW37693   1.999   4.256   1.679 -0.2940 -0.1749  0.0349
 8745SOL    HW137694   1.978   4.181   1.623  1.6095  1.2110 -2.4797
 8745SOL    HW237695   2.094   4.256   1.680 -0.2699  1.0042 -3.4830
 8746SOL     OW37696   1.402   4.366   8.649  0.4532  0.1276  0.1694
 8746SOL    HW137697   1.386   4.321   8.732 -3.1010  3.8739  1.5180
 8746SOL    HW237698   1.377   4.305   8.580 -2.9861 -0.0076  1.5579
 8747SOL     OW37699   0.890   3.186   7.861  0.1842 -0.3506  0.0062
 8747SOL    HW137700   0.807   3.198   7.816  0.0572 -0.3070  0.2487
 8747SOL    HW237701   0.859   3.138   7.938 -0.5234  0.0282 -0.0455
 8748SOL     OW37702   4.158   1.437   3.155 -0.4292 -0.2957 -0.3578
 8748SOL    HW137703   4.097   1.496   3.198 -1.1711  0.4107 -2.3756
 8748SOL    HW237704   4.228   1.436   3.220 -1.2410 -1.0866  0.5074
 8749SOL     OW37705   1.013   0.875   9.040 -0.6151 -0.2685 -0.1656
 8749SOL    HW137706   1.018   0.819   8.963  0.0890 -2.8736  1.7932
 8749SOL    HW237707   1.086   0.836   9.088 -0.9732 -0.4561  0.2276
 8750SOL     OW37708   2.335   4.684   4.153  0.0873  0.0792  0.4687
 8750SOL    HW137709   2.309   0.022   4.084 -2.3556 -1.4781 -0.0006
 8750SOL    HW237710   2.383   0.024   4.206 -0.0045  0.9919 -0.5428
 8751SOL     OW37711   3.649   0.212   3.705  0.4264  0.1887  0.0811
 8751SOL    HW137712   3.574   0.272   3.700  0.4241  0.2713  1.1898
 8751SOL    HW237713   3.707   0.278   3.744  0.4803  1.1582 -1.5805
 8752SOL     OW37714   0.364   4.338   4.608  0.3246  0.1308 -0.0664
 8752SOL    HW137715   0.367   4.368   4.518  0.4417  0.2271 -0.0314
 8752SOL    HW237716   0.339   4.412   4.663  0.6105  0.7696 -0.7979
 8753SOL     OW37717   1.269   4.266   0.293  0.1256 -0.3811  0.0020
 8753SOL    HW137718   1.302   4.277   0.382 -0.2391 -1.3736  0.2531
 8753SOL    HW237719   1.175   4.277   0.306  0.6010  1.5446  1.8308
 8754SOL     OW37720   2.936   0.303   5.249  0.6616 -0.3275 -0.3805
 8754SOL    HW137721   2.881   0.235   5.210  0.0706  1.2571 -2.3193
 8754SOL    HW237722   2.926   0.356   5.170  0.2777 -0.0886 -0.1762
 8755SOL     OW37723   3.504   2.325   4.347  0.2564  0.0028  0.8220
 8755SOL    HW137724   3.572   2.321   4.280 -0.7818 -1.6369 -0.1425
 8755SOL    HW237725   3.505   2.234   4.376  1.5926 -0.3054 -0.1804
 8756SOL     OW37726   2.676   3.444   3.812 -0.7838  0.2863  0.0228
 8756SOL    HW137727   2.597   3.498   3.814  0.3771  1.9833  0.1847
 8756SOL    HW237728   2.732   3.478   3.742 -0.3295  0.3494  0.4144
 8757SOL     OW37729   2.261   3.980   4.160 -0.2378 -0.2947 -0.3896
 8757SOL    HW137730   2.311   3.911   4.118 -0.0582  1.3218 -2.8286
 8757SOL    HW237731   2.331   4.019   4.212  0.2955  0.3722 -1.6296
 8758SOL     OW37732   2.722   0.231   2.856 -0.1536 -0.4476  0.4944
 8758SOL    HW137733   2.702   0.281   2.777  0.2793 -0.9307  0.0798
 8758SOL    HW237734   2.740   0.146   2.814 -0.4708  0.0246 -0.6102
 8759SOL     OW37735   4.566   2.506  15.527  0.3202  0.3872 -0.1659
 8759SOL    HW137736   4.659   2.521  15.547 -0.1809 -0.7751  3.1624
 8759SOL    HW237737   4.529   2.541  15.608 -1.9396  1.7799 -1.8060
 8760SOL     OW37738   0.652   3.480  11.578 -0.2790  0.4087  0.6556
 8760SOL    HW137739   0.658   3.388  11.554 -1.5316  0.0505  1.7296
 8760SOL    HW237740   0.719   3.492  11.644  0.4144  0.1986 -0.0164
 8761SOL     OW37741   2.344   2.537   9.567  0.2679 -0.0286 -0.1181
 8761SOL    HW137742   2.437   2.546   9.547  0.1746  0.8494 -0.1495
 8761SOL    HW237743   2.351   2.562   9.659  1.0143  1.1097 -0.4854
 8762SOL     OW37744   1.009   2.834   7.471  0.9496 -0.1809 -0.0682
 8762SOL    HW137745   1.073   2.823   7.401  0.7892  0.0761 -0.2549
 8762SOL    HW237746   0.965   2.917   7.453 -0.7126 -1.0108  0.1949
 8763SOL     OW37747   4.528   2.357   4.679 -0.0133  0.4903  0.0900
 8763SOL    HW137748   4.502   2.449   4.672  1.3511  0.8669  0.1414
 8763SOL    HW237749   4.592   2.355   4.750  0.3553 -1.5112 -0.3019
 8764SOL     OW37750   1.755   0.917   2.867 -0.1007 -0.1191 -0.1984
 8764SOL    HW137751   1.660   0.934   2.870 -0.1908 -0.8688  1.1591
 8764SOL    HW237752   1.790   1.006   2.862 -1.9027  0.7164  1.7844
 8765SOL     OW37753   2.376   2.316   4.805  0.3079  0.4832  0.2751
 8765SOL    HW137754   2.375   2.269   4.888 -0.5653  0.3275  0.1793
 8765SOL    HW237755   2.293   2.362   4.791  0.1448  0.9180  2.6444
 8766SOL     OW37756   1.410   3.412   0.803  0.4493  0.2357 -0.5968
 8766SOL    HW137757   1.443   3.475   0.867 -0.9418  0.7553 -0.3877
 8766SOL    HW237758   1.431   3.329   0.844  0.3679  0.5600  0.0930
 8767SOL     OW37759   0.521   3.956   9.579  0.1628 -0.0464  0.0893
 8767SOL    HW137760   0.593   4.014   9.554 -0.2099  0.8301  1.0205
 8767SOL    HW237761   0.572   3.880   9.606  0.8114  0.1739 -0.5224
 8768SOL     OW37762   0.155   2.453  12.906  0.2997 -0.2703 -0.7624
 8768SOL    HW137763   0.250   2.445  12.916  0.1571 -0.8227  0.1868
 8768SOL    HW237764   0.124   2.408  12.985 -0.6976 -0.9091 -1.5125
 8769SOL     OW37765   0.248   2.798   5.704  0.0414  1.1169 -0.2159
 8769SOL    HW137766   0.161   2.836   5.693 -0.4016 -0.0122 -0.5729
 8769SOL    HW237767   0.257   2.731   5.636  2.6292  1.6539 -0.3955
 8770SOL     OW37768   4.609   3.398   2.765 -0.0944  0.2017  0.1554
 8770SOL    HW137769   4.663   3.438   2.833 -0.9080  3.5396 -1.1576
 8770SOL    HW237770   4.684   3.387   2.707 -0.9070 -2.1383 -0.4490
 8771SOL     OW37771   3.245   4.228   2.010  0.0827 -0.0425  0.0963
 8771SOL    HW137772   3.311   4.230   1.940 -1.2971  0.9043 -1.1746
 8771SOL    HW237773   3.260   4.300   2.071 -0.2970  0.8429 -0.8509
 8772SOL     OW37774   1.346   2.381   7.439 -0.6734 -0.3424  0.9680
 8772SOL    HW137775   1.298   2.463   7.447 -0.8399 -0.4785  1.3692
 8772SOL    HW237776   1.369   2.366   7.531  1.6923  0.0740  0.4546
 8773SOL     OW37777   4.252   2.267   5.004  0.3890  0.2914 -0.0568
 8773SOL    HW137778   4.241   2.223   4.920 -1.7577  0.3812  0.1974
 8773SOL    HW237779   4.342   2.242   5.028  0.5478  1.6032  0.6973
 8774SOL     OW37780   2.636   0.062  16.490  0.4551  0.7426  0.3453
 8774SOL    HW137781   2.565   0.006  16.521 -0.5982  1.2039 -1.2317
 8774SOL    HW237782   2.696   4.716  16.463  0.1723  0.4749  0.4074
 8775SOL     OW37783   0.874   0.145  17.322 -0.0469  0.1272  0.7685
 8775SOL    HW137784   0.856   0.143  17.228 -1.1042 -0.9340  0.9993
 8775SOL    HW237785   0.813   0.212  17.351  0.2216  0.9596 -0.5579
 8776SOL     OW37786   3.204   2.303   1.618  0.3545  0.5621  0.1060
 8776SOL    HW137787   3.225   2.210   1.610 -0.5096  0.2986  0.8103
 8776SOL    HW237788   3.112   2.283   1.637  0.2086  1.0319 -0.0877
 8777SOL     OW37789   4.133   2.663  13.017  0.0739 -0.2073  0.3314
 8777SOL    HW137790   4.222   2.697  13.027  0.6724 -1.0863 -2.1723
 8777SOL    HW237791   4.129   2.613  12.936 -2.6545 -0.6082  0.6968
 8778SOL     OW37792   1.553   0.235   0.827 -0.1866 -0.7459 -0.3202
 8778SOL    HW137793   1.479   0.245   0.887  0.0118 -3.0356  0.3031
 8778SOL    HW237794   1.556   0.323   0.790 -1.7869  0.1528  1.6686
 8779SOL     OW37795   4.144   1.197  16.506  0.4593 -0.4282  0.3054
 8779SOL    HW137796   4.236   1.218  16.522  0.4173  0.7591 -1.0225
 8779SOL    HW237797   4.106   1.229  16.588 -0.7587  0.4784 -0.6186
 8780SOL     OW37798   4.712   2.644   3.486 -0.3557 -0.1544 -0.3375
 8780SOL    HW137799   4.711   2.604   3.573 -1.1601 -1.3629 -0.9019
 8780SOL    HW237800   0.051   2.717   3.494  1.1001 -1.5655  1.3604
 8781SOL     OW37801   3.646   2.173   6.968 -0.4934 -0.1042 -0.4643
 8781SOL    HW137802   3.594   2.158   7.046  0.8344  0.8994  0.6202
 8781SOL    HW237803   3.731   2.170   7.012 -0.1912  2.3152 -0.8915
 8782SOL     OW37804   0.795   2.887   4.689  0.2264 -0.0668 -0.7021
 8782SOL    HW137805   0.745   2.919   4.764 -0.2218 -0.2590 -0.9155
 8782SOL    HW237806   0.878   2.929   4.709 -0.1431 -0.8174  2.3795
 8783SOL     OW37807   4.626   1.611   3.428  0.3472  0.2360  0.5595
 8783SOL    HW137808   4.670   1.682   3.477  4.2127 -0.5247 -1.7604
 8783SOL    HW237809   4.687   1.538   3.428 -0.4860 -0.4419 -1.3786
 8784SOL     OW37810   2.741   0.817   3.992  0.5990  0.4201  0.1712
 8784SOL    HW137811   2.709   0.855   3.911 -0.1837  0.3932  0.4690
 8784SOL    HW237812   2.834   0.804   3.971  0.7902  1.2726  0.4982
 8785SOL     OW37813   4.539   0.167   4.912  0.4816  0.0555  0.8129
 8785SOL    HW137814   4.556   0.090   4.965  1.6299  0.5280  1.1272
 8785SOL    HW237815   4.551   0.130   4.824  0.6203  1.5116  0.2083
 8786SOL     OW37816   2.072   0.881   8.595 -0.2958  0.3421 -0.1422
 8786SOL    HW137817   1.979   0.871   8.619 -0.4059  0.0184 -0.6980
 8786SOL    HW237818   2.109   0.822   8.660  0.0614 -0.5453 -1.1479
 8787SOL     OW37819   3.825   0.142   6.174  0.7026  0.3566  0.4989
 8787SOL    HW137820   3.797   0.134   6.084 -0.0387  2.5282  0.5444
 8787SOL    HW237821   3.784   0.067   6.217  1.1356 -1.8283 -2.9677
 8788SOL     OW37822   3.429   2.825   7.687 -0.2331 -0.1529 -0.0091
 8788SOL    HW137823   3.448   2.913   7.719 -0.3853 -0.6667  1.4939
 8788SOL    HW237824   3.364   2.788   7.748 -0.9980  0.0132 -0.7189
 8789SOL     OW37825   2.256   3.255   8.918 -0.1162 -0.4977 -0.1854
 8789SOL    HW137826   2.291   3.168   8.900  0.6485  0.0063 -1.0924
 8789SOL    HW237827   2.327   3.301   8.963 -0.9406  1.0675 -0.4605
 8790SOL     OW37828   2.796   1.843  13.238 -0.8026  0.7070 -0.0675
 8790SOL    HW137829   2.822   1.855  13.147 -0.4952 -1.2214 -0.2299
 8790SOL    HW237830   2.831   1.925  13.271 -0.4794  1.1270 -1.4374
 8791SOL     OW37831   4.478   1.238   9.391  0.3763 -0.0913 -0.2316
 8791SOL    HW137832   4.570   1.213   9.404 -0.3431 -1.6221  1.8961
 8791SOL    HW237833   4.485   1.333   9.396  1.0810 -0.2163  1.0447
 8792SOL     OW37834   0.799   0.934   9.463  0.1413 -0.9065  0.4909
 8792SOL    HW137835   0.753   0.851   9.445 -0.4141 -0.0484 -2.0419
 8792SOL    HW237836   0.740   0.974   9.527  0.9022  0.1571  0.5228
 8793SOL     OW37837   0.096   2.531   6.695  0.0674 -0.5028 -0.0998
 8793SOL    HW137838   0.037   2.482   6.637 -0.1225  0.9080 -1.1075
 8793SOL    HW237839   0.094   2.491   6.782  1.0061 -0.7820 -0.2042
 8794SOL     OW37840   0.498   4.635   2.499  0.7140 -0.0417  0.3630
 8794SOL    HW137841   0.530   4.672   2.581 -0.4140 -0.2984  0.9229
 8794SOL    HW237842   0.562   4.565   2.489 -1.5948 -1.7578 -2.3946
 8795SOL     OW37843   4.675   1.049   4.004  0.3219  0.1155  0.3521
 8795SOL    HW137844   4.605   1.032   4.067  1.8331  0.8765  2.2397
 8795SOL    HW237845   4.687   0.961   3.967 -0.2055 -0.1787  0.8753
 8796SOL     OW37846   2.468   3.533  14.531 -0.1424  0.1739  0.9333
 8796SOL    HW137847   2.504   3.595  14.467 -1.3971 -0.3146 -0.2431
 8796SOL    HW237848   2.374   3.546  14.543 -0.7493 -3.6826  0.2912
 8797SOL     OW37849   4.601   1.756   4.252  0.9536 -1.0771 -0.2447
 8797SOL    HW137850   4.584   1.808   4.331  3.0802 -1.2136  0.3037
 8797SOL    HW237851   4.555   1.673   4.266 -1.1393  0.1846  0.4990
 8798SOL     OW37852   3.555   2.169   9.527  0.0185  0.3854  0.4694
 8798SOL    HW137853   3.529   2.093   9.579  0.8989 -2.2732 -2.9969
 8798SOL    HW237854   3.631   2.196   9.579  0.1442  0.9265  0.0044
 8799SOL     OW37855   1.935   0.496  14.770 -0.1293  0.1794 -0.6801
 8799SOL    HW137856   1.927   0.522  14.862  0.1257 -0.2636 -0.5342
 8799SOL    HW237857   2.027   0.476  14.757 -0.5587 -2.0305 -0.3137
 8800SOL     OW37858   0.270   3.165  17.286 -0.4713 -0.3043  0.2034
 8800SOL    HW137859   0.181   3.162  17.320 -0.9837  0.1691 -1.1036
 8800SOL    HW237860   0.326   3.124  17.353  0.4052 -1.3489 -1.1792
 8801SOL     OW37861   4.709   2.298   4.932 -0.1583 -0.2127 -0.7605
 8801SOL    HW137862   0.055   2.358   4.903  0.8214 -0.0190  1.9657
 8801SOL    HW237863   4.680   2.320   5.021  2.6112  3.4675 -0.7613
 8802SOL     OW37864   3.569   3.970   5.978  0.1595  0.2272  0.3886
 8802SOL    HW137865   3.513   4.023   6.035 -0.6676  1.2959 -1.4056
 8802SOL    HW237866   3.527   3.886   5.991 -1.0201  0.7338 -0.1157
 8803SOL     OW37867   0.874   2.804   8.036 -0.0654  0.3269 -0.1072
 8803SOL    HW137868   0.935   2.772   8.103 -2.0566 -4.0940 -0.4215
 8803SOL    HW237869   0.918   2.787   7.953  0.6926 -1.7893  0.7255
 8804SOL     OW37870   0.282   3.470   0.359 -0.4848  0.3546  0.0229
 8804SOL    HW137871   0.341   3.539   0.390  1.7626 -1.2694 -0.7087
 8804SOL    HW237872   0.197   3.512   0.374 -0.6333 -0.6763  2.0992
 8805SOL     OW37873   2.462   4.440  12.260 -0.2324 -0.0069 -0.1533
 8805SOL    HW137874   2.535   4.488  12.298  0.4983 -1.2693  0.0375
 8805SOL    HW237875   2.507   4.382  12.198 -0.3272 -2.1480  1.7526
 8806SOL     OW37876   1.229   2.548   3.927  0.6961 -0.1154 -0.0927
 8806SOL    HW137877   1.136   2.564   3.910  0.4374 -0.6769  0.7984
 8806SOL    HW237878   1.270   2.634   3.930 -0.2555  0.2682  1.6506
 8807SOL     OW37879   1.771   1.702   9.894 -0.3080 -0.4955  0.2903
 8807SOL    HW137880   1.835   1.757   9.849  0.4014 -2.1340 -0.7122
 8807SOL    HW237881   1.705   1.769   9.877  0.5993 -0.1569 -2.0079
 8808SOL     OW37882   1.725   2.353   3.647  0.3536 -0.2313  0.0905
 8808SOL    HW137883   1.644   2.376   3.602 -0.0597 -0.4347  0.7266
 8808SOL    HW237884   1.758   2.438   3.675  2.5191 -0.8751 -0.4721
 8809SOL     OW37885   4.100   0.745   5.270  0.3422  0.2186  0.7610
 8809SOL    HW137886   4.025   0.772   5.216 -0.3101 -0.5469  1.2754
 8809SOL    HW237887   4.062   0.757   5.356  0.7265 -2.6426  1.3533
 8810SOL     OW37888   0.851   4.142  14.365 -0.1329 -0.6773 -0.3709
 8810SOL    HW137889   0.825   4.065  14.415 -1.6288  1.2532  1.7721
 8810SOL    HW237890   0.892   4.200  14.428 -4.0282 -0.4476  1.9222
 8811SOL     OW37891   3.729   0.631   2.450  0.3475 -0.6047  0.4261
 8811SOL    HW137892   3.659   0.669   2.502  0.3011 -0.8409  0.5386
 8811SOL    HW237893   3.807   0.677   2.482  0.8895 -0.7951 -0.6324
 8812SOL     OW37894   3.698   1.736   3.790 -0.5444  1.0324  0.2153
 8812SOL    HW137895   3.613   1.774   3.772 -1.1267 -0.5487 -0.3885
 8812SOL    HW237896   3.742   1.821   3.793  1.1404  0.1204  1.2504
 8813SOL     OW37897   3.849   4.186   8.409  0.0124  0.6812  0.1981
 8813SOL    HW137898   3.884   4.112   8.460 -1.0744 -0.5450 -0.8142
 8813SOL    HW237899   3.801   4.131   8.346 -0.2138  0.0257  0.9446
 8814SOL     OW37900   0.208   1.357  14.984 -0.1811 -0.2054 -1.1478
 8814SOL    HW137901   0.274   1.421  15.012 -2.2293  1.6090 -0.5209
 8814SOL    HW237902   0.128   1.390  15.024 -0.4061 -1.8722 -0.2239
 8815SOL     OW37903   3.331   1.981  13.251  0.5847 -0.2522  0.3714
 8815SOL    HW137904   3.348   2.037  13.326  1.8594  0.0448 -0.1398
 8815SOL    HW237905   3.238   1.985  13.275 -0.0574  1.8095 -2.4719
 8816SOL     OW37906   3.876   4.610   2.971  0.0158  0.4486 -0.6316
 8816SOL    HW137907   3.958   4.631   2.926 -0.2158  1.5058 -0.5525
 8816SOL    HW237908   3.825   4.632   2.893 -1.9375  2.8906  1.3483
 8817SOL     OW37909   0.446   0.120   7.809 -0.1495  0.1056 -0.2565
 8817SOL    HW137910   0.429   0.208   7.842 -0.3083  0.2063 -0.6082
 8817SOL    HW237911   0.485   0.083   7.888 -3.3387 -3.7095 -0.4208
 8818SOL     OW37912   2.110   4.664   7.580 -0.4202 -0.1288  0.6976
 8818SOL    HW137913   2.078   0.009   7.638 -4.3913 -2.3431  1.0835
 8818SOL    HW237914   2.046   4.668   7.509  1.9985  0.5916 -1.4926
 8819SOL     OW37915   2.816   2.979   4.853 -0.3085 -0.1402 -0.0027
 8819SOL    HW137916   2.729   2.978   4.892  0.2926 -0.5426  1.3019
 8819SOL    HW237917   2.790   2.984   4.761 -0.7326 -2.8969 -0.0491
 8820SOL     OW37918   0.783   1.719   7.239  0.0184  0.2448 -0.2120
 8820SOL    HW137919   0.780   1.698   7.332  0.5529  0.4297 -0.1535
 8820SOL    HW237920   0.820   1.648   7.186 -1.7659 -0.6987 -0.1829
 8821SOL     OW37921   3.111   0.686   6.314  0.5470 -0.4068  0.1281
 8821SOL    HW137922   3.130   0.776   6.288 -0.2175 -0.5744 -1.0764
 8821SOL    HW237923   3.199   0.653   6.331  0.8000  0.2959  0.1812
 8822SOL     OW37924   2.899   3.182   1.853  0.0300 -0.3524 -0.2375
 8822SOL    HW137925   2.991   3.154   1.852  0.1754  0.0358  2.3072
 8822SOL    HW237926   2.856   3.099   1.833 -0.4521 -0.5746  1.6905
 8823SOL     OW37927   4.099   1.426   6.898 -0.2422 -0.2380 -0.0954
 8823SOL    HW137928   4.024   1.470   6.859  0.4813  0.5661 -0.5800
 8823SOL    HW237929   4.061   1.341   6.921  0.7837 -0.9499 -1.0684
 8824SOL     OW37930   3.594   3.343   4.736 -0.3459 -0.2282  1.0451
 8824SOL    HW137931   3.681   3.334   4.775 -0.5481 -1.6803  1.1376
 8824SOL    HW237932   3.599   3.437   4.719  2.0835 -0.5242  0.1204
 8825SOL     OW37933   0.599   3.776   6.291 -0.2305 -0.0408  0.2735
 8825SOL    HW137934   0.515   3.818   6.306 -0.4257 -1.0480  1.9769
 8825SOL    HW237935   0.571   3.685   6.279 -0.0682 -0.0136 -0.3422
 8826SOL     OW37936   1.886   2.157   6.056 -0.0760 -0.8496  0.3297
 8826SOL    HW137937   1.881   2.135   5.963 -0.2034  0.0439  0.1199
 8826SOL    HW237938   1.969   2.114   6.078 -2.3922 -3.9985  2.9430
 8827SOL     OW37939   3.626   0.777   3.596  0.4521 -0.4514 -0.0871
 8827SOL    HW137940   3.585   0.815   3.518 -2.0884 -0.1068  1.4381
 8827SOL    HW237941   3.632   0.856   3.650 -0.0796  0.3221 -1.1549
 8828SOL     OW37942   0.121   2.019   5.975 -0.4219  0.3440 -0.1276
 8828SOL    HW137943   0.050   2.040   5.914  0.5535  2.4428 -0.5393
 8828SOL    HW237944   0.138   1.926   5.959  1.2689  0.8157 -0.9981
 8829SOL     OW37945   1.726   3.327   2.343  0.1818 -0.4800  0.8896
 8829SOL    HW137946   1.646   3.277   2.324 -1.1989  0.6754  3.5090
 8829SOL    HW237947   1.688   3.399   2.395  0.7065 -0.1375  0.7991
 8830SOL     OW37948   2.294   4.667   4.684  0.0024  0.0297 -0.2174
 8830SOL    HW137949   2.387   4.646   4.697 -0.4348 -1.8256 -0.0649
 8830SOL    HW237950   2.304   0.038   4.686  2.1483 -0.1907 -0.6056
 8831SOL     OW37951   1.484   1.793   4.945  0.0209 -0.2089 -0.1300
 8831SOL    HW137952   1.406   1.798   4.889  0.6776 -0.1118 -1.0377
 8831SOL    HW237953   1.551   1.850   4.907 -2.2326  3.4351  1.3265
 8832SOL     OW37954   3.498   1.410   3.990  0.1994 -1.1105 -0.0735
 8832SOL    HW137955   3.506   1.480   4.055 -0.3655 -1.7163  0.6619
 8832SOL    HW237956   3.590   1.421   3.965 -0.3666 -0.3146 -1.7375
 8833SOL     OW37957   0.498   0.743   6.081 -0.5941 -0.3140 -0.3241
 8833SOL    HW137958   0.452   0.678   6.133 -0.9399  0.2052  0.0061
 8833SOL    HW237959   0.449   0.748   5.999  1.3107 -0.4648 -1.4970
 8834SOL     OW37960   3.367   4.117   8.873  0.0468 -0.4918 -0.6362
 8834SOL    HW137961   3.430   4.137   8.942 -1.0746 -0.3001  0.3337
 8834SOL    HW237962   3.313   4.050   8.916 -0.4194  1.7443  2.2456
 8835SOL     OW37963   3.069   3.226   6.211 -0.5713  0.3484  0.2862
 8835SOL    HW137964   3.085   3.138   6.177  1.4292 -0.0841  2.3368
 8835SOL    HW237965   3.017   3.220   6.290 -2.6682  1.3261 -1.0207
 8836SOL     OW37966   1.510   3.749  16.706 -0.0515 -0.4327 -0.4813
 8836SOL    HW137967   1.604   3.731  16.706 -0.1353 -1.0361  2.5827
 8836SOL    HW237968   1.488   3.689  16.635  0.3109  1.0970 -1.8918
 8837SOL     OW37969   1.100   3.091   8.929 -0.2157  0.1382 -0.3358
 8837SOL    HW137970   1.092   3.082   9.024 -1.0360  1.8195 -0.2397
 8837SOL    HW237971   1.008   3.087   8.903  0.0219  0.2368 -1.2020
 8838SOL     OW37972   2.716   4.708   1.526  0.5497 -0.0406  0.2344
 8838SOL    HW137973   2.728   4.687   1.619  0.9496  3.0083  0.8926
 8838SOL    HW237974   2.781   0.049   1.499  1.6749 -1.2008  0.1627
 8839SOL     OW37975   0.710   2.335   8.922  0.1902  0.2247 -0.1466
 8839SOL    HW137976   0.757   2.367   8.846  2.9418 -1.4313  0.8836
 8839SOL    HW237977   0.697   2.421   8.962  0.0877 -0.5048  1.3944
 8840SOL     OW37978   4.189   0.942  13.035 -0.1951  0.2058 -0.2204
 8840SOL    HW137979   4.223   0.891  12.961 -1.0866 -2.5903  1.3144
 8840SOL    HW237980   4.116   0.983  12.989 -1.5975 -0.9142  1.0104
 8841SOL     OW37981   2.006   0.696  17.577  0.3167  0.4118  0.1104
 8841SOL    HW137982   1.919   0.669  17.548  1.1918 -1.3216 -0.8787
 8841SOL    HW237983   2.044   0.736  17.498 -2.9093 -1.9980 -2.6708
 8842SOL     OW37984   3.250   4.022   8.180 -0.1387  0.1188 -0.0048
 8842SOL    HW137985   3.262   4.059   8.093  1.9353 -2.4841 -0.8443
 8842SOL    HW237986   3.322   3.960   8.175  0.5890  0.9593  0.0932
 8843SOL     OW37987   4.473   0.876   9.184 -0.2607 -0.6601 -0.1843
 8843SOL    HW137988   4.551   0.930   9.188 -2.5274  2.5085  0.6990
 8843SOL    HW237989   4.419   0.911   9.254  2.1261  1.6341  0.5007
 8844SOL     OW37990   4.574   1.325   0.330  0.3543  0.3188 -0.1737
 8844SOL    HW137991   4.528   1.314   0.247 -1.1870  3.7979  0.2292
 8844SOL    HW237992   4.651   1.378   0.309  0.8133 -0.3910 -0.2929
 8845SOL     OW37993   2.959   1.172   8.406  0.4277 -0.1455  0.2198
 8845SOL    HW137994   2.883   1.119   8.429 -0.0766  0.4271 -0.1370
 8845SOL    HW237995   3.011   1.181   8.486 -1.6680 -2.5731  1.8258
 8846SOL     OW37996   0.892   1.380   3.631  0.2329 -0.1064  0.2955
 8846SOL    HW137997   0.938   1.436   3.693  4.2164 -2.2469 -0.7079
 8846SOL    HW237998   0.965   1.328   3.597  1.9211  0.0525  3.7021
 8847SOL     OW37999   0.936   1.929   5.662 -0.0746  0.2587 -0.2294
 8847SOL    HW138000   0.850   1.914   5.622  0.1969  2.5824 -1.7036
 8847SOL    HW238001   0.953   2.019   5.635 -1.0599  0.9013  1.3445
 8848SOL     OW38002   4.687   2.181   2.882  0.0189 -0.5840 -0.5397
 8848SOL    HW138003   4.609   2.126   2.876 -0.3450 -0.3379  1.8146
 8848SOL    HW238004   4.656   2.264   2.918  0.5318 -0.3653 -0.6048
 8849SOL     OW38005   1.989   4.216   3.057  0.2031  0.1399  1.0138
 8849SOL    HW138006   2.019   4.307   3.060 -0.8063  0.4724  0.7341
 8849SOL    HW238007   2.047   4.179   2.990 -0.9208 -0.7037  0.5199
 8850SOL     OW38008   0.056   4.476   6.847  0.1950 -0.1765 -0.2468
 8850SOL    HW138009   4.687   4.501   6.850  0.4441  0.6549  0.6863
 8850SOL    HW238010   0.092   4.559   6.878 -0.0283  0.3467 -1.3856
 8851SOL     OW38011   0.716   2.869   4.425 -0.0558 -0.1096  0.3652
 8851SOL    HW138012   0.756   2.870   4.512  0.5514  1.7172  0.0737
 8851SOL    HW238013   0.662   2.948   4.418  0.8318  0.3156 -1.5515
 8852SOL     OW38014   3.570   0.493   4.405 -0.4340  0.0067  0.5356
 8852SOL    HW138015   3.540   0.407   4.374 -2.1414  1.0048 -0.6004
 8852SOL    HW238016   3.504   0.545   4.357  0.8967  1.7098  0.5425
 8853SOL     OW38017   1.513   3.803   6.708  0.0880  0.0320  0.4171
 8853SOL    HW138018   1.440   3.795   6.646  1.1712 -0.5481 -0.7964
 8853SOL    HW238019   1.581   3.848   6.658 -0.1326  1.7383  1.6637
 8854SOL     OW38020   2.993   2.879   2.869 -0.3174  0.1286 -0.1781
 8854SOL    HW138021   2.997   2.797   2.820  0.0776  0.2435 -0.3374
 8854SOL    HW238022   2.909   2.916   2.840  1.0504  2.4595 -1.1686
 8855SOL     OW38023   0.464   4.534   7.382 -0.5296  0.6530  0.0608
 8855SOL    HW138024   0.559   4.543   7.378 -0.3037 -3.7810 -4.6414
 8855SOL    HW238025   0.449   4.524   7.476 -2.6265 -0.7133 -0.4108
 8856SOL     OW38026   3.034   4.629   5.404 -0.0642  0.2398 -0.6929
 8856SOL    HW138027   3.054   4.691   5.334  0.0648 -1.3440 -2.0578
 8856SOL    HW238028   3.001   4.550   5.360 -0.4947 -0.7539  1.4012
 8857SOL     OW38029   0.894   0.180   3.826 -0.2655  0.0037  0.0108
 8857SOL    HW138030   0.942   0.128   3.891  0.3259 -1.7673 -1.8642
 8857SOL    HW238031   0.804   0.172   3.858 -0.3454  0.2389 -0.1582
 8858SOL     OW38032   3.375   4.686   4.597 -0.7254  0.9617  0.6531
 8858SOL    HW138033   3.444   0.028   4.608 -0.5867  0.3654  3.2264
 8858SOL    HW238034   3.402   4.640   4.517  0.3198  2.6928  0.0098
 8859SOL     OW38035   2.530   1.887   3.817 -0.1245  0.3385  0.4364
 8859SOL    HW138036   2.563   1.951   3.754 -0.2731  1.7277  1.7645
 8859SOL    HW238037   2.439   1.886   3.787 -0.2718 -0.9285  0.9129
 8860SOL     OW38038   2.638   0.559   2.446 -0.4911  0.8129 -0.0434
 8860SOL    HW138039   2.679   0.644   2.460  2.6373 -1.0107  1.7954
 8860SOL    HW238040   2.663   0.541   2.355 -0.1280  1.4302 -0.0615
 8861SOL     OW38041   0.605   0.653  14.486 -0.3175  0.3063  0.3730
 8861SOL    HW138042   0.671   0.586  14.467  0.0909  0.9851 -0.5427
 8861SOL    HW238043   0.554   0.652  14.405 -0.9595 -2.1881  0.7961
 8862SOL     OW38044   1.663   0.548   1.983 -1.2154 -0.3474  0.5947
 8862SOL    HW138045   1.576   0.550   2.022 -0.5848 -0.5659  1.9857
 8862SOL    HW238046   1.702   0.619   2.033 -1.4448  1.0015 -1.1205
 8863SOL     OW38047   1.715   2.062   2.298 -0.0322 -0.7350 -0.7386
 8863SOL    HW138048   1.795   2.028   2.259 -0.5459 -0.5114 -1.9921
 8863SOL    HW238049   1.739   2.154   2.305 -1.2045 -0.6253  1.7534
 8864SOL     OW38050   0.763   4.140  15.001  0.1927 -0.5682  0.3089
 8864SOL    HW138051   0.843   4.188  15.022  0.9702 -1.2236 -1.1894
 8864SOL    HW238052   0.757   4.070  15.066  1.2917  2.0674  3.2466
 8865SOL     OW38053   4.635   1.834   2.165  0.2736  0.4375  0.0816
 8865SOL    HW138054   4.697   1.880   2.222 -1.8101  0.0515  2.6256
 8865SOL    HW238055   4.595   1.768   2.221  0.6160 -0.6715 -0.9641
 8866SOL     OW38056   0.088   3.428  16.941  0.3306 -0.0798  0.1961
 8866SOL    HW138057   0.109   3.344  16.981  0.2689  0.4386  1.3073
 8866SOL    HW238058   0.177   3.460  16.925  1.1625 -2.5311 -0.0738
 8867SOL     OW38059   3.308   0.522   0.597 -0.3625  0.1137  0.2644
 8867SOL    HW138060   3.367   0.491   0.528 -0.6515 -1.3654  0.6910
 8867SOL    HW238061   3.333   0.615   0.595 -1.8267  0.5459  2.1566
 8868SOL     OW38062   3.876   1.843   8.532 -0.6896 -0.5308 -0.1813
 8868SOL    HW138063   3.876   1.846   8.627  0.6722 -0.5646 -0.1719
 8868SOL    HW238064   3.951   1.901   8.516  0.1623 -1.3146  0.9577
 8869SOL     OW38065   0.040   0.449  15.230  0.4887 -0.3515  0.2670
 8869SOL    HW138066   0.018   0.511  15.161  3.1956 -0.4225 -0.6813
 8869SOL    HW238067   4.713   0.468  15.309 -0.6592 -0.4537 -0.4414
 8870SOL     OW38068   3.807   2.881   4.481 -1.1220 -0.3065  0.0099
 8870SOL    HW138069   3.791   2.923   4.566 -0.2153 -1.3133  0.6806
 8870SOL    HW238070   3.769   2.796   4.506  1.4876 -1.4613  0.0616
 8871SOL     OW38071   0.457   0.563   9.124  0.6838  0.2274  0.1805
 8871SOL    HW138072   0.548   0.594   9.127  0.9853 -0.6761  0.2537
 8871SOL    HW238073   0.470   0.469   9.137 -4.2940 -0.5362 -0.5429
 8872SOL     OW38074   2.804   1.545  17.209 -0.0587  0.4301 -0.6338
 8872SOL    HW138075   2.829   1.627  17.167 -1.3402  0.2871 -1.6654
 8872SOL    HW238076   2.777   1.495  17.132  3.1773 -1.1584 -0.7344
 8873SOL     OW38077   3.697   2.810  12.787 -0.0983 -0.6151  0.0299
 8873SOL    HW138078   3.641   2.790  12.862 -0.8046  0.9832 -0.0670
 8873SOL    HW238079   3.729   2.899  12.804  1.7771 -1.0327 -1.3072
 8874SOL     OW38080   1.748   0.524   6.574 -0.1735  0.2947 -0.4803
 8874SOL    HW138081   1.736   0.437   6.612 -2.9384  1.3308  0.9799
 8874SOL    HW238082   1.660   0.558   6.562 -0.4073  0.0661  0.6837
 8875SOL     OW38083   2.005   2.504   3.933 -0.1703 -0.2239  0.0630
 8875SOL    HW138084   2.006   2.494   3.838 -1.4473 -3.8089  0.4572
 8875SOL    HW238085   1.925   2.554   3.947 -1.6563 -2.7500  0.4993
 8876SOL     OW38086   2.941   4.040   2.243  0.2019 -0.5489 -0.0308
 8876SOL    HW138087   2.864   4.033   2.187 -0.2171  0.2028  0.4537
 8876SOL    HW238088   3.012   3.995   2.196  1.1322 -0.6705  1.4691
 8877SOL     OW38089   3.690   3.006  11.287  0.3538 -0.1938 -0.1005
 8877SOL    HW138090   3.640   2.994  11.367  0.5898 -0.3258  0.0273
 8877SOL    HW238091   3.737   3.089  11.296 -2.9587  1.5688  0.6531
 8878SOL     OW38092   3.038   2.000   5.423  1.2846 -0.1418  0.7356
 8878SOL    HW138093   3.109   2.055   5.391 -0.7865  0.3977 -2.9192
 8878SOL    HW238094   3.002   1.963   5.343  0.9200  1.0975  0.3298
 8879SOL     OW38095   2.103   3.927  10.197 -0.5950 -0.1536  0.5496
 8879SOL    HW138096   2.084   3.944  10.105 -2.1627  2.1483  1.3159
 8879SOL    HW238097   2.079   4.006  10.246  0.6055  0.2452  0.4958
 8880SOL     OW38098   2.111   3.730  10.373  0.0967 -0.4769  0.4703
 8880SOL    HW138099   2.089   3.790  10.301  0.7070  0.2389  0.8807
 8880SOL    HW238100   2.188   3.694  10.329 -1.2232 -0.5694 -1.7407
 8881SOL     OW38101   1.381   3.917  13.632 -0.6925  0.7212  0.6081
 8881SOL    HW138102   1.439   3.950  13.700  1.3014  0.3823 -0.9139
 8881SOL    HW238103   1.294   3.954  13.644 -1.6389 -1.0614 -0.8987
 8882SOL     OW38104   0.225   3.259   7.128  0.1238  0.7176  0.3333
 8882SOL    HW138105   0.245   3.343   7.168  0.6483  0.7778 -0.0536
 8882SOL    HW238106   0.280   3.264   7.049 -2.6833  0.5234 -1.6377
 8883SOL     OW38107   1.665   4.407   5.064 -0.7162 -0.2865  0.2077
 8883SOL    HW138108   1.669   4.369   4.976  1.2005  1.7870 -0.6082
 8883SOL    HW238109   1.726   4.346   5.104 -1.0343 -1.0851 -0.5170
 8884SOL     OW38110   4.239   4.712   3.512  0.0168  0.7896  0.3558
 8884SOL    HW138111   4.151   4.675   3.514 -0.3324  1.5981 -0.2493
 8884SOL    HW238112   4.235   0.046   3.588 -1.7518  0.7613  0.2708
 8885SOL     OW38113   1.119   1.180  15.217  0.0570 -0.3294 -0.0792
 8885SOL    HW138114   1.126   1.226  15.133  1.6802 -2.0180 -0.8665
 8885SOL    HW238115   1.030   1.149  15.200 -0.2230 -1.0807  2.6879
 8886SOL     OW38116   1.753   3.930  15.238  0.0278 -0.2858  0.2522
 8886SOL    HW138117   1.771   4.018  15.206  1.5389 -0.6050  0.1890
 8886SOL    HW238118   1.836   3.889  15.214 -0.0794 -0.7004  0.5744
 8887SOL     OW38119   1.697   0.285   4.958  0.1798  0.2330 -0.6825
 8887SOL    HW138120   1.760   0.329   5.015 -0.5562 -0.1651  0.4146
 8887SOL    HW238121   1.744   0.253   4.880  0.3235  0.7802 -0.8206
 8888SOL     OW38122   3.038   4.565   2.182 -0.1631  0.4951  0.3323
 8888SOL    HW138123   2.988   4.498   2.228  2.2001 -1.1724  0.4565
 8888SOL    HW238124   3.017   4.645   2.230  1.2898  1.8541 -1.3199
 8889SOL     OW38125   0.338   2.933   7.998  0.0258 -0.4131 -0.3367
 8889SOL    HW138126   0.430   2.921   7.974 -0.4548 -1.0374 -1.8381
 8889SOL    HW238127   0.313   2.843   8.017  2.3327 -0.7379  1.2157
 8890SOL     OW38128   0.607   1.260   2.806 -0.7945 -0.1654  0.2076
 8890SOL    HW138129   0.580   1.317   2.878  0.9003  0.1379  0.5960
 8890SOL    HW238130   0.587   1.321   2.736  3.1292  0.2388 -0.5277
 8891SOL     OW38131   4.571   4.224   2.914  0.2150 -0.0336 -0.0643
 8891SOL    HW138132   4.526   4.208   2.996  0.4954 -0.1465  0.0693
 8891SOL    HW238133   4.601   4.134   2.902 -2.6424 -0.8321 -1.0596
 8892SOL     OW38134   0.603   0.111   3.786 -0.1109 -0.0931  0.3478
 8892SOL    HW138135   0.586   0.063   3.866  0.0376 -2.3852 -0.9971
 8892SOL    HW238136   0.543   0.067   3.725  0.5992 -0.2475 -0.2420
 8893SOL     OW38137   0.076   2.529   8.512 -0.5542  0.1179 -0.6277
 8893SOL    HW138138   0.128   2.575   8.446  1.4325 -2.1394 -0.6218
 8893SOL    HW238139   0.137   2.460   8.536 -1.4520  0.1730  1.7741
 8894SOL     OW38140   0.607   4.390  10.635  0.3507  0.3451  0.4497
 8894SOL    HW138141   0.601   4.406  10.729  1.2012 -0.6003  0.6686
 8894SOL    HW238142   0.520   4.408  10.600  1.0660  0.5250 -1.2635
 8895SOL     OW38143   3.929   2.611   4.508 -0.2369  0.1803 -0.0204
 8895SOL    HW138144   3.994   2.544   4.531  1.6377  2.4843  1.4342
 8895SOL    HW238145   3.978   2.692   4.524 -1.6771  0.8659  0.8681
 8896SOL     OW38146   3.732   4.035   8.822 -0.1504 -0.0987 -0.1456
 8896SOL    HW138147   3.676   4.076   8.888  0.4114  0.6979 -0.1677
 8896SOL    HW238148   3.666   4.022   8.753 -1.0671 -1.1869  0.9344
 8897SOL     OW38149   2.806   2.953  15.181 -0.0462 -0.3070  0.1926
 8897SOL    HW138150   2.869   2.922  15.116 -0.0255  0.6068 -0.2166
 8897SOL    HW238151   2.838   3.041  15.198 -1.0048  0.1074 -0.1663
 8898SOL     OW38152   4.293   2.056   4.457 -0.2416  0.2705  0.3745
 8898SOL    HW138153   4.209   2.012   4.474  1.3085 -2.6760  0.4800
 8898SOL    HW238154   4.349   1.981   4.435  0.0070  0.7661 -0.7084
 8899SOL     OW38155   4.535   0.344  12.711 -0.2323  0.2947 -0.6100
 8899SOL    HW138156   4.608   0.286  12.731 -0.8605  0.9161  3.5109
 8899SOL    HW238157   4.460   0.299  12.750  1.7253 -2.1887  0.2292
 8900SOL     OW38158   3.350   0.498   4.257  0.0799 -0.4850  0.0888
 8900SOL    HW138159   3.386   0.412   4.279  2.8946  1.1200  1.6454
 8900SOL    HW238160   3.262   0.491   4.295  0.2291 -3.3196 -0.1188
 8901SOL     OW38161   0.520   1.536   4.874  0.2334  0.3003  0.3946
 8901SOL    HW138162   0.587   1.469   4.870  1.2634  1.3184  0.6159
 8901SOL    HW238163   0.442   1.480   4.869  0.2140  0.3924 -0.4635
 8902SOL     OW38164   3.107   2.044  13.387  0.6913 -0.0042 -0.2507
 8902SOL    HW138165   3.024   2.047  13.338 -1.1746  0.3810  2.9633
 8902SOL    HW238166   3.070   2.057  13.474 -0.4552 -0.2513 -0.6919
 8903SOL     OW38167   1.641   3.517   8.861  0.0958 -0.6030 -0.3058
 8903SOL    HW138168   1.614   3.426   8.844 -2.9713  0.2708 -0.0588
 8903SOL    HW238169   1.603   3.518   8.949  2.6496  0.2738  0.7944
 8904SOL     OW38170   3.873   0.444   6.822 -0.0730  0.4421 -0.2193
 8904SOL    HW138171   3.898   0.359   6.859 -1.0131  0.9681  1.5957
 8904SOL    HW238172   3.780   0.424   6.820  0.1440 -0.7389  0.9331
 8905SOL     OW38173   2.409   3.024   4.387 -0.6042  0.3510 -0.0993
 8905SOL    HW138174   2.468   2.959   4.348  0.3865  0.2400  1.5719
 8905SOL    HW238175   2.355   2.969   4.444 -1.4029  3.2607  1.9974
 8906SOL     OW38176   2.714   1.954   5.447 -0.2431  0.5545  0.5226
 8906SOL    HW138177   2.712   1.885   5.513  0.8718 -0.2882 -0.3262
 8906SOL    HW238178   2.787   2.009   5.474  2.0254 -2.5393  0.6477
 8907SOL     OW38179   1.719   3.274   2.673  0.2946 -0.0926 -0.6161
 8907SOL    HW138180   1.763   3.212   2.614  1.4874 -0.7772  1.0048
 8907SOL    HW238181   1.800   3.305   2.714 -1.8837  1.3955  2.5818
 8908SOL     OW38182   3.710   2.986   4.715 -0.1074 -0.3443 -0.4340
 8908SOL    HW138183   3.758   2.936   4.780  0.4744  1.0432  0.1894
 8908SOL    HW238184   3.714   3.070   4.761 -2.2583  0.6487 -2.0399
 8909SOL     OW38185   2.647   3.470  11.652  0.1144  0.3321  0.0975
 8909SOL    HW138186   2.698   3.541  11.613 -0.9078  1.7747  1.3521
 8909SOL    HW238187   2.704   3.394  11.645 -1.9591 -1.1017 -1.4111
 8910SOL     OW38188   1.581   1.253  15.903  0.1869 -0.1898 -0.5741
 8910SOL    HW138189   1.502   1.208  15.931  0.0123 -0.1129 -0.9389
 8910SOL    HW238190   1.649   1.186  15.899  0.4599  0.0299  0.3289
 8911SOL     OW38191   0.163   3.005   3.949 -0.1643  0.4861  0.0258
 8911SOL    HW138192   0.070   3.017   3.966 -0.2404 -1.5373  1.0733
 8911SOL    HW238193   0.206   3.065   4.008 -2.3229  0.4725  1.6133
 8912SOL     OW38194   1.336   2.249   6.964  0.4232  0.3961 -0.2181
 8912SOL    HW138195   1.418   2.248   6.914  0.4426 -0.3647 -0.1680
 8912SOL    HW238196   1.302   2.163   6.939 -2.7104  1.7924 -0.8256
 8913SOL     OW38197   1.291   1.382   2.164  0.3783 -0.1054  0.3424
 8913SOL    HW138198   1.324   1.471   2.169 -1.3529  0.6289 -1.4067
 8913SOL    HW238199   1.370   1.349   2.121  0.3618  1.8538 -1.1647
 8914SOL     OW38200   4.285   0.801   4.779 -0.0819  0.3259 -0.0561
 8914SOL    HW138201   4.369   0.776   4.742 -0.2951  0.6840 -0.7864
 8914SOL    HW238202   4.218   0.758   4.726 -0.5170  0.4354  0.4011
 8915SOL     OW38203   1.336   1.843   6.776  0.3069 -0.5849  0.0110
 8915SOL    HW138204   1.378   1.843   6.690  1.6245  2.1354  0.6601
 8915SOL    HW238205   1.410   1.808   6.826  0.1446 -1.7228 -0.5367
 8916SOL     OW38206   2.323   2.405  16.173 -0.4244 -0.0419  0.3762
 8916SOL    HW138207   2.352   2.344  16.240 -1.3765 -3.0701 -1.9496
 8916SOL    HW238208   2.236   2.423  16.208  0.2342  1.6722  1.1282
 8917SOL     OW38209   0.588   0.282   4.984  0.4629 -0.0225 -0.5393
 8917SOL    HW138210   0.549   0.326   5.061 -3.1251 -0.4299 -2.1239
 8917SOL    HW238211   0.648   0.351   4.955 -0.8466  1.4964  0.3536
 8918SOL     OW38212   2.918   3.483   5.566 -0.1763 -0.4609  0.2087
 8918SOL    HW138213   2.838   3.516   5.525  0.1693  1.1532  0.8418
 8918SOL    HW238214   2.925   3.395   5.530  1.0196 -0.0571 -0.5754
 8919SOL     OW38215   3.238   3.448   6.159  0.0834  0.0335 -0.1887
 8919SOL    HW138216   3.144   3.430   6.160 -0.1908  1.4995 -0.4658
 8919SOL    HW238217   3.261   3.366   6.115 -0.4986  0.7256 -1.7632
 8920SOL     OW38218   0.726   3.675  13.274  0.2314 -0.1898 -0.9173
 8920SOL    HW138219   0.821   3.665  13.287 -0.1431 -1.5421  0.6625
 8920SOL    HW238220   0.709   3.762  13.309 -0.0530 -0.5119 -0.2566
 8921SOL     OW38221   3.060   1.013   6.724  0.0431 -0.0220  0.1827
 8921SOL    HW138222   2.967   0.997   6.737 -0.1600  1.7229  0.8436
 8921SOL    HW238223   3.063   1.075   6.651  1.6435  1.0360  1.1494
 8922SOL     OW38224   2.549   3.880   1.684  0.1321  0.6959 -0.1892
 8922SOL    HW138225   2.467   3.878   1.634  0.1829 -2.2685 -0.1329
 8922SOL    HW238226   2.532   3.817   1.754 -0.1337 -0.7605 -1.5789
 8923SOL     OW38227   4.016   1.848   3.278 -0.1350 -0.7415 -0.1122
 8923SOL    HW138228   4.031   1.871   3.186 -1.0714  1.0746  0.1865
 8923SOL    HW238229   3.954   1.914   3.311 -1.5908 -1.6443 -1.0262
 8924SOL     OW38230   1.793   1.097  17.089  0.4067 -0.0491 -0.0898
 8924SOL    HW138231   1.748   1.035  17.147 -0.7371 -0.7796 -1.7608
 8924SOL    HW238232   1.878   1.106  17.133  0.2772  0.3404  0.0805
 8925SOL     OW38233   3.331   4.708   6.942  0.1108  0.1443 -0.4858
 8925SOL    HW138234   3.274   0.035   6.999 -0.3589 -1.4247  0.4225
 8925SOL    HW238235   3.325   4.629   6.995  0.2521 -0.1941 -0.9702
 8926SOL     OW38236   0.900   1.280   8.123  0.6032 -0.0474  0.0878
 8926SOL    HW138237   0.812   1.301   8.091  0.3988 -0.1913  0.5613
 8926SOL    HW238238   0.950   1.349   8.079  1.7723 -0.6830  0.4195
 8927SOL     OW38239   4.661   1.463   8.793 -0.4297 -0.6225  0.9051
 8927SOL    HW138240   4.581   1.516   8.797 -0.7426 -1.0283  0.0913
 8927SOL    HW238241   4.722   1.520   8.839  0.7303 -0.7062 -0.5386
 8928SOL     OW38242   1.891   1.870  13.963  0.0289 -0.6225  0.0795
 8928SOL    HW138243   1.860   1.942  13.908  3.2947  0.8384  0.1354
 8928SOL    HW238244   1.812   1.825  13.993 -1.0018 -0.4566 -2.4225
 8929SOL     OW38245   0.568   1.338  15.299  0.6321 -0.0782  0.0777
 8929SOL    HW138246   0.515   1.314  15.375  0.4675  0.6016  0.1716
 8929SOL    HW238247   0.572   1.260  15.243  0.7941  0.7236 -1.0193
 8930SOL     OW38248   0.802   3.530  11.802  0.1261  0.3944  0.4288
 8930SOL    HW138249   0.854   3.470  11.855 -0.8181 -1.1432 -0.3841
 8930SOL    HW238250   0.834   3.617  11.825 -1.1462  0.8666  0.3721
 8931SOL     OW38251   4.041   4.711  14.352  0.3004  0.5935  0.0280
 8931SOL    HW138252   4.034   0.080  14.377  0.1883  0.7171 -0.4520
 8931SOL    HW238253   4.114   4.673  14.400 -0.0801  2.1448  1.8144
 8932SOL     OW38254   1.138   4.051  13.683 -0.1667 -0.2333  0.0659
 8932SOL    HW138255   1.070   4.111  13.652 -1.5586 -1.4336  0.7788
 8932SOL    HW238256   1.092   4.040  13.766  2.2068 -0.3759  1.3777
 8933SOL     OW38257   0.738   2.953  13.066 -0.0213 -0.5655 -0.1273
 8933SOL    HW138258   0.678   2.950  12.991 -3.2069 -2.3200  2.4881
 8933SOL    HW238259   0.672   2.957  13.135 -1.4353 -0.8640 -1.4374
 8934SOL     OW38260   0.266   1.223   4.263 -0.2019  0.0368  0.1062
 8934SOL    HW138261   0.201   1.234   4.193 -1.5745 -3.2881  0.8268
 8934SOL    HW238262   0.326   1.158   4.228 -2.9771 -3.6310  2.0786
 8935SOL     OW38263   0.330   1.745  15.242 -0.0904  0.1093  0.1836
 8935SOL    HW138264   0.234   1.740  15.234 -0.2739  0.4629  2.0221
 8935SOL    HW238265   0.355   1.665  15.197 -0.5210  0.0207  0.0998
 8936SOL     OW38266   0.788   4.468  15.006  0.0131 -0.0323 -0.7367
 8936SOL    HW138267   0.855   4.402  15.026 -0.6035 -0.7862 -1.1749
 8936SOL    HW238268   0.763   4.437  14.919  1.0149 -2.4246 -0.1816
 8937SOL     OW38269   3.876   4.539  14.549 -0.7141  0.2652  0.6197
 8937SOL    HW138270   3.809   4.537  14.480 -1.1503  1.4777  1.0087
 8937SOL    HW238271   3.948   4.563  14.491 -0.1898 -3.0744 -0.1127
 8938SOL     OW38272   1.253   4.420   9.662 -0.0129  0.0217  0.6821
 8938SOL    HW138273   1.299   4.451   9.584 -1.7675 -0.9516 -0.7550
 8938SOL    HW238274   1.314   4.411   9.734  1.5704  2.2990 -0.3899
 8939SOL     OW38275   0.662   2.046   2.305 -0.8994  0.4527  0.3531
 8939SOL    HW138276   0.722   2.047   2.379  1.2961 -0.2673 -1.4139
 8939SOL    HW238277   0.585   2.090   2.340  0.4080  2.3331  0.8710
 8940SOL     OW38278   4.221   0.849   7.100  0.0875  0.7153 -0.4719
 8940SOL    HW138279   4.157   0.807   7.041  1.3890 -1.6664 -0.1870
 8940SOL    HW238280   4.279   0.776   7.122 -0.0497 -0.0407 -2.5896
 8941SOL     OW38281   4.518   4.667   2.669  0.7510  0.3300 -0.4015
 8941SOL    HW138282   4.468   0.005   2.722  1.0085  1.0716 -1.0201
 8941SOL    HW238283   4.467   4.587   2.684 -0.0773  1.5147  3.1155
 8942SOL     OW38284   4.590   4.189  16.753  0.4991  0.4775  0.4844
 8942SOL    HW138285   4.660   4.126  16.768 -0.3764 -1.0541 -1.9020
 8942SOL    HW238286   4.631   4.265  16.795  1.0858 -0.3745  1.4538
 8943SOL     OW38287   0.138   4.617   8.704 -0.1970 -0.3840 -0.5337
 8943SOL    HW138288   0.066   4.670   8.740  0.6910  0.7943 -0.5202
 8943SOL    HW238289   0.114   4.525   8.713 -3.8694  0.6068 -0.1153
 8944SOL     OW38290   2.624   4.207   2.673 -0.3524  0.3789 -0.1835
 8944SOL    HW138291   2.703   4.189   2.723 -0.9338 -0.1245  0.5509
 8944SOL    HW238292   2.560   4.220   2.743 -0.6725  0.5831 -0.5133
 8945SOL     OW38293   0.752   3.988   7.581  0.3273 -0.1353  0.1164
 8945SOL    HW138294   0.776   3.922   7.517 -2.1163 -0.7184 -0.1922
 8945SOL    HW238295   0.781   3.941   7.660  0.0091  1.8936  1.4369
 8946SOL     OW38296   2.332   1.300   6.073  0.5420  0.4503  0.5121
 8946SOL    HW138297   2.262   1.356   6.107 -0.2339 -0.3328  0.1913
 8946SOL    HW238298   2.397   1.369   6.059  1.6978 -0.7578  0.0276
 8947SOL     OW38299   3.982   3.467   6.386  0.1228 -0.3722 -0.0340
 8947SOL    HW138300   4.035   3.387   6.386  1.8459  0.7544  1.5274
 8947SOL    HW238301   3.893   3.434   6.392  0.0892 -0.9903 -4.0634
 8948SOL     OW38302   1.923   3.303   0.702  0.4007  0.1701  0.0847
 8948SOL    HW138303   1.914   3.304   0.607 -0.6825 -1.4871  0.1623
 8948SOL    HW238304   2.016   3.288   0.715  0.9525  2.6120 -0.9678
 8949SOL     OW38305   1.306   3.159   1.393 -0.4035 -0.0541  0.2988
 8949SOL    HW138306   1.395   3.179   1.420 -0.0849 -1.7048  0.4759
 8949SOL    HW238307   1.323   3.086   1.333  2.4115  0.6380  0.2888
 8950SOL     OW38308   0.059   4.414   6.408  0.3261 -0.5094 -0.2586
 8950SOL    HW138309   0.113   4.452   6.477  1.7888 -1.4679 -0.8634
 8950SOL    HW238310   4.696   4.448   6.429 -0.3860 -1.2628 -1.9257
 8951SOL     OW38311   3.771   3.260   8.094  0.7041 -0.1152  0.0321
 8951SOL    HW138312   3.770   3.250   7.999  0.2128  1.0173 -0.0765
 8951SOL    HW238313   3.844   3.321   8.099  0.7283  0.0042 -1.8079
 8952SOL     OW38314   4.405   3.514  14.833 -0.2667 -0.9255 -0.4994
 8952SOL    HW138315   4.369   3.542  14.917 -0.5508 -0.7720 -0.6731
 8952SOL    HW238316   4.481   3.572  14.826 -2.2765  1.7872  0.1336
 8953SOL     OW38317   2.898   0.809   6.511  0.1034 -0.0953 -0.4688
 8953SOL    HW138318   2.951   0.754   6.453 -0.0328 -2.0548  1.2763
 8953SOL    HW238319   2.936   0.894   6.489 -2.7677  1.8384  2.0005
 8954SOL     OW38320   2.027   3.711   3.356  0.1620 -0.1475  0.1397
 8954SOL    HW138321   2.059   3.670   3.276 -1.0139  0.3396 -0.5750
 8954SOL    HW238322   2.076   3.794   3.354  1.1885 -0.7374  0.6473
 8955SOL     OW38323   2.684   3.066  13.978  0.0299 -0.3358 -0.8327
 8955SOL    HW138324   2.591   3.082  13.962 -0.1888 -0.2820  0.5727
 8955SOL    HW238325   2.678   3.027  14.065 -1.9549 -2.5363 -1.9802
 8956SOL     OW38326   2.926   1.363   4.595  0.4694  0.2749 -0.1622
 8956SOL    HW138327   2.950   1.307   4.668 -0.0104  1.5474  0.9762
 8956SOL    HW238328   3.010   1.379   4.551  1.2160 -0.1401  1.1222
 8957SOL     OW38329   4.115   0.451   3.397 -0.0957 -0.3784  0.1249
 8957SOL    HW138330   4.152   0.511   3.333 -0.6724  0.4608  0.5837
 8957SOL    HW238331   4.150   0.369   3.362 -1.0706 -1.5661  1.9621
 8958SOL     OW38332   0.987   0.220   7.731  0.4162  0.0441  0.0406
 8958SOL    HW138333   0.934   0.146   7.761 -1.3449  2.2211  2.3212
 8958SOL    HW238334   1.069   0.201   7.777  0.0591 -0.4984  0.4413
 8959SOL     OW38335   1.554   3.353  10.212  0.4000  0.4560 -0.4156
 8959SOL    HW138336   1.620   3.336  10.279 -0.0497  1.4459  0.2896
 8959SOL    HW238337   1.477   3.325  10.262 -0.5827  2.1068 -0.9728
 8960SOL     OW38338   1.866   4.540   3.855 -0.3656 -0.3262 -0.8584
 8960SOL    HW138339   1.859   4.624   3.808 -1.2129 -0.0214 -0.1954
 8960SOL    HW238340   1.774   4.515   3.863 -0.9171  1.3215 -1.9417
 8961SOL     OW38341   0.587   0.636   5.416 -0.0346 -0.7584  0.1076
 8961SOL    HW138342   0.548   0.722   5.432 -0.2467 -0.8782  0.2301
 8961SOL    HW238343   0.676   0.665   5.397 -0.0516 -0.4105  0.5427
 8962SOL     OW38344   1.212   3.337   6.389 -1.2881 -0.2686  0.3342
 8962SOL    HW138345   1.295   3.364   6.430 -0.9076 -3.5177  1.7364
 8962SOL    HW238346   1.244   3.322   6.300 -2.4102  0.6731 -0.2252
 8963SOL     OW38347   0.353   3.680   4.363 -0.0883 -0.4408  0.0857
 8963SOL    HW138348   0.422   3.643   4.417 -0.1491 -2.5526 -1.2742
 8963SOL    HW238349   0.274   3.633   4.388 -0.8520  0.4979 -0.5464
 8964SOL     OW38350   4.331   3.700   0.851 -0.1257  0.4694  0.5583
 8964SOL    HW138351   4.337   3.721   0.944  0.6012  1.9711  0.1748
 8964SOL    HW238352   4.247   3.653   0.845  1.4046 -1.9956 -1.6067
 8965SOL     OW38353   0.086   1.053  10.903 -0.3360 -0.0634 -0.4210
 8965SOL    HW138354   0.082   0.997  10.825 -1.3269  0.6904 -0.8970
 8965SOL    HW238355   0.137   1.126  10.869  0.7983 -0.7511 -0.2346
 8966SOL     OW38356   3.838   0.888   8.674  0.7439 -0.1714  0.4487
 8966SOL    HW138357   3.886   0.936   8.741 -2.0783  0.7246  1.8133
 8966SOL    HW238358   3.751   0.912   8.706  0.3071 -0.5496 -0.4499
 8967SOL     OW38359   0.336   3.959   4.221 -0.6013  0.8146 -0.1761
 8967SOL    HW138360   0.338   3.900   4.296 -1.8984 -0.1733 -0.9153
 8967SOL    HW238361   0.288   4.032   4.260  0.7849 -0.3631  3.6713
 8968SOL     OW38362   4.609   3.066   6.559  0.4677 -0.1990 -0.6883
 8968SOL    HW138363   4.600   3.068   6.654  0.0452  0.2609 -0.7348
 8968SOL    HW238364   4.695   3.030   6.539 -0.1251 -1.1630 -1.5038
 8969SOL     OW38365   4.438   3.406   9.613  0.2076  0.1604  0.9312
 8969SOL    HW138366   4.451   3.486   9.663  1.8188  0.9298 -0.7027
 8969SOL    HW238367   4.469   3.332   9.666  0.7669 -0.4928 -0.2973
 8970SOL     OW38368   0.210   0.670   4.703 -0.5937  1.0875 -0.0205
 8970SOL    HW138369   0.239   0.585   4.673  0.3009  2.1938 -2.2605
 8970SOL    HW238370   0.129   0.688   4.655  1.1265 -0.5001 -3.4967
 8971SOL     OW38371   1.718   0.804   5.526 -0.4676  0.0314  0.0186
 8971SOL    HW138372   1.706   0.751   5.605 -0.3745 -1.4742 -0.9922
 8971SOL    HW238373   1.626   0.820   5.507 -0.4891  2.6758  2.3618
 8972SOL     OW38374   2.073   1.374  16.964 -0.7005  0.5272 -0.2645
 8972SOL    HW138375   2.084   1.459  16.921  1.1569  0.2118 -0.4189
 8972SOL    HW238376   2.017   1.384  17.042 -1.0397  0.3889 -0.4907
 8973SOL     OW38377   0.371   0.577   8.272  0.5824 -0.4235 -0.4351
 8973SOL    HW138378   0.296   0.522   8.297  0.6797 -0.2474  0.2338
 8973SOL    HW238379   0.398   0.611   8.357  4.0154 -1.8989 -0.9564
 8974SOL     OW38380   2.865   0.812   8.671  0.4025 -0.7459 -0.8065
 8974SOL    HW138381   2.931   0.800   8.739 -2.0200  0.4486  1.7909
 8974SOL    HW238382   2.908   0.853   8.596  1.4951  0.2036  0.3488
 8975SOL     OW38383   3.186   1.096   5.285  0.2045 -0.0814  0.4102
 8975SOL    HW138384   3.207   1.023   5.343  0.8538 -0.3955 -0.2136
 8975SOL    HW238385   3.264   1.103   5.230 -0.1985  0.6217 -0.0653
 8976SOL     OW38386   2.473   4.042  15.961  0.5521  0.1012  0.2832
 8976SOL    HW138387   2.548   4.099  15.950  1.4158 -0.9263  0.8651
 8976SOL    HW238388   2.465   3.988  15.882  0.7043  0.8508 -0.2421
 8977SOL     OW38389   2.463   2.752   5.694  0.2868  0.1674 -0.3963
 8977SOL    HW138390   2.405   2.789   5.627  1.1564  0.8742 -0.7556
 8977SOL    HW238391   2.477   2.830   5.748  4.3222 -1.8139  1.3994
 8978SOL     OW38392   4.633   0.499   5.694 -0.0653 -0.2507  0.3983
 8978SOL    HW138393   4.609   0.406   5.686 -0.4635 -0.3150  2.2117
 8978SOL    HW238394   0.003   0.483   5.686  0.1042  1.2950 -0.6869
 8979SOL     OW38395   0.992   0.838  11.560 -0.4502 -0.5278  0.1568
 8979SOL    HW138396   1.031   0.800  11.481 -2.0684  1.5843 -1.6636
 8979SOL    HW238397   0.935   0.906  11.522  0.1817  0.0344  0.2183
 8980SOL     OW38398   3.485   3.244  10.320  0.3726  0.2200 -0.3290
 8980SOL    HW138399   3.490   3.150  10.336 -1.2653 -0.1114 -1.7365
 8980SOL    HW238400   3.423   3.237  10.247 -1.3796  0.5627  1.1531
 8981SOL     OW38401   4.322   4.653   5.132  0.1491  0.6083 -0.4896
 8981SOL    HW138402   4.342   4.699   5.213  1.3197  1.1125 -1.0618
 8981SOL    HW238403   4.265   4.722   5.099  0.7773  1.9366  1.1950
 8982SOL     OW38404   0.160   1.673  12.292  0.3477  0.4736  0.2401
 8982SOL    HW138405   0.072   1.663  12.256 -0.1759  0.2862  1.5782
 8982SOL    HW238406   0.197   1.730  12.224  0.0988  0.0558 -0.2433
 8983SOL     OW38407   1.441   1.162  13.063 -0.4313  0.0125  0.0820
 8983SOL    HW138408   1.388   1.083  13.076 -0.5966  0.1151  0.0356
 8983SOL    HW238409   1.385   1.230  13.102 -0.9953 -0.7143  0.5601
 8984SOL     OW38410   2.237   4.630   9.345 -0.0857  0.1389 -0.0213
 8984SOL    HW138411   2.323   4.635   9.304 -0.4360  0.1916 -0.7615
 8984SOL    HW238412   2.210   4.719   9.322  0.4711  0.2906 -0.0876
 8985SOL     OW38413   4.399   4.137  16.580  0.1021 -0.5819 -0.3178
 8985SOL    HW138414   4.371   4.066  16.638  0.6142  0.9268  1.7654
 8985SOL    HW238415   4.472   4.165  16.635  0.9100 -1.5410 -0.8897
 8986SOL     OW38416   0.745   1.259   1.926  0.1344  0.0001 -0.2806
 8986SOL    HW138417   0.784   1.245   1.840 -0.6617  0.5592 -0.7364
 8986SOL    HW238418   0.651   1.243   1.916 -0.1813  1.5172  0.2034
 8987SOL     OW38419   1.874   3.423   0.428 -0.1199  0.0737  0.1656
 8987SOL    HW138420   1.854   3.501   0.480  2.3552 -1.1981  3.0314
 8987SOL    HW238421   1.908   3.467   0.350 -0.5428  1.4774  0.7807
 8988SOL     OW38422   4.312   4.296   1.632  0.5194 -0.1787 -0.1290
 8988SOL    HW138423   4.304   4.384   1.594  0.2735  0.5384  1.5877
 8988SOL    HW238424   4.284   4.309   1.723 -1.2987  1.6748 -0.9481
 8989SOL     OW38425   3.987   3.725   3.280 -0.0015  0.0002  0.1599
 8989SOL    HW138426   3.919   3.669   3.242  0.0987  1.3511 -1.9960
 8989SOL    HW238427   3.955   3.815   3.272 -0.0789 -0.1305 -0.9377
 8990SOL     OW38428   1.376   2.218   0.358 -0.7288  0.1983  0.0488
 8990SOL    HW138429   1.391   2.289   0.420 -1.3111  0.7988 -0.4974
 8990SOL    HW238430   1.450   2.168   0.394 -0.1768 -0.7628 -2.4296
 8991SOL     OW38431   2.579   0.076  14.711 -0.4430 -0.7077 -0.4390
 8991SOL    HW138432   2.545   0.037  14.791  0.3015 -1.1738 -0.3588
 8991SOL    HW238433   2.603   4.723  14.658 -1.0353 -0.4901 -1.0234
 8992SOL     OW38434   0.136   0.570   3.155  0.0853 -0.1065 -0.1018
 8992SOL    HW138435   0.205   0.558   3.090  0.0635 -1.5904  0.1508
 8992SOL    HW238436   0.108   0.478   3.154 -1.3021  0.2967  0.8502
 8993SOL     OW38437   2.370   0.683   4.358 -0.0606 -0.7917  0.5835
 8993SOL    HW138438   2.447   0.649   4.312 -0.5154 -2.2496  0.9279
 8993SOL    HW238439   2.408   0.757   4.404 -2.2234  0.6065  0.1593
 8994SOL     OW38440   2.454   3.848  11.798 -0.4036 -0.0527  0.2766
 8994SOL    HW138441   2.408   3.930  11.816  1.2990  0.8039  0.7235
 8994SOL    HW238442   2.490   3.853  11.709  0.3989 -2.4021  0.4861
 8995SOL     OW38443   4.153   4.244   8.350 -0.3637 -0.0063 -0.4596
 8995SOL    HW138444   4.062   4.226   8.374  0.3945 -0.3521  2.1565
 8995SOL    HW238445   4.197   4.171   8.392  1.9316  1.2175 -0.7549
 8996SOL     OW38446   1.198   4.350   5.984 -0.6487  0.2008 -0.2426
 8996SOL    HW138447   1.133   4.331   6.051  1.2247  1.9876  2.0909
 8996SOL    HW238448   1.262   4.293   6.026 -1.0978 -0.1475 -0.0344
 8997SOL     OW38449   0.101   0.745   6.741 -0.3192 -0.3011 -0.4883
 8997SOL    HW138450   0.119   0.830   6.703 -0.8756  0.6285  1.3075
 8997SOL    HW238451   0.082   0.755   6.835  0.1239  2.8413 -0.7379
 8998SOL     OW38452   1.216   0.152   3.290 -0.2630  0.5323 -0.1087
 8998SOL    HW138453   1.282   0.159   3.359 -0.5559 -2.5932  0.4843
 8998SOL    HW238454   1.202   0.057   3.281 -0.1836  0.6705 -1.6646
 8999SOL     OW38455   0.691   0.029  12.922 -0.2839 -0.1863 -0.5212
 8999SOL    HW138456   0.694   0.038  13.017 -0.9503 -0.6713 -0.4519
 8999SOL    HW238457   0.650   4.667  12.911  0.1096 -0.3285 -0.8692
 9000SOL     OW38458   3.703   2.362   6.481 -0.3468 -0.1781 -0.0981
 9000SOL    HW138459   3.680   2.377   6.573 -1.0306  2.8461 -0.7435
 9000SOL    HW238460   3.734   2.272   6.480 -2.3045 -0.8380 -1.7866
 9001SOL     OW38461   2.897   1.365   4.288 -0.5455 -0.1644 -0.0811
 9001SOL    HW138462   2.804   1.373   4.311 -1.4077  0.0323 -3.5707
 9001SOL    HW238463   2.921   1.455   4.265  1.6013 -0.2251  1.9882
 9002SOL     OW38464   3.245   3.183   3.959  0.0707  0.2410  0.0500
 9002SOL    HW138465   3.294   3.158   3.881  1.9828  1.2209  0.9480
 9002SOL    HW238466   3.309   3.234   4.009 -0.6223  2.1594 -1.0169
 9003SOL     OW38467   3.315   1.429   5.156 -0.1395 -0.1331  0.2455
 9003SOL    HW138468   3.374   1.443   5.081 -0.3838 -0.2722  0.0282
 9003SOL    HW238469   3.231   1.417   5.112  0.6087  1.1520 -1.5499
 9004SOL     OW38470   1.841   2.043   7.108 -0.6681  0.1959 -0.1388
 9004SOL    HW138471   1.764   2.053   7.164 -0.3109  0.7374  0.2580
 9004SOL    HW238472   1.809   1.991   7.035  1.6078  0.4759 -1.3255
 9005SOL     OW38473   2.703   3.347   5.823 -0.2037  0.2260 -0.2933
 9005SOL    HW138474   2.724   3.400   5.746 -1.5664  1.1384 -0.0482
 9005SOL    HW238475   2.788   3.340   5.866 -0.4640  1.2381  0.4094
 9006SOL     OW38476   2.511   3.478  15.244 -0.0877  0.1435  0.0624
 9006SOL    HW138477   2.426   3.522  15.243 -0.2466 -0.2108 -1.4994
 9006SOL    HW238478   2.535   3.496  15.335  0.5701 -1.5587  0.2368
 9007SOL     OW38479   2.600   1.212   3.346 -0.1229 -0.3819 -0.4780
 9007SOL    HW138480   2.619   1.293   3.299  1.1709 -0.8806 -0.7986
 9007SOL    HW238481   2.652   1.211   3.426  0.7255  0.6062 -1.0185
 9008SOL     OW38482   0.366   0.938   6.535  0.2505  0.0285 -0.4697
 9008SOL    HW138483   0.412   0.854   6.534  0.0767 -0.0716  0.0537
 9008SOL    HW238484   0.418   0.998   6.482  0.1993  0.4551 -0.0387
 9009SOL     OW38485   2.061   1.164   2.380  0.0238  0.0123 -0.1796
 9009SOL    HW138486   2.021   1.251   2.376  0.3736  0.2768  2.1031
 9009SOL    HW238487   2.002   1.108   2.429 -2.5400  3.4843  0.6602
 9010SOL     OW38488   3.085   4.154   7.343 -0.2834 -0.2089  0.9232
 9010SOL    HW138489   3.121   4.242   7.354 -0.3102  0.1914 -2.0784
 9010SOL    HW238490   3.150   4.108   7.396  1.7082  1.3436 -0.1742
 9011SOL     OW38491   0.310   2.198   5.204  0.3195 -0.0058  0.1744
 9011SOL    HW138492   0.302   2.178   5.111  0.4315  0.1160  0.1382
 9011SOL    HW238493   0.253   2.137   5.250 -0.6431  1.1970  0.5873
 9012SOL     OW38494   3.870   4.706   0.903 -0.1176  0.9388 -0.0887
 9012SOL    HW138495   3.817   4.657   0.966  2.1922  0.8817  1.7893
 9012SOL    HW238496   3.856   4.650   0.827  1.8092 -0.4214  0.5569
 9013SOL     OW38497   4.107   4.360  14.014  0.0288 -0.0238 -0.3488
 9013SOL    HW138498   4.014   4.362  14.038  0.0622 -1.5486 -0.0892
 9013SOL    HW238499   4.124   4.454  14.019  1.0881 -0.2207 -0.2215
 9014SOL     OW38500   3.075   2.779  15.306 -0.0613  0.2426 -0.6420
 9014SOL    HW138501   3.042   2.690  15.294 -0.7849  0.3911  0.2844
 9014SOL    HW238502   3.005   2.819  15.255 -1.6046 -3.2442 -1.2910
 9015SOL     OW38503   1.279   2.889   4.172  1.0526 -0.1076  0.1392
 9015SOL    HW138504   1.299   2.880   4.079 -1.8015  1.3284 -0.5992
 9015SOL    HW238505   1.201   2.836   4.184  1.3362 -0.6028 -0.2155
 9016SOL     OW38506   3.108   4.628   6.501 -0.0209 -0.9107  0.3104
 9016SOL    HW138507   3.049   4.562   6.539 -1.8236 -0.6103 -1.9208
 9016SOL    HW238508   3.062   4.701   6.542 -1.6332 -1.0539 -1.2205
 9017SOL     OW38509   0.981   2.153  13.972  0.8102 -0.2075  0.0793
 9017SOL    HW138510   0.893   2.117  13.982  0.6110  0.4100  0.4690
 9017SOL    HW238511   1.032   2.108  14.039 -0.6529 -1.4542  0.3444
 9018SOL     OW38512   1.429   1.739  13.639 -0.3324 -0.1433 -0.1614
 9018SOL    HW138513   1.462   1.702  13.557  0.0811  2.9826 -1.4309
 9018SOL    HW238514   1.368   1.807  13.610  0.6607  1.1940  0.8283
 9019SOL     OW38515   3.333   0.111  16.938 -0.3890  0.5989 -0.0354
 9019SOL    HW138516   3.290   0.030  16.965 -0.8578  0.9119  0.1570
 9019SOL    HW238517   3.305   0.119  16.847  0.7635  1.6744 -0.2953
 9020SOL     OW38518   1.643   1.039   8.716 -0.0570  0.4025  0.1132
 9020SOL    HW138519   1.625   1.133   8.708 -1.8756  0.2209  1.9999
 9020SOL    HW238520   1.669   1.043   8.808  0.7532  2.8741 -0.2349
 9021SOL     OW38521   2.635   3.499  11.926 -0.4080 -0.5253 -0.0639
 9021SOL    HW138522   2.621   3.492  11.832 -2.6048  2.4695  0.0162
 9021SOL    HW238523   2.549   3.472  11.956 -1.0124 -0.4832 -1.7674
 9022SOL     OW38524   3.241   4.455   1.827 -0.3663 -0.2452 -0.0597
 9022SOL    HW138525   3.288   4.373   1.814 -1.8708 -1.0432 -0.5156
 9022SOL    HW238526   3.303   4.514   1.784  0.2850 -0.5622  0.4537
 9023SOL     OW38527   1.863   2.667   6.005  0.0071 -0.8104 -0.2875
 9023SOL    HW138528   1.789   2.705   6.053  0.9248  0.3785  0.1943
 9023SOL    HW238529   1.933   2.721   6.044 -1.4609 -0.6842  2.1816
 9024SOL     OW38530   1.841   4.715   0.962 -0.1167  0.6005 -0.2211
 9024SOL    HW138531   1.793   4.686   1.040  1.0341  0.3119  0.3857
 9024SOL    HW238532   1.931   4.707   0.994 -0.0836  1.0489 -0.1930
 9025SOL     OW38533   2.653   0.869   2.094  0.3483  0.4426  0.4706
 9025SOL    HW138534   2.735   0.820   2.089 -0.0833 -0.3094  0.7657
 9025SOL    HW238535   2.672   0.959   2.121  1.8067  0.2437  0.1152
 9026SOL     OW38536   1.831   1.609   8.955  0.3384 -0.5066  0.4718
 9026SOL    HW138537   1.814   1.621   8.862  0.5567 -0.4110  0.4440
 9026SOL    HW238538   1.777   1.532   8.971 -1.4209  0.4328 -1.0378
 9027SOL     OW38539   2.118   4.331   1.393 -0.2270  0.0922  0.0311
 9027SOL    HW138540   2.211   4.353   1.385  0.0216 -0.6736  0.8616
 9027SOL    HW238541   2.121   4.241   1.362  1.3095  1.1848 -3.0335
 9028SOL     OW38542   2.805   0.252  13.065  0.3950 -0.4422 -0.0872
 9028SOL    HW138543   2.881   0.293  13.107  0.1642  3.0984 -3.1180
 9028SOL    HW238544   2.771   0.337  13.036  0.4446 -0.1988  0.5601
 9029SOL     OW38545   4.226   4.664  16.340  0.5429 -0.1672  0.7386
 9029SOL    HW138546   4.250   4.584  16.293  0.2023  0.3715 -0.3419
 9029SOL    HW238547   4.291   0.007  16.320 -0.6323  0.4856 -0.8904
 9030SOL     OW38548   4.316   3.216  15.291  0.0749 -0.0286  0.5035
 9030SOL    HW138549   4.326   3.212  15.196 -2.0480 -0.3772  0.2992
 9030SOL    HW238550   4.344   3.129  15.318  1.0888  0.3901  0.8081
 9031SOL     OW38551   2.021   4.285   8.217  0.0343 -0.3402 -0.4652
 9031SOL    HW138552   2.083   4.322   8.280  0.8342 -0.5323 -1.1530
 9031SOL    HW238553   2.034   4.191   8.230  2.4647  0.0018 -0.4171
 9032SOL     OW38554   1.871   1.817  14.860 -0.3639  0.6133 -0.1308
 9032SOL    HW138555   1.907   1.899  14.892 -0.3756 -0.3763  2.4284
 9032SOL    HW238556   1.924   1.759  14.915  1.6212  2.3607 -0.2160
 9033SOL     OW38557   4.263   1.997  14.042 -0.3698 -0.2677  0.1887
 9033SOL    HW138558   4.210   1.918  14.051 -0.5715 -0.2496 -0.9309
 9033SOL    HW238559   4.203   2.051  13.992  0.3928 -0.8508 -1.3451
 9034SOL     OW38560   4.381   4.267   8.163 -0.2312  0.3189  0.1590
 9034SOL    HW138561   4.322   4.225   8.225 -1.7762  2.2787 -0.0088
 9034SOL    HW238562   4.460   4.269   8.217  0.4003  2.1149 -0.8419
 9035SOL     OW38563   2.012   0.504   8.375  0.1304  0.0972 -0.1207
 9035SOL    HW138564   1.963   0.461   8.445  0.0330  0.1402 -0.1614
 9035SOL    HW238565   2.101   0.509   8.409  0.1302 -0.8495  0.0154
 9036SOL     OW38566   1.605   2.377  15.859  0.1694  0.3237 -0.2074
 9036SOL    HW138567   1.669   2.322  15.814 -0.9679 -0.0419 -1.3786
 9036SOL    HW238568   1.643   2.460  15.886  1.1048 -0.2113  0.1338
 9037SOL     OW38569   2.166   0.870   4.088 -0.1568  0.2358  0.2307
 9037SOL    HW138570   2.145   0.847   3.998  0.8319 -0.5784  0.2027
 9037SOL    HW238571   2.239   0.810   4.104  0.5869  1.3401  0.9946
 9038SOL     OW38572   0.622   0.390   6.296 -0.1098  0.1891 -0.0849
 9038SOL    HW138573   0.705   0.431   6.271  0.5499 -0.1942  1.5163
 9038SOL    HW238574   0.613   0.328   6.224 -1.9121  0.8831 -0.4698
 9039SOL     OW38575   1.222   2.108   0.125 -0.1208 -0.4330 -0.1864
 9039SOL    HW138576   1.295   2.161   0.093  0.5053 -2.2634 -1.8314
 9039SOL    HW238577   1.188   2.165   0.194  1.2767  0.9583 -0.6689
 9040SOL     OW38578   0.667   3.893   8.923  0.4520 -0.0654  0.2782
 9040SOL    HW138579   0.667   3.955   8.995  1.2356  0.9368 -0.5818
 9040SOL    HW238580   0.690   3.807   8.960  0.4487  0.2695  1.0492
 9041SOL     OW38581   2.921   3.744  13.736  0.2657  0.3745 -0.0385
 9041SOL    HW138582   2.913   3.681  13.664  0.9025  1.5612 -1.1434
 9041SOL    HW238583   2.932   3.680  13.807  0.3514  0.4130 -0.0160
 9042SOL     OW38584   3.416   2.015   4.791  0.1423 -0.0950 -0.3368
 9042SOL    HW138585   3.476   2.076   4.749 -0.8010  0.7266 -0.4960
 9042SOL    HW238586   3.333   2.055   4.764 -0.5595 -0.3081  1.5250
 9043SOL     OW38587   0.729   4.400   5.163  0.1510 -0.0199  0.1859
 9043SOL    HW138588   0.636   4.404   5.144  0.0407  1.2973  1.0069
 9043SOL    HW238589   0.758   4.406   5.072  2.6372 -0.8910  0.9226
 9044SOL     OW38590   2.727   2.173   2.849  0.1002 -0.2699  0.2419
 9044SOL    HW138591   2.771   2.198   2.768 -1.4134  0.3386 -0.3996
 9044SOL    HW238592   2.645   2.223   2.854  1.9777  3.0199 -1.7488
 9045SOL     OW38593   3.877   0.475  12.314  0.1964 -0.4745  0.4046
 9045SOL    HW138594   3.862   0.437  12.401  1.4059  0.8422  1.1914
 9045SOL    HW238595   3.963   0.510  12.337  1.0327 -0.6659 -2.3637
 9046SOL     OW38596   0.274   2.419   7.591  0.7449  0.4293  0.1723
 9046SOL    HW138597   0.341   2.389   7.653 -0.3579  0.8398  1.5786
 9046SOL    HW238598   0.267   2.507   7.628  2.0701  0.9891 -0.9474
 9047SOL     OW38599   0.329   2.353   3.298  0.3640 -0.2391  0.3632
 9047SOL    HW138600   0.399   2.404   3.340  3.0416 -2.0179 -1.9173
 9047SOL    HW238601   0.254   2.412   3.303 -0.6630 -1.5786  0.7517
 9048SOL     OW38602   0.894   3.759   4.224 -0.6012 -0.3177  0.2796
 9048SOL    HW138603   0.926   3.739   4.312  0.3653  2.0484  0.4530
 9048SOL    HW238604   0.800   3.750   4.236 -0.6060 -1.8469 -0.9314
 9049SOL     OW38605   1.427   3.895   5.672  0.6205 -0.3370  0.2161
 9049SOL    HW138606   1.507   3.902   5.620 -0.4609 -1.8958 -1.6707
 9049SOL    HW238607   1.364   3.932   5.610  0.1052  1.6566  1.9244
 9050SOL     OW38608   3.762   2.396  10.733  0.0782  0.0494  0.1259
 9050SOL    HW138609   3.832   2.365  10.677  0.3477 -1.4413  1.3009
 9050SOL    HW238610   3.802   2.426  10.815 -1.1867  0.0627  0.7480
 9051SOL     OW38611   3.033   0.905   2.187  0.2089  0.0135  0.5446
 9051SOL    HW138612   3.047   0.937   2.098  0.7332  2.6176  1.5449
 9051SOL    HW238613   3.018   0.813   2.165 -0.0963  0.3864 -0.8057
 9052SOL     OW38614   4.499   4.703   5.847 -0.0845 -0.8695  0.1449
 9052SOL    HW138615   4.428   0.032   5.884  0.7857  0.8313 -0.6015
 9052SOL    HW238616   4.516   4.632   5.910 -0.4904 -3.0375 -2.2056
 9053SOL     OW38617   1.875   0.064   6.696 -0.1280  0.2043 -0.1390
 9053SOL    HW138618   1.938   0.134   6.714 -0.2048  0.1675  0.2928
 9053SOL    HW238619   1.906   0.030   6.613 -1.2572 -0.2934 -0.3562
 9054SOL     OW38620   4.179   2.204  15.295 -0.0032 -0.3766  0.0261
 9054SOL    HW138621   4.258   2.189  15.243  0.3040 -0.0593  0.3971
 9054SOL    HW238622   4.184   2.297  15.320 -0.4029 -0.1114 -0.8728
 9055SOL     OW38623   2.363   0.844   3.582 -0.5114  1.0951 -0.3664
 9055SOL    HW138624   2.298   0.913   3.597 -2.4875 -1.5211  3.1937
 9055SOL    HW238625   2.437   0.904   3.582  0.7506 -0.4562  0.9300
 9056SOL     OW38626   0.173   3.468  11.757  0.8287  0.3039  0.0736
 9056SOL    HW138627   0.106   3.402  11.740 -1.0528  2.2399 -0.0322
 9056SOL    HW238628   0.245   3.404  11.760  0.6943  0.2358  2.3147
 9057SOL     OW38629   2.199   1.743   7.994  0.1340  0.1414 -0.4109
 9057SOL    HW138630   2.111   1.704   7.989 -0.3533  1.1486  0.4232
 9057SOL    HW238631   2.204   1.761   8.088 -1.0585 -1.4418 -0.0445
 9058SOL     OW38632   0.664   0.430   2.547  0.2748 -0.2964  0.0330
 9058SOL    HW138633   0.758   0.445   2.557  0.4776 -0.0802 -2.0579
 9058SOL    HW238634   0.631   0.514   2.580 -0.7213 -1.2593  1.4542
 9059SOL     OW38635   1.129   0.699  11.752 -0.2914  0.2005  0.0834
 9059SOL    HW138636   1.221   0.727  11.748  0.0243 -0.8800 -0.1976
 9059SOL    HW238637   1.084   0.750  11.685  0.9335  0.5428 -0.4673
 9060SOL     OW38638   4.399   0.476  15.932 -0.1808  0.6003  0.4381
 9060SOL    HW138639   4.409   0.413  16.003 -0.5278 -2.2385 -1.9955
 9060SOL    HW238640   4.375   0.555  15.980  0.8239  2.0605 -1.4692
 9061SOL     OW38641   2.580   0.813   7.968 -0.4484 -0.6746 -0.2905
 9061SOL    HW138642   2.664   0.846   8.000  1.5850 -3.9752 -2.1789
 9061SOL    HW238643   2.545   0.888   7.921  0.8441  0.9339  1.2782
 9062SOL     OW38644   3.481   3.264   6.793  0.2253 -0.3675  0.3707
 9062SOL    HW138645   3.533   3.338   6.763  0.3841  0.2055  2.0828
 9062SOL    HW238646   3.483   3.200   6.722 -0.7835 -1.9032  1.7205
 9063SOL     OW38647   0.100   0.376   2.745  0.5533 -0.1905  0.0244
 9063SOL    HW138648   0.058   0.403   2.827 -0.9307  0.8444 -1.0901
 9063SOL    HW238649   0.153   0.299   2.768  0.7770 -0.1302 -0.2865
 9064SOL     OW38650   2.860   2.184   8.448 -1.5498 -0.4345 -0.0581
 9064SOL    HW138651   2.892   2.274   8.442  0.0403 -1.0819 -1.5490
 9064SOL    HW238652   2.836   2.179   8.540 -1.3889 -1.1080 -0.0506
 9065SOL     OW38653   3.059   1.772   4.368  0.1147 -1.0482  0.9371
 9065SOL    HW138654   3.088   1.808   4.285 -2.0737 -0.7941  0.2724
 9065SOL    HW238655   2.979   1.823   4.383  0.3787  0.2431 -2.1278
 9066SOL     OW38656   4.284   3.155   6.032  0.2082  0.3408 -0.0890
 9066SOL    HW138657   4.246   3.079   5.988  1.2394 -0.5910  0.6076
 9066SOL    HW238658   4.200   3.193   6.057 -0.6263 -0.0250 -2.3175
 9067SOL     OW38659   1.216   3.643   5.164  0.4197 -0.0669  0.0952
 9067SOL    HW138660   1.162   3.664   5.241  1.9958  2.8329  0.3895
 9067SOL    HW238661   1.304   3.675   5.185 -0.3448  2.6847 -0.8914
 9068SOL     OW38662   3.568   0.351   6.723 -0.3673  0.2188  0.0689
 9068SOL    HW138663   3.552   0.272   6.775  3.0263 -0.9777 -0.7269
 9068SOL    HW238664   3.552   0.322   6.633  0.2849  1.5577 -0.4761
 9069SOL     OW38665   0.480   3.141  16.015 -0.0980 -0.0479 -0.2337
 9069SOL    HW138666   0.527   3.206  15.963 -1.3329 -0.2779 -1.6114
 9069SOL    HW238667   0.523   3.149  16.100 -0.1982  0.2098 -0.2075
 9070SOL     OW38668   3.022   3.345   3.993  0.2504  0.0962  0.1142
 9070SOL    HW138669   3.097   3.286   3.991  1.8358  2.0128  2.3797
 9070SOL    HW238670   2.948   3.287   3.974  0.3306  0.0948 -0.1861
 9071SOL     OW38671   0.686   1.448   4.253  0.2322 -0.3379 -0.1725
 9071SOL    HW138672   0.648   1.528   4.290  1.4785  0.8195 -1.3946
 9071SOL    HW238673   0.778   1.469   4.236  0.1549  0.2303  0.1289
 9072SOL     OW38674   0.350   1.784   1.671 -0.0972 -0.1440  0.4633
 9072SOL    HW138675   0.257   1.765   1.682  0.1531 -1.6371 -0.0178
 9072SOL    HW238676   0.360   1.868   1.715  0.6815  0.0400 -0.0559
 9073SOL     OW38677   2.325   4.306  11.930 -0.0937 -0.6101  0.2391
 9073SOL    HW138678   2.394   4.319  11.996  1.2674 -0.7176 -1.1546
 9073SOL    HW238679   2.385   4.328  11.859 -0.7374  1.1330  0.2318
 9074SOL     OW38680   3.594   3.212   7.262  0.0890 -0.4180  0.1761
 9074SOL    HW138681   3.542   3.191   7.186  0.9660  1.0345 -0.8268
 9074SOL    HW238682   3.555   3.149   7.322  1.5003  1.5261  3.2044
 9075SOL     OW38683   3.658   4.650   6.243 -0.2510  0.2509 -0.1943
 9075SOL    HW138684   3.585   4.667   6.183  1.4666  0.1373 -2.2927
 9075SOL    HW238685   3.696   4.584   6.185  1.6801  0.6970  0.5565
 9076SOL     OW38686   1.104   3.213   8.529  0.0858 -0.6685 -0.9981
 9076SOL    HW138687   1.104   3.289   8.587 -0.9341 -1.7209  0.3740
 9076SOL    HW238688   1.164   3.239   8.458 -0.1726  1.1366 -0.5502
 9077SOL     OW38689   4.373   0.113   7.277  0.0951 -0.1084  0.5850
 9077SOL    HW138690   4.314   0.043   7.248 -0.2014  0.1463  0.5784
 9077SOL    HW238691   4.374   0.177   7.206 -0.4421  0.4207  1.0576
 9078SOL     OW38692   0.947   4.342   2.950  0.1078 -0.1438 -0.1943
 9078SOL    HW138693   1.036   4.367   2.928 -0.4060  2.3147  0.4419
 9078SOL    HW238694   0.961   4.357   3.044 -0.4328 -2.0583  0.1834
 9079SOL     OW38695   3.896   2.565   6.079  0.0681 -0.0039 -0.1147
 9079SOL    HW138696   3.859   2.581   5.993 -0.8497 -3.4378 -0.3684
 9079SOL    HW238697   3.822   2.533   6.131 -0.8220  1.8030 -0.2587
 9080SOL     OW38698   3.853   2.490   8.233  0.3078  0.4714 -0.3256
 9080SOL    HW138699   3.910   2.442   8.173 -1.6236 -0.4812 -1.3703
 9080SOL    HW238700   3.784   2.425   8.245  0.8262 -0.0412 -0.0910
 9081SOL     OW38701   0.185   4.098   2.715 -0.1871  0.3409 -0.4392
 9081SOL    HW138702   0.182   4.043   2.637  0.8739 -1.4747  0.7973
 9081SOL    HW238703   0.197   4.184   2.675 -0.4961  2.3367  3.6780
 9082SOL     OW38704   1.375   2.503   7.072 -0.1912  0.2584  0.6103
 9082SOL    HW138705   1.348   2.416   7.045  1.8923 -0.3068  0.3858
 9082SOL    HW238706   1.440   2.495   7.141 -1.9050 -0.9671  2.0724
 9083SOL     OW38707   3.694   0.215   0.819  0.6539  0.0980 -0.0920
 9083SOL    HW138708   3.716   0.132   0.861 -0.0493 -1.0341 -1.9753
 9083SOL    HW238709   3.758   0.199   0.749 -1.1211 -0.8828 -1.5051
 9084SOL     OW38710   2.124   0.026  13.450  0.0547  0.5945 -0.2146
 9084SOL    HW138711   2.069   0.092  13.493 -2.0786 -1.6147  0.4371
 9084SOL    HW238712   2.064   4.675  13.453  0.4851  0.3217  1.6989
 9085SOL     OW38713   2.055   0.299   6.632 -0.3430  0.1888  0.2579
 9085SOL    HW138714   2.036   0.392   6.635 -0.6734  0.1811 -1.5687
 9085SOL    HW238715   2.137   0.293   6.682 -0.7832  1.2694  1.0949
 9086SOL     OW38716   0.865   3.107   1.826  0.1448 -0.5671  0.6110
 9086SOL    HW138717   0.822   3.192   1.813  1.8405  0.1965 -0.0490
 9086SOL    HW238718   0.827   3.084   1.911 -1.9827  1.1868  0.1252
 9087SOL     OW38719   1.031   0.983   1.804 -0.6116  0.5520  0.0032
 9087SOL    HW138720   1.102   1.046   1.808 -0.8560  0.8697 -0.7726
 9087SOL    HW238721   0.979   1.037   1.744 -0.1824  0.5130 -0.4068
 9088SOL     OW38722   0.385   2.389  10.441  0.1241  0.9217 -0.3260
 9088SOL    HW138723   0.452   2.320  10.439 -0.4275  0.4135 -1.5184
 9088SOL    HW238724   0.306   2.344  10.470 -0.9055  1.0082 -2.9655
 9089SOL     OW38725   2.427   4.613   5.957 -0.6551 -0.1442  0.3649
 9089SOL    HW138726   2.499   4.621   5.894 -0.2321 -1.2846  0.7129
 9089SOL    HW238727   2.389   4.701   5.965 -2.0678 -0.8362  1.2484
 9090SOL     OW38728   2.692   0.735   6.984  0.7736  0.4196  0.5832
 9090SOL    HW138729   2.599   0.717   6.995  1.0497 -1.4708 -0.0745
 9090SOL    HW238730   2.724   0.651   7.018 -0.1644 -1.1124 -2.2955
 9091SOL     OW38731   2.905   1.550   5.894  0.0911  0.0823 -0.3355
 9091SOL    HW138732   2.810   1.547   5.880 -0.4058  2.5021  2.3087
 9091SOL    HW238733   2.930   1.641   5.879 -2.3177  0.6180 -1.0832
 9092SOL     OW38734   2.557   2.561   7.405  0.6261 -0.0380 -0.0262
 9092SOL    HW138735   2.485   2.514   7.362 -0.2274  0.4570  0.8672
 9092SOL    HW238736   2.599   2.484   7.445 -1.1766 -0.6212  0.7304
 9093SOL     OW38737   3.895   4.017  12.176 -0.1054  0.4154 -0.3029
 9093SOL    HW138738   3.929   4.106  12.170 -2.2497  1.0005 -3.4072
 9093SOL    HW238739   3.834   4.032  12.248  0.3148  1.9167 -0.2625
 9094SOL     OW38740   3.721   0.622   6.611 -0.7491  0.2603 -0.3132
 9094SOL    HW138741   3.805   0.586   6.580  0.2420  1.2653  1.2145
 9094SOL    HW238742   3.657   0.553   6.597 -2.1311  1.3513  0.6653
 9095SOL     OW38743   2.979   3.670   8.224  0.2405 -0.4374 -0.5592
 9095SOL    HW138744   2.884   3.663   8.221  0.1616  0.3648  0.1131
 9095SOL    HW238745   2.997   3.665   8.130  0.8685 -3.6337 -0.2763
 9096SOL     OW38746   1.445   1.423   9.120 -0.2988 -0.0147 -0.0136
 9096SOL    HW138747   1.401   1.508   9.110 -0.7797 -0.4783 -1.7730
 9096SOL    HW238748   1.380   1.368   9.164 -1.7672  2.7379  1.2993
 9097SOL     OW38749   1.713   0.181   8.796  0.2928 -0.2669 -0.4549
 9097SOL    HW138750   1.696   0.160   8.704 -1.8289 -0.4918 -0.0158
 9097SOL    HW238751   1.682   0.100   8.836  1.6312 -0.7192 -0.3637
 9098SOL     OW38752   3.844   3.996   5.095 -0.2737  0.1715 -0.1830
 9098SOL    HW138753   3.908   3.942   5.141 -0.9713 -0.0454  0.5304
 9098SOL    HW238754   3.779   4.019   5.161  0.4686 -1.7223  1.1991
 9099SOL     OW38755   0.346   2.385   3.642 -0.2961 -0.1934  0.1229
 9099SOL    HW138756   0.418   2.322   3.644  1.9785  2.3804 -1.6332
 9099SOL    HW238757   0.403   2.455   3.672 -0.4926 -1.0759  2.5444
 9100SOL     OW38758   0.881   0.918  12.659  0.2399  0.2454 -0.1321
 9100SOL    HW138759   0.852   0.827  12.650 -0.4222  0.3324  1.0961
 9100SOL    HW238760   0.882   0.912  12.754  3.5068  0.5097 -0.1542
 9101SOL     OW38761   3.487   4.476   0.711 -0.1384  1.1749  0.0229
 9101SOL    HW138762   3.451   4.452   0.625 -3.7814  2.4080  1.2053
 9101SOL    HW238763   3.501   4.570   0.699  0.0376  1.0923 -0.4073
 9102SOL     OW38764   1.118   3.812   7.926 -0.0844  0.4989  0.1960
 9102SOL    HW138765   1.111   3.797   8.020 -0.9530 -0.8451 -0.0720
 9102SOL    HW238766   1.025   3.804   7.905 -0.2121  2.3999  0.0827
 9103SOL     OW38767   2.828   2.129   5.758  0.2520 -0.2805  0.0531
 9103SOL    HW138768   2.916   2.119   5.721 -0.5380 -2.8068 -1.0939
 9103SOL    HW238769   2.844   2.212   5.804  1.5746 -0.5138  0.0113
 9104SOL     OW38770   2.587   1.712   8.520  0.0371 -0.4368  0.4937
 9104SOL    HW138771   2.628   1.704   8.606  0.1307  0.1964  0.5070
 9104SOL    HW238772   2.664   1.736   8.468 -0.1264 -0.0570  0.4280
 9105SOL     OW38773   2.115   1.526   5.738  0.2464 -0.0177  0.5183
 9105SOL    HW138774   2.204   1.555   5.759  0.4530 -0.3890  0.1486
 9105SOL    HW238775   2.141   1.468   5.667 -0.6722  0.6388 -0.3490
 9106SOL     OW38776   1.174   2.742   3.544 -0.1461  0.5326 -0.0781
 9106SOL    HW138777   1.096   2.796   3.555 -0.4854  0.4243 -2.0171
 9106SOL    HW238778   1.169   2.719   3.451  0.5706 -1.5238  0.3900
 9107SOL     OW38779   2.802   0.001   9.132 -0.4574 -0.0742  0.0736
 9107SOL    HW138780   2.737   4.712   9.201 -1.7108 -2.5914 -1.5621
 9107SOL    HW238781   2.783   4.644   9.084 -0.0235  0.5887 -1.2196
 9108SOL     OW38782   3.137   0.474   4.736  0.4884  0.1673 -0.0771
 9108SOL    HW138783   3.128   0.410   4.665 -1.0607 -2.0559  2.1016
 9108SOL    HW238784   3.228   0.498   4.721  1.0527 -0.8231  1.7615
 9109SOL     OW38785   2.356   3.568  11.326 -0.1296  0.2021  0.1537
 9109SOL    HW138786   2.427   3.618  11.284  0.1173  1.6129  2.2838
 9109SOL    HW238787   2.348   3.607  11.413 -0.1938  0.9764 -0.1975
 9110SOL     OW38788   1.095   2.081   9.568 -0.5063 -0.5011  0.0132
 9110SOL    HW138789   1.182   2.051   9.540 -1.4282 -2.7050 -0.5174
 9110SOL    HW238790   1.081   2.004   9.623 -1.8173 -0.0708  0.2656
 9111SOL     OW38791   2.221   4.684   3.504 -0.1460  0.1702  0.7348
 9111SOL    HW138792   2.262   0.036   3.462 -2.1671 -0.1592 -1.8218
 9111SOL    HW238793   2.168   4.672   3.425  0.3930  0.8455  0.2690
 9112SOL     OW38794   0.173   0.431   8.360 -0.9828  0.1011  0.1102
 9112SOL    HW138795   0.224   0.354   8.387  0.1878  0.9562  0.3537
 9112SOL    HW238796   0.115   0.388   8.297  1.3441 -2.3493 -0.3931
 9113SOL     OW38797   3.488   0.037   0.757  0.2831  0.2908 -0.0030
 9113SOL    HW138798   3.548   0.093   0.806  0.2279 -1.3356  1.9116
 9113SOL    HW238799   3.409   0.046   0.811 -1.1770 -0.8237 -1.9663
 9114SOL     OW38800   3.220   1.685   7.272  0.5147  1.1958  0.1703
 9114SOL    HW138801   3.191   1.747   7.340 -0.3155  0.2810  0.6460
 9114SOL    HW238802   3.213   1.753   7.206 -0.8843 -1.0162 -1.9281
 9115SOL     OW38803   2.959   0.995   5.181 -0.6864 -0.3575 -0.6120
 9115SOL    HW138804   2.963   0.937   5.256 -0.6755 -1.4089 -1.4195
 9115SOL    HW238805   3.011   1.061   5.226  0.3347 -1.4392 -0.2276
 9116SOL     OW38806   3.130   2.808   5.808  0.1495 -0.2420 -0.5938
 9116SOL    HW138807   3.155   2.875   5.745 -1.4963 -0.2353 -1.2489
 9116SOL    HW238808   3.035   2.818   5.800 -0.0717 -3.0237 -1.3418
 9117SOL     OW38809   1.289   4.351  14.583 -0.4969  0.3201  0.4166
 9117SOL    HW138810   1.298   4.426  14.525 -1.4261  1.4185  1.6891
 9117SOL    HW238811   1.379   4.340  14.614  0.8162  3.2120 -2.4146
 9118SOL     OW38812   3.470   2.249   5.594  0.0870 -0.4352 -0.4261
 9118SOL    HW138813   3.438   2.297   5.671 -1.0953 -1.2406 -0.4240
 9118SOL    HW238814   3.525   2.183   5.638 -1.4672  1.1307  3.8547
 9119SOL     OW38815   4.522   4.527  17.695  0.3233  0.0642 -0.0290
 9119SOL    HW138816   4.532   4.594   0.067 -4.3618 -0.8342  1.5488
 9119SOL    HW238817   4.436   4.542  17.655  0.1309  0.0513  0.3871
 9120SOL     OW38818   3.744   2.042   9.193 -0.5550  0.4247  0.4199
 9120SOL    HW138819   3.818   2.075   9.243 -0.1513 -0.9991  0.7666
 9120SOL    HW238820   3.677   2.109   9.203 -1.8082 -0.6228 -0.8920
 9121SOL     OW38821   1.831   1.470  11.894  0.1500  0.0904 -0.5891
 9121SOL    HW138822   1.805   1.383  11.863 -0.8696  0.1524  0.0785
 9121SOL    HW238823   1.848   1.437  11.983  0.3670 -3.5732 -1.9722
 9122SOL     OW38824   3.522   4.656   3.996 -0.1052 -0.0102 -0.5571
 9122SOL    HW138825   3.574   4.669   3.917  1.1296 -0.7294  0.1499
 9122SOL    HW238826   3.476   0.017   3.998 -0.4240 -0.1846 -0.5544
 9123SOL     OW38827   1.749   0.169   2.651  0.7111 -0.0812 -0.7526
 9123SOL    HW138828   1.821   0.199   2.707 -1.3061  1.0646  1.2056
 9123SOL    HW238829   1.690   0.243   2.643  0.3622 -0.2619  0.0824
 9124SOL     OW38830   0.796   1.077   3.658 -0.5117 -0.5931  0.2434
 9124SOL    HW138831   0.721   1.076   3.718 -1.2586  0.5030 -0.6710
 9124SOL    HW238832   0.827   1.167   3.651  0.8921 -1.0259  0.9382
 9125SOL     OW38833   3.546   0.255  13.602 -0.2631  0.0124  0.0916
 9125SOL    HW138834   3.549   0.346  13.571  0.0635 -0.3921 -1.0653
 9125SOL    HW238835   3.610   0.258  13.672 -0.9118 -0.1134  0.6867
 9126SOL     OW38836   3.028   3.025  13.746  0.3383  0.2115  0.5217
 9126SOL    HW138837   2.943   3.069  13.751  0.0327 -0.4380  1.0215
 9126SOL    HW238838   2.998   2.955  13.688  0.5938 -0.1979  0.8839
 9127SOL     OW38839   4.544   0.421   8.565  0.3549 -0.1743 -0.7056
 9127SOL    HW138840   4.457   0.403   8.530  1.2467 -3.3815 -1.3190
 9127SOL    HW238841   4.556   0.341   8.617 -0.8940  0.1663  0.0959
 9128SOL     OW38842   2.943   0.378   2.898  0.7585  0.2811  0.5813
 9128SOL    HW138843   3.018   0.339   2.853 -0.0457  0.1736 -0.6669
 9128SOL    HW238844   2.881   0.306   2.909 -0.3622  0.7496 -2.3383
 9129SOL     OW38845   1.607   1.187   7.101 -0.8346  0.1656  0.3554
 9129SOL    HW138846   1.683   1.143   7.140 -0.3370  1.1316  0.4889
 9129SOL    HW238847   1.563   1.208   7.184 -2.1178  0.1313 -0.3303
 9130SOL     OW38848   1.492   0.819   8.627  0.2349  0.1288  0.7082
 9130SOL    HW138849   1.555   0.760   8.585  0.4036 -1.4026  3.0724
 9130SOL    HW238850   1.551   0.894   8.622 -0.1921  0.3294 -1.2118
 9131SOL     OW38851   3.000   2.600   1.642  0.1588  0.0469 -0.6244
 9131SOL    HW138852   3.091   2.604   1.669 -0.7366 -1.6301  2.5923
 9131SOL    HW238853   2.967   2.646   1.720  2.7331 -0.2359  0.6043
 9132SOL     OW38854   0.290   2.764  13.450 -0.6603 -0.5544 -0.2049
 9132SOL    HW138855   0.221   2.726  13.396 -1.2338  0.3087 -0.0626
 9132SOL    HW238856   0.358   2.772  13.383 -1.7745 -1.1618 -1.4139
 9133SOL     OW38857   0.367   1.085   2.668 -0.4637 -0.3723  0.0767
 9133SOL    HW138858   0.406   1.153   2.723 -0.3552 -1.8521  1.8423
 9133SOL    HW238859   0.275   1.110   2.661  0.1544  1.9006  0.2680
 9134SOL     OW38860   3.328   2.532  15.582  0.0225 -0.0281  1.0587
 9134SOL    HW138861   3.355   2.609  15.632 -0.2041 -0.5530  1.9664
 9134SOL    HW238862   3.347   2.571  15.496  0.0872  0.1881  1.1720
 9135SOL     OW38863   2.395   3.769   9.150 -0.2636 -0.5582 -0.1605
 9135SOL    HW138864   2.394   3.854   9.105  1.5895 -0.7558 -0.5855
 9135SOL    HW238865   2.485   3.749   9.126  0.0679 -1.1781  1.5967
 9136SOL     OW38866   3.346   4.606   3.164 -0.3270 -0.4074  0.1305
 9136SOL    HW138867   3.308   4.539   3.220  0.8202 -1.9531 -0.9279
 9136SOL    HW238868   3.365   4.672   3.230 -0.0429 -1.0435  0.6837
 9137SOL     OW38869   4.454   2.505   1.556 -0.1179 -0.6267  0.2379
 9137SOL    HW138870   4.390   2.558   1.603 -1.5530 -0.2188 -2.1519
 9137SOL    HW238871   4.403   2.493   1.475  1.8640  0.0857 -1.1211
 9138SOL     OW38872   2.427   0.327   5.172  0.3770  0.0152  0.5103
 9138SOL    HW138873   2.368   0.390   5.214  0.9261  1.1364 -0.4147
 9138SOL    HW238874   2.407   0.337   5.079  1.3532  0.1999  0.3243
 9139SOL     OW38875   2.701   4.236   4.498 -0.4055 -0.3779  0.3116
 9139SOL    HW138876   2.759   4.242   4.423 -0.7650  2.6207  0.2748
 9139SOL    HW238877   2.622   4.267   4.453 -0.2308 -0.7040 -0.2170
 9140SOL     OW38878   2.011   2.604   1.370 -0.5704 -0.3664 -0.2297
 9140SOL    HW138879   2.051   2.598   1.284  0.4488 -1.5491  0.3154
 9140SOL    HW238880   2.065   2.539   1.416 -1.7677 -0.7288  0.6721
 9141SOL     OW38881   1.603   2.749   5.657  0.3426  0.3345 -0.2125
 9141SOL    HW138882   1.535   2.816   5.658  1.3094  1.3072 -0.1552
 9141SOL    HW238883   1.680   2.806   5.652  0.7468 -0.0711  1.2424
 9142SOL     OW38884   4.552   2.292   7.324 -0.6571 -0.6079 -0.0386
 9142SOL    HW138885   4.632   2.345   7.323 -2.4059  2.0244  0.9125
 9142SOL    HW238886   4.487   2.331   7.265  0.4349  1.8247  0.3508
 9143SOL     OW38887   3.406   2.513   8.787  0.0872  0.2264  0.3684
 9143SOL    HW138888   3.435   2.597   8.822 -1.7503  1.4163 -1.0157
 9143SOL    HW238889   3.487   2.487   8.744 -0.8631  0.0630 -1.2955
 9144SOL     OW38890   3.216   2.163   4.698  0.1755 -0.0870 -0.2347
 9144SOL    HW138891   3.225   2.170   4.603 -0.3509  0.4855 -0.2392
 9144SOL    HW238892   3.123   2.186   4.706  0.1723  0.2787 -1.2324
 9145SOL     OW38893   1.195   2.366   5.476  0.1680 -0.3391  0.0175
 9145SOL    HW138894   1.105   2.336   5.459  0.1962 -0.8228  0.7599
 9145SOL    HW238895   1.221   2.293   5.531 -0.3795  0.7709  1.7370
 9146SOL     OW38896   0.921   3.479   3.797  0.4468 -0.0833  0.5287
 9146SOL    HW138897   0.854   3.494   3.865  1.1266 -0.6219  1.3175
 9146SOL    HW238898   0.908   3.388   3.771 -0.1196 -0.0589  0.7182
 9147SOL     OW38899   1.643   1.267  12.526  0.0451  0.1264  0.2628
 9147SOL    HW138900   1.585   1.200  12.488  0.2281  0.8399 -1.2660
 9147SOL    HW238901   1.666   1.323  12.453  1.2037 -1.0972 -0.3129
 9148SOL     OW38902   4.299   0.936   9.397  0.1869 -0.2822  0.3448
 9148SOL    HW138903   4.360   0.874   9.436 -0.0746 -1.6531 -1.4250
 9148SOL    HW238904   4.220   0.920   9.449  0.1737  1.0209  0.7310
 9149SOL     OW38905   2.556   3.499   4.335  0.2483  0.7363 -0.3344
 9149SOL    HW138906   2.612   3.498   4.258 -0.8504  2.3845 -1.1546
 9149SOL    HW238907   2.607   3.441   4.391 -3.0535 -1.4297  0.4109
 9150SOL     OW38908   2.065   0.277   4.798  0.0760  0.1218  0.5764
 9150SOL    HW138909   1.996   0.344   4.793 -0.1744 -0.3076 -1.7551
 9150SOL    HW238910   2.019   0.199   4.830  0.7359  0.0629  1.3658
 9151SOL     OW38911   2.007   4.163  10.776  0.6508 -0.3364 -0.3999
 9151SOL    HW138912   2.054   4.116  10.845  1.8305  0.1720 -0.8654
 9151SOL    HW238913   1.958   4.215  10.840 -1.9021 -1.3812 -1.4990
 9152SOL     OW38914   3.459   1.761   6.251  0.0047  0.4540 -0.4361
 9152SOL    HW138915   3.404   1.683   6.255  0.8105 -0.0703  0.7221
 9152SOL    HW238916   3.409   1.812   6.188 -2.2804 -1.7540 -0.3838
 9153SOL     OW38917   4.170   1.690   9.027  0.9236 -0.7185  0.7013
 9153SOL    HW138918   4.111   1.693   9.102 -0.9874  0.0187 -0.8183
 9153SOL    HW238919   4.229   1.616   9.042 -2.9498 -3.8423  0.6695
 9154SOL     OW38920   1.775   0.671   3.068 -0.7418  0.3952  0.4644
 9154SOL    HW138921   1.751   0.758   3.038 -1.9021 -0.0655  0.0467
 9154SOL    HW238922   1.718   0.616   3.014 -0.8787  1.6184 -0.6345
 9155SOL     OW38923   0.493   4.375   2.206 -0.5381 -0.4923  0.8078
 9155SOL    HW138924   0.462   4.347   2.292  0.1069 -0.4039  1.0674
 9155SOL    HW238925   0.442   4.456   2.207 -1.6651 -1.2007  0.9056
 9156SOL     OW38926   1.443   1.645   4.576 -0.0425 -0.6291  0.7053
 9156SOL    HW138927   1.462   1.624   4.484 -0.5058 -1.2110  0.7451
 9156SOL    HW238928   1.368   1.704   4.568 -0.1945 -0.7440  1.3585
 9157SOL     OW38929   1.896   2.639   7.519 -0.0014 -0.1359  0.5391
 9157SOL    HW138930   1.887   2.720   7.570  1.7893  1.7409 -2.1667
 9157SOL    HW238931   1.805   2.622   7.495 -0.0073 -1.0941  1.2424
 9158SOL     OW38932   1.308   2.053   9.840 -0.2687  0.2034 -0.0522
 9158SOL    HW138933   1.227   2.081   9.884  0.3821  0.1151  1.2270
 9158SOL    HW238934   1.292   1.959   9.832  4.2345 -0.2832 -2.9104
 9159SOL     OW38935   0.387   2.395   7.994  0.3613  0.1370 -0.0990
 9159SOL    HW138936   0.422   2.402   7.905 -0.1870 -1.0196 -0.4042
 9159SOL    HW238937   0.383   2.299   7.992 -2.0083  0.2888 -2.2028
 9160SOL     OW38938   2.315   1.606   6.269 -0.3275 -0.0736  0.5931
 9160SOL    HW138939   2.370   1.655   6.329  0.9233  0.9070 -1.3590
 9160SOL    HW238940   2.311   1.528   6.324 -1.8122  0.8358  1.7734
 9161SOL     OW38941   1.740   0.249  10.360  0.0489  0.1058 -0.0598
 9161SOL    HW138942   1.668   0.282  10.307 -2.0244 -1.8656  1.5070
 9161SOL    HW238943   1.710   0.279  10.446 -1.0118 -1.4750  0.1255
 9162SOL     OW38944   2.540   2.724  15.652  0.3354 -0.3821  0.1776
 9162SOL    HW138945   2.496   2.663  15.593 -0.8927  1.5052 -0.8636
 9162SOL    HW238946   2.632   2.716  15.629 -0.4244  0.8303 -3.3916
 9163SOL     OW38947   4.212   1.042  17.032 -0.5921  0.1954 -0.1709
 9163SOL    HW138948   4.240   1.133  17.023  2.6021 -0.5326  2.7514
 9163SOL    HW238949   4.116   1.047  17.030 -0.5093  2.2700  0.3547
 9164SOL     OW38950   3.007   2.298  15.095  0.1095 -0.3730 -0.3613
 9164SOL    HW138951   3.017   2.213  15.138 -1.3490 -0.4161 -0.1142
 9164SOL    HW238952   3.050   2.295  15.009 -1.9317  1.8371 -1.4566
 9165SOL     OW38953   0.334   1.168   8.232  0.2774  0.4578  0.3960
 9165SOL    HW138954   0.291   1.183   8.147  2.1000 -0.8347 -0.7647
 9165SOL    HW238955   0.287   1.091   8.266  0.5780  0.4041  0.6831
 9166SOL     OW38956   4.572   0.849   3.424  0.0617  0.3577  0.2950
 9166SOL    HW138957   4.592   0.908   3.496 -0.0142 -3.0255  3.0914
 9166SOL    HW238958   4.635   0.882   3.360  0.7217 -0.5951  0.4552
 9167SOL     OW38959   0.085   0.544   5.377 -0.1109 -0.3195  0.2665
 9167SOL    HW138960   0.000   0.541   5.421  0.6056 -1.2716  1.5790
 9167SOL    HW238961   0.131   0.468   5.412 -2.0567 -1.9733 -0.8222
 9168SOL     OW38962   1.935   0.924   1.158  0.8871  1.1924  0.4423
 9168SOL    HW138963   1.999   0.854   1.169 -0.8691 -0.4998 -0.1248
 9168SOL    HW238964   1.905   0.891   1.073 -1.1532 -2.4636  2.6132
 9169SOL     OW38965   0.940   3.164   5.259  0.0190  0.6515 -0.3784
 9169SOL    HW138966   0.940   3.234   5.194  0.7215  2.3834  1.4931
 9169SOL    HW238967   0.919   3.221   5.333 -1.0113 -0.6646  0.3474
 9170SOL     OW38968   3.945   1.462   2.700 -0.3075  0.0284 -0.2603
 9170SOL    HW138969   3.875   1.402   2.674  0.1894 -1.3528  1.5882
 9170SOL    HW238970   3.947   1.521   2.625 -1.0637 -0.6712 -0.8338
 9171SOL     OW38971   2.532   2.057   8.360  0.6589  0.0669  0.0891
 9171SOL    HW138972   2.553   2.007   8.439  0.7858 -1.5516 -0.9671
 9171SOL    HW238973   2.470   2.117   8.402 -0.4071 -2.4113  2.0856
 9172SOL     OW38974   1.818   2.625   2.611  0.0945  0.1225  1.1050
 9172SOL    HW138975   1.813   2.716   2.640 -0.1698  0.0071  1.4260
 9172SOL    HW238976   1.849   2.642   2.522  0.2500 -0.7407  0.9892
 9173SOL     OW38977   1.202   0.984   2.953 -0.1278 -0.3414 -0.0302
 9173SOL    HW138978   1.162   1.023   3.031 -0.0245 -1.7022  0.7068
 9173SOL    HW238979   1.146   1.025   2.887  3.7430  1.8248 -1.9335
 9174SOL     OW38980   1.812   0.544   2.269 -0.5944 -0.1878  0.0849
 9174SOL    HW138981   1.821   0.570   2.361 -3.5831 -2.6387  1.0568
 9174SOL    HW238982   1.886   0.584   2.224  0.0775 -2.0585 -0.4654
 9175SOL     OW38983   4.094   3.502  11.298 -0.3236 -0.2814  0.2505
 9175SOL    HW138984   4.034   3.574  11.317  0.9754  0.7599  0.4088
 9175SOL    HW238985   4.071   3.438  11.366 -0.3897 -0.7953 -0.2562
 9176SOL     OW38986   4.321   0.802   4.332 -0.1227 -0.0141  0.1495
 9176SOL    HW138987   4.249   0.779   4.273 -1.5479  1.1027  1.4549
 9176SOL    HW238988   4.357   0.714   4.346  1.2028  0.1273 -2.3419
 9177SOL     OW38989   1.508   1.721   8.407  0.7527 -0.2972 -0.4423
 9177SOL    HW138990   1.527   1.805   8.364 -0.9658  1.0736  1.4298
 9177SOL    HW238991   1.587   1.668   8.403  1.2573  0.3235  1.3190
 9178SOL     OW38992   3.188   3.385   5.528  0.8099  0.6154 -0.9165
 9178SOL    HW138993   3.165   3.307   5.578  0.5108  0.8517 -0.6791
 9178SOL    HW238994   3.171   3.440   5.605  2.5581  0.5910 -0.5131
 9179SOL     OW38995   3.365   2.721   5.877  0.0562  0.1049 -0.2244
 9179SOL    HW138996   3.376   2.687   5.966 -0.2534 -4.2468 -1.8195
 9179SOL    HW238997   3.274   2.752   5.879 -0.4602 -1.4219 -0.0906
 9180SOL     OW38998   3.993   3.396   1.073  0.0909  0.2837  0.0369
 9180SOL    HW138999   3.930   3.342   1.121  0.0597 -0.1438 -0.4803
 9180SOL    HW239000   4.058   3.329   1.049  2.1410  1.9484  0.9746
 9181SOL     OW39001   0.088   3.097   1.994  0.5822 -0.4054  0.1093
 9181SOL    HW139002   0.034   3.048   2.056  0.9381 -1.2842 -0.2828
 9181SOL    HW239003   0.113   3.171   2.050  0.7488 -0.3030 -0.1039
 9182SOL     OW39004   2.522   4.375  11.738  0.1271  0.2206  0.0249
 9182SOL    HW139005   2.603   4.418  11.764 -0.7689  1.8054  0.1902
 9182SOL    HW239006   2.488   4.433  11.670  1.6477  1.4376  0.3088
 9183SOL     OW39007   0.380   2.591   2.126 -0.2203 -0.1560  0.1927
 9183SOL    HW139008   0.342   2.656   2.185  0.5212 -0.4115  0.9514
 9183SOL    HW239009   0.429   2.538   2.189  0.3473 -0.1845 -0.2845
 9184SOL     OW39010   0.892   2.665   5.480 -0.1887  0.1881  0.1973
 9184SOL    HW139011   0.950   2.740   5.464 -0.0179  0.0307  0.0651
 9184SOL    HW239012   0.895   2.658   5.575  1.3176 -1.8727  0.0275
 9185SOL     OW39013   1.812   4.334   3.618 -0.1243  0.3583  0.3701
 9185SOL    HW139014   1.727   4.307   3.585 -0.2125 -0.2370  1.0947
 9185SOL    HW239015   1.786   4.364   3.705 -1.6037  0.6076 -0.1556
 9186SOL     OW39016   3.934   2.269   3.010  0.0087  0.2577  0.4777
 9186SOL    HW139017   4.000   2.232   3.070  0.4915  1.6074  0.7816
 9186SOL    HW239018   3.882   2.195   2.980 -1.3804  0.9141  1.3023
 9187SOL     OW39019   1.272   3.478   9.081 -0.1890  0.1225 -0.1649
 9187SOL    HW139020   1.279   3.385   9.105  1.7725  0.1163 -0.7494
 9187SOL    HW239021   1.278   3.515   9.169 -1.1530 -0.7224  0.2689
 9188SOL     OW39022   4.105   0.043   1.778  0.0634  0.7041 -0.2123
 9188SOL    HW139023   4.157   0.122   1.785  1.7921 -0.3978 -0.5395
 9188SOL    HW239024   4.126   4.715   1.857  1.8019  3.4770  1.1171
 9189SOL     OW39025   4.336   2.932   6.530 -0.5479  0.1557  0.0525
 9189SOL    HW139026   4.356   2.955   6.439 -1.6405 -0.5398 -0.3597
 9189SOL    HW239027   4.417   2.964   6.568 -1.3089  1.8482  0.2577
 9190SOL     OW39028   1.739   1.334   4.548 -0.9395 -0.1009 -0.1243
 9190SOL    HW139029   1.665   1.288   4.507 -1.4728  2.6855 -2.3048
 9190SOL    HW239030   1.802   1.269   4.516  1.6247  2.6622 -0.7107
 9191SOL     OW39031   1.058   0.253  15.476  0.2588  0.4144 -0.0233
 9191SOL    HW139032   1.140   0.205  15.469 -0.1598 -0.1704 -0.8054
 9191SOL    HW239033   1.091   0.333  15.435 -0.2716 -0.0792 -1.4219
 9192SOL     OW39034   0.794   1.453   9.719  0.1396 -0.2721  0.3310
 9192SOL    HW139035   0.748   1.436   9.637  0.8437 -0.2075 -0.0716
 9192SOL    HW239036   0.725   1.505   9.761  0.2436 -1.4222  1.9116
 9193SOL     OW39037   4.383   1.904   4.841  0.5539 -0.4720  0.2390
 9193SOL    HW139038   4.431   1.886   4.922 -1.5556  2.2959  2.1038
 9193SOL    HW239039   4.426   1.981   4.804 -1.8175  1.0956  0.7881
 9194SOL     OW39040   4.557   0.444  13.789  0.0430 -0.0741 -0.4396
 9194SOL    HW139041   4.527   0.353  13.782 -2.0751  0.5715 -0.0373
 9194SOL    HW239042   4.619   0.444  13.717 -0.7773  0.5443 -1.1543
 9195SOL     OW39043   1.486   1.830   7.018  0.0392 -0.0533  0.3269
 9195SOL    HW139044   1.506   1.916   7.056 -0.1263 -0.5656  1.5341
 9195SOL    HW239045   1.451   1.783   7.093  0.3712  0.5358  0.8558
 9196SOL     OW39046   2.286   4.375   7.635  0.2594  0.1291 -0.9426
 9196SOL    HW139047   2.194   4.347   7.635 -0.0503  1.1378 -0.5959
 9196SOL    HW239048   2.291   4.413   7.723  0.1477  2.6967 -2.0323
 9197SOL     OW39049   0.283   4.559   2.210  0.2165  0.2623 -0.4146
 9197SOL    HW139050   0.263   4.522   2.296  0.9255 -0.0018 -0.3616
 9197SOL    HW239051   0.199   4.540   2.167  0.1698 -0.2928 -0.0804
 9198SOL     OW39052   3.259   4.370   0.206 -0.4131 -0.2981 -0.4717
 9198SOL    HW139053   3.220   4.385   0.120 -2.1163 -0.8110  0.2206
 9198SOL    HW239054   3.351   4.352   0.184 -0.0236  0.6881  0.3151
 9199SOL     OW39055   1.870   2.137   8.334  0.5927 -0.4256 -0.6019
 9199SOL    HW139056   1.853   2.169   8.423 -1.0886  0.8467 -1.3611
 9199SOL    HW239057   1.891   2.046   8.355  0.5779 -0.6172 -1.4110
 9200SOL     OW39058   3.471   1.691   5.874  0.0136  0.3017 -0.1331
 9200SOL    HW139059   3.471   1.779   5.913 -0.4411 -0.4695  1.5814
 9200SOL    HW239060   3.425   1.706   5.792  3.4279  1.1932 -1.8840
 9201SOL     OW39061   4.432   0.935   6.405  0.4128 -0.2240  0.8047
 9201SOL    HW139062   4.397   0.846   6.411  0.6712 -0.2174  2.5371
 9201SOL    HW239063   4.381   0.980   6.472 -0.3460  1.5437 -0.9587
 9202SOL     OW39064   3.511   2.778   7.184  1.0924 -0.0659  0.2794
 9202SOL    HW139065   3.529   2.716   7.254  1.8428  1.3026  1.2999
 9202SOL    HW239066   3.415   2.788   7.185  0.9925 -1.0745  1.4846
 9203SOL     OW39067   1.631   3.489  11.947  0.4730 -0.2272  0.0747
 9203SOL    HW139068   1.540   3.472  11.973  0.7403 -0.4999  0.8609
 9203SOL    HW239069   1.627   3.500  11.852  4.0292 -0.3338 -0.0920
 9204SOL     OW39070   3.947   4.224   6.379  0.2288 -0.2011  0.0992
 9204SOL    HW139071   3.881   4.200   6.315  0.4086  0.0820 -0.1938
 9204SOL    HW239072   3.891   4.272   6.440  0.2118  1.7590 -1.4578
 9205SOL     OW39073   0.095   4.601  14.155  0.0383 -0.8433 -0.2939
 9205SOL    HW139074   0.035   4.611  14.229 -0.3550  1.6303 -0.9189
 9205SOL    HW239075   0.032   4.594  14.083 -0.6728  3.1496 -0.0743
 9206SOL     OW39076   1.258   1.209   6.581  0.4209 -0.9906  0.1292
 9206SOL    HW139077   1.225   1.168   6.662 -1.3345 -0.8880 -0.5288
 9206SOL    HW239078   1.278   1.295   6.618 -0.9839  0.9059 -3.4889
 9207SOL     OW39079   0.454   0.811   6.835 -0.0022 -0.3134  0.4108
 9207SOL    HW139080   0.415   0.896   6.815 -0.6861 -1.0164 -1.2462
 9207SOL    HW239081   0.433   0.801   6.928 -1.1349 -1.6295  0.0189
 9208SOL     OW39082   4.252   2.498   6.535  0.2805  0.0786 -0.1347
 9208SOL    HW139083   4.319   2.436   6.507 -0.6360 -0.5241 -1.0008
 9208SOL    HW239084   4.195   2.500   6.457 -1.3279  0.1836  1.0408
 9209SOL     OW39085   1.161   0.842  17.399  0.2418 -0.1297 -0.0577
 9209SOL    HW139086   1.169   0.937  17.395 -2.8807  0.2057  1.3982
 9209SOL    HW239087   1.108   0.812  17.325  1.5786  1.2459 -1.5663
 9210SOL     OW39088   0.471   3.458   2.786  0.2237 -0.0887 -0.1597
 9210SOL    HW139089   0.559   3.495   2.775  0.7800 -1.4807 -0.4836
 9210SOL    HW239090   0.435   3.476   2.699 -0.3915 -2.1461 -0.3311
 9211SOL     OW39091   1.460   2.090  13.403 -0.4973  0.2268  0.3288
 9211SOL    HW139092   1.419   2.004  13.407 -0.0248  0.1608  3.1380
 9211SOL    HW239093   1.409   2.130  13.332 -0.6772 -2.1182 -0.8579
 9212SOL     OW39094   3.986   0.987   6.775  0.0670 -0.0188 -0.1067
 9212SOL    HW139095   4.032   0.911   6.739 -0.5157 -0.2324 -0.4069
 9212SOL    HW239096   3.913   0.938   6.812  0.8013 -1.5954 -0.7524
 9213SOL     OW39097   4.015   3.520  14.364  0.1899 -0.3635  0.3272
 9213SOL    HW139098   4.110   3.512  14.376  0.0885 -2.1968 -0.0969
 9213SOL    HW239099   3.990   3.590  14.424 -0.1793 -0.3434  0.1542
 9214SOL     OW39100   4.574   1.595  13.015 -0.0592  0.0019  0.1689
 9214SOL    HW139101   4.547   1.684  12.993 -0.3955  0.6095  3.1215
 9214SOL    HW239102   4.637   1.568  12.947  0.5161  2.4865 -0.2641
 9215SOL     OW39103   1.650   3.113   9.490  0.2672  0.3765 -0.3348
 9215SOL    HW139104   1.602   3.190   9.461 -2.9283 -2.3138 -2.2544
 9215SOL    HW239105   1.573   3.057   9.502  0.3518  0.1698 -0.7393
 9216SOL     OW39106   4.075   2.620   9.816  0.0475 -0.5896  0.5303
 9216SOL    HW139107   4.165   2.597   9.840  0.0749 -0.4062  0.6015
 9216SOL    HW239108   4.091   2.701   9.768  1.6890 -2.7811 -2.5597
 9217SOL     OW39109   2.129   2.531   9.019  0.2937 -0.8468 -0.0237
 9217SOL    HW139110   2.182   2.533   9.099 -0.7796 -2.0933  0.7097
 9217SOL    HW239111   2.199   2.564   8.963  0.9921 -2.2133  0.0300
 9218SOL     OW39112   1.307   1.599  10.277  0.8817  0.2785 -0.6014
 9218SOL    HW139113   1.292   1.551  10.359 -0.2091 -0.1481 -1.0628
 9218SOL    HW239114   1.359   1.534  10.229  0.5440  1.7555 -2.9253
 9219SOL     OW39115   2.399   0.074   6.865  1.0623 -0.2782 -0.1350
 9219SOL    HW139116   2.311   0.037   6.865  0.9939 -0.1225  2.2385
 9219SOL    HW239117   2.383   0.169   6.860 -0.5671 -0.5178  0.5492
 9220SOL     OW39118   4.531   1.910   1.545 -0.4025  0.0477  0.0143
 9220SOL    HW139119   4.472   1.961   1.489  1.1150 -0.6442 -2.2260
 9220SOL    HW239120   4.471   1.842   1.574 -0.1694  0.0711  0.5443
 9221SOL     OW39121   3.077   2.464  16.380 -0.3410  0.0079  0.1116
 9221SOL    HW139122   3.093   2.550  16.420 -2.3835  1.2870 -1.7546
 9221SOL    HW239123   3.165   2.444  16.348 -0.0216  1.3664  0.1278
 9222SOL     OW39124   0.331   3.128  12.270 -0.0081 -0.5600 -0.2857
 9222SOL    HW139125   0.354   3.193  12.204 -0.9501 -0.8997 -0.9518
 9222SOL    HW239126   0.396   3.145  12.338 -1.3585 -0.6680  1.0350
 9223SOL     OW39127   4.659   2.434   6.496  0.1027  0.2166  0.1992
 9223SOL    HW139128   4.597   2.489   6.449  1.0445  1.7823  0.8001
 9223SOL    HW239129   4.593   2.374   6.532  1.8637 -1.1497  1.1497
 9224SOL     OW39130   4.401   2.571  11.473  0.6560 -0.2209  0.1594
 9224SOL    HW139131   4.343   2.525  11.533  1.4728  0.2741  1.3392
 9224SOL    HW239132   4.401   2.521  11.391  2.8105 -1.0229  0.6328
 9225SOL     OW39133   0.881   1.280  16.056  0.6514  0.6948 -0.5324
 9225SOL    HW139134   0.926   1.257  16.137  0.3583  0.9750 -0.2932
 9225SOL    HW239135   0.817   1.209  16.061  0.8670  0.4657 -1.0133
 9226SOL     OW39136   0.536   4.257   9.743 -0.6960 -0.7102  0.2534
 9226SOL    HW139137   0.460   4.201   9.725  0.9147 -2.8421  0.2044
 9226SOL    HW239138   0.596   4.232   9.673  0.6000 -1.6710  1.7276
 9227SOL     OW39139   0.229   2.725   1.654  0.0284  0.1774 -0.3351
 9227SOL    HW139140   0.264   2.785   1.720  0.3763  3.5176 -3.5070
 9227SOL    HW239141   0.153   2.773   1.621  0.0554  0.8709  0.6180
 9228SOL     OW39142   1.717   0.322  11.466 -0.6429 -1.0306 -0.3400
 9228SOL    HW139143   1.678   0.387  11.524  1.6044 -0.5197  0.5961
 9228SOL    HW239144   1.779   0.370  11.411 -0.9587 -1.3305 -0.9557
 9229SOL     OW39145   3.096   2.410  16.029  0.0835  0.3224  0.4860
 9229SOL    HW139146   3.132   2.459  16.103 -0.6132  0.1369  0.9480
 9229SOL    HW239147   3.162   2.401  15.961  0.5985  3.2816  0.6253
 9230SOL     OW39148   4.296   4.177   4.439 -0.2898  0.4005 -0.5397
 9230SOL    HW139149   4.390   4.193   4.445  0.2002 -2.4972 -0.5056
 9230SOL    HW239150   4.298   4.094   4.393 -1.3056  0.9422 -1.5679
 9231SOL     OW39151   2.190   0.902   7.980 -0.7523  0.2387  0.3171
 9231SOL    HW139152   2.245   0.847   8.035 -1.9248 -0.7512  0.4936
 9231SOL    HW239153   2.102   0.882   8.012 -0.1554  0.6122  2.1561
 9232SOL     OW39154   1.576   0.126   1.581  0.0448 -0.0845 -0.1052
 9232SOL    HW139155   1.569   0.036   1.551 -1.4334  0.1350 -0.4065
 9232SOL    HW239156   1.578   0.168   1.495 -0.0448  0.0537 -0.0408
 9233SOL     OW39157   0.581   4.164   7.879 -0.4923  0.1601 -0.3594
 9233SOL    HW139158   0.526   4.090   7.854  0.9345 -0.1085 -2.7734
 9233SOL    HW239159   0.523   4.208   7.941 -1.3564 -1.9774  0.3390
 9234SOL     OW39160   2.704   1.973   1.108 -0.0896 -0.1518 -0.3509
 9234SOL    HW139161   2.692   2.053   1.058  2.5605  1.5875  1.7765
 9234SOL    HW239162   2.674   1.996   1.196 -0.3082  0.4659 -0.5917
 9235SOL     OW39163   0.361   3.351   2.470  0.4228  0.1441  0.0144
 9235SOL    HW139164   0.421   3.304   2.527 -1.2214  0.5623  2.0616
 9235SOL    HW239165   0.391   3.327   2.382 -3.1494  0.3568 -1.2621
 9236SOL     OW39166   4.199   3.835   2.573 -0.1480  0.4421 -0.3656
 9236SOL    HW139167   4.269   3.798   2.519  1.0275  0.2329  1.3119
 9236SOL    HW239168   4.232   3.915   2.612 -2.7086  1.1019  0.4614
 9237SOL     OW39169   4.427   2.666  15.365 -0.0312  0.0699 -0.1339
 9237SOL    HW139170   4.370   2.590  15.347 -1.1163  1.4551 -2.5119
 9237SOL    HW239171   4.497   2.617  15.409  0.3347 -1.6283 -2.6146
 9238SOL     OW39172   4.018   2.123   6.669 -0.2667 -1.1376 -1.2015
 9238SOL    HW139173   4.065   2.203   6.688 -2.4506 -0.2357  0.3562
 9238SOL    HW239174   3.933   2.153   6.635  0.5004  1.1989 -1.0428
 9239SOL     OW39175   0.625   1.882  13.665 -0.6941  0.0199 -0.1365
 9239SOL    HW139176   0.534   1.893  13.690 -1.4126 -0.7836 -2.3936
 9239SOL    HW239177   0.664   1.965  13.692  1.7703 -0.1927 -2.9870
 9240SOL     OW39178   3.227   2.459   8.297 -0.7848 -0.1886 -0.1287
 9240SOL    HW139179   3.139   2.497   8.299  0.6660  3.1707 -0.0459
 9240SOL    HW239180   3.237   2.461   8.392  0.2944  0.4414 -0.2573
 9241SOL     OW39181   1.558   3.855   9.982  0.8237  0.4606  0.1402
 9241SOL    HW139182   1.609   3.819  10.055 -1.4624 -0.2251  1.4140
 9241SOL    HW239183   1.487   3.904  10.024  1.1308 -0.0004  1.1943
 9242SOL     OW39184   1.742   2.967   6.317  0.1610 -0.2694  0.2612
 9242SOL    HW139185   1.734   2.891   6.260  3.9663 -0.3425 -0.1370
 9242SOL    HW239186   1.784   2.937   6.397 -1.0525 -1.6505  0.3799
 9243SOL     OW39187   4.694   0.591   3.983  0.1299 -0.3435 -0.3705
 9243SOL    HW139188   4.724   0.609   4.073  1.2620  0.7510 -0.9541
 9243SOL    HW239189   0.013   0.665   3.939  0.8548 -0.9233 -0.6393
 9244SOL     OW39190   1.666   0.546  11.610 -0.2779  0.2681  0.1489
 9244SOL    HW139191   1.689   0.638  11.614 -0.9524  0.4784 -1.0290
 9244SOL    HW239192   1.584   0.549  11.560  0.5774 -0.3857 -1.2940
 9245SOL     OW39193   2.234   2.898   5.165 -0.1236  0.0508  0.1310
 9245SOL    HW139194   2.284   2.848   5.101 -1.3775 -1.4294  0.2993
 9245SOL    HW239195   2.149   2.909   5.122 -0.4726  0.2709  0.8681
 9246SOL     OW39196   2.043   1.975   5.594  0.0687  0.1113 -0.2507
 9246SOL    HW139197   2.132   1.942   5.603  0.1564  0.7611  1.2286
 9246SOL    HW239198   1.998   1.901   5.553 -0.4282 -0.5961  1.5866
 9247SOL     OW39199   0.887   1.246   7.184  0.6532 -0.1066 -0.5002
 9247SOL    HW139200   0.811   1.216   7.235  2.2127  1.4157  2.7594
 9247SOL    HW239201   0.952   1.180   7.208 -0.7037 -0.8342  1.2241
 9248SOL     OW39202   4.220   4.041   8.531 -0.5406 -0.5602  0.2774
 9248SOL    HW139203   4.154   4.095   8.574 -0.1213 -0.8868  1.3427
 9248SOL    HW239204   4.237   3.967   8.589  2.9010  1.4982  1.9550
 9249SOL     OW39205   1.551   4.258   1.646  0.0895  0.2170  0.3980
 9249SOL    HW139206   1.532   4.308   1.725 -3.1432  3.0754 -2.1784
 9249SOL    HW239207   1.618   4.200   1.682  0.2754 -0.1028 -0.4557
 9250SOL     OW39208   3.574   4.609   4.792 -0.2487 -0.0213  0.1240
 9250SOL    HW139209   3.562   4.589   4.699  1.7320  0.8891 -0.3268
 9250SOL    HW239210   3.667   4.631   4.786  0.1476 -1.7113  0.1628
 9251SOL     OW39211   0.123   3.987   2.483 -0.1369 -0.2091 -0.0333
 9251SOL    HW139212   0.104   4.015   2.393 -0.7834  0.4754  0.3259
 9251SOL    HW239213   0.049   3.928   2.498 -0.1852 -0.6675 -2.0253
 9252SOL     OW39214   2.519   2.467   9.780  0.7536  0.4354  0.2918
 9252SOL    HW139215   2.477   2.392   9.740  0.8305 -0.2940  1.5644
 9252SOL    HW239216   2.577   2.490   9.708  0.3794 -1.6244 -0.6714
 9253SOL     OW39217   0.284   1.507   5.583 -0.1117  0.7213  0.6610
 9253SOL    HW139218   0.276   1.602   5.589  0.4737  0.7780  0.6088
 9253SOL    HW239219   0.251   1.481   5.670 -0.0555 -0.9025  0.2067
 9254SOL     OW39220   1.427   3.161   8.524  0.4833 -0.8211 -0.4436
 9254SOL    HW139221   1.368   3.114   8.583  0.9434  0.6752  1.1938
 9254SOL    HW239222   1.503   3.180   8.579 -0.9732  0.6172  1.0639
 9255SOL     OW39223   1.840   4.382   6.481  0.3576  0.4571 -0.4509
 9255SOL    HW139224   1.764   4.368   6.538  0.5180  2.2515  0.2043
 9255SOL    HW239225   1.823   4.326   6.405 -0.4755  1.9104 -1.3156
 9256SOL     OW39226   0.279   2.974   4.580  0.0771 -0.6046  0.5244
 9256SOL    HW139227   0.242   3.058   4.552  2.0705  0.1122  0.0583
 9256SOL    HW239228   0.308   3.003   4.667  2.4229 -2.3717  0.3008
 9257SOL     OW39229   4.613   4.630   7.329  0.1157  0.6334 -0.0088
 9257SOL    HW139230   4.674   4.668   7.392  2.3480 -0.8357 -1.2679
 9257SOL    HW239231   4.545   4.697   7.333  0.8618  1.4720 -1.3549
 9258SOL     OW39232   4.259   1.139   3.650  0.1897  0.0791  0.4519
 9258SOL    HW139233   4.197   1.072   3.681 -0.0930 -0.7328 -1.8576
 9258SOL    HW239234   4.334   1.103   3.697  0.1639  0.5131  0.8270
 9259SOL     OW39235   3.857   4.168  11.162 -0.2230 -0.1058  0.3103
 9259SOL    HW139236   3.926   4.235  11.171 -0.8478  0.7960 -1.6338
 9259SOL    HW239237   3.816   4.193  11.079 -1.8882 -2.0536  0.5625
 9260SOL     OW39238   2.876   1.025   2.388 -0.7141  0.5088  0.0321
 9260SOL    HW139239   2.930   0.973   2.328  4.4022  3.1209  2.4261
 9260SOL    HW239240   2.901   1.115   2.366  1.5361 -0.0752  0.1458
 9261SOL     OW39241   4.439   1.680   8.850  0.5678 -0.3935 -0.1468
 9261SOL    HW139242   4.361   1.680   8.794  0.9007 -0.3898 -0.6125
 9261SOL    HW239243   4.412   1.620   8.919  0.6745 -1.4969 -1.0617
 9262SOL     OW39244   2.736   0.242   4.219 -0.1718  0.3842  0.6282
 9262SOL    HW139245   2.673   0.279   4.157 -1.3808  1.0397  2.2376
 9262SOL    HW239246   2.743   0.312   4.283  0.6648 -1.3967  2.4942
 9263SOL     OW39247   2.233   3.506  12.181 -0.9911 -0.2251 -0.4456
 9263SOL    HW139248   2.249   3.562  12.106 -1.4830  2.2832  1.3268
 9263SOL    HW239249   2.137   3.502  12.187 -1.1369  0.8229 -2.1752
 9264SOL     OW39250   4.528   0.629   7.643  0.0425 -0.3074  0.1546
 9264SOL    HW139251   4.444   0.619   7.687  0.1653 -1.8894  0.0297
 9264SOL    HW239252   4.574   0.554   7.681  0.9907 -1.1253 -2.6389
 9265SOL     OW39253   1.167   2.915   7.706 -0.3395  0.1575 -0.5949
 9265SOL    HW139254   1.149   3.009   7.710 -1.2427 -0.1098  1.5651
 9265SOL    HW239255   1.154   2.899   7.613 -0.6843  3.3366 -1.0842
 9266SOL     OW39256   4.292   1.262   1.966 -0.4748  0.0474 -0.2832
 9266SOL    HW139257   4.374   1.309   1.953 -0.1231 -0.5747 -0.3628
 9266SOL    HW239258   4.265   1.263   1.874 -0.6718 -0.2117 -0.2280
 9267SOL     OW39259   1.431   0.173   2.775 -0.2760 -0.4011 -0.3071
 9267SOL    HW139260   1.400   0.258   2.744  0.2580 -0.5254 -1.1695
 9267SOL    HW239261   1.347   0.136   2.805  0.1474  0.9295  2.5687
 9268SOL     OW39262   2.634   0.292   5.710  0.4745  0.1781 -0.1098
 9268SOL    HW139263   2.557   0.236   5.711  0.9716 -0.5087  0.0263
 9268SOL    HW239264   2.690   0.250   5.644 -0.3373 -1.9812  0.5655
 9269SOL     OW39265   2.535   3.487   9.007  0.2002 -0.0067 -0.4000
 9269SOL    HW139266   2.568   3.576   9.017 -1.9643  0.9413 -1.5593
 9269SOL    HW239267   2.545   3.467   8.914  1.4198  1.6069 -0.6190
 9270SOL     OW39268   3.541   0.365   8.560 -0.5769 -0.2876  0.0202
 9270SOL    HW139269   3.570   0.414   8.483 -0.7261 -0.5382 -0.1993
 9270SOL    HW239270   3.594   0.285   8.553  0.4044  0.4190 -0.6941
 9271SOL     OW39271   0.952   2.392   9.440  0.3721 -0.1092  0.0365
 9271SOL    HW139272   0.949   2.437   9.356 -1.5581 -1.2183 -0.4979
 9271SOL    HW239273   0.859   2.400   9.459  0.2312  3.0166 -1.9393
 9272SOL     OW39274   4.398   2.623  17.552 -0.2588  0.2946  0.3535
 9272SOL    HW139275   4.365   2.683  17.619 -1.6144 -0.3993  0.3051
 9272SOL    HW239276   4.312   2.587  17.527 -0.3432  0.0817  0.9651
 9273SOL     OW39277   0.691   2.647   9.359 -0.0921  0.0649  0.4064
 9273SOL    HW139278   0.601   2.658   9.389 -0.8428  0.0078 -1.7629
 9273SOL    HW239279   0.736   2.660   9.442  1.0431 -0.6672 -0.0921
 9274SOL     OW39280   4.404   1.946  16.667 -0.1211 -0.2315  0.3498
 9274SOL    HW139281   4.417   1.894  16.747  1.8661 -0.4239 -0.1027
 9274SOL    HW239282   4.336   2.003  16.704  1.8848  1.0274  2.0718
 9275SOL     OW39283   0.784   2.111   7.016  0.2342  0.0507 -0.4274
 9275SOL    HW139284   0.798   2.188   6.960  0.5659  1.0757  1.0567
 9275SOL    HW239285   0.697   2.130   7.052 -0.4108 -2.3120 -0.7616
 9276SOL     OW39286   1.778   0.322   3.301 -0.6077  0.3013  0.4522
 9276SOL    HW139287   1.854   0.271   3.274 -1.3912  0.2474 -1.7115
 9276SOL    HW239288   1.819   0.408   3.295 -0.0850 -0.0287 -0.9415
 9277SOL     OW39289   4.642   3.028   1.205  0.0216 -1.2498 -0.4249
 9277SOL    HW139290   0.011   3.045   1.221 -1.0159  1.2734  2.8369
 9277SOL    HW239291   4.611   3.000   1.291 -1.1916 -0.9292 -0.7596
 9278SOL     OW39292   4.626   2.053   6.943 -0.0053  0.1222 -0.0336
 9278SOL    HW139293   4.678   2.100   7.009  0.0317 -0.7018  0.5197
 9278SOL    HW239294   4.690   2.052   6.871  0.0429  1.6546 -0.0065
 9279SOL     OW39295   1.084   3.834   4.675 -0.1338 -0.3442 -0.3897
 9279SOL    HW139296   1.040   3.905   4.721 -1.1409 -0.1567 -1.6263
 9279SOL    HW239297   1.147   3.801   4.739  0.2675  0.7286 -0.2306
 9280SOL     OW39298   4.560   3.211   4.302 -0.4584  0.2574 -0.4059
 9280SOL    HW139299   4.482   3.207   4.357 -0.4743 -0.3805 -0.4754
 9280SOL    HW239300   4.533   3.185   4.214 -1.1441  0.0850 -0.1443
 9281SOL     OW39301   3.730   0.526   2.922  0.2723  0.4010 -0.1577
 9281SOL    HW139302   3.735   0.431   2.930  0.1495  0.3478 -0.7125
 9281SOL    HW239303   3.808   0.538   2.869 -0.2895  1.0542 -0.8366
 9282SOL     OW39304   1.842   2.461   8.939 -0.5089 -0.2154  0.1857
 9282SOL    HW139305   1.934   2.478   8.956 -0.9296  1.1836  1.1139
 9282SOL    HW239306   1.836   2.367   8.924 -0.7237 -0.1953  0.1405
 9283SOL     OW39307   1.458   0.706   4.646 -0.0388  0.2652 -0.0601
 9283SOL    HW139308   1.505   0.790   4.644  0.5150 -0.0870 -2.3800
 9283SOL    HW239309   1.529   0.642   4.650 -1.0804 -0.9475 -0.8476
 9284SOL     OW39310   1.410   0.110   2.444 -0.1406 -0.0122 -0.0320
 9284SOL    HW139311   1.385   0.082   2.356  0.9164 -1.3362  0.0839
 9284SOL    HW239312   1.348   0.057   2.493  1.1657 -2.5925 -1.1218
 9285SOL     OW39313   4.295   4.493   2.345  0.0579 -0.5332  0.1500
 9285SOL    HW139314   4.299   4.579   2.387  0.4089 -0.3978 -0.1636
 9285SOL    HW239315   4.228   4.501   2.276  2.3228  1.7260 -1.7932
 9286SOL     OW39316   0.611   4.474  13.842 -0.2753  0.1669 -0.2578
 9286SOL    HW139317   0.666   4.399  13.864 -0.1406  0.1516 -0.6442
 9286SOL    HW239318   0.522   4.439  13.828  0.1580 -0.6463 -0.9730
 9287SOL     OW39319   2.606   4.527  12.662  0.0364 -0.2374  0.4882
 9287SOL    HW139320   2.696   4.502  12.682  0.8286  1.0361 -1.4384
 9287SOL    HW239321   2.594   4.600  12.721 -0.1824 -0.1680  0.3593
 9288SOL     OW39322   1.041   4.023   3.795 -0.4661  0.3552  0.0350
 9288SOL    HW139323   1.006   4.014   3.884  1.5199 -1.7154  0.6061
 9288SOL    HW239324   0.964   3.997   3.744 -0.4464 -0.0193  0.1923
 9289SOL     OW39325   1.193   4.593   3.144  0.2723 -0.0509  0.5859
 9289SOL    HW139326   1.165   4.503   3.157 -0.4812  0.5132  2.9431
 9289SOL    HW239327   1.118   4.632   3.100  0.2838 -1.1902 -0.4388
 9290SOL     OW39328   2.039   3.167   1.037 -0.2342  0.5848  0.6524
 9290SOL    HW139329   2.128   3.201   1.031 -0.1340  0.6845  2.5831
 9290SOL    HW239330   2.041   3.161   1.133 -0.5220  1.5493  0.7097
 9291SOL     OW39331   0.733   2.682   6.760  0.6710 -0.0401 -0.3840
 9291SOL    HW139332   0.796   2.754   6.753 -0.5253  0.9966 -0.5598
 9291SOL    HW239333   0.698   2.687   6.849  0.5723  1.0586 -0.4896
 9292SOL     OW39334   3.014   3.600   8.916  0.1229 -0.5256 -0.0986
 9292SOL    HW139335   3.033   3.605   8.822  0.0119  3.7450  0.0684
 9292SOL    HW239336   3.002   3.691   8.944 -0.0360 -0.8703  0.9338
 9293SOL     OW39337   1.534   2.491   2.748  0.6673 -0.2042  0.4441
 9293SOL    HW139338   1.606   2.451   2.796  2.8373  1.7735 -1.2339
 9293SOL    HW239339   1.563   2.494   2.657 -2.1983 -0.1202 -0.4754
 9294SOL     OW39340   0.190   2.252   2.303  0.3208 -0.1945  0.1474
 9294SOL    HW139341   0.166   2.286   2.217  2.0781  2.3819  0.6866
 9294SOL    HW239342   0.110   2.265   2.354  1.2005  1.6038  1.0834
 9295SOL     OW39343   4.173   3.563   4.016  0.0217 -0.0813 -0.1040
 9295SOL    HW139344   4.268   3.567   4.025  0.1484 -0.0728 -1.4444
 9295SOL    HW239345   4.155   3.626   3.946 -0.9645 -1.5752 -1.1933
 9296SOL     OW39346   4.549   0.671   4.816  1.1582  0.0054 -0.3088
 9296SOL    HW139347   4.497   0.606   4.863 -0.6219  2.5045  1.1632
 9296SOL    HW239348   4.633   0.676   4.862  0.9205 -0.6850  0.1965
 9297SOL     OW39349   2.839   1.876   1.805  0.1471  0.1022 -0.4972
 9297SOL    HW139350   2.897   1.911   1.737  1.1418 -0.2866  0.1573
 9297SOL    HW239351   2.859   1.782   1.803 -2.2637 -0.4172  0.4172
 9298SOL     OW39352   1.340   0.628   8.712  0.8284  0.1296 -0.5356
 9298SOL    HW139353   1.408   0.691   8.691  1.2326 -0.2670 -0.4219
 9298SOL    HW239354   1.322   0.650   8.804  0.4776 -0.4379 -0.4703
 9299SOL     OW39355   0.990   4.199   5.495  0.7079 -0.3875 -0.3236
 9299SOL    HW139356   1.039   4.281   5.506 -0.3274  0.4963 -2.1598
 9299SOL    HW239357   0.956   4.175   5.581 -4.0980 -0.2970 -2.1723
 9300SOL     OW39358   4.510   1.912   3.063 -0.1834  0.0190 -0.6660
 9300SOL    HW139359   4.562   1.984   3.098 -0.7338  2.2402 -4.4478
 9300SOL    HW239360   4.542   1.840   3.117 -0.7546  0.3359  0.0821
 9301SOL     OW39361   3.508   4.587   1.191  0.2436 -0.3597 -0.4635
 9301SOL    HW139362   3.499   4.681   1.205 -1.9448 -0.6959  0.4912
 9301SOL    HW239363   3.419   4.561   1.166  0.8120 -2.5719 -0.1903
 9302SOL     OW39364   0.846   3.635   1.746  0.0224 -0.0462 -0.0878
 9302SOL    HW139365   0.887   3.649   1.660 -0.3204 -0.0650 -0.2530
 9302SOL    HW239366   0.823   3.717   1.789  2.1269 -0.2314  1.3910
 9303SOL     OW39367   3.048   3.479   7.210 -0.2332  0.0693 -0.2341
 9303SOL    HW139368   3.122   3.425   7.238  0.1637  0.9322  0.3804
 9303SOL    HW239369   2.982   3.410   7.197  1.0186 -1.1484 -0.0753
 9304SOL     OW39370   4.139   2.800  10.182  0.5498 -0.1453  0.7675
 9304SOL    HW139371   4.075   2.827  10.116  1.4509  1.2491  0.4507
 9304SOL    HW239372   4.125   2.872  10.244 -2.3543 -2.0801  2.3376
 9305SOL     OW39373   2.923   3.233   5.939  0.5627 -0.4550  0.0666
 9305SOL    HW139374   3.007   3.264   5.972 -0.0628 -0.3417  1.5842
 9305SOL    HW239375   2.892   3.180   6.013 -1.9043  1.3792  0.3397
 9306SOL     OW39376   2.582   2.109   3.677 -0.7860  0.0462  0.1692
 9306SOL    HW139377   2.568   2.196   3.713 -1.5021 -0.4679  1.1468
 9306SOL    HW239378   2.676   2.107   3.659 -0.7218  1.0671  0.4171
 9307SOL     OW39379   2.518   2.495   2.276  0.1909  0.1689 -0.6864
 9307SOL    HW139380   2.486   2.567   2.221  2.0183  0.5062 -1.3033
 9307SOL    HW239381   2.511   2.420   2.217  0.4164  0.5266 -1.1698
 9308SOL     OW39382   0.340   4.220   8.650 -0.0386  0.4096  0.2511
 9308SOL    HW139383   0.325   4.141   8.702 -2.0155  0.0694 -0.8442
 9308SOL    HW239384   0.434   4.240   8.656 -0.0359  0.0484  1.4137
 9309SOL     OW39385   1.910   4.202   5.829 -0.2144 -0.2006  0.4964
 9309SOL    HW139386   1.816   4.211   5.812 -0.4641  0.0337  1.9690
 9309SOL    HW239387   1.929   4.257   5.906  0.1468  3.7529 -2.4566
 9310SOL     OW39388   2.485   0.351  16.179 -0.2853  0.1173  0.4932
 9310SOL    HW139389   2.527   0.411  16.240  3.5692 -0.5042 -1.5418
 9310SOL    HW239390   2.406   0.398  16.155  0.3097  0.8990  0.0724
 9311SOL     OW39391   0.797   3.147   4.264  0.2981  0.5899  0.1630
 9311SOL    HW139392   0.720   3.145   4.321  0.2654  1.2120  0.1372
 9311SOL    HW239393   0.853   3.207   4.313 -2.3492  1.9408  1.5071
 9312SOL     OW39394   0.430   2.060   1.747  0.0007 -0.2204 -0.3380
 9312SOL    HW139395   0.439   2.097   1.835  0.8194  1.7834 -1.2709
 9312SOL    HW239396   0.462   2.134   1.696  0.5663 -1.9332 -2.4376
 9313SOL     OW39397   3.568   3.507   3.117 -0.4759 -0.2140  0.1298
 9313SOL    HW139398   3.516   3.531   3.040 -0.1373  0.5964  0.1655
 9313SOL    HW239399   3.609   3.426   3.087 -1.5747 -1.6236  2.3881
 9314SOL     OW39400   2.970   1.741   4.732  0.1650 -0.2823  0.2277
 9314SOL    HW139401   3.052   1.706   4.696  0.4958  0.9175 -0.1669
 9314SOL    HW239402   2.969   1.828   4.692  0.5752 -0.6409 -0.5695
 9315SOL     OW39403   2.847   4.486   3.566 -0.4650 -0.3215 -0.0850
 9315SOL    HW139404   2.914   4.552   3.551 -0.4239 -0.2178  0.5322
 9315SOL    HW239405   2.842   4.455   3.476  0.8067  0.0379 -0.2710
 9316SOL     OW39406   0.490   2.928   3.665 -0.3906 -0.1728  0.2901
 9316SOL    HW139407   0.442   2.917   3.747  0.2059 -0.2602  0.6284
 9316SOL    HW239408   0.467   2.852   3.610  1.6938  0.3315 -1.2458
 9317SOL     OW39409   3.030   0.461   0.629  0.1746 -0.3219 -0.1449
 9317SOL    HW139410   2.985   0.422   0.554  0.1110  2.7754 -1.7598
 9317SOL    HW239411   3.116   0.483   0.593  0.6520 -0.4020  0.9524
 9318SOL     OW39412   2.747   1.902   8.916  0.2763  0.1361 -0.5791
 9318SOL    HW139413   2.830   1.910   8.964 -1.0459 -1.4680  1.9033
 9318SOL    HW239414   2.698   1.984   8.923 -0.8423 -0.6743  0.9581
 9319SOL     OW39415   0.774   2.313   8.555 -0.5850  0.0375  0.1883
 9319SOL    HW139416   0.770   2.363   8.473  1.3738 -0.3976 -0.1769
 9319SOL    HW239417   0.713   2.352   8.616 -0.0977 -1.0238  1.3511
 9320SOL     OW39418   2.195   1.829   5.035  0.4476  0.0629 -0.0738
 9320SOL    HW139419   2.243   1.772   5.095  0.6674 -1.7928 -2.0206
 9320SOL    HW239420   2.269   1.890   5.026 -0.3769  1.3987  2.0451
 9321SOL     OW39421   4.505   2.159   6.307 -0.2973 -0.2099 -0.1715
 9321SOL    HW139422   4.575   2.213   6.270  0.4208 -1.4661 -0.6468
 9321SOL    HW239423   4.548   2.073   6.305  1.2925  0.6443 -2.2300
 9322SOL     OW39424   4.364   2.483   5.125 -0.0145  0.1343 -0.1236
 9322SOL    HW139425   4.309   2.527   5.190 -0.5262 -1.7827  0.7455
 9322SOL    HW239426   4.308   2.415   5.088  0.8585  0.2112 -1.5973
 9323SOL     OW39427   2.618   2.214   6.020  0.0227  0.1342 -0.3322
 9323SOL    HW139428   2.687   2.276   5.995  0.3736 -0.3249 -0.5188
 9323SOL    HW239429   2.540   2.251   5.979 -0.6688  0.4296  1.2692
 9324SOL     OW39430   2.068   2.607   7.983  0.4572  0.0187  0.4827
 9324SOL    HW139431   2.102   2.630   7.897 -1.9015 -0.0418 -0.4607
 9324SOL    HW239432   2.103   2.518   7.979 -0.7288 -0.5051  1.6812
 9325SOL     OW39433   1.637   1.617   4.261 -0.2775  0.1988 -0.0334
 9325SOL    HW139434   1.665   1.575   4.180 -1.1638  1.3254 -0.9200
 9325SOL    HW239435   1.713   1.589   4.313 -1.3812 -1.0962  0.8976
 9326SOL     OW39436   2.033   2.285  11.448 -0.0166 -1.0722 -0.0941
 9326SOL    HW139437   2.060   2.353  11.509  1.1548 -0.2420 -1.5234
 9326SOL    HW239438   2.122   2.268  11.415 -0.4795 -0.0443 -1.8948
 9327SOL     OW39439   3.465   4.712   8.622  0.4154 -0.6294  0.2430
 9327SOL    HW139440   3.372   4.692   8.611  0.7086 -0.3368 -2.7500
 9327SOL    HW239441   3.508   4.640   8.576 -0.2646 -1.4990  0.9664
 9328SOL     OW39442   4.583   4.627   5.055  0.2253  0.0861  0.6067
 9328SOL    HW139443   4.634   4.549   5.077  0.0961 -0.2714 -0.3453
 9328SOL    HW239444   4.503   4.609   5.104  0.0760 -0.5586  0.1282
 9329SOL     OW39445   2.599   3.808   9.554 -0.0985 -0.0511  0.5881
 9329SOL    HW139446   2.556   3.742   9.608  1.4927  1.1865  3.3393
 9329SOL    HW239447   2.538   3.881   9.559  0.5946  0.4667  1.6265
 9330SOL     OW39448   3.388   4.393   7.755  0.0994 -0.2272 -0.1280
 9330SOL    HW139449   3.310   4.421   7.803  1.0111 -2.2800  2.5371
 9330SOL    HW239450   3.460   4.378   7.816  1.8374  2.4975 -1.4711
 9331SOL     OW39451   3.526   3.744   6.318 -0.4516 -0.0254  0.6401
 9331SOL    HW139452   3.596   3.699   6.269  0.5662  1.3478  0.8300
 9331SOL    HW239453   3.467   3.674   6.346 -1.1043  0.0570 -0.5098
 9332SOL     OW39454   4.653   4.603   8.090 -0.0826 -0.1706  0.3121
 9332SOL    HW139455   4.620   4.561   8.169  0.0071 -0.5367  0.1558
 9332SOL    HW239456   4.602   4.684   8.090  0.0417 -0.0904  1.3489
 9333SOL     OW39457   3.552   1.207  14.441 -0.3301 -0.1417  0.4952
 9333SOL    HW139458   3.583   1.292  14.409  1.9139 -0.2459  2.4183
 9333SOL    HW239459   3.477   1.197  14.382 -1.2159  0.1349  1.5586
 9334SOL     OW39460   1.488   4.210   7.611 -0.4018 -0.1275 -0.0298
 9334SOL    HW139461   1.416   4.217   7.548 -0.8355  1.1647  0.6172
 9334SOL    HW239462   1.444   4.197   7.694 -0.1898  1.5436  0.3392
 9335SOL     OW39463   1.089   3.934   5.704  0.0054  0.0307 -0.4500
 9335SOL    HW139464   1.002   3.902   5.681 -0.9581  2.3791  0.0464
 9335SOL    HW239465   1.088   3.902   5.795 -1.2930  0.1125 -0.4453
 9336SOL     OW39466   0.175   3.473  12.984 -0.4016 -0.5431  0.0308
 9336SOL    HW139467   0.219   3.409  13.041 -1.5515 -0.9030  0.5250
 9336SOL    HW239468   0.085   3.444  12.998 -0.3292 -0.8948 -0.2216
 9337SOL     OW39469   2.854   0.619   9.974  0.0956 -0.3148  0.2893
 9337SOL    HW139470   2.867   0.661  10.059  1.2783 -0.5461  0.2349
 9337SOL    HW239471   2.909   0.679   9.923 -1.2599  0.3955 -0.3159
 9338SOL     OW39472   3.861   0.987   4.602  0.1773  0.2772 -0.3942
 9338SOL    HW139473   3.890   1.078   4.609 -0.1947  0.5289 -2.1552
 9338SOL    HW239474   3.850   0.966   4.695  0.4545  0.8867 -0.2230
 9339SOL     OW39475   4.109   1.940  15.281  0.0728  0.2992 -0.1919
 9339SOL    HW139476   4.136   2.032  15.282 -2.1902  0.9446  1.4991
 9339SOL    HW239477   4.059   1.946  15.362  3.1512  0.2058  1.7051
 9340SOL     OW39478   3.843   2.292   2.479 -0.1897  0.1833  0.8755
 9340SOL    HW139479   3.816   2.215   2.528 -0.1237 -1.3702 -1.5687
 9340SOL    HW239480   3.757   2.323   2.451 -0.5274 -1.8516 -0.3013
 9341SOL     OW39481   2.345   4.468   0.009 -0.7136 -0.6961 -0.1218
 9341SOL    HW139482   2.399   4.512  17.639 -1.5184  0.4650  0.0001
 9341SOL    HW239483   2.347   4.377  17.675 -1.4193 -0.5173 -0.7321
 9342SOL     OW39484   0.256   3.083   5.480 -0.7394  0.0042  0.4633
 9342SOL    HW139485   0.202   3.109   5.554  1.6186 -0.0002  2.1598
 9342SOL    HW239486   0.332   3.064   5.534  0.3446 -0.9139 -1.3736
 9343SOL     OW39487   2.434   3.277   1.866  0.2852 -0.2077 -0.0565
 9343SOL    HW139488   2.486   3.198   1.851  0.3748  0.1821 -1.7996
 9343SOL    HW239489   2.367   3.237   1.921 -0.3442 -0.7926 -1.2326
 9344SOL     OW39490   0.126   1.306   0.749 -0.3949 -0.2231 -0.1151
 9344SOL    HW139491   0.109   1.380   0.808  0.1657  0.9774 -1.4359
 9344SOL    HW239492   0.042   1.300   0.704  1.0704  0.0767 -2.9070
 9345SOL     OW39493   0.250   3.993   4.890  0.6935  0.3286  0.0185
 9345SOL    HW139494   0.258   4.016   4.797 -1.5981  3.5737  0.6482
 9345SOL    HW239495   0.229   4.079   4.927 -0.2866 -0.2344  0.7565
 9346SOL     OW39496   4.690   0.187   7.544  0.6175 -0.2170 -0.3858
 9346SOL    HW139497   4.630   0.125   7.584 -3.4298  3.5712 -0.6477
 9346SOL    HW239498   0.045   0.180   7.598  0.1160 -1.6055  0.1708
 9347SOL     OW39499   3.382   0.631   4.940  0.5791 -0.1531 -0.3198
 9347SOL    HW139500   3.288   0.652   4.943  0.4728 -0.7067  0.1864
 9347SOL    HW239501   3.385   0.588   4.855  1.7445  2.2664 -1.5186
 9348SOL     OW39502   3.771   0.752   0.605 -0.5277 -0.5026  0.1237
 9348SOL    HW139503   3.787   0.662   0.579  1.7564 -0.3978  1.1240
 9348SOL    HW239504   3.840   0.767   0.670 -1.6286 -1.1373  1.4428
 9349SOL     OW39505   2.562   3.155   0.394 -0.3408 -0.0525 -0.1050
 9349SOL    HW139506   2.533   3.244   0.372  3.4300  1.4589  0.9051
 9349SOL    HW239507   2.478   3.110   0.393  0.8812 -2.3192  0.3851
 9350SOL     OW39508   0.662   2.085   8.773 -0.5194 -0.1227  0.1164
 9350SOL    HW139509   0.681   1.997   8.807 -0.9505 -0.1173  0.3781
 9350SOL    HW239510   0.667   2.143   8.850  0.9211 -1.7760  1.2734
 9351SOL     OW39511   1.162   4.427   5.566  0.3045  0.5619 -0.4407
 9351SOL    HW139512   1.213   4.477   5.629  2.0550 -2.0935  0.2768
 9351SOL    HW239513   1.213   4.456   5.490 -0.8120 -0.7830 -1.7083
 9352SOL     OW39514   4.515   3.617  16.350 -0.4361  0.2570  0.6395
 9352SOL    HW139515   4.456   3.636  16.423 -1.2931 -1.7406  0.4760
 9352SOL    HW239516   4.598   3.588  16.387  1.1932  0.2792 -2.9990
 9353SOL     OW39517   0.553   3.407   6.711 -0.2540  0.4075 -0.6724
 9353SOL    HW139518   0.633   3.414   6.659  1.1865 -1.0808  1.3412
 9353SOL    HW239519   0.481   3.394   6.649 -0.7112 -0.3230  0.0165
 9354SOL     OW39520   4.404   3.025   7.735 -0.1116  0.0208  0.2490
 9354SOL    HW139521   4.448   3.067   7.662 -0.5018  0.2284  0.1294
 9354SOL    HW239522   4.450   2.942   7.737  0.1879  0.1508 -1.1264
 9355SOL     OW39523   1.571   3.238   7.938  0.3403 -0.1531  0.2640
 9355SOL    HW139524   1.630   3.276   7.873  0.2280  3.9748  2.5835
 9355SOL    HW239525   1.501   3.217   7.876  1.9579  0.3647 -1.7179
 9356SOL     OW39526   3.444   4.453   4.956  1.0329  0.8794 -0.0815
 9356SOL    HW139527   3.449   4.502   5.038  1.2307 -2.4090  1.8648
 9356SOL    HW239528   3.475   4.517   4.892  0.7490  1.8296  0.7386
 9357SOL     OW39529   2.103   3.989   3.319  0.1909 -0.0518  0.2837
 9357SOL    HW139530   2.168   4.059   3.320  1.8302 -1.5620  1.3708
 9357SOL    HW239531   2.039   4.030   3.377  1.1252  1.4187  0.2769
 9358SOL     OW39532   0.292   3.927   6.254 -0.2651 -0.3213 -0.1704
 9358SOL    HW139533   0.351   3.937   6.328  0.7548  0.4962 -1.0976
 9358SOL    HW239534   0.221   3.882   6.300 -0.5348  0.5182  0.2218
 9359SOL     OW39535   1.680   0.496   9.721 -0.3212 -0.2166  0.1226
 9359SOL    HW139536   1.714   0.477   9.808 -3.5436 -0.3740  1.3565
 9359SOL    HW239537   1.706   0.588   9.718 -0.2396 -0.2046  1.5829
 9360SOL     OW39538   0.603   2.690   4.989  0.2592 -0.0521  0.0041
 9360SOL    HW139539   0.616   2.643   4.907 -0.5871  2.3964 -1.5433
 9360SOL    HW239540   0.652   2.773   4.990  1.0125 -0.4997  0.5086
 9361SOL     OW39541   0.950   1.642  10.154  0.5082 -0.0670  0.1705
 9361SOL    HW139542   1.014   1.632  10.084 -0.7428 -2.5380 -0.5853
 9361SOL    HW239543   0.955   1.551  10.183 -0.9091 -0.1774  0.0512
 9362SOL     OW39544   3.035   2.240   5.028  0.5342  0.3658  0.0579
 9362SOL    HW139545   3.068   2.326   5.050  0.5121  0.3174  0.2803
 9362SOL    HW239546   2.962   2.256   4.967 -0.3345  0.8326  1.2175
 9363SOL     OW39547   1.132   2.424   2.193 -0.6218 -0.4591 -0.1088
 9363SOL    HW139548   1.182   2.391   2.118  0.0456 -1.8304  0.9442
 9363SOL    HW239549   1.190   2.440   2.268 -2.3875  2.4461  0.6407
 9364SOL     OW39550   4.361   3.690   6.089  0.5098  0.4233  0.2931
 9364SOL    HW139551   4.405   3.669   6.171 -2.1770 -1.0827  1.3036
 9364SOL    HW239552   4.289   3.628   6.097  1.0517 -0.0327  1.6411
 9365SOL     OW39553   0.777   2.214  16.659 -0.9488  0.2464  0.3013
 9365SOL    HW139554   0.761   2.121  16.647 -0.4899  0.3737 -1.3694
 9365SOL    HW239555   0.684   2.236  16.649 -0.8625 -0.2772 -1.7932
 9366SOL     OW39556   2.028   3.986   9.358 -0.6202 -0.0874 -0.3950
 9366SOL    HW139557   2.018   4.081   9.365  2.0207  0.2415 -0.9567
 9366SOL    HW239558   2.049   3.963   9.449  0.7826  0.8551 -0.4893
 9367SOL     OW39559   2.237   1.871   5.938  0.9856 -0.2709  0.3203
 9367SOL    HW139560   2.226   1.779   5.915  0.3183 -0.1324  0.0988
 9367SOL    HW239561   2.149   1.897   5.963  1.5303  0.9915  0.9159
 9368SOL     OW39562   4.553   1.324  15.565 -0.0840 -0.1560  0.6309
 9368SOL    HW139563   4.496   1.381  15.514  2.2813 -0.5236 -2.4105
 9368SOL    HW239564   4.545   1.362  15.653  1.8278  0.7307  0.4348
 9369SOL     OW39565   1.766   3.669   0.674 -0.4942  0.5162  0.1116
 9369SOL    HW139566   1.820   3.747   0.681  0.9079 -0.5044  0.7862
 9369SOL    HW239567   1.756   3.655   0.580  0.0909  1.5313 -0.0991
 9370SOL     OW39568   2.980   0.627   3.531  0.1974 -0.2927 -0.3337
 9370SOL    HW139569   2.916   0.556   3.520 -0.3392  0.3259 -1.2124
 9370SOL    HW239570   3.010   0.636   3.441 -2.3252 -1.4601 -1.2950
 9371SOL     OW39571   4.286   2.817   9.952 -0.7127  0.1204  0.3760
 9371SOL    HW139572   4.327   2.731   9.945  0.3644  0.9457 -3.3805
 9371SOL    HW239573   4.242   2.803  10.036  0.6980 -1.2771  0.8858
 9372SOL     OW39574   1.875   2.686   1.065 -0.1128  0.2852 -0.4348
 9372SOL    HW139575   1.964   2.668   1.095 -0.4801 -0.3637  0.2801
 9372SOL    HW239576   1.893   2.696   0.972 -1.5826 -0.7616 -0.8369
 9373SOL     OW39577   2.210   4.554   1.930  0.1869  0.1887 -0.0728
 9373SOL    HW139578   2.169   4.482   1.978 -0.5949  0.4667 -0.3175
 9373SOL    HW239579   2.129   4.598   1.905 -0.6424 -1.6835 -0.7016
 9374SOL     OW39580   4.125   1.426  12.623  0.2195 -0.5270 -0.0592
 9374SOL    HW139581   4.139   1.333  12.638  0.6428 -0.4437  0.0425
 9374SOL    HW239582   4.205   1.471  12.650 -0.4859  0.3605  0.5399
 9375SOL     OW39583   4.368   2.764  14.763  0.1476 -0.1250 -0.2622
 9375SOL    HW139584   4.343   2.856  14.753 -1.0667 -0.2954  1.2592
 9375SOL    HW239585   4.369   2.743  14.669 -0.6762  0.4407 -0.3925
 9376SOL     OW39586   2.856   1.224   7.382 -0.3225 -0.2546  0.0714
 9376SOL    HW139587   2.874   1.163   7.453  0.5486 -0.1793 -0.0890
 9376SOL    HW239588   2.941   1.258   7.353 -0.1967 -1.4679 -0.9535
 9377SOL     OW39589   2.380   1.546   3.830 -0.7048  0.5021  0.4843
 9377SOL    HW139590   2.424   1.562   3.913  0.3613  0.8360 -0.1368
 9377SOL    HW239591   2.297   1.586   3.854 -0.3245  1.1920  0.6306
 9378SOL     OW39592   0.898   1.578   7.579  0.6773 -0.0575  0.4514
 9378SOL    HW139593   0.893   1.660   7.530 -3.1329  0.3702  1.6027
 9378SOL    HW239594   0.953   1.534   7.515  0.3997  0.8220 -0.3836
 9379SOL     OW39595   3.722   3.171   1.510  0.9654  0.3267 -0.3539
 9379SOL    HW139596   3.694   3.262   1.513 -1.2320 -0.3305 -1.3720
 9379SOL    HW239597   3.640   3.123   1.517  2.2145 -1.6975  0.5397
 9380SOL     OW39598   3.953   0.297  16.465  0.0536  0.3966 -0.1651
 9380SOL    HW139599   4.020   0.361  16.441  0.0518  0.0231 -1.1543
 9380SOL    HW239600   4.008   0.254  16.530  0.5970  2.1729  0.5571
 9381SOL     OW39601   2.094   0.347   3.833  0.6218  0.4181  0.0185
 9381SOL    HW139602   2.088   0.437   3.802  1.7866  1.1610  1.9542
 9381SOL    HW239603   2.034   0.352   3.907  2.2105  0.4941  1.2868
 9382SOL     OW39604   2.270   2.377   3.703 -0.3604 -0.0922  0.7329
 9382SOL    HW139605   2.180   2.410   3.707 -0.6686 -0.9138  0.6618
 9382SOL    HW239606   2.262   2.304   3.641 -1.0062  1.8431 -1.4634
 9383SOL     OW39607   2.442   0.080   5.709  0.2932  0.1408 -0.4601
 9383SOL    HW139608   2.435   0.028   5.629 -3.3368 -0.9599  0.6056
 9383SOL    HW239609   2.349   0.101   5.710  0.2140 -0.2587  0.5977
 9384SOL     OW39610   1.136   1.212   3.626 -0.0268  0.2008  0.2150
 9384SOL    HW139611   1.126   1.140   3.564 -0.4412 -0.6882  1.3169
 9384SOL    HW239612   1.231   1.224   3.623  0.0221 -0.1168  0.4774
 9385SOL     OW39613   0.537   3.119   4.386 -0.4827  0.7573  0.0763
 9385SOL    HW139614   0.446   3.093   4.396 -0.2101  0.0830  0.8135
 9385SOL    HW239615   0.534   3.212   4.363  0.6367  0.0899 -2.7613
 9386SOL     OW39616   4.721   0.507   6.210  0.2118  0.4443 -0.2879
 9386SOL    HW139617   4.713   0.454   6.131  0.6252  0.3990 -0.3001
 9386SOL    HW239618   4.628   0.526   6.218  0.3149  0.6545  0.3991
 9387SOL     OW39619   3.322   2.723  14.361  0.7872  0.0716 -0.1320
 9387SOL    HW139620   3.298   2.803  14.408 -0.1107 -1.6213  2.3477
 9387SOL    HW239621   3.394   2.692  14.415  1.3204  0.2594 -0.7427
 9388SOL     OW39622   3.681   1.284   0.821 -0.1979 -0.4950 -0.1251
 9388SOL    HW139623   3.715   1.195   0.829 -1.5395 -1.0036  0.0346
 9388SOL    HW239624   3.722   1.322   0.744  0.4902 -0.4962  0.2466
 9389SOL     OW39625   2.632   3.331  15.035  0.0262  0.2714 -0.3449
 9389SOL    HW139626   2.565   3.264  15.046 -0.9276  1.2457 -0.1875
 9389SOL    HW239627   2.596   3.387  15.104  0.2114 -1.4086  1.1067
 9390SOL     OW39628   2.114   3.623   4.782  0.5012 -0.1402  0.2162
 9390SOL    HW139629   2.151   3.706   4.751 -1.7310 -0.1571 -2.4863
 9390SOL    HW239630   2.185   3.573   4.822  1.7385  1.6471  0.2491
 9391SOL     OW39631   3.870   2.882   8.372  0.1072  0.6482 -0.5341
 9391SOL    HW139632   3.955   2.861   8.412  0.8581 -0.9801 -3.0244
 9391SOL    HW239633   3.898   2.937   8.299  1.9352 -0.6336 -0.7843
 9392SOL     OW39634   3.277   0.399   6.126 -0.3913 -0.7656 -0.5525
 9392SOL    HW139635   3.278   0.457   6.050  0.1866 -1.3690 -0.9992
 9392SOL    HW239636   3.319   0.464   6.183 -3.0276  0.1392  0.3934
 9393SOL     OW39637   0.802   1.084   2.867  0.4752  0.4448 -0.5445
 9393SOL    HW139638   0.890   1.121   2.864  1.0394 -0.8011  0.7895
 9393SOL    HW239639   0.749   1.154   2.830  0.0832  0.3711 -0.1245
 9394SOL     OW39640   2.052   4.156  17.208 -0.1671 -0.0085 -0.2953
 9394SOL    HW139641   2.018   4.093  17.144  0.4092  1.8613 -2.4321
 9394SOL    HW239642   2.098   4.222  17.157  2.8594  0.8987  3.5935
 9395SOL     OW39643   3.953   4.260  12.397 -0.0617 -0.3385 -0.0392
 9395SOL    HW139644   3.898   4.240  12.473 -0.0286  2.1008  0.6183
 9395SOL    HW239645   3.884   4.251  12.332 -1.0230  1.7514  0.6952
 9396SOL     OW39646   1.436   3.093  15.955  0.6370 -0.3352  0.1680
 9396SOL    HW139647   1.367   3.158  15.962  1.1296 -0.0868  2.4693
 9396SOL    HW239648   1.478   3.119  15.872  0.1399 -1.3179 -0.3919
 9397SOL     OW39649   0.693   4.431   8.293  0.1897  0.3654  0.1421
 9397SOL    HW139650   0.658   4.448   8.205 -0.0924 -0.3064  0.1220
 9397SOL    HW239651   0.612   4.434   8.344  0.7172  1.2033  0.9159
 9398SOL     OW39652   1.173   2.420   0.290 -0.0236  0.0367 -0.1301
 9398SOL    HW139653   1.139   2.477   0.359  3.5091  0.0623  1.6088
 9398SOL    HW239654   1.235   2.374   0.346 -3.5787 -3.1107  1.2051
 9399SOL     OW39655   1.018   3.803   2.302 -0.2551  0.1479 -0.1572
 9399SOL    HW139656   0.985   3.776   2.216 -0.0614  0.5636 -0.3602
 9399SOL    HW239657   0.994   3.731   2.361  0.8502 -0.2816 -0.2204
 9400SOL     OW39658   2.165   3.589   3.133 -0.0333 -1.2398  0.2782
 9400SOL    HW139659   2.175   3.674   3.089 -0.0550 -0.8973  0.9372
 9400SOL    HW239660   2.236   3.541   3.092 -0.6491 -1.5514 -0.4346
 9401SOL     OW39661   1.778   0.633   1.387  0.0666 -0.1219  0.5097
 9401SOL    HW139662   1.775   0.605   1.296 -0.3989 -2.5517  1.2634
 9401SOL    HW239663   1.692   0.597   1.411 -2.0359  2.7799 -2.8287
 9402SOL     OW39664   0.417   2.261  13.949  0.0414 -0.2742  0.4297
 9402SOL    HW139665   0.410   2.356  13.945 -1.6833 -0.3769  1.2489
 9402SOL    HW239666   0.338   2.236  13.900 -2.3868  1.4735  3.5001
 9403SOL     OW39667   0.878   2.295   6.083 -0.0764  0.4948 -0.3188
 9403SOL    HW139668   0.966   2.259   6.083 -0.2093  0.1550  1.4017
 9403SOL    HW239669   0.834   2.251   6.156 -1.0427  1.9115 -0.0417
 9404SOL     OW39670   0.006   1.384  13.331  0.2515 -0.1213  0.5041
 9404SOL    HW139671   4.680   1.345  13.259  1.5633 -1.6822  0.4332
 9404SOL    HW239672   4.673   1.360  13.404  0.2873  1.5435  1.0681
 9405SOL     OW39673   2.244   1.587   7.518  0.0551 -0.2366  0.6486
 9405SOL    HW139674   2.313   1.637   7.474  1.5516 -0.1478  3.0952
 9405SOL    HW239675   2.169   1.620   7.469 -1.2191 -1.3717  1.8209
 9406SOL     OW39676   1.006   4.286  11.929  0.0733  0.1960  0.4548
 9406SOL    HW139677   0.980   4.310  12.018  1.2468  1.5844  0.4167
 9406SOL    HW239678   1.002   4.191  11.936 -1.4864  0.1295 -1.5320
 9407SOL     OW39679   3.942   2.729   9.128  0.3917  0.3143  0.0260
 9407SOL    HW139680   3.893   2.736   9.210  1.0667  1.4074  0.3376
 9407SOL    HW239681   3.993   2.649   9.141 -0.9253 -0.5293 -0.0415
 9408SOL     OW39682   0.584   4.533  12.503  0.1690  0.3436  0.7337
 9408SOL    HW139683   0.615   4.463  12.561  0.8422 -0.3942 -0.5092
 9408SOL    HW239684   0.651   4.600  12.521 -0.3264  0.9378  0.3576
 9409SOL     OW39685   0.086   4.274   4.907  0.0816 -0.2031  0.7890
 9409SOL    HW139686   0.069   4.314   4.992 -2.5437 -1.2100  0.7500
 9409SOL    HW239687   0.182   4.279   4.905 -0.1107  2.2294 -2.5353
 9410SOL     OW39688   1.397   2.872   9.005  0.3189 -1.2315 -0.2618
 9410SOL    HW139689   1.364   2.787   8.977 -1.8187  0.1683 -2.0641
 9410SOL    HW239690   1.414   2.854   9.097  0.5278  0.9686  0.1207
 9411SOL     OW39691   0.163   2.671   4.393 -0.4667  0.0516 -0.1578
 9411SOL    HW139692   0.162   2.697   4.485 -3.6523 -1.5059  0.2610
 9411SOL    HW239693   0.082   2.621   4.389 -3.0620  4.2467 -0.2243
 9412SOL     OW39694   3.148   0.271   4.525  0.5486 -0.4865 -0.5142
 9412SOL    HW139695   3.119   0.184   4.554 -2.6785  1.5344  2.3014
 9412SOL    HW239696   3.243   0.259   4.524  0.8451  1.8372  0.9579
 9413SOL     OW39697   2.712   0.745   6.140  0.0066  0.4259  0.7623
 9413SOL    HW139698   2.661   0.695   6.203 -1.6006 -0.7262 -1.4527
 9413SOL    HW239699   2.660   0.826   6.135 -0.7169 -0.0096  1.1900
 9414SOL     OW39700   1.815   0.308   1.952  0.2061 -0.1299  0.3003
 9414SOL    HW139701   1.806   0.291   1.858  3.1557  0.3427 -0.0822
 9414SOL    HW239702   1.747   0.375   1.960  0.9803  0.7385 -0.2975
 9415SOL     OW39703   2.023   3.839  15.181 -0.0753 -0.0876 -0.1948
 9415SOL    HW139704   2.033   3.897  15.105  0.7601  0.5053  0.3679
 9415SOL    HW239705   2.008   3.752  15.145  0.8242  0.2937 -1.4882
 9416SOL     OW39706   1.947   0.213   6.014  0.2857  0.8721 -0.1940
 9416SOL    HW139707   1.901   0.259   6.084  2.5658  2.9587 -0.0662
 9416SOL    HW239708   1.989   0.146   6.068 -0.2292 -0.3768 -1.3296
 9417SOL     OW39709   0.723   0.308  11.986 -0.0894 -0.0184 -0.8074
 9417SOL    HW139710   0.767   0.267  11.912 -1.6010  0.5797 -2.0262
 9417SOL    HW239711   0.788   0.370  12.019  0.0214 -0.8287  0.5262
 9418SOL     OW39712   1.981   3.273   2.454  0.4041 -0.0159 -0.3121
 9418SOL    HW139713   2.038   3.345   2.426 -2.0870  0.8824 -2.9922
 9418SOL    HW239714   1.901   3.302   2.412 -0.5156 -0.2645  1.2578
 9419SOL     OW39715   2.014   3.747  11.877 -0.0450 -0.1412  0.1373
 9419SOL    HW139716   1.962   3.688  11.823  0.2797  0.7002 -1.0881
 9419SOL    HW239717   1.955   3.737  11.952  0.5583 -1.1438  0.4692
 9420SOL     OW39718   2.648   4.032   3.127 -0.4264  0.2067  0.4745
 9420SOL    HW139719   2.583   4.093   3.162  0.2491  1.5357 -0.6102
 9420SOL    HW239720   2.716   4.095   3.104 -1.0578  1.0955  1.0585
 9421SOL     OW39721   1.597   2.830   8.818  0.0878  0.5083  0.0910
 9421SOL    HW139722   1.528   2.842   8.884 -1.7501 -2.8726 -1.2163
 9421SOL    HW239723   1.652   2.906   8.836 -0.2521  0.9097 -0.5578
 9422SOL     OW39724   3.357   0.944   5.983 -0.5292  0.0237 -0.3006
 9422SOL    HW139725   3.316   0.938   6.069 -0.3150  0.7516 -0.1497
 9422SOL    HW239726   3.314   1.019   5.944 -0.0756 -0.8937 -2.5561
 9423SOL     OW39727   1.278   4.638   1.919 -0.4768 -0.1180  0.7930
 9423SOL    HW139728   1.282   4.602   1.830 -0.1296 -0.1890  0.8367
 9423SOL    HW239729   1.268   4.558   1.971 -0.6778 -0.3846  0.3469
 9424SOL     OW39730   2.748   3.894   5.296 -0.4485 -0.0977  0.4227
 9424SOL    HW139731   2.777   3.892   5.387  0.9280 -0.2882 -0.0190
 9424SOL    HW239732   2.782   3.982   5.277 -1.0861 -0.0974 -0.6746
 9425SOL     OW39733   1.441   1.196   7.879  0.0184  0.3342  0.2237
 9425SOL    HW139734   1.427   1.174   7.972  0.2093  3.7368  1.0506
 9425SOL    HW239735   1.384   1.272   7.865  0.6426  0.7799  0.1144
 9426SOL     OW39736   2.005   2.823   5.782 -0.2526 -0.2970  0.2862
 9426SOL    HW139737   1.946   2.860   5.716 -1.0810 -1.5467  0.3321
 9426SOL    HW239738   1.938   2.810   5.849 -0.9811  1.0276 -0.1837
 9427SOL     OW39739   3.939   1.371   9.641 -0.6096 -0.2714  0.3851
 9427SOL    HW139740   4.029   1.391   9.664 -1.1774  1.3104  1.2609
 9427SOL    HW239741   3.957   1.310   9.569 -1.7243  1.6916 -1.5501
 9428SOL     OW39742   4.685   1.059  10.433  0.1058 -0.5614  0.1014
 9428SOL    HW139743   0.020   1.084  10.362 -0.4030  1.3510  0.3590
 9428SOL    HW239744   4.643   1.143  10.454 -0.4302 -0.8058 -0.0088
 9429SOL     OW39745   0.527   3.141   0.626 -0.2522  0.0618 -0.0566
 9429SOL    HW139746   0.443   3.188   0.629  1.7728  3.6064  0.5545
 9429SOL    HW239747   0.578   3.216   0.598  1.0027 -0.2536  1.3775
 9430SOL     OW39748   1.405   2.612  15.711 -0.2727 -1.0098  0.5609
 9430SOL    HW139749   1.460   2.652  15.779 -1.2141  0.9930  0.1349
 9430SOL    HW239750   1.441   2.662  15.638 -1.4976  0.2968  0.8372
 9431SOL     OW39751   0.364   1.556   9.215 -0.2145  0.0410  0.0173
 9431SOL    HW139752   0.442   1.538   9.162 -2.4043  0.2847 -3.2659
 9431SOL    HW239753   0.395   1.516   9.296 -1.6634  1.5898  1.3219
 9432SOL     OW39754   3.834   0.833   6.102  0.4489  0.2886 -0.1716
 9432SOL    HW139755   3.867   0.887   6.030  0.3294  0.0943 -0.3741
 9432SOL    HW239756   3.825   0.756   6.046 -0.7948 -1.0705  1.8895
 9433SOL     OW39757   0.691   4.258   5.673  0.2163 -0.1353 -0.1674
 9433SOL    HW139758   0.685   4.182   5.615  2.8389 -0.4682 -0.0176
 9433SOL    HW239759   0.764   4.235   5.731  0.0475  0.3287  0.2297
 9434SOL     OW39760   2.274   1.267  17.145  0.1187 -0.3037 -0.4056
 9434SOL    HW139761   2.184   1.246  17.169  0.1689 -0.5434 -0.4352
 9434SOL    HW239762   2.249   1.315  17.066  0.2355 -1.0421 -0.8849
 9435SOL     OW39763   2.031   0.094   5.461  0.1810  0.3357 -0.4838
 9435SOL    HW139764   2.020   0.126   5.371  1.3391  0.4083 -0.5967
 9435SOL    HW239765   1.940   0.070   5.480  1.2193 -1.5734  2.1047
 9436SOL     OW39766   3.930   2.917   4.238 -0.0712 -0.0108  0.1975
 9436SOL    HW139767   3.995   2.846   4.237  0.8795  0.8691 -1.0144
 9436SOL    HW239768   3.889   2.907   4.324 -2.4608  1.2001 -0.8196
 9437SOL     OW39769   1.683   1.293   5.616  0.5823 -0.7534  0.2993
 9437SOL    HW139770   1.737   1.369   5.593  0.4444 -1.2233 -1.6109
 9437SOL    HW239771   1.648   1.314   5.702  1.3057  1.5484  0.0377
 9438SOL     OW39772   1.170   2.706  10.201 -0.2095 -0.0149  0.3750
 9438SOL    HW139773   1.110   2.781  10.206  0.4590  0.4474  1.5330
 9438SOL    HW239774   1.111   2.646  10.156 -3.4947  2.8656  0.7557
 9439SOL     OW39775   3.329   1.554   3.806  0.1352 -0.9238  0.1014
 9439SOL    HW139776   3.397   1.603   3.760 -0.6605  0.7294  0.6691
 9439SOL    HW239777   3.380   1.488   3.853 -0.9741 -2.7620 -1.2627
 9440SOL     OW39778   1.996   3.914   1.974  0.3587  0.0068 -0.1239
 9440SOL    HW139779   1.914   3.873   1.946  0.4738 -1.5335  1.8099
 9440SOL    HW239780   1.954   3.982   2.026 -0.1394  0.4491 -1.0972
 9441SOL     OW39781   4.075   3.404   9.487  0.4541  0.1512 -0.5683
 9441SOL    HW139782   4.064   3.459   9.565  0.5658 -1.9728  0.9548
 9441SOL    HW239783   4.129   3.468   9.440  2.3582 -0.4704  0.7300
 9442SOL     OW39784   1.139   2.366  10.079 -0.0207 -0.1652 -0.1040
 9442SOL    HW139785   1.107   2.290  10.032  0.7269 -0.5302 -0.0192
 9442SOL    HW239786   1.066   2.373  10.140  1.0019  1.2763  0.9545
 9443SOL     OW39787   3.409   3.701   1.005 -0.1365  0.3043 -0.4798
 9443SOL    HW139788   3.397   3.680   1.098  1.1800  0.9230 -0.1672
 9443SOL    HW239789   3.324   3.676   0.968 -1.1642  1.8750  0.7950
 9444SOL     OW39790   0.956   4.707   2.446 -0.2898  0.3357  0.0217
 9444SOL    HW139791   0.984   4.641   2.383 -1.7499  0.3489 -0.6447
 9444SOL    HW239792   0.887   0.025   2.394  0.9848  1.3837 -0.8389
 9445SOL     OW39793   2.073   1.208  14.108 -0.2847  0.0890 -0.1651
 9445SOL    HW139794   2.104   1.226  14.019  0.3768  1.9331  0.4344
 9445SOL    HW239795   2.075   1.294  14.150  0.4362  0.5945 -1.2161
 9446SOL     OW39796   1.097   1.599   2.611 -0.1246 -0.2167 -0.5159
 9446SOL    HW139797   1.184   1.588   2.649 -0.0094  3.4709  0.3017
 9446SOL    HW239798   1.041   1.609   2.688  2.0749 -1.1918  1.2088
 9447SOL     OW39799   3.076   1.912   6.113  0.3873 -0.1402 -0.4710
 9447SOL    HW139800   3.054   1.962   6.192  0.2472 -0.2563 -0.4362
 9447SOL    HW239801   3.159   1.954   6.091  0.9250 -0.0525  1.6618
 9448SOL     OW39802   2.224   1.121  16.402 -0.3504  0.0688 -0.2734
 9448SOL    HW139803   2.317   1.143  16.401 -0.2086 -0.3667  2.9703
 9448SOL    HW239804   2.205   1.073  16.322  1.2245 -0.6640 -0.1874
 9449SOL     OW39805   0.720   1.188   7.397 -0.6753 -0.6087  0.4229
 9449SOL    HW139806   0.706   1.095   7.409  1.5040 -0.8035  1.5478
 9449SOL    HW239807   0.707   1.225   7.484  1.4263  1.5210 -0.1505
 9450SOL     OW39808   2.230   1.079   3.565  0.2516  0.1121  0.1501
 9450SOL    HW139809   2.273   1.136   3.628  0.0750  0.9956 -0.5336
 9450SOL    HW239810   2.197   1.141   3.500 -1.4978 -1.3783 -0.3647
 9451SOL     OW39811   4.477   2.787   9.727  0.4299  0.4641 -0.8602
 9451SOL    HW139812   4.417   2.822   9.793 -1.5766  0.8155 -2.8709
 9451SOL    HW239813   4.415   2.761   9.659  0.3915 -0.5998 -0.4253
 9452SOL     OW39814   3.672   2.392   0.850  0.7652  0.5686  0.3634
 9452SOL    HW139815   3.728   2.438   0.912 -0.0673  0.0198  1.5176
 9452SOL    HW239816   3.586   2.434   0.860 -1.6108 -4.6145  1.6377
 9453SOL     OW39817   1.405   3.730   7.982 -0.3820 -0.3595 -0.3299
 9453SOL    HW139818   1.485   3.780   7.997 -0.7331 -0.2476  1.1828
 9453SOL    HW239819   1.378   3.752   7.893 -0.7193  2.2801  0.4180
 9454SOL     OW39820   4.176   2.741   4.551 -0.5249  0.0704  0.5469
 9454SOL    HW139821   4.168   2.664   4.494  1.6640 -0.2674  0.6833
 9454SOL    HW239822   4.192   2.798   4.476 -2.2568  0.2985  0.3577
 9455SOL     OW39823   1.000   2.106   6.725 -0.4132 -0.1386 -0.0475
 9455SOL    HW139824   1.043   2.075   6.804 -2.2483 -1.3094  0.4750
 9455SOL    HW239825   1.064   2.171   6.695  0.2657 -0.1630  1.3817
 9456SOL     OW39826   2.413   4.554   2.481  0.2302  0.3852  0.0972
 9456SOL    HW139827   2.397   4.589   2.394 -0.1258 -0.2377 -0.0867
 9456SOL    HW239828   2.497   4.515   2.454 -0.8377 -0.3275 -2.1687
 9457SOL     OW39829   0.150   0.955   8.242 -0.1596 -0.4378  0.0414
 9457SOL    HW139830   0.158   0.860   8.247 -0.6012 -0.4310  0.9047
 9457SOL    HW239831   0.057   0.978   8.252 -0.3111 -1.0801  0.1151
 9458SOL     OW39832   4.046   3.401  13.684 -0.7868  0.0505 -0.4924
 9458SOL    HW139833   4.078   3.393  13.774 -2.4593  1.2372  0.2160
 9458SOL    HW239834   4.119   3.365  13.634  0.1978 -1.5667  2.1353
 9459SOL     OW39835   0.833   1.467  12.012 -0.7516  0.3880 -0.2391
 9459SOL    HW139836   0.768   1.422  11.959 -0.8692 -0.9360  1.0105
 9459SOL    HW239837   0.825   1.421  12.096 -1.7194  0.7547 -0.1296
 9460SOL     OW39838   2.586   0.869   6.472 -0.1212 -0.6684 -0.2494
 9460SOL    HW139839   2.559   0.777   6.469 -1.2924 -0.3245 -0.1509
 9460SOL    HW239840   2.670   0.853   6.515 -0.0352 -0.4707 -0.3453
 9461SOL     OW39841   3.317   2.614  15.315 -0.3960  0.0295 -0.4501
 9461SOL    HW139842   3.251   2.674  15.282 -0.1525 -0.2566 -1.4736
 9461SOL    HW239843   3.317   2.550  15.244  0.6354  0.4423 -0.8290
 9462SOL     OW39844   1.837   1.893  17.414 -0.5681 -0.7981 -0.0019
 9462SOL    HW139845   1.851   1.987  17.405  0.0063 -0.9302 -0.4905
 9462SOL    HW239846   1.854   1.883  17.508 -0.4303  1.2794  0.1989
 9463SOL     OW39847   2.714   0.977   4.652  0.0561  0.3450  0.1341
 9463SOL    HW139848   2.719   1.000   4.745  0.1568 -4.1939  1.2403
 9463SOL    HW239849   2.776   0.905   4.653 -0.8747 -0.4319  2.4560
 9464SOL     OW39850   3.134   4.440   7.883 -0.0225  0.2519  0.3508
 9464SOL    HW139851   3.105   4.501   7.951  0.9057  0.1496  0.8463
 9464SOL    HW239852   3.069   4.434   7.814 -1.5618  1.8427  1.6477
 9465SOL     OW39853   4.182   2.089  13.006  0.0939  0.0630 -0.2471
 9465SOL    HW139854   4.141   2.174  12.990 -0.3156 -0.2878 -1.0360
 9465SOL    HW239855   4.127   2.067  13.081  0.8762  1.0574  0.6113
 9466SOL     OW39856   2.674   1.332  10.501  0.4671  0.2064  0.7341
 9466SOL    HW139857   2.695   1.331  10.407 -0.2405  0.0282  0.5777
 9466SOL    HW239858   2.595   1.386  10.498  0.6919  0.4367 -1.3442
 9467SOL     OW39859   1.976   2.198  11.772  0.1765 -0.1871  0.9083
 9467SOL    HW139860   2.012   2.136  11.708 -1.2585 -0.0392 -0.0490
 9467SOL    HW239861   1.969   2.277  11.718 -0.5950  0.1456  1.5052
 9468SOL     OW39862   0.616   2.345  11.050  0.3718 -0.2682 -0.2420
 9468SOL    HW139863   0.523   2.329  11.064  0.6556 -0.4217  1.5399
 9468SOL    HW239864   0.625   2.428  11.097 -2.1465  1.1076 -2.2201
 9469SOL     OW39865   4.591   2.412  16.645  0.8795 -0.0229 -0.6292
 9469SOL    HW139866   4.661   2.432  16.707  0.1324 -0.9669  0.5334
 9469SOL    HW239867   4.511   2.452  16.678 -0.5612 -1.4817 -2.3204
 9470SOL     OW39868   3.922   2.521   3.091  0.5958  0.2100 -0.1013
 9470SOL    HW139869   3.914   2.435   3.051  2.1019 -0.4521  1.0278
 9470SOL    HW239870   3.990   2.507   3.158  0.6012  2.2588  0.3435
 9471SOL     OW39871   3.830   2.504   8.795 -0.2054  0.5587  0.2005
 9471SOL    HW139872   3.810   2.508   8.888 -1.3494  0.2354 -0.0442
 9471SOL    HW239873   3.747   2.473   8.761  0.3178  1.0380 -1.5229
 9472SOL     OW39874   0.267   2.374  15.978  0.6238  0.9833 -0.6490
 9472SOL    HW139875   0.255   2.424  16.059 -1.1016  0.2719 -0.4592
 9472SOL    HW239876   0.210   2.430  15.925  0.1604  2.1355  1.0635
 9473SOL     OW39877   1.835   3.239  11.677  0.2237  0.0956  0.3658
 9473SOL    HW139878   1.846   3.269  11.768 -1.5894  0.1698  0.5615
 9473SOL    HW239879   1.784   3.315  11.650  3.8511  1.7844 -1.6737
 9474SOL     OW39880   3.816   2.699   7.973 -0.2409  0.3098 -0.1376
 9474SOL    HW139881   3.839   2.792   7.971  0.9401 -0.0128 -1.5814
 9474SOL    HW239882   3.721   2.712   7.982  0.0119  1.6639  0.5347
 9475SOL     OW39883   3.881   2.077   1.831  0.3121 -0.1628  0.1545
 9475SOL    HW139884   3.919   2.147   1.779 -0.0374  1.5111  2.1189
 9475SOL    HW239885   3.955   2.037   1.876  0.3457 -0.2629  0.0075
 9476SOL     OW39886   2.472   4.552  15.336  0.0783  0.0802 -0.2716
 9476SOL    HW139887   2.507   4.575  15.422 -1.6128  0.0272  0.4278
 9476SOL    HW239888   2.514   4.470  15.314  0.8652 -0.1933  2.2164
 9477SOL     OW39889   2.509   1.253   4.177  0.3846  0.3373  0.3481
 9477SOL    HW139890   2.537   1.165   4.203  0.5487 -0.1192 -1.3649
 9477SOL    HW239891   2.486   1.234   4.086  0.5333 -1.6220  0.7286
 9478SOL     OW39892   0.577   3.956   5.639 -0.3927  0.1693 -0.1473
 9478SOL    HW139893   0.516   3.891   5.674  0.4365  0.3050  1.5600
 9478SOL    HW239894   0.573   3.940   5.544  0.4247  0.2732 -0.1984
 9479SOL     OW39895   2.087   0.297   7.405 -0.0414  0.5652 -0.1588
 9479SOL    HW139896   2.010   0.326   7.358 -0.2347 -2.2629 -1.5643
 9479SOL    HW239897   2.054   0.222   7.456 -2.0409  1.9322  0.5607
 9480SOL     OW39898   1.121   0.587   7.892  0.0081 -0.0239 -0.0707
 9480SOL    HW139899   1.165   0.561   7.973 -1.1263 -1.2320  0.1475
 9480SOL    HW239900   1.041   0.631   7.922 -1.1663 -1.0496 -1.7449
 9481SOL     OW39901   4.163   2.336  13.598 -0.0090 -0.3956 -0.1002
 9481SOL    HW139902   4.078   2.318  13.559  1.0977  0.6543 -2.9526
 9481SOL    HW239903   4.144   2.420  13.640  0.4212  0.0035 -0.7079
 9482SOL     OW39904   1.945   0.817  13.874 -0.1397  0.0424  0.8515
 9482SOL    HW139905   1.921   0.739  13.823  3.4597 -0.4585 -0.0580
 9482SOL    HW239906   1.914   0.894  13.826 -2.3559 -0.9355  0.7122
 9483SOL     OW39907   1.902   4.273   2.408  0.0904  0.7565 -0.1135
 9483SOL    HW139908   1.988   4.238   2.384 -0.2348  1.2821 -2.1022
 9483SOL    HW239909   1.894   4.327   2.329 -2.9073  1.5947  0.7737
 9484SOL     OW39910   0.027   3.308   6.193 -0.0530  0.4881 -0.3790
 9484SOL    HW139911   4.668   3.330   6.151  0.7369  2.1780 -1.0297
 9484SOL    HW239912   0.002   3.221   6.226  0.6986  1.1755  2.0104
 9485SOL     OW39913   1.716   1.033   5.789  0.1771 -0.4653 -0.9962
 9485SOL    HW139914   1.741   0.984   5.710  2.1360  1.6334 -1.6578
 9485SOL    HW239915   1.786   1.005   5.848  0.8701 -0.5890 -1.8864
 9486SOL     OW39916   1.021   2.328  10.550 -0.4871  0.2601 -0.1836
 9486SOL    HW139917   1.032   2.358  10.460 -1.5889  0.7491 -0.1444
 9486SOL    HW239918   0.933   2.363  10.560  0.1103  2.1295 -1.5194
 9487SOL     OW39919   0.103   0.268  10.831  0.5167  0.5010 -0.4130
 9487SOL    HW139920   0.188   0.304  10.803  0.0808  0.8553 -1.2724
 9487SOL    HW239921   0.062   0.252  10.746  0.6009  0.1627 -0.3902
 9488SOL     OW39922   0.662   1.798   4.805 -0.0073 -0.3495  0.6513
 9488SOL    HW139923   0.662   1.847   4.888 -0.0223  0.4964  0.1538
 9488SOL    HW239924   0.596   1.731   4.824 -0.2897 -0.2088  0.1653
 9489SOL     OW39925   2.200   3.326   5.916  0.5021 -0.0233  0.3006
 9489SOL    HW139926   2.279   3.309   5.864 -0.2172  0.4379 -0.9409
 9489SOL    HW239927   2.172   3.413   5.888  1.7540 -0.6613 -2.9602
 9490SOL     OW39928   4.025   3.642   7.297 -0.3141 -0.0629  0.1283
 9490SOL    HW139929   4.001   3.734   7.290  1.5062  0.5373  1.6132
 9490SOL    HW239930   4.115   3.647   7.330  0.3333 -1.7852 -1.3745
 9491SOL     OW39931   1.990   0.685  15.648 -0.3930  0.0205 -0.2331
 9491SOL    HW139932   1.982   0.710  15.556  0.2898  1.8296  0.2034
 9491SOL    HW239933   1.988   0.590  15.636  1.0472  0.1331 -1.3483
 9492SOL     OW39934   3.607   1.705  13.099  0.5689 -0.0733 -0.0361
 9492SOL    HW139935   3.647   1.790  13.117  0.9980  0.1016 -1.7552
 9492SOL    HW239936   3.673   1.639  13.121  0.6930 -0.8781 -2.7669
 9493SOL     OW39937   3.905   2.735  17.094 -0.0312  0.1654  1.3096
 9493SOL    HW139938   3.998   2.755  17.097 -0.0676  0.6060 -0.5618
 9493SOL    HW239939   3.893   2.678  17.170 -0.4249  2.2776  2.8202
 9494SOL     OW39940   4.379   1.814   8.170 -0.2272  0.4500  0.3858
 9494SOL    HW139941   4.460   1.775   8.200 -0.1840  0.4907  0.3227
 9494SOL    HW239942   4.380   1.769   8.086 -0.1424  1.0476  0.0642
 9495SOL     OW39943   1.705   2.522  10.846  0.5428  0.2732  0.1856
 9495SOL    HW139944   1.628   2.555  10.893  1.1339 -0.0379  1.3702
 9495SOL    HW239945   1.699   2.571  10.764  0.7898 -0.2640 -0.1493
 9496SOL     OW39946   1.683   0.844   7.249 -0.2783  0.9440 -0.3342
 9496SOL    HW139947   1.671   0.847   7.154 -0.4499  0.1864 -0.3399
 9496SOL    HW239948   1.591   0.854   7.271 -0.3116 -1.8730  0.8627
 9497SOL     OW39949   0.498   1.621   4.422  0.1243  0.1466 -0.7011
 9497SOL    HW139950   0.432   1.555   4.440 -0.7016  1.3104  0.5506
 9497SOL    HW239951   0.437   1.694   4.439 -0.2099 -0.0625 -0.9882
 9498SOL     OW39952   2.539   4.251  16.999 -0.6156  0.0205 -0.1671
 9498SOL    HW139953   2.592   4.261  16.919  0.7156 -0.7884  0.6098
 9498SOL    HW239954   2.447   4.232  16.980 -0.1053 -0.8520 -1.8038
 9499SOL     OW39955   3.978   3.041   0.397  0.5156 -0.6291  0.3145
 9499SOL    HW139956   4.034   3.109   0.436 -0.1141  1.2931 -2.1395
 9499SOL    HW239957   3.981   2.976   0.467  0.7116 -0.5834  0.3504
 9500SOL     OW39958   1.219   0.207  17.215 -0.5801 -1.0418 -0.0192
 9500SOL    HW139959   1.226   0.294  17.256 -3.5161  0.0981 -1.9464
 9500SOL    HW239960   1.276   0.210  17.138  1.2646 -0.4438  1.3740
 9501SOL     OW39961   4.198   1.638  11.428 -0.0688  0.2984 -0.1221
 9501SOL    HW139962   4.245   1.586  11.364 -0.5671 -0.0911 -0.1750
 9501SOL    HW239963   4.260   1.682  11.486  1.8641 -0.0652 -1.9144
 9502SOL     OW39964   0.032   2.973   1.778  0.1603 -0.3758 -0.9943
 9502SOL    HW139965   0.112   2.990   1.729  1.3366  1.7214  1.7098
 9502SOL    HW239966   0.037   3.023   1.859 -0.2856 -0.9487 -0.6105
 9503SOL     OW39967   0.391   1.011   9.491 -0.1781 -0.6145 -0.1842
 9503SOL    HW139968   0.330   1.075   9.454 -0.3983 -0.7078  0.0146
 9503SOL    HW239969   0.465   1.063   9.522  1.5999 -1.4039 -3.1897
 9504SOL     OW39970   1.574   2.339   6.839 -0.1469 -0.4198 -0.4645
 9504SOL    HW139971   1.562   2.432   6.859 -1.6461 -0.2394 -2.2554
 9504SOL    HW239972   1.598   2.343   6.747 -0.6346  0.0234 -0.5697
 9505SOL     OW39973   3.986   0.912   8.999  0.5764  0.2412  0.7884
 9505SOL    HW139974   4.054   0.867   9.049  0.4536 -1.0040 -0.1867
 9505SOL    HW239975   3.915   0.849   8.986  0.3810 -0.0011  3.0544
 9506SOL     OW39976   1.616   1.965   6.192  0.1665 -0.1240 -0.4612
 9506SOL    HW139977   1.624   2.019   6.114  0.2809 -0.6884 -0.8370
 9506SOL    HW239978   1.692   1.907   6.183 -0.3967 -0.5862 -2.2215
 9507SOL     OW39979   0.262   3.221  11.919  0.0242 -0.0162 -0.2848
 9507SOL    HW139980   0.296   3.241  11.832 -0.0516  1.8285  0.0933
 9507SOL    HW239981   0.322   3.279  11.966  2.3387 -1.7897 -1.0918
 9508SOL     OW39982   3.949   3.704   1.501 -0.5785  0.4190 -0.2778
 9508SOL    HW139983   3.855   3.705   1.522 -0.2108  0.1110  1.3973
 9508SOL    HW239984   3.967   3.624   1.551 -2.6571  0.7896  1.1037
 9509SOL     OW39985   4.211   4.358  16.520  0.6255  0.6508 -0.4224
 9509SOL    HW139986   4.237   4.272  16.553 -0.6367 -0.2807 -1.8365
 9509SOL    HW239987   4.253   4.368  16.434  0.5086 -2.4321 -0.8374
 9510SOL     OW39988   1.357   0.624   2.132 -0.9371 -0.4854  0.0460
 9510SOL    HW139989   1.410   0.643   2.209 -0.6206  0.8469 -0.4990
 9510SOL    HW239990   1.389   0.541   2.095 -1.0578 -1.0874  1.2947
 9511SOL     OW39991   0.036   3.145   9.306  0.2926  0.1642  0.2371
 9511SOL    HW139992   0.078   3.148   9.392  1.7635  1.8857 -0.5413
 9511SOL    HW239993   4.719   3.231   9.315 -0.5511 -0.0878 -1.1286
 9512SOL     OW39994   3.946   2.623   8.442 -0.2677  0.0832 -0.2519
 9512SOL    HW139995   3.937   2.562   8.368  0.0765  1.0747 -1.1022
 9512SOL    HW239996   3.879   2.690   8.428  0.3815  0.7152 -0.2856
 9513SOL     OW39997   4.647   2.919   4.547  0.6453  0.0839  0.3895
 9513SOL    HW139998   4.686   3.005   4.564  2.3361 -0.1604 -2.3196
 9513SOL    HW239999   4.566   2.926   4.597  0.5184  1.0309  0.0571
 9514SOL     OW40000   1.011   1.423  11.801 -0.4881 -0.8112  0.0116
 9514SOL    HW140001   0.964   1.451  11.879 -0.6144 -2.2585  0.4467
 9514SOL    HW240002   1.072   1.496  11.794 -2.0415  0.6314  1.6570
 9515SOL     OW40003   2.738   0.495   5.377  0.4534  0.4452  0.8710
 9515SOL    HW140004   2.723   0.419   5.320 -0.7554 -0.1054  1.9320
 9515SOL    HW240005   2.670   0.490   5.444  1.2080 -2.8644  1.4187
 9516SOL     OW40006   2.737   1.824   5.148 -0.8988  0.3288  0.1090
 9516SOL    HW140007   2.656   1.773   5.144  0.0257 -1.2385  1.1755
 9516SOL    HW240008   2.715   1.879   5.223 -1.0678 -1.4199  1.3354
 9517SOL     OW40009   3.713   4.234  12.270  0.2543 -0.1118  0.3632
 9517SOL    HW140010   3.650   4.218  12.199 -0.0558  1.1182  0.3494
 9517SOL    HW240011   3.733   4.328  12.262 -1.3867  0.0553 -1.8632
 9518SOL     OW40012   1.646   0.823  16.820  0.1546 -0.2037  0.1864
 9518SOL    HW140013   1.716   0.782  16.870  0.4352  1.1205  0.8843
 9518SOL    HW240014   1.699   0.874  16.758  1.7472 -0.2897  1.4708
 9519SOL     OW40015   0.023   1.725   1.440  0.1154 -0.3885  0.2531
 9519SOL    HW140016   0.030   1.767   1.525 -3.2591 -0.9853  0.8294
 9519SOL    HW240017   4.696   1.794   1.397  0.7341 -0.2326 -0.2276
 9520SOL     OW40018   0.233   4.328   7.530 -0.4461 -0.5741  0.3460
 9520SOL    HW140019   0.317   4.371   7.543 -0.5446 -0.9854  2.4672
 9520SOL    HW240020   0.238   4.258   7.596 -1.8207  0.9559  2.1019
 9521SOL     OW40021   2.527   1.503   6.784  0.0326 -0.3217  0.4342
 9521SOL    HW140022   2.480   1.519   6.866  1.6391  0.7187  1.1490
 9521SOL    HW240023   2.495   1.578   6.733 -0.7590 -2.2197 -1.8766
 9522SOL     OW40024   4.292   2.555   2.404  0.3145  0.1286 -0.3245
 9522SOL    HW140025   4.283   2.622   2.336 -3.3715  0.1696  0.2470
 9522SOL    HW240026   4.210   2.508   2.395  0.8262 -0.1716 -3.3056
 9523SOL     OW40027   3.386   0.079   5.363  0.4868  0.4968  0.2241
 9523SOL    HW140028   3.358   0.046   5.449  0.3933 -1.3807 -0.5170
 9523SOL    HW240029   3.466   0.128   5.381  1.1208 -0.0577 -1.1032
 9524SOL     OW40030   3.448   4.485  12.064  0.5551  0.0864  0.3018
 9524SOL    HW140031   3.521   4.538  12.033 -1.1457  1.2562 -1.6592
 9524SOL    HW240032   3.425   4.433  11.987 -0.9412  2.2333 -0.6755
 9525SOL     OW40033   2.396   3.289   3.511 -0.2209 -0.2446  0.3626
 9525SOL    HW140034   2.364   3.265   3.598 -1.3085  2.4140  0.7024
 9525SOL    HW240035   2.485   3.254   3.522  1.1888  2.0603 -3.5588
 9526SOL     OW40036   1.271   2.553   8.003  0.2694  0.3414  0.5106
 9526SOL    HW140037   1.295   2.623   7.942 -4.0048 -0.1360 -1.7649
 9526SOL    HW240038   1.263   2.609   8.080 -0.7311  2.4976 -1.1585
 9527SOL     OW40039   0.485   2.442   8.621 -0.9226 -0.4090 -0.4280
 9527SOL    HW140040   0.546   2.477   8.686  0.8137  0.1199 -2.3524
 9527SOL    HW240041   0.493   2.507   8.551  1.5995 -0.4056 -0.1375
 9528SOL     OW40042   4.450   3.819   8.146  0.3175  0.4485  0.2821
 9528SOL    HW140043   4.426   3.809   8.238  1.8398 -0.0042  0.6381
 9528SOL    HW240044   4.501   3.899   8.136 -0.2545  0.4650 -2.5542
 9529SOL     OW40045   4.440   3.192  16.300  0.7155  0.1917 -0.1975
 9529SOL    HW140046   4.418   3.250  16.372 -1.7453 -1.2269  0.1975
 9529SOL    HW240047   4.517   3.229  16.256 -0.5703  1.6198 -1.2231
 9530SOL     OW40048   1.880   2.975  16.970 -0.3294  0.1169  0.0382
 9530SOL    HW140049   1.976   2.975  16.977 -0.2821 -0.0252 -0.6048
 9530SOL    HW240050   1.868   2.905  16.906 -1.2911 -1.5395  2.0089
 9531SOL     OW40051   2.543   1.908   1.822  0.4520 -0.3551  0.3509
 9531SOL    HW140052   2.492   1.914   1.741  1.9948 -0.1240 -0.5829
 9531SOL    HW240053   2.630   1.899   1.785  0.0316 -0.8370 -0.5233
 9532SOL     OW40054   2.706   0.491   2.174  0.0573  0.5098  0.0021
 9532SOL    HW140055   2.751   0.536   2.103  1.0161 -2.5452 -1.3301
 9532SOL    HW240056   2.615   0.481   2.146  1.3269 -1.6121 -3.3682
 9533SOL     OW40057   2.616   2.082   4.448 -0.6576  0.2152  0.2347
 9533SOL    HW140058   2.611   2.094   4.543 -0.9245  0.1284  0.2326
 9533SOL    HW240059   2.662   1.998   4.448  0.5476  0.8671  1.7258
 9534SOL     OW40060   1.736   2.241   2.991  0.9099 -0.0829 -0.1073
 9534SOL    HW140061   1.695   2.155   3.003  0.2236 -0.0883 -2.6264
 9534SOL    HW240062   1.809   2.205   2.941  1.5057  0.4283  0.3942
 9535SOL     OW40063   4.451   0.802   1.384 -0.1167 -0.1335 -0.2469
 9535SOL    HW140064   4.518   0.820   1.318  0.3689  0.0637  0.3029
 9535SOL    HW240065   4.503   0.771   1.458 -0.9123 -0.7252  0.0642
 9536SOL     OW40066   0.648   4.144  11.109 -0.4231  0.3099 -0.5182
 9536SOL    HW140067   0.709   4.149  11.035  0.7142 -0.8441  0.3554
 9536SOL    HW240068   0.704   4.098  11.171 -1.5512  0.7041  0.7867
 9537SOL     OW40069   3.677   0.313   8.055 -0.2447  0.1247 -0.1896
 9537SOL    HW140070   3.679   0.246   7.986 -0.8036  2.5238 -2.5300
 9537SOL    HW240071   3.595   0.280   8.092 -0.0016  0.4925  0.6657
 9538SOL     OW40072   0.168   2.354   6.364 -0.6704 -0.2703  0.2248
 9538SOL    HW140073   0.107   2.384   6.431  0.1412  0.4872  0.6253
 9538SOL    HW240074   0.221   2.286   6.406  2.2646  1.8194 -0.0531
 9539SOL     OW40075   1.566   0.809  14.412  0.4090 -0.1422  0.5008
 9539SOL    HW140076   1.487   0.758  14.433 -1.1095  2.0058  0.0126
 9539SOL    HW240077   1.574   0.798  14.317 -1.6925 -1.7150  0.4984
 9540SOL     OW40078   0.553   2.222   5.383 -0.5230  0.0337  0.9217
 9540SOL    HW140079   0.593   2.288   5.440 -0.9005 -1.2372  2.6453
 9540SOL    HW240080   0.516   2.280   5.316  0.3808 -2.2270 -1.5276
 9541SOL     OW40081   3.776   4.154   6.183  0.7408  0.5908  0.2157
 9541SOL    HW140082   3.688   4.116   6.173  1.0108  0.5238 -1.9858
 9541SOL    HW240083   3.834   4.079   6.175 -0.5508 -0.3234 -0.5527
 9542SOL     OW40084   0.832   0.642  12.554 -0.6371  0.6462 -0.1013
 9542SOL    HW140085   0.801   0.592  12.479  1.7540 -2.1403  0.7615
 9542SOL    HW240086   0.874   0.569  12.601 -0.5793  2.5666  2.8480
 9543SOL     OW40087   1.288   0.939   8.874  0.0072 -0.6219  0.2189
 9543SOL    HW140088   1.266   0.847   8.890  0.0452 -0.8671 -1.1579
 9543SOL    HW240089   1.345   0.970   8.945  0.6987 -1.9145  0.2211
 9544SOL     OW40090   4.023   0.928   2.735 -0.3727  0.0042 -0.1923
 9544SOL    HW140091   3.953   0.867   2.714 -0.1754  0.1856 -1.3552
 9544SOL    HW240092   3.971   1.009   2.738 -1.3556 -0.6252 -0.0885
 9545SOL     OW40093   1.745   0.053   0.722  0.4863 -0.2783  0.0780
 9545SOL    HW140094   1.777   0.049   0.812 -0.5959  0.6475  0.5058
 9545SOL    HW240095   1.673   0.114   0.738  0.5122 -0.7262  1.8991
 9546SOL     OW40096   0.219   0.088   7.643  0.0974 -0.1446  0.4931
 9546SOL    HW140097   0.297   0.088   7.698 -0.9152  2.4977  1.9049
 9546SOL    HW240098   0.259   0.093   7.556 -0.6300  2.8031  0.3258
 9547SOL     OW40099   3.577   1.545   4.205  0.0289  0.5328 -0.2087
 9547SOL    HW140100   3.632   1.623   4.210  0.9543 -0.2063  1.1779
 9547SOL    HW240101   3.615   1.485   4.269 -1.3564 -0.1289 -0.0037
 9548SOL     OW40102   1.893   1.836  12.117  0.2490 -0.1780 -0.0680
 9548SOL    HW140103   1.960   1.796  12.062 -0.0417  0.2626 -0.7543
 9548SOL    HW240104   1.860   1.904  12.057 -1.4581 -0.5897  0.3991
 9549SOL     OW40105   1.460   2.234   8.929  0.9372  0.4289 -0.0513
 9549SOL    HW140106   1.366   2.231   8.950  0.6469 -0.8151 -1.5109
 9549SOL    HW240107   1.462   2.231   8.833 -2.0535  1.4411 -0.1449
 9550SOL     OW40108   0.543   1.622   7.645 -0.1907  0.2659  0.3147
 9550SOL    HW140109   0.464   1.629   7.699 -0.6819 -0.5080 -0.2977
 9550SOL    HW240110   0.596   1.674   7.705 -0.2219 -1.4590  1.8481
 9551SOL     OW40111   0.218   2.026  11.147  0.1996 -0.2004  0.1974
 9551SOL    HW140112   0.181   1.963  11.084 -0.0899  1.6174 -1.4616
 9551SOL    HW240113   0.153   2.095  11.135  0.4916  0.2959  1.4891
 9552SOL     OW40114   0.474   0.076   4.254 -0.3269 -0.5808 -0.5602
 9552SOL    HW140115   0.497   0.155   4.205 -1.3818 -0.3097 -0.6249
 9552SOL    HW240116   0.501   0.095   4.344 -2.7178  0.2752 -0.0239
 9553SOL     OW40117   0.822   1.753   7.824  0.4085  0.1808 -0.0914
 9553SOL    HW140118   0.885   1.749   7.895  0.5292  2.0760 -0.0845
 9553SOL    HW240119   0.873   1.693   7.771 -0.0268  0.4639 -0.8289
 9554SOL     OW40120   0.732   1.005   4.821  0.0745  0.1306  0.3605
 9554SOL    HW140121   0.810   1.055   4.796  0.3533 -1.2545 -1.5909
 9554SOL    HW240122   0.686   1.004   4.737  0.4484  0.9918  0.1526
 9555SOL     OW40123   3.132   1.236  12.105 -0.0473 -0.1081 -0.0569
 9555SOL    HW140124   3.223   1.261  12.123 -0.0697  0.2686 -0.4667
 9555SOL    HW240125   3.079   1.295  12.158 -2.4413 -3.6946  1.5319
 9556SOL     OW40126   4.233   4.663   7.867 -0.3614  0.8481  0.1531
 9556SOL    HW140127   4.322   4.633   7.850 -1.2962 -3.5030  2.9576
 9556SOL    HW240128   4.227   4.638   7.959 -0.1400  0.0066 -0.0703
 9557SOL     OW40129   3.194   4.446   4.506  0.4299  0.2553  0.2033
 9557SOL    HW140130   3.141   4.498   4.446 -1.6499 -1.5852  0.4197
 9557SOL    HW240131   3.126   4.401   4.557 -0.4848  1.8232  0.3550
 9558SOL     OW40132   1.032   4.349  12.556 -0.2706 -0.1648  0.1259
 9558SOL    HW140133   1.043   4.417  12.490  4.8599 -1.4378 -0.3326
 9558SOL    HW240134   1.107   4.290  12.550 -0.2620 -0.2713  1.2048
 9559SOL     OW40135   2.154   1.620   4.801 -0.6752 -0.0397 -0.1554
 9559SOL    HW140136   2.187   1.684   4.864  2.1227 -1.2678 -0.3679
 9559SOL    HW240137   2.061   1.610   4.821 -0.7006  2.9727  1.1965
 9560SOL     OW40138   0.239   2.560   9.276  0.0811  0.0052 -0.6728
 9560SOL    HW140139   0.181   2.529   9.207 -0.9353 -1.8078  0.9811
 9560SOL    HW240140   0.178   2.605   9.335  1.2687 -0.3735  0.8559
 9561SOL     OW40141   0.392   4.365   7.968  0.9119 -0.2269  0.0869
 9561SOL    HW140142   0.352   4.355   8.055 -0.7420 -3.1050 -0.9932
 9561SOL    HW240143   0.311   4.392   7.926  0.9057  1.8682  1.4254
 9562SOL     OW40144   0.215   2.538   2.700  0.3232 -0.0702 -0.0979
 9562SOL    HW140145   0.168   2.581   2.771  3.9995  0.9183  1.7360
 9562SOL    HW240146   0.192   2.602   2.633 -0.9846 -1.3087 -0.8143
 9563SOL     OW40147   0.983   1.930   4.596  0.8046  0.2001 -0.3086
 9563SOL    HW140148   0.983   1.842   4.633 -2.3882  0.5617  0.5686
 9563SOL    HW240149   0.888   1.945   4.592  0.9864  1.4597 -0.0949
 9564SOL     OW40150   4.292   1.372  13.587 -0.0603  0.4273 -0.0198
 9564SOL    HW140151   4.219   1.409  13.537 -1.7395 -1.0098  1.3157
 9564SOL    HW240152   4.270   1.395  13.677 -0.0292  1.3774 -0.2587
 9565SOL     OW40153   1.156   0.688   4.436 -0.0853 -0.3205  0.1899
 9565SOL    HW140154   1.138   0.601   4.472 -0.8744 -0.7234 -1.1915
 9565SOL    HW240155   1.250   0.687   4.458  0.1961 -1.5059 -1.0715
   4.72352   4.72352  17.69585
